Membrane in water
40344
    1TMC1    C1    1   0.966   2.169  11.007  0.2417  0.3161 -0.7169
    1TMC1    C2    2   0.856   2.236  10.967 -0.3283  0.0731  0.1208
    1TMC1    C3    3   0.870   2.346  10.890 -0.2277 -0.1014 -0.1468
    1TMC1    C4    4   1.086   2.226  10.989  0.3022 -0.6501  0.4764
    1TMC1    C5    5   1.100   2.345  10.920 -0.5633  0.2448  0.3790
    1TMC1    C6    6   0.986   2.406  10.871 -0.2653  0.1698 -0.5066
    1TMC1     C    7   0.939   2.054  11.087  0.2016  0.0656 -0.6850
    1TMC1     O    8   0.831   2.047  11.139 -0.0140 -0.2681 -0.6976
    1TMC1     H    9   0.757   2.198  10.991 -0.4075 -0.9667 -1.8929
    1TMC1    H1   10   1.171   2.185  11.043  0.0764 -1.0188  0.5495
    1TMC1    H2   11   0.990   2.511  10.845 -1.2437  0.2305 -0.4052
    1TMC1    C7   12   1.224   2.414  10.949  1.0556 -0.2274  0.4651
    1TMC1    C8   13   0.740   2.413  10.859 -0.0605  0.5519 -0.0526
    1TMC1    O1   14   1.303   2.382  11.038 -0.1358 -0.4535  0.3690
    1TMC1    O2   15   0.633   2.365  10.904  0.0372  0.4234 -0.0903
    1TMC1    O3   16   1.251   2.507  10.860  0.0358 -0.4709  0.1233
    1TMC1    H3   17   1.191   2.526  10.785 -0.0844  0.8051  0.5382
    1TMC1    O5   18   0.750   2.544  10.839  0.1777  0.1168  0.1772
    1TMC1    H5   19   0.832   2.568  10.792  0.6454 -1.4263  0.1894
    2MPD2     C   20   1.005   1.552  11.208  0.0435  0.5373 -0.5128
    2MPD2    C1   21   0.894   1.630  11.235  0.0657 -0.1725  0.3791
    2MPD2    C2   22   0.909   1.758  11.193 -0.1979  0.5465 -0.5407
    2MPD2    C3   23   1.025   1.815  11.137  0.7040 -0.0562  0.3873
    2MPD2    C4   24   1.131   1.735  11.122 -0.0972  0.4129  0.1954
    2MPD2    C5   25   1.125   1.598  11.157  0.3820 -0.5062  0.1551
    2MPD2     H   26   0.821   1.822  11.190 -0.4643  0.1403 -1.3252
    2MPD2    H1   27   1.225   1.775  11.086  0.2972 -1.8374 -1.2669
    2MPD2    H2   28   1.008   1.445  11.229  0.9227  0.4885 -0.8696
    2MPD2    H3   29   1.216   1.538  11.151  1.3975  0.7556  2.9476
    2MPD2     N   30   1.031   1.947  11.081 -0.0549 -0.5820  0.5846
    2MPD2    H5   31   1.111   1.978  11.027 -1.1606  1.2464 -0.0135
    2MPD2    N1   32   0.779   1.590  11.300  0.3910  0.1316 -0.3289
    2MPD2    H7   33   0.695   1.647  11.301  0.3025  0.0299 -1.9168
    3TMC1    C1   34   0.114   2.649  10.347 -0.0606 -0.1587  0.3350
    3TMC1    C2   35   0.087   2.771  10.293 -0.2071  0.1795 -0.2905
    3TMC1    C3   36   0.178   2.824  10.212 -0.6184  0.0563  0.5207
    3TMC1    C4   37   0.238   2.583  10.325 -0.0284 -0.0557  0.2346
    3TMC1    C5   38   0.326   2.646  10.241  0.2099 -0.0101  0.4375
    3TMC1    C6   39   0.302   2.769  10.185 -0.0054  0.0943  0.0491
    3TMC1     C   40   0.008   2.564  10.393  0.1798 -0.4930 -0.6234
    3TMC1     O   41   0.029   2.447  10.382 -0.5321  0.1776 -0.1434
    3TMC1     H   42   4.736   2.823  10.315 -1.0571 -1.0475 -0.8611
    3TMC1    H1   43   0.287   2.494  10.362 -0.8644  0.1786  1.9031
    3TMC1    H2   44   0.356   2.798  10.096 -2.1980  1.8049 -0.7151
    3TMC1    C7   45   0.415   2.570  10.165 -0.2666  0.3665 -0.4611
    3TMC1    C8   46   0.143   2.941  10.139  0.4308  0.3817  0.2618
    3TMC1    O1   47   0.406   2.446  10.157 -0.2241  0.3541 -0.4640
    3TMC1    O2   48   0.212   3.043  10.123 -0.4201 -0.3493  0.0551
    3TMC1    O3   49   0.531   2.637  10.173  0.2161 -0.4650 -0.3595
    3TMC1    H3   50   0.526   2.731  10.198 -0.5740 -1.0330  1.5975
    3TMC1    O5   51   0.012   2.940  10.109  0.3273  0.0254  0.0114
    3TMC1    H5   52   4.713   2.852  10.089 -0.7817  0.9412 -1.8138
    4MPD2     C   53   4.327   2.482  10.687 -0.3559  1.0715 -0.2006
    4MPD2    C1   54   4.349   2.614  10.664  0.8124  0.3213 -0.5055
    4MPD2    C2   55   4.460   2.661  10.594 -0.4701  0.3704 -0.2207
    4MPD2    C3   56   4.543   2.572  10.535 -0.3618 -0.9076  0.3607
    4MPD2    C4   57   4.527   2.437  10.563 -0.7846 -0.4006  0.1545
    4MPD2    C5   58   4.418   2.389  10.635 -0.8475 -0.4166 -0.3231
    4MPD2     H   59   4.475   2.768  10.582  2.5148  0.0100  0.3088
    4MPD2    H1   60   4.591   2.354  10.536  1.9185  1.6493  0.2497
    4MPD2    H2   61   4.247   2.443  10.749 -1.4059  1.6406 -1.1852
    4MPD2    H3   62   4.410   2.284  10.659  3.1562 -0.3908  1.0934
    4MPD2     N   63   4.650   2.629  10.459 -0.2333 -0.1375  0.3304
    4MPD2    H5   64   4.664   2.729  10.467  0.2118 -0.1329 -0.5393
    4MPD2    N1   65   4.273   2.712  10.727  0.3139  0.1808  0.4180
    4MPD2    H7   66   4.307   2.807  10.730 -0.7634  0.5620  0.6404
    5TCq1    O1   67   0.922   4.032  12.201  0.2076  0.8335  0.0822
    5TCq1    C1   68   0.940   4.055  12.069 -0.4504  0.3712 -0.1041
    5TCq1    O2   69   1.005   3.985  11.994 -0.0590 -0.0680  0.5191
    5TCq1    C2   70   0.863   4.173  12.029  0.0590  0.1249  0.4272
    5TCq1    C3   71   0.869   4.285  12.110  0.0437 -0.0906  0.2216
    5TCq1    C4   72   0.821   4.403  12.056 -0.1812  0.2660 -0.6681
    5TCq1    C5   73   0.785   4.410  11.926 -0.3648  0.1735  0.0892
    5TCq1    C6   74   0.786   4.300  11.847  0.3295  0.2519 -0.1212
    5TCq1    C7   75   0.818   4.177  11.898 -0.3541  0.0068 -0.4638
    5TCq1    C8   76   0.763   4.306  11.702 -0.3655 -0.3397  0.2919
    5TCq1    O4   77   0.745   4.199  11.643 -0.0562 -0.6083  0.0689
    5TCq1    C9   78   0.839   4.522  12.137  0.2666 -0.0419 -0.9066
    5TCq1    O5   79   0.840   4.634  12.074 -0.1241 -0.0373  0.7558
    5TCq1    O6   80   0.831   4.517  12.265 -0.0405 -0.2377  0.0097
    5TCq1    H1   81   0.872   4.107  12.242  0.8782  0.3821  1.7117
    5TCq1    H2   82   0.897   4.284  12.214 -0.0643  2.0478  0.2717
    5TCq1    H3   83   0.753   4.507  11.890 -1.6874 -0.1105  0.4955
    5TCq1    H4   84   0.801   4.087  11.840  1.5205 -0.5589 -0.1038
    6MPD2     C   85   0.764   4.591  11.487  0.0799  0.1738  0.2511
    6MPD2    C1   86   0.772   4.461  11.515 -0.3758  0.1430 -0.7002
    6MPD2    C2   87   0.772   4.369  11.410  0.5474 -0.3637  0.0610
    6MPD2    C3   88   0.757   4.414  11.283  0.3004  0.0769 -0.5364
    6MPD2    C4   89   0.766   4.545  11.254  0.1228  0.0595 -0.1648
    6MPD2    C5   90   0.772   4.639  11.360  0.3219 -0.2600  0.2020
    6MPD2     H   91   0.781   4.261  11.422 -3.6513 -0.7658 -0.3925
    6MPD2    H1   92   0.771   4.583  11.152 -1.5155 -0.0455 -0.2842
    6MPD2    H2   93   0.767   4.656  11.574  1.2144  0.9842 -0.3913
    6MPD2    H3   94   0.790   0.005  11.343  1.0945 -0.6116 -1.1799
    6MPD2     N   95   0.762   4.318  11.175  0.1495  0.6650  0.6894
    6MPD2    H5   96   0.761   4.223  11.209 -1.4219 -0.1482 -1.7039
    6MPD2    N1   97   0.763   4.432  11.650  0.2953 -0.2962  0.3363
    6MPD2    H7   98   0.769   4.509  11.715 -1.6910  0.6795 -0.6656
    7TCq1    O1   99   2.736   4.102  12.944 -0.3737 -0.1705 -0.2376
    7TCq1    C1  100   2.837   4.009  12.939  0.4336 -0.0086 -0.1111
    7TCq1    O2  101   2.823   3.893  12.904  0.8875 -0.7371 -0.1214
    7TCq1    C2  102   2.924   4.040  13.046 -0.4263 -0.9809  0.0655
    7TCq1    C3  103   2.962   4.170  13.058 -0.2923 -0.2071 -0.0101
    7TCq1    C4  104   3.037   4.200  13.166 -0.0109  0.0371  0.5046
    7TCq1    C5  105   3.089   4.098  13.245  0.4105  0.4812 -0.2593
    7TCq1    C6  106   3.055   3.971  13.225 -0.6914  0.3447 -0.1488
    7TCq1    C7  107   2.964   3.937  13.129  0.4309 -0.5319 -0.4985
    7TCq1    C8  108   3.157   3.869  13.265  0.0986 -0.2643  0.7096
    7TCq1    O4  109   3.129   3.752  13.235  0.2192  0.2124  0.0322
    7TCq1    C9  110   3.074   4.334  13.175 -0.3790 -0.1198  0.2194
    7TCq1    O5  111   3.196   4.355  13.206 -0.4813 -0.1439 -0.3779
    7TCq1    O6  112   2.987   4.415  13.135  0.5127 -0.3382  0.0823
    7TCq1    H1  113   2.738   4.152  13.029  0.8598 -1.1895  0.3294
    7TCq1    H2  114   2.951   4.240  12.976 -0.8757 -0.4438 -0.1288
    7TCq1    H3  115   3.157   4.133  13.321 -1.5476 -0.1649  1.7869
    7TCq1    H4  116   2.930   3.837  13.106 -1.1909  0.1663 -1.1727
    8MPD2     C  117   3.559   3.702  13.530 -0.6916  0.2968 -0.5213
    8MPD2    C1  118   3.435   3.644  13.506  0.0277 -0.3008 -0.0459
    8MPD2    C2  119   3.337   3.713  13.428 -0.5453 -0.5809  0.3316
    8MPD2    C3  120   3.369   3.840  13.382 -0.3863  0.5379 -0.1893
    8MPD2    C4  121   3.494   3.899  13.405  0.7699  0.0681 -0.3657
    8MPD2    C5  122   3.585   3.830  13.484  0.2861  0.3720  0.7127
    8MPD2     H  123   3.243   3.669  13.397 -0.8942  0.3708  0.0350
    8MPD2    H1  124   3.523   3.993  13.359  1.9746  1.0109  2.3123
    8MPD2    H2  125   3.627   3.651  13.597  0.0951  2.0604  0.0237
    8MPD2    H3  126   3.686   3.865  13.503  1.2580 -1.7131 -0.5702
    8MPD2     N  127   3.278   3.921  13.309 -0.0095 -0.0605  0.5030
    8MPD2    H5  128   3.305   4.018  13.293 -1.5613  0.3868  0.5655
    8MPD2    N1  129   3.401   3.514  13.551  0.4350 -0.0969  0.0039
    8MPD2    H7  130   3.482   3.472  13.594  1.4725  1.6624 -0.2407
    9TMC1    C1  131   0.593   2.761  10.985 -0.4571 -0.1335  1.1435
    9TMC1    C2  132   0.481   2.700  10.934 -0.2894 -0.9121 -1.3070
    9TMC1    C3  133   0.461   2.713  10.805 -0.2064 -0.3422  0.7331
    9TMC1    C4  134   0.677   2.839  10.907  0.5428 -0.5209 -0.4632
    9TMC1    C5  135   0.643   2.854  10.776  0.2856 -0.6685 -0.9310
    9TMC1    C6  136   0.531   2.797  10.723 -0.6147 -0.0004 -0.2964
    9TMC1     C  137   0.623   2.747  11.120  0.6501 -0.6075 -0.1035
    9TMC1     O  138   0.737   2.783  11.140  0.3463 -0.2286 -0.7063
    9TMC1     H  139   0.431   2.621  10.989  0.9533 -1.7705 -1.4087
    9TMC1    H1  140   0.768   2.882  10.947 -0.6223  1.7632 -0.2721
    9TMC1    H2  141   0.516   2.818  10.618  0.4534 -2.5496 -0.9503
    9TMC1    C7  142   0.700   2.973  10.712  0.1862  0.4675 -0.3015
    9TMC1    C8  143   0.331   2.670  10.753  0.6146 -0.3837 -0.1067
    9TMC1    O1  144   0.636   3.064  10.669  0.0931 -0.3276  0.3358
    9TMC1    O2  145   0.233   2.662  10.826 -0.9434  0.1863 -0.5918
    9TMC1    O3  146   0.820   2.928  10.668  0.2553  0.2739 -0.4421
    9TMC1    H3  147   0.847   2.834  10.679  0.9078  0.3666 -1.2800
    9TMC1    O5  148   0.334   2.667  10.618  0.4110  0.0261 -0.1436
    9TMC1    H5  149   0.424   2.638  10.593  0.7195  2.1679 -1.4818
   10MPD2     C  150   0.617   2.707  11.419 -0.4824  0.2223 -0.0293
   10MPD2    C1  151   0.521   2.671  11.332  0.0826  0.5930  0.5833
   10MPD2    C2  152   0.398   2.627  11.383 -0.7237 -0.1310  0.5838
   10MPD2    C3  153   0.378   2.600  11.516 -0.5029  0.5568  0.6279
   10MPD2    C4  154   0.482   2.631  11.596  0.1798  0.1445 -0.2805
   10MPD2    C5  155   0.594   2.688  11.546  0.1063 -0.0794  0.6624
   10MPD2     H  156   0.323   2.603  11.309  0.3830  0.1100 -0.6189
   10MPD2    H1  157   0.476   2.614  11.702 -1.9076  0.3609 -0.3625
   10MPD2    H2  158   0.706   2.756  11.381  1.6611 -2.9232  0.9654
   10MPD2    H3  159   0.668   2.703  11.624 -0.0526 -1.2833  1.0421
   10MPD2     N  160   0.263   2.543  11.574  0.8040 -0.1030  0.0169
   10MPD2    H5  161   0.264   2.530  11.675  3.2677 -0.4045 -0.0541
   10MPD2    N1  162   0.524   2.692  11.188 -0.1055 -0.3402 -0.5070
   10MPD2    H7  163   0.435   2.680  11.140 -0.3940 -2.5322  0.5459
   11TCq1    O1  164   1.676   2.648  13.796 -0.0753  0.0014  0.1684
   11TCq1    C1  165   1.692   2.555  13.887 -0.5976 -0.4451 -0.6923
   11TCq1    O2  166   1.794   2.527  13.942  0.8052 -0.3832 -0.8447
   11TCq1    C2  167   1.567   2.560  13.957  0.8282 -0.4840  0.5728
   11TCq1    C3  168   1.560   2.633  14.075 -0.1380  0.4908 -0.1755
   11TCq1    C4  169   1.445   2.647  14.138 -0.3248  0.7903 -0.6948
   11TCq1    C5  170   1.330   2.608  14.077  0.0363 -0.6619 -0.0685
   11TCq1    C6  171   1.341   2.530  13.967  0.0728  0.3550 -0.0522
   11TCq1    C7  172   1.458   2.505  13.895  0.0996  0.1986 -0.4196
   11TCq1    C8  173   1.221   2.467  13.919 -0.1855  0.2343  0.5069
   11TCq1    O4  174   1.116   2.529  13.933 -0.4286  0.0135 -1.0022
   11TCq1    C9  175   1.450   2.708  14.269  0.9758 -0.1441  0.0148
   11TCq1    O5  176   1.345   2.754  14.319  0.9537  0.3478  0.6218
   11TCq1    O6  177   1.566   2.719  14.315  0.6680 -0.1607  0.0469
   11TCq1    H1  178   1.587   2.633  13.757 -0.2882  3.5551 -0.7107
   11TCq1    H2  179   1.652   2.678  14.111 -0.6412  1.4128 -0.0489
   11TCq1    H3  180   1.237   2.597  14.132  0.3483  0.0903  0.6065
   11TCq1    H4  181   1.465   2.446  13.804 -1.2916  0.7441 -0.8928
   12MPD2     C  182   1.008   2.297  13.806  0.1463 -0.1743  0.2609
   12MPD2    C1  183   1.142   2.258  13.819  0.4593  0.2951 -0.5967
   12MPD2    C2  184   1.176   2.133  13.779 -0.2235  0.4084  0.0385
   12MPD2    C3  185   1.087   2.048  13.717 -0.2743 -0.3239  0.0649
   12MPD2    C4  186   0.952   2.085  13.710  0.2463 -0.3340  0.3396
   12MPD2    C5  187   0.917   2.209  13.758  0.8172  0.3213  0.1796
   12MPD2     H  188   1.282   2.109  13.774 -1.1274 -3.6640  0.1730
   12MPD2    H1  189   0.869   2.025  13.672 -1.1009  1.5972  0.2574
   12MPD2    H2  190   0.969   2.395  13.834  1.9003 -0.2636  3.0070
   12MPD2    H3  191   0.821   2.253  13.731  0.4782 -0.3316  0.3058
   12MPD2     N  192   1.126   1.916  13.689  0.1070  0.6151  0.2875
   12MPD2    H5  193   1.226   1.898  13.694  0.0519  0.4620  0.7879
   12MPD2    N1  194   1.245   2.338  13.876 -0.3701 -0.2757 -0.3937
   12MPD2    H7  195   1.338   2.299  13.883 -1.0331 -1.9957 -1.1077
   13TCq1    O1  196   1.122   2.356  10.251 -0.2281  0.6699 -0.5655
   13TCq1    C1  197   0.995   2.327  10.231  0.5875  1.1822  0.8501
   13TCq1    O2  198   0.949   2.237  10.158  0.0831 -0.2414  0.0370
   13TCq1    C2  199   0.926   2.365  10.359  0.6825 -0.6101 -0.4203
   13TCq1    C3  200   0.998   2.449  10.439  0.6963  0.2165 -0.1609
   13TCq1    C4  201   0.936   2.540  10.517  0.0945  0.3892  0.4800
   13TCq1    C5  202   0.798   2.557  10.510  0.5350  0.1539  0.2235
   13TCq1    C6  203   0.726   2.475  10.427  0.1252 -0.2968  0.3458
   13TCq1    C7  204   0.793   2.377  10.347  0.0417 -0.0496  0.4661
   13TCq1    C8  205   0.588   2.459  10.469 -0.0741  0.6785 -0.5574
   13TCq1    O4  206   0.551   2.535  10.558  0.1522 -0.6381 -0.0469
   13TCq1    C9  207   1.008   2.612  10.613 -0.8732 -0.0643 -0.1170
   13TCq1    O5  208   1.116   2.562  10.642 -0.1127  0.1696 -0.0033
   13TCq1    O6  209   0.938   2.681  10.692 -0.0935 -1.1623 -0.3538
   13TCq1    H1  210   1.148   2.429  10.310  0.3487  0.0255 -0.0318
   13TCq1    H2  211   1.106   2.445  10.446  0.7309 -1.8183 -1.7196
   13TCq1    H3  212   0.755   2.634  10.573 -2.5259 -0.5593 -0.9951
   13TCq1    H4  213   0.744   2.332  10.261 -3.5654  0.5811  2.1897
   14MPD2     C  214   0.352   2.185  10.404 -0.0174  0.1582 -0.3140
   14MPD2    C1  215   0.409   2.285  10.473 -0.2670 -0.1463 -0.1104
   14MPD2    C2  216   0.342   2.340  10.582 -0.3082  0.3322 -0.4809
   14MPD2    C3  217   0.215   2.286  10.619 -0.4372  0.2471  0.5323
   14MPD2    C4  218   0.169   2.178  10.557  0.2956  0.4356  0.4764
   14MPD2    C5  219   0.239   2.123  10.450 -0.0745  0.3718  0.0606
   14MPD2     H  220   0.365   2.429  10.639  0.7392 -1.5931  2.1254
   14MPD2    H1  221   0.075   2.130  10.583  1.0366 -1.8379 -1.0082
   14MPD2    H2  222   0.399   2.138  10.319  0.4215  0.6124 -0.3215
   14MPD2    H3  223   0.193   2.041  10.397  1.0550 -0.7260  0.7812
   14MPD2     N  224   0.138   2.351  10.714 -0.1693  0.5762 -0.1158
   14MPD2    H5  225   0.162   2.445  10.741 -0.3207  0.5202  0.2230
   14MPD2    N1  226   0.528   2.339  10.424 -0.0251 -0.1197  0.6979
   14MPD2    H7  227   0.573   2.298  10.343 -1.8932 -0.3106 -0.2437
   15TCq1    O1  228   2.101   2.348   1.534 -0.6360  0.6669 -0.0638
   15TCq1    C1  229   2.187   2.326   1.431 -0.2443 -0.2700 -0.4244
   15TCq1    O2  230   2.308   2.310   1.442 -0.2170 -0.0760  0.0161
   15TCq1    C2  231   2.118   2.252   1.324  0.1394  0.0005  0.2533
   15TCq1    C3  232   1.988   2.284   1.280 -0.1837 -0.7428  0.2641
   15TCq1    C4  233   1.928   2.216   1.181  0.0395  0.1441 -0.0759
   15TCq1    C5  234   1.997   2.118   1.118 -0.3988 -0.1689  0.0627
   15TCq1    C6  235   2.128   2.097   1.148 -0.2684 -0.3912 -0.3809
   15TCq1    C7  236   2.185   2.150   1.259 -0.4566  0.0873 -0.3056
   15TCq1    C8  237   2.200   1.992   1.083 -0.3868  0.2931 -0.7088
   15TCq1    O4  238   2.291   1.932   1.136 -0.2847 -0.5579  0.0837
   15TCq1    C9  239   1.797   2.254   1.131  0.1601 -0.3213 -0.0925
   15TCq1    O5  240   1.753   2.368   1.166  0.2769  0.1837  0.6800
   15TCq1    O6  241   1.743   2.177   1.050 -0.0103 -0.3728  0.3319
   15TCq1    H1  242   2.009   2.328   1.505 -0.7304 -1.1835  1.5633
   15TCq1    H2  243   1.936   2.369   1.324 -0.8112 -1.7729  1.5189
   15TCq1    H3  244   1.945   2.064   1.040 -0.9650  1.7196 -0.8699
   15TCq1    H4  245   2.277   2.115   1.305 -0.3620  0.8422  0.0789
   16MPD2     C  246   2.153   1.933   0.724  0.7288  0.3293 -0.1567
   16MPD2    C1  247   2.189   1.907   0.854 -0.0618 -0.0350  0.9540
   16MPD2    C2  248   2.247   1.786   0.891 -0.2253 -0.3588 -0.3305
   16MPD2    C3  249   2.284   1.688   0.789 -0.2856 -0.1242 -0.6185
   16MPD2    C4  250   2.255   1.725   0.655  0.5518  0.4853  0.3108
   16MPD2    C5  251   2.193   1.846   0.625 -0.5677 -0.1348 -0.1530
   16MPD2     H  252   2.257   1.757   0.995  0.7557 -0.8534 -0.5652
   16MPD2    H1  253   2.288   1.658   0.577  0.6594  1.5374 -0.5531
   16MPD2    H2  254   2.102   2.022   0.690  1.6169  1.2014  0.7629
   16MPD2    H3  255   2.162   1.875   0.525  0.6020  0.0576 -0.4554
   16MPD2     N  256   2.350   1.571   0.831  0.2124  0.5678 -0.1591
   16MPD2    H5  257   2.342   1.554   0.931 -0.3822  0.7940 -0.1659
   16MPD2    N1  258   2.163   2.001   0.953 -0.0869 -0.3045  0.2206
   16MPD2    H7  259   2.106   2.083   0.934  0.7307  0.1453 -0.2979
   17TMC1    C1  260   0.525   2.026  10.932 -0.0071  0.4262  0.3240
   17TMC1    C2  261   0.566   1.967  11.056  0.5505 -0.3371  0.1870
   17TMC1    C3  262   0.515   2.024  11.167  1.0649 -0.1438 -0.0069
   17TMC1    C4  263   0.431   2.130  10.935  0.3439 -0.3944 -0.4092
   17TMC1    C5  264   0.401   2.185  11.059  0.1828 -0.1026  0.0301
   17TMC1    C6  265   0.434   2.133  11.177  0.0925  0.2342  0.2616
   17TMC1     C  266   0.597   2.007  10.806 -0.1551  0.6173  0.7541
   17TMC1     O  267   0.547   2.064  10.707  0.4985  0.2020 -0.1509
   17TMC1     H  268   0.637   1.885  11.058  1.4917  0.5171  1.2204
   17TMC1    H1  269   0.408   2.185  10.844 -1.2935  1.4819  1.1482
   17TMC1    H2  270   0.391   2.179  11.265 -1.2240 -0.4295 -0.0314
   17TMC1    C7  271   0.338   2.317  11.056 -0.2298 -0.0066 -0.3875
   17TMC1    C8  272   0.561   1.960  11.285 -0.0106 -0.3005  0.3827
   17TMC1    O1  273   0.257   2.356  11.140  0.8156 -0.0003 -0.6481
   17TMC1    O2  274   0.609   1.844  11.289  0.4111  0.1846 -0.4428
   17TMC1    O3  275   0.385   2.394  10.958  0.7367  0.1023 -0.5362
   17TMC1    H3  276   0.478   2.370  10.939  0.8803  0.4603 -0.2915
   17TMC1    O5  277   0.498   2.022  11.391 -0.0980 -0.0077 -0.0221
   17TMC1    H5  278   0.480   2.118  11.379  0.0070  0.0262  0.0992
   18MPD2     C  279   0.814   2.057  10.609 -0.3680 -0.1823  0.5643
   18MPD2    C1  280   0.831   1.982  10.723 -0.0263 -0.3391  0.6255
   18MPD2    C2  281   0.955   1.922  10.728 -0.2585  0.0136  0.4681
   18MPD2    C3  282   1.050   1.925  10.623  0.3803  0.6733  0.5071
   18MPD2    C4  283   1.019   1.999  10.508  0.1523  1.2143 -0.2734
   18MPD2    C5  284   0.897   2.060  10.503 -0.5680 -0.3151  0.3684
   18MPD2     H  285   0.984   1.873  10.820  0.7189 -1.1849 -0.4716
   18MPD2    H1  286   1.092   2.011  10.428  0.7957 -2.6285 -0.2665
   18MPD2    H2  287   0.721   2.109  10.586  0.1111  0.3525 -0.1530
   18MPD2    H3  288   0.871   2.119  10.416  1.9667  1.4531  0.8406
   18MPD2     N  289   1.170   1.851  10.630  0.7242  0.7896 -0.1070
   18MPD2    H5  290   1.239   1.865  10.557 -0.1004  1.2044 -0.8099
   18MPD2    N1  291   0.731   1.969  10.826  0.3395  0.0748 -0.4216
   18MPD2    H7  292   0.757   1.930  10.916  0.3663 -1.9355 -1.2940
   19TMC2    C1  293   2.710   2.095  13.499  0.4431  0.1912  0.3691
   19TMC2    C2  294   2.700   2.182  13.394 -0.3135  0.2953 -0.1373
   19TMC2    C3  295   2.600   2.276  13.384  0.6279 -0.0559  0.2833
   19TMC2    C4  296   2.614   2.099  13.599 -0.8545  0.2976 -0.2391
   19TMC2    C5  297   2.502   2.184  13.579  0.1651  0.7605  0.3834
   19TMC2    C6  298   2.498   2.275  13.475  0.1655 -0.1481 -0.3622
   19TMC2     C  299   2.827   2.006  13.497 -0.0882  0.1974  0.6432
   19TMC2     O  300   2.898   1.999  13.396  0.3065 -0.4169 -0.4048
   19TMC2     H  301   2.779   2.169  13.321 -2.0250  1.8515 -2.2698
   19TMC2    H1  302   2.613   2.033  13.684  1.8239  1.9662  1.0562
   19TMC2    H2  303   2.420   2.350  13.474  0.3629  0.0654  0.3355
   19TMC2    C7  304   2.406   2.189  13.693 -0.8762 -0.2309 -0.5057
   19TMC2    C8  305   2.600   2.357  13.260 -0.5399 -1.0726  0.1703
   19TMC2    O1  306   2.410   2.095  13.774 -0.1432  0.0950  0.2681
   19TMC2    O2  307   2.696   2.362  13.186 -0.0536 -0.2745 -0.1454
   19TMC2    O5  308   2.468   2.381  13.230  0.5635  0.3192 -0.2442
   19TMC2    H5  309   2.402   2.342  13.291  1.5403 -1.2777 -0.2099
   20MPD2     C  310   3.095   1.890  13.580  0.1148 -0.1888  0.6847
   20MPD2    C1  311   2.981   1.888  13.665  0.2661  0.2284  0.1198
   20MPD2    C2  312   2.992   1.831  13.797  0.0157 -0.5665  0.0896
   20MPD2    C3  313   3.110   1.787  13.843  0.5493  0.0689  0.9546
   20MPD2    C4  314   3.221   1.783  13.762  0.2051 -0.1104  0.4153
   20MPD2    C5  315   3.209   1.837  13.634 -0.2397  0.4103 -0.1912
   20MPD2     H  316   2.901   1.833  13.857  0.7428 -3.4415  1.2952
   20MPD2    H1  317   3.314   1.733  13.787  0.5016 -0.0252 -0.5339
   20MPD2    H2  318   3.094   1.948  13.488  0.4633 -4.7240 -2.2119
   20MPD2    H3  319   3.298   1.850  13.573 -0.5411  1.2564 -0.4612
   20MPD2     N  320   3.135   1.731  13.969 -0.3096 -0.8222 -0.0931
   20MPD2    H5  321   3.234   1.722  13.992  0.5462  0.3245 -3.2904
   20MPD2    N1  322   2.854   1.951  13.626  0.0850 -1.0938  0.5616
   20MPD2    H7  323   2.777   1.941  13.691 -1.6419  2.4913 -0.9571
   21TMC2    C1  324   4.517   2.252  13.726  0.2650  0.0455 -0.0759
   21TMC2    C2  325   4.541   2.124  13.767 -0.1332 -0.3528  0.6271
   21TMC2    C3  326   4.546   2.091  13.894  0.0517 -0.1999 -0.3855
   21TMC2    C4  327   4.474   2.336  13.824  0.1411  0.0206 -0.1285
   21TMC2    C5  328   4.466   2.293  13.951  0.6437  0.4446  0.3083
   21TMC2    C6  329   4.510   2.176  13.991  0.2951 -0.1387 -0.4079
   21TMC2     C  330   4.623   2.302  13.643 -0.2796  0.1403  0.5183
   21TMC2     O  331   4.726   2.242  13.648 -0.5022 -0.6294  0.1509
   21TMC2     H  332   4.547   2.041  13.698 -2.8289  0.7174 -0.8753
   21TMC2    H1  333   4.454   2.438  13.792  1.7878  1.0758  2.2579
   21TMC2    H2  334   4.524   2.162  14.097  1.3521  2.0714 -0.2506
   21TMC2    C7  335   4.492   2.396  14.046 -0.4579  0.1178 -0.1640
   21TMC2    C8  336   4.647   1.993  13.924  0.3649 -0.7744  0.1762
   21TMC2    O1  337   4.578   2.376  14.137 -0.1641 -0.0224  0.3706
   21TMC2    O2  338   4.673   1.973  14.038  0.1850  0.0177 -0.0314
   21TMC2    O5  339   4.738   2.025  13.828  0.1636  0.0492 -0.2308
   21TMC2    H5  340   4.701   2.085  13.760  2.7079  1.9287  0.0181
   22MPD2     C  341   0.153   2.692  13.498 -0.9792 -0.8524 -0.5130
   22MPD2    C1  342   0.172   2.599  13.598  0.1961 -0.0615 -0.5756
   22MPD2    C2  343   0.075   2.506  13.632  0.1755  0.4934 -0.3062
   22MPD2    C3  344   4.699   2.511  13.559  0.2048 -0.2620 -0.1963
   22MPD2    C4  345   4.677   2.604  13.461  0.4475 -0.0175 -0.8766
   22MPD2    C5  346   0.037   2.691  13.429  0.2518  0.4995 -0.3851
   22MPD2     H  347   0.092   2.447  13.722  0.0573  1.6399  0.4663
   22MPD2    H1  348   4.589   2.597  13.398 -0.0967 -1.4418  0.0249
   22MPD2    H2  349   0.229   2.764  13.469 -0.6991 -0.5047  1.0626
   22MPD2    H3  350   0.024   2.764  13.351 -2.7727  0.9049  0.4895
   22MPD2     N  351   4.595   2.424  13.585  0.3688 -0.0827 -0.3433
   22MPD2    H5  352   4.498   2.455  13.577  0.1182 -0.3054  1.9222
   22MPD2    N1  353   0.281   2.616  13.689 -0.2538  0.7800 -0.0027
   22MPD2    H7  354   0.292   2.550  13.765 -0.7845  0.5130 -0.1614
   23TMC2    C1  355   1.153   4.138  14.332  0.5905  0.8476 -0.0207
   23TMC2    C2  356   1.189   4.087  14.210  0.1565  0.5965  0.1445
   23TMC2    C3  357   1.091   4.054  14.124 -0.4934  0.0470 -0.0968
   23TMC2    C4  358   1.026   4.121  14.376  0.3791  0.2436  0.6332
   23TMC2    C5  359   0.932   4.077  14.294  0.1230 -0.1174 -0.0238
   23TMC2    C6  360   0.962   4.049  14.164 -0.3530 -0.3036 -0.0386
   23TMC2     C  361   1.256   4.141  14.434 -0.5053  0.4535 -0.3381
   23TMC2     O  362   1.225   4.119  14.550  0.1988 -0.0819  0.3947
   23TMC2     H  363   1.289   4.095  14.168  0.9943  1.9482  2.3688
   23TMC2    H1  364   1.004   4.140  14.480 -1.4588  0.5503  0.1985
   23TMC2    H2  365   0.884   4.025  14.093  0.0892 -0.0141 -0.6131
   23TMC2    C7  366   0.791   4.055  14.338  0.3244  0.3302  0.1934
   23TMC2    C8  367   1.114   3.947  14.037 -0.1183 -0.4753  0.9690
   23TMC2    O1  368   0.705   4.049  14.249  0.2203 -0.2137 -0.3528
   23TMC2    O2  369   1.031   3.856  14.016 -0.3304  0.1917  0.3949
   23TMC2    O5  370   1.233   3.954  13.976 -0.0816  0.1639 -0.0239
   23TMC2    H5  371   1.265   4.047  13.978  0.2770  0.0143  1.1641
   24MPD2     C  372   1.745   4.176  14.538  0.1668 -0.6825 -0.3694
   24MPD2    C1  373   1.639   4.124  14.612 -0.5215 -0.1869  0.0616
   24MPD2    C2  374   1.511   4.141  14.571 -0.8202 -0.8824 -0.1838
   24MPD2    C3  375   1.486   4.220  14.459  0.3886 -0.1546  0.5608
   24MPD2    C4  376   1.591   4.284  14.394 -0.1527 -0.6230 -0.4879
   24MPD2    C5  377   1.717   4.251  14.431 -0.4262  0.4201  0.5151
   24MPD2     H  378   1.436   4.077  14.617 -0.3224 -1.1840  0.1981
   24MPD2    H1  379   1.581   4.342  14.303 -1.5059 -0.8083 -0.4568
   24MPD2    H2  380   1.846   4.162  14.574  0.5406  2.0137 -0.4043
   24MPD2    H3  381   1.799   4.301  14.380 -0.0938 -0.8074 -0.1471
   24MPD2     N  382   1.365   4.207  14.384 -0.6411 -0.2904  0.0449
   24MPD2    H5  383   1.363   4.261  14.298  1.0041  0.0839  0.2325
   24MPD2    N1  384   1.665   4.036  14.716  0.0888  0.1404 -0.0170
   24MPD2    H7  385   1.594   4.004  14.782 -1.1561  0.9062 -0.9739
   25TMC2    C1  386   0.543   0.361  11.290  0.2424 -0.7406  0.4469
   25TMC2    C2  387   0.576   0.441  11.186 -0.0665  0.2240  0.6303
   25TMC2    C3  388   0.557   0.580  11.204  0.6684  0.0751 -0.5248
   25TMC2    C4  389   0.480   0.409  11.399 -0.8068 -0.2822 -1.1760
   25TMC2    C5  390   0.466   0.543  11.419  0.2865  0.5617  0.0829
   25TMC2    C6  391   0.507   0.631  11.326  1.0460 -0.3231  0.3999
   25TMC2     C  392   0.550   0.219  11.259  0.0226  0.1842 -0.0252
   25TMC2     O  393   0.640   0.179  11.184 -0.0850  0.1508  0.3127
   25TMC2     H  394   0.638   0.404  11.105 -2.0855  0.3254 -0.9549
   25TMC2    H1  395   0.459   0.338  11.478  2.7715 -1.6904 -1.5243
   25TMC2    H2  396   0.503   0.737  11.349 -0.1423 -0.4676  0.8469
   25TMC2    C7  397   0.374   0.586  11.520  0.4728 -0.3324 -0.4751
   25TMC2    C8  398   0.612   0.676  11.111 -0.4055  0.0914  0.0959
   25TMC2    O1  399   0.382   0.532  11.633  0.3255 -0.0930 -0.3420
   25TMC2    O2  400   0.652   0.788  11.148 -0.1571  0.0703  0.1090
   25TMC2    O5  401   0.641   0.613  10.992  0.7195 -0.4165 -0.5046
   25TMC2    H5  402   0.588   0.532  10.971  2.3349 -1.3174 -1.0687
   26MPD2     C  403   0.266   4.576  11.082  0.0121 -0.1375  0.4900
   26MPD2    C1  404   0.200   4.642  11.184  0.9658  0.2825 -0.0629
   26MPD2    C2  405   0.257   0.014  11.240 -0.7044  0.5697  0.1087
   26MPD2    C3  406   0.386   0.042  11.216  0.7165  0.3865 -0.3667
   26MPD2    C4  407   0.463   4.702  11.137  0.4891 -0.3022 -1.1368
   26MPD2    C5  408   0.400   4.611  11.060  0.4852 -0.8236 -0.5003
   26MPD2     H  409   0.212   0.079  11.315 -1.0307  0.0668  0.3521
   26MPD2    H1  410   0.565   4.720  11.104  1.0115  2.4212  1.9573
   26MPD2    H2  411   0.196   4.510  11.031 -0.2711  2.4825 -2.4819
   26MPD2    H3  412   0.466   4.560  10.991 -2.2420 -2.6877 -1.7234
   26MPD2     N  413   0.436   0.156  11.289 -0.4625  0.6563 -0.0960
   26MPD2    H5  414   0.364   0.198  11.346 -1.7001  1.8522 -2.5124
   26MPD2    N1  415   0.068   4.605  11.205  0.3885  0.3496 -0.4283
   26MPD2    H7  416   0.038   4.521  11.155 -0.6466 -0.2778  1.2585
   27TMC2    C1  417   3.273   3.269  11.449 -0.6828  0.0999  0.1652
   27TMC2    C2  418   3.232   3.319  11.327  0.4344 -0.8382 -0.0881
   27TMC2    C3  419   3.323   3.380  11.248  0.1547 -0.0718 -0.3885
   27TMC2    C4  420   3.403   3.289  11.494 -0.8632 -0.7017 -0.0731
   27TMC2    C5  421   3.483   3.376  11.420 -0.0080 -0.2165  0.4026
   27TMC2    C6  422   3.448   3.421  11.299  0.2717  0.1676 -0.1002
   27TMC2     C  423   3.217   3.139  11.475  0.3030  0.1336 -0.4897
   27TMC2     O  424   3.199   3.055  11.387  0.1875 -0.7747  0.2608
   27TMC2     H  425   3.138   3.296  11.279  1.5730 -2.4386 -1.5888
   27TMC2    H1  426   3.445   3.248  11.585  0.8039  0.5338 -0.2720
   27TMC2    H2  427   3.515   3.481  11.239 -0.2276 -0.6774 -1.5271
   27TMC2    C7  428   3.625   3.384  11.457  0.5501 -0.2090  0.0294
   27TMC2    C8  429   3.290   3.440  11.123  0.3315  0.5012  0.4208
   27TMC2    O1  430   3.702   3.409  11.367 -0.3634  0.6644  0.3845
   27TMC2    O2  431   3.181   3.470  11.088  0.4029 -0.2276  0.2973
   27TMC2    O5  432   3.389   3.418  11.040  0.4488  0.0755  0.0660
   27TMC2    H5  433   3.455   3.363  11.087  0.7564 -0.2678 -0.7683
   28MPD2     C  434   3.159   2.776  11.830 -0.5706  0.0235 -0.3999
   28MPD2    C1  435   3.134   2.902  11.888  0.4156  0.2419 -0.2788
   28MPD2    C2  436   3.152   3.016  11.822 -1.1673  0.3011  0.0549
   28MPD2    C3  437   3.184   3.007  11.684 -0.4520  0.1485 -0.4221
   28MPD2    C4  438   3.215   2.885  11.627  0.0985 -0.8321  0.2260
   28MPD2    C5  439   3.210   2.769  11.700 -0.0533  0.5441  0.6785
   28MPD2     H  440   3.120   3.112  11.861  0.5664  0.4547  1.0858
   28MPD2    H1  441   3.245   2.872  11.524  0.4351 -0.0263  0.2253
   28MPD2    H2  442   3.147   2.686  11.889 -2.8906  1.2037  0.9240
   28MPD2    H3  443   3.236   2.671  11.663  0.1640  0.6321  0.5969
   28MPD2     N  444   3.192   3.127  11.609 -0.1410 -0.2352 -0.0583
   28MPD2    H5  445   3.178   3.218  11.651  1.3341  0.8368 -1.9109
   28MPD2    N1  446   3.091   2.899  12.022  0.8487 -0.0850 -0.2382
   28MPD2    H7  447   3.091   2.812  12.073 -1.2275  0.6475  1.0028
   29TMC2    C1  448   3.248   0.877  14.557  0.1237  0.4804 -0.8231
   29TMC2    C2  449   3.199   0.927  14.677  0.4086  0.8805 -0.3637
   29TMC2    C3  450   3.168   1.058  14.680 -0.9652  0.2327  0.5024
   29TMC2    C4  451   3.264   0.958  14.450  0.1960  0.7063 -0.1105
   29TMC2    C5  452   3.244   1.092  14.464 -0.0113 -0.2120 -0.3633
   29TMC2    C6  453   3.177   1.140  14.570 -0.3300 -0.2134  0.0645
   29TMC2     C  454   3.189   0.754  14.506  0.3434 -0.0866 -0.5894
   29TMC2     O  455   3.228   0.648  14.553  0.9269 -0.7143  0.4750
   29TMC2     H  456   3.176   0.864  14.762  0.9473  1.1562 -0.0103
   29TMC2    H1  457   3.309   0.920  14.359 -0.3714 -0.4919  0.1062
   29TMC2    H2  458   3.147   1.244  14.564  0.9821  0.2134  1.0416
   29TMC2    C7  459   3.235   1.158  14.333 -0.0605  0.5847 -0.0164
   29TMC2    C8  460   3.069   1.104  14.781 -0.0068  0.4102  0.0081
   29TMC2    O1  461   3.181   1.091  14.246  0.5105 -0.2400 -0.4461
   29TMC2    O2  462   3.097   1.084  14.896 -0.0196  0.2643 -0.1344
   29TMC2    O5  463   2.965   1.031  14.732 -0.4300 -0.4871 -0.4075
   29TMC2    H5  464   2.970   1.051  14.636  1.1170  0.3267 -0.1464
   30MPD2     C  465   2.871   0.470  14.218 -0.3214  0.2784  0.6346
   30MPD2    C1  466   2.985   0.434  14.281 -0.4059  0.2025 -0.2151
   30MPD2    C2  467   3.062   0.533  14.343 -0.4856 -0.3159  0.2193
   30MPD2    C3  468   3.019   0.665  14.346 -0.3356  0.0756 -1.0464
   30MPD2    C4  469   2.905   0.703  14.282  0.1915  0.4589 -0.4536
   30MPD2    C5  470   2.831   0.607  14.217 -0.5306  0.0385  0.2197
   30MPD2     H  471   3.160   0.497  14.373  0.5155  1.5772 -0.8191
   30MPD2    H1  472   2.885   0.810  14.279 -2.4272 -0.0282 -0.7860
   30MPD2    H2  473   2.800   0.397  14.181 -1.0534  0.6494  1.2943
   30MPD2    H3  474   2.738   0.622  14.164 -0.1680 -2.7732 -1.2353
   30MPD2     N  475   3.088   0.770  14.415 -0.0260  0.0729  0.3120
   30MPD2    H5  476   3.054   0.865  14.405  1.6668  0.9313  2.7554
   30MPD2    N1  477   3.056   0.311  14.263 -0.6141  0.9766  0.8493
   30MPD2    H7  478   3.157   0.307  14.275 -0.4933  1.0380 -0.1254
   31TMC2    C1  479   0.864   0.251  15.227 -0.0904 -0.0012 -0.0133
   31TMC2    C2  480   0.735   0.289  15.202 -0.3766 -0.4062  0.5326
   31TMC2    C3  481   0.633   0.212  15.250  0.1029  0.4038  0.1852
   31TMC2    C4  482   0.887   0.134  15.293 -0.3030 -0.1962 -0.3163
   31TMC2    C5  483   0.778   0.072  15.349  0.2282 -0.7710 -0.8592
   31TMC2    C6  484   0.651   0.102  15.321  0.9205  0.1443 -0.0360
   31TMC2     C  485   0.968   0.331  15.157  0.1832  0.4537 -0.2390
   31TMC2     O  486   0.912   0.412  15.082 -0.2647  0.0588 -0.9176
   31TMC2     H  487   0.711   0.382  15.151  0.1683 -1.0259 -0.8643
   31TMC2    H1  488   0.985   0.114  15.334 -0.7932 -2.1163 -0.0478
   31TMC2    H2  489   0.566   0.039  15.346  0.5780 -0.0617 -1.6862
   31TMC2    C7  490   0.799   4.705  15.445  0.3177  0.0882  0.6395
   31TMC2    C8  491   0.512   0.228  15.173 -0.1122 -0.3926  0.0275
   31TMC2    O1  492   0.909   4.653  15.445  0.3173  0.4569  0.1311
   31TMC2    O2  493   0.408   0.282  15.218  0.1241 -0.0814 -0.4331
   31TMC2    O5  494   0.544   0.202  15.047  0.1751  0.0898 -1.0581
   31TMC2    H5  495   0.632   0.159  15.047  0.0965 -0.0283  2.5637
   32MPD2     C  496   1.420   0.518  15.084 -0.1241  0.1003  0.3547
   32MPD2    C1  497   1.300   0.536  15.015  0.3463  0.4706  0.3710
   32MPD2    C2  498   1.186   0.486  15.069  0.1037 -0.0218 -0.2283
   32MPD2    C3  499   1.197   0.402  15.180 -0.3559 -0.4321  0.5066
   32MPD2    C4  500   1.312   0.380  15.238 -0.6047  0.5577  0.2455
   32MPD2    C5  501   1.427   0.448  15.193  0.1080  0.9935 -0.1191
   32MPD2     H  502   1.087   0.515  15.034  0.7489  1.7152 -0.5783
   32MPD2    H1  503   1.313   0.316  15.325  0.7679  0.9769  0.5287
   32MPD2    H2  504   1.512   0.566  15.050 -0.1544  1.2837  1.9522
   32MPD2    H3  505   1.520   0.439  15.248  0.3640 -1.1116 -0.8831
   32MPD2     N  506   1.091   0.326  15.223  0.0340 -0.5222 -0.8545
   32MPD2    H5  507   1.100   0.263  15.302  0.1256 -1.0968 -1.3206
   32MPD2    N1  508   1.303   0.609  14.893 -0.5856 -0.2487  0.1975
   32MPD2    H7  509   1.377   0.669  14.860 -1.3090  0.3377 -0.3517
   33TMC2    C1  510   1.270   1.990  10.198 -0.0412  0.4206  0.0858
   33TMC2    C2  511   1.162   1.908  10.197  0.9268 -0.0895  0.4664
   33TMC2    C3  512   1.072   1.929  10.095 -0.4762  0.1261  0.6262
   33TMC2    C4  513   1.294   2.091  10.105  0.4256 -0.7425  0.0351
   33TMC2    C5  514   1.194   2.101  10.011 -0.6365  0.1615  0.8028
   33TMC2    C6  515   1.091   2.018  10.003 -0.6285 -0.2151  0.1739
   33TMC2     C  516   1.378   1.954  10.292 -0.1984  0.0522  0.3181
   33TMC2     O  517   1.352   1.892  10.394 -0.1876  0.2962 -0.4175
   33TMC2     H  518   1.143   1.824  10.263  0.3124 -1.4028 -1.3955
   33TMC2    H1  519   1.374   2.164  10.112 -1.0344  0.6290  2.1938
   33TMC2    H2  520   1.016   2.024   9.925  0.3540  2.3428 -0.5907
   33TMC2    C7  521   1.220   2.207   9.917  0.1423  0.0845  0.0728
   33TMC2    C8  522   0.939   1.877  10.118 -0.3598  0.2831  0.5351
   33TMC2    O1  523   1.338   2.237   9.893  0.1934  0.0022  0.5322
   33TMC2    O2  524   0.910   1.762  10.152  0.3451 -0.1982  0.1753
   33TMC2    O5  525   0.862   1.980  10.140 -0.1733  0.4465  0.0251
   33TMC2    H5  526   0.902   2.066  10.117  0.6355 -0.5918 -2.4800
   34MPD2     C  527   1.873   1.888  10.411 -0.0297 -0.0979 -0.0775
   34MPD2    C1  528   1.756   1.884  10.483 -0.0705  0.3909  0.0181
   34MPD2    C2  529   1.631   1.929  10.431 -0.5214  0.5159  0.2878
   34MPD2    C3  530   1.623   1.955  10.296 -0.6869 -0.0021 -0.8485
   34MPD2    C4  531   1.737   1.947  10.221  0.4680 -0.4574 -0.2427
   34MPD2    C5  532   1.856   1.912  10.277 -0.1266  0.3551 -0.1644
   34MPD2     H  533   1.555   1.950  10.505 -0.4986  2.0339 -0.1278
   34MPD2    H1  534   1.741   1.978  10.117 -0.2825 -1.1809 -0.4946
   34MPD2    H2  535   1.965   1.862  10.463 -2.1319 -4.5068  1.4929
   34MPD2    H3  536   1.943   1.924  10.213  0.3702 -1.4732  0.1444
   34MPD2     N  537   1.499   1.982  10.235  0.2638  0.5043 -0.5258
   34MPD2    H5  538   1.499   2.022  10.141 -2.0646 -0.7168 -1.0575
   34MPD2    N1  539   1.773   1.854  10.621 -0.4773  0.4776 -0.2894
   34MPD2    H7  540   1.862   1.857  10.671  0.3133 -2.4214 -1.5456
   35TMC2    C1  541   2.374   3.059  10.813 -0.5723 -0.4187  0.2312
   35TMC2    C2  542   2.347   3.084  10.682  0.6901  0.5266  0.1168
   35TMC2    C3  543   2.278   2.987  10.616  0.0880  0.2527  0.0743
   35TMC2    C4  544   2.345   2.938  10.871 -0.1841 -0.2880  0.1581
   35TMC2    C5  545   2.274   2.844  10.801 -0.3024 -0.2695  0.4324
   35TMC2    C6  546   2.236   2.871  10.670 -0.8619  0.2037  0.1735
   35TMC2     C  547   2.424   3.168  10.888  0.4351  0.4718  0.4550
   35TMC2     O  548   2.515   3.235  10.833 -0.2166  0.0528  0.1632
   35TMC2     H  549   2.341   3.180  10.632  0.5201 -0.2235 -1.2924
   35TMC2    H1  550   2.363   2.930  10.978 -1.7102 -1.6250  0.3073
   35TMC2    H2  551   2.174   2.803  10.612  0.4313 -0.5148 -0.3702
   35TMC2    C7  552   2.202   2.735  10.870 -0.4573 -0.2402  0.6222
   35TMC2    C8  553   2.239   3.022  10.482 -0.3335  0.1915  0.7161
   35TMC2    O1  554   2.112   2.687  10.804 -0.1057 -0.1591  0.2934
   35TMC2    O2  555   2.307   3.085  10.399  0.5051 -0.1948 -0.2113
   35TMC2    O5  556   2.104   3.000  10.484 -0.0882 -0.4202  0.8043
   35TMC2    H5  557   2.065   2.987  10.573 -0.4261  0.0006  0.7201
   36MPD2     C  558   2.556   3.335  11.355 -0.0683  0.6296  0.2967
   36MPD2    C1  559   2.472   3.226  11.373 -0.3231 -0.3550  0.1723
   36MPD2    C2  560   2.413   3.170  11.264 -0.0876 -0.6527 -0.2588
   36MPD2    C3  561   2.446   3.217  11.139 -0.7303 -0.3875 -0.1109
   36MPD2    C4  562   2.526   3.325  11.123  0.9892 -0.8011  0.0122
   36MPD2    C5  563   2.579   3.389  11.229  0.6267  0.4177  0.8632
   36MPD2     H  564   2.347   3.084  11.272  1.4260 -1.7280  0.7442
   36MPD2    H1  565   2.556   3.366  11.027 -0.9995  1.6656  0.4527
   36MPD2    H2  566   2.618   3.383  11.430  1.7546 -0.7693 -0.3471
   36MPD2    H3  567   2.656   3.463  11.211  0.0619 -0.0451 -3.4018
   36MPD2     N  568   2.387   3.156  11.021  0.3355 -0.4438 -0.8604
   36MPD2    H5  569   2.309   3.092  11.029 -0.2821  0.2179 -1.5696
   36MPD2    N1  570   2.459   3.182  11.506 -0.9676  0.2312  0.1185
   36MPD2    H7  571   2.502   3.237  11.580 -0.0515 -0.7251  0.2861
   37TMC2    C1  572   4.716   3.144  12.093  0.3255 -0.1351 -0.3630
   37TMC2    C2  573   4.601   3.066  12.094  0.2947  0.6000 -0.5346
   37TMC2    C3  574   4.558   3.019  11.976  0.9253 -0.0976 -0.8521
   37TMC2    C4  575   0.037   3.195  11.975 -0.1120  0.1454 -0.0267
   37TMC2    C5  576   4.721   3.151  11.856 -0.3234  0.5590 -0.7676
   37TMC2    C6  577   4.611   3.062  11.859  0.7880 -0.1407 -0.1693
   37TMC2     C  578   0.026   3.170  12.230 -0.4096  0.1069 -0.6340
   37TMC2     O  579   4.688   3.146  12.325 -0.3618  0.3470  0.1128
   37TMC2     H  580   4.570   3.029  12.191  1.4119  2.5048  0.5523
   37TMC2    H1  581   0.126   3.257  11.973 -0.8484  1.0949 -2.3935
   37TMC2    H2  582   4.578   3.022  11.764 -1.8014 -0.9534  1.0906
   37TMC2    C7  583   0.040   3.193  11.727 -0.2045 -0.0026 -0.5828
   37TMC2    C8  584   4.465   2.910  11.967  0.1445  0.2593  0.2678
   37TMC2    O1  585   0.152   3.244  11.727 -0.0913  0.9047  0.4489
   37TMC2    O2  586   4.443   2.848  11.863  0.0911  0.0846  0.1211
   37TMC2    O5  587   4.396   2.892  12.083 -0.4728 -0.4235  0.5907
   37TMC2    H5  588   4.417   2.965  12.146  3.5036  0.1986 -1.4656
   38MPD2     C  589   0.391   3.343  12.555 -0.2308 -0.5834 -0.1809
   38MPD2    C1  590   0.443   3.320  12.430 -0.2890  1.2383 -0.3996
   38MPD2    C2  591   0.357   3.274  12.326 -0.4142 -0.4841 -0.0835
   38MPD2    C3  592   0.227   3.251  12.345 -0.5275 -0.9456  0.6891
   38MPD2    C4  593   0.168   3.289  12.467 -0.7363 -0.5129 -0.0185
   38MPD2    C5  594   0.256   3.327  12.572  0.4358 -0.1094 -0.2896
   38MPD2     H  595   0.411   3.253  12.234  0.7251  1.6770  0.0804
   38MPD2    H1  596   0.060   3.285  12.477 -0.9192  1.0155 -1.4400
   38MPD2    H2  597   0.446   3.367  12.646  2.2563 -1.3883 -1.4791
   38MPD2    H3  598   0.212   3.355  12.667 -0.8678  0.5053 -1.0789
   38MPD2     N  599   0.153   3.214  12.235  0.4077  0.2006 -0.3592
   38MPD2    H5  600   0.214   3.201  12.155  0.2673  0.0960 -0.4487
   38MPD2    N1  601   0.579   3.332  12.407  0.2993  0.4439 -0.2582
   38MPD2    H7  602   0.607   3.313  12.312 -1.2659  0.4425 -0.7289
   39TMC2    C1  603   3.262   0.411   1.137 -0.6353 -1.0907  0.0608
   39TMC2    C2  604   3.284   0.297   1.208  0.5977 -0.0727 -0.6541
   39TMC2    C3  605   3.409   0.287   1.264  0.4141 -0.2605  0.0924
   39TMC2    C4  606   3.360   0.499   1.108  0.7449  0.3272 -0.2801
   39TMC2    C5  607   3.486   0.466   1.146 -0.2103 -0.0284  0.3581
   39TMC2    C6  608   3.514   0.364   1.224  0.8417  1.1261 -0.0503
   39TMC2     C  609   3.142   0.426   1.067 -0.8349 -0.0380  0.0729
   39TMC2     O  610   3.096   0.536   1.039 -0.1792 -0.0319  0.3488
   39TMC2     H  611   3.203   0.231   1.238  0.4877 -0.0466 -0.8961
   39TMC2    H1  612   3.351   0.588   1.047  1.4115  0.4685 -0.1674
   39TMC2    H2  613   3.616   0.347   1.256  1.1082  1.5005 -0.6883
   39TMC2    C7  614   3.587   0.574   1.120 -0.1081  0.4510  1.0338
   39TMC2    C8  615   3.438   0.186   1.362  0.6488 -0.1593 -0.8169
   39TMC2    O1  616   3.700   0.539   1.088  0.3655  0.1757  0.5110
   39TMC2    O2  617   3.539   0.118   1.365  0.3644  0.1208 -0.1124
   39TMC2    O5  618   3.313   0.141   1.400 -0.0854 -0.5632  0.2004
   39TMC2    H5  619   3.249   0.211   1.422  0.4094  0.4532 -1.6442
   40MPD2     C  620   2.926   0.150   0.974  0.5533 -0.2467  0.5377
   40MPD2    C1  621   2.963   0.282   0.977 -0.4180  0.0110 -0.5802
   40MPD2    C2  622   2.886   0.372   0.908  0.0951  0.0898  0.1255
   40MPD2    C3  623   2.768   0.335   0.847  0.3992  0.0100 -0.2260
   40MPD2    C4  624   2.730   0.205   0.844 -0.1116  0.1863  0.1873
   40MPD2    C5  625   2.810   0.116   0.914  0.9297 -0.9007  0.5213
   40MPD2     H  626   2.917   0.475   0.895  1.5904 -0.6943 -2.2486
   40MPD2    H1  627   2.630   0.180   0.809  0.8225  1.2546 -3.1944
   40MPD2    H2  628   2.979   0.075   1.031 -1.6275 -0.8705  1.7333
   40MPD2    H3  629   2.777   0.013   0.922 -1.4985 -0.1107  0.6121
   40MPD2     N  630   2.688   0.429   0.778 -0.4334  0.6057 -0.2032
   40MPD2    H5  631   2.611   0.392   0.724 -1.4819  0.6434  1.2465
   40MPD2    N1  632   3.091   0.305   1.038  0.3254  0.5557 -0.4280
   40MPD2    H7  633   3.148   0.226   1.066  1.5736  1.6559  0.1434
   41TMC2    C1  634   2.185   3.222  13.397  0.0053  0.0894 -0.6137
   41TMC2    C2  635   2.224   3.179  13.522 -0.0850  0.5125 -0.3780
   41TMC2    C3  636   2.348   3.211  13.568  0.1156  0.4052  1.1694
   41TMC2    C4  637   2.268   3.280  13.311 -0.1889 -0.3006  0.1321
   41TMC2    C5  638   2.397   3.298  13.356 -0.0975  0.7847  0.0978
   41TMC2    C6  639   2.439   3.271  13.480  0.2062 -0.5079  0.0976
   41TMC2     C  640   2.046   3.255  13.377  0.0538 -0.0028 -0.7964
   41TMC2     O  641   1.993   3.262  13.266 -0.4044 -0.7347  0.1048
   41TMC2     H  642   2.157   3.111  13.574 -0.7451  1.1892 -0.3432
   41TMC2    H1  643   2.233   3.324  13.219 -0.2622  0.7367  0.6540
   41TMC2    H2  644   2.544   3.274  13.507 -0.0286 -1.2650  1.0826
   41TMC2    C7  645   2.493   3.368  13.268 -0.4374  0.1016  0.3144
   41TMC2    C8  646   2.392   3.151  13.697  0.6112  0.4495  0.1823
   41TMC2    O1  647   2.601   3.403  13.313 -0.0398 -0.4911  0.0723
   41TMC2    O2  648   2.346   3.041  13.733  0.2720  0.1720  0.3042
   41TMC2    O5  649   2.504   3.211  13.742  0.5967  0.3453 -0.3100
   41TMC2    H5  650   2.500   3.307  13.721 -0.9205  0.6037  1.1508
   42MPD2     C  651   1.752   3.274  13.440 -0.0424  0.1957  0.1253
   42MPD2    C1  652   1.849   3.291  13.535  0.4522  0.7142  0.2170
   42MPD2    C2  653   1.808   3.330  13.666 -0.2834  0.2369  1.0200
   42MPD2    C3  654   1.679   3.348  13.694 -0.7395 -0.0034  0.0943
   42MPD2    C4  655   1.586   3.335  13.597 -1.0789 -0.1677 -0.0461
   42MPD2    C5  656   1.615   3.297  13.471  0.8395 -0.2576 -0.0858
   42MPD2     H  657   1.892   3.342  13.733  2.4419 -1.6476 -2.0011
   42MPD2    H1  658   1.482   3.358  13.615 -0.7883  0.9960  0.1477
   42MPD2    H2  659   1.766   3.260  13.333 -1.0042 -3.0980  0.4255
   42MPD2    H3  660   1.539   3.295  13.394 -0.9727  1.1550  1.6693
   42MPD2     N  661   1.638   3.382  13.823  0.3781  0.5408 -0.6457
   42MPD2    H5  662   1.537   3.383  13.825  0.4007 -1.3173  1.3332
   42MPD2    N1  663   1.989   3.278  13.505 -0.1434  0.5511  0.6534
   42MPD2    H7  664   2.048   3.279  13.588  0.8478  0.5642 -0.0467
   43TMC2    C1  665   3.248   2.242   0.723  0.2228 -0.3340  0.3143
   43TMC2    C2  666   3.174   2.352   0.701  0.0541  0.2957 -0.2472
   43TMC2    C3  667   3.138   2.423   0.815  0.0599 -0.2491 -0.3087
   43TMC2    C4  668   3.296   2.208   0.845 -0.0656 -0.6017 -0.2115
   43TMC2    C5  669   3.273   2.288   0.955 -0.0154 -0.6117 -0.2949
   43TMC2    C6  670   3.190   2.395   0.943  0.0951  0.3165 -0.0059
   43TMC2     C  671   3.278   2.146   0.617  0.6598 -0.1256  0.3702
   43TMC2     O  672   3.357   2.058   0.635  0.3765 -0.3708  0.0757
   43TMC2     H  673   3.132   2.374   0.604  1.3119  1.0666 -0.6172
   43TMC2    H1  674   3.358   2.120   0.859  0.1347 -0.6607 -1.4944
   43TMC2    H2  675   3.154   2.460   1.023  0.1976 -1.5113  1.5421
   43TMC2    C7  676   3.335   2.250   1.088  0.0360 -0.3239  0.4935
   43TMC2    C8  677   3.057   2.545   0.796  0.9104  0.2801 -0.7675
   43TMC2    O1  678   3.440   2.192   1.101 -0.0827  0.0979  0.5598
   43TMC2    O2  679   3.051   2.655   0.849  0.7807  0.4343  0.1254
   43TMC2    O5  680   2.957   2.493   0.721  0.2830  0.1702  0.1421
   43TMC2    H5  681   2.976   2.404   0.684 -0.5818  0.4154 -0.8919
   44MPD2     C  682   3.262   2.001   0.137  0.2326  0.1228 -0.2293
   44MPD2    C1  683   3.350   1.965   0.235  0.1203  0.3320  0.4534
   44MPD2    C2  684   3.329   2.007   0.363  0.0318  0.6968  0.1962
   44MPD2    C3  685   3.216   2.095   0.381  0.0984 -0.2229  0.1355
   44MPD2    C4  686   3.127   2.124   0.282  0.3897  0.2291  0.1813
   44MPD2    C5  687   3.147   2.077   0.155 -0.7521 -0.4956 -0.6368
   44MPD2     H  688   3.398   1.983   0.443  0.6853  2.0405  0.0318
   44MPD2    H1  689   3.043   2.190   0.298  0.2064  0.1624 -0.5104
   44MPD2    H2  690   3.284   1.987   0.032  1.6804 -0.1902  0.1141
   44MPD2    H3  691   3.081   2.101   0.073 -0.5647 -0.5687 -0.8115
   44MPD2     N  692   3.197   2.160   0.510  0.3638  0.3675  0.1105
   44MPD2    H5  693   3.120   2.225   0.506  0.4089  0.4861  1.2077
   44MPD2    N1  694   3.455   1.876   0.221 -0.2061  0.1521  0.4533
   44MPD2    H7  695   3.510   1.857   0.304  0.4783 -0.7722 -0.2180
   45TMC2    C1  696   4.170   3.222   9.573  0.1992  1.2418  0.0898
   45TMC2    C2  697   4.203   3.198   9.436 -0.2205 -0.4721  0.1063
   45TMC2    C3  698   4.262   3.311   9.385  0.1608 -0.1978  0.5792
   45TMC2    C4  699   4.199   3.326   9.653 -0.4688 -0.8586  0.0832
   45TMC2    C5  700   4.268   3.427   9.589  0.2968 -0.3291 -0.0415
   45TMC2    C6  701   4.302   3.420   9.459  0.0606  0.2635 -0.7361
   45TMC2     C  702   4.086   3.122   9.626  0.5708  0.2388  0.5416
   45TMC2     O  703   4.092   3.109   9.746 -0.0528  0.4781 -0.8051
   45TMC2     H  704   4.181   3.112   9.374 -0.4025  0.8793 -1.7053
   45TMC2    H1  705   4.154   3.338   9.750 -1.6939  2.8501 -0.9625
   45TMC2    H2  706   4.361   3.499   9.414  2.6672 -1.7023 -0.8122
   45TMC2    C7  707   4.266   3.558   9.665 -0.6738  0.3585 -0.9607
   45TMC2    C8  708   4.344   3.282   9.267 -0.2940  0.6580 -0.2996
   45TMC2    O1  709   4.281   3.553   9.784 -0.9388 -0.2749 -0.0215
   45TMC2    O2  710   4.437   3.350   9.229  0.6726  0.0324 -0.3136
   45TMC2    O5  711   4.261   3.229   9.174 -0.6251  0.4392  0.3640
   45TMC2    H5  712   4.167   3.227   9.200 -1.0566 -1.4973 -1.3191
   46MPD2     C  713   3.855   2.950   9.692 -0.3797  0.5904  0.1917
   46MPD2    C1  714   3.877   3.011   9.570 -0.0538 -0.2907  0.5084
   46MPD2    C2  715   3.770   2.998   9.480  0.5449 -0.1474  1.0926
   46MPD2    C3  716   3.651   2.939   9.518  0.4284 -0.9734  0.0760
   46MPD2    C4  717   3.634   2.882   9.642 -0.1343  0.1904 -0.5503
   46MPD2    C5  718   3.740   2.887   9.727  0.7759  0.1620  0.2342
   46MPD2     H  719   3.783   3.052   9.386 -0.0187  1.2400  1.8077
   46MPD2    H1  720   3.541   2.835   9.672  0.4930  0.8960  2.4337
   46MPD2    H2  721   3.937   2.935   9.762 -1.7228 -0.3327  1.5535
   46MPD2    H3  722   3.718   2.847   9.825  0.6832  0.5854  0.3816
   46MPD2     N  723   3.547   2.981   9.434 -0.3546 -0.4205  0.5618
   46MPD2    H5  724   3.564   3.043   9.356  2.4363  2.1544  3.2339
   46MPD2    N1  725   3.990   3.086   9.537  0.5629  0.3632 -0.1042
   46MPD2    H7  726   3.998   3.131   9.446 -0.6854 -0.7557 -0.7651
   47TMC2    C1  727   1.224   4.465   9.671  0.1496 -0.6330 -0.1101
   47TMC2    C2  728   1.174   4.343   9.617 -0.2503  0.2188  0.1423
   47TMC2    C3  729   1.043   4.340   9.578 -0.5482 -0.0777 -0.1590
   47TMC2    C4  730   1.139   4.568   9.696  0.6940 -0.5956  0.2586
   47TMC2    C5  731   1.014   4.561   9.655  0.6174 -0.3875 -0.2075
   47TMC2    C6  732   0.950   4.451   9.597 -0.0773 -0.0583  0.0787
   47TMC2     C  733   1.366   4.487   9.700 -0.2878 -0.1686  0.1379
   47TMC2     O  734   1.398   4.597   9.732 -0.3651  0.6176  0.0397
   47TMC2     H  735   1.232   4.252   9.618 -0.1153  0.3094  0.6370
   47TMC2    H1  736   1.180   4.661   9.735  1.4729 -0.2937 -1.2771
   47TMC2    H2  737   0.848   4.460   9.562 -0.2130  0.0475  0.4939
   47TMC2    C7  738   0.923   4.655   9.716  0.2613  0.4936  0.6573
   47TMC2    C8  739   0.989   4.214   9.537 -0.2677  0.2639  0.1495
   47TMC2    O1  740   0.806   4.628   9.723 -0.1174  1.1488  0.0791
   47TMC2    O2  741   1.050   4.128   9.476  0.0105  0.1444  0.0044
   47TMC2    O5  742   0.882   4.195   9.617  0.6174 -0.0942 -0.8009
   47TMC2    H5  743   0.860   4.274   9.671 -0.3209  0.2870 -1.7528
   48MPD2     C  744   1.648   4.469   9.763  0.5694  0.5745 -0.1792
   48MPD2    C1  745   1.589   4.379   9.680 -0.4630 -0.6528  0.1070
   48MPD2    C2  746   1.668   4.275   9.621 -0.2204 -0.7276  0.0766
   48MPD2    C3  747   1.800   4.264   9.633  1.0558  0.4750 -0.5146
   48MPD2    C4  748   1.857   4.373   9.693  0.6324  0.0083  0.2262
   48MPD2    C5  749   1.786   4.469   9.762  0.4560 -0.7550  0.1122
   48MPD2     H  750   1.613   4.197   9.570  0.4171 -0.7541 -0.5634
   48MPD2    H1  751   1.964   4.393   9.689  0.9533 -1.6549  0.4269
   48MPD2    H2  752   1.604   4.550   9.819  0.0553 -0.1107  0.4127
   48MPD2    H3  753   1.824   4.554   9.818  2.0099 -2.2846  1.3570
   48MPD2     N  754   1.881   4.151   9.579  0.7369  0.4486 -0.0857
   48MPD2    H5  755   1.819   4.084   9.536 -0.2354 -0.1971  2.2790
   48MPD2    N1  756   1.452   4.387   9.659  0.3798  0.2862 -0.0084
   48MPD2    H7  757   1.407   4.304   9.620 -1.0922  0.8888  0.3861
   49TMC2    C1  758   0.786   1.389  10.936  0.4009  0.3863  0.0922
   49TMC2    C2  759   0.835   1.335  10.820 -0.7776 -1.0177 -0.2004
   49TMC2    C3  760   0.794   1.381  10.701 -0.0595 -0.0184  1.1610
   49TMC2    C4  761   0.698   1.494  10.929  0.5608  0.5999  0.2698
   49TMC2    C5  762   0.658   1.542  10.808  0.0654 -1.4977  0.0106
   49TMC2    C6  763   0.705   1.489  10.691  0.2708  0.1965  0.6551
   49TMC2     C  764   0.767   1.293  11.049 -0.1384  1.0551 -0.4389
   49TMC2     O  765   0.859   1.216  11.079 -0.2692  0.3248  0.2229
   49TMC2     H  766   0.904   1.252  10.822 -0.1936 -0.5389 -0.4040
   49TMC2    H1  767   0.675   1.554  11.017  0.2734  0.1258  0.5202
   49TMC2    H2  768   0.695   1.529  10.591  1.7425 -1.9260 -0.3265
   49TMC2    C7  769   0.551   1.630  10.800  0.0563  0.8585  0.1015
   49TMC2    C8  770   0.884   1.381  10.588 -0.3945 -0.3623 -0.6344
   49TMC2    O1  771   0.526   1.690  10.902 -0.2162 -0.4280  0.0825
   49TMC2    O2  772   0.848   1.378  10.473 -0.5907  0.2758  0.0956
   49TMC2    O5  773   1.011   1.376  10.633 -0.1178 -0.7523  0.2571
   49TMC2    H5  774   1.006   1.401  10.728  3.3572  0.0490  0.2375
   50MPD2     C  775   0.647   1.100  11.251 -0.3530  0.3699 -0.1690
   50MPD2    C1  776   0.578   1.199  11.178  0.4070 -0.8616  0.2854
   50MPD2    C2  777   0.445   1.216  11.223 -1.1209 -0.0725 -0.2824
   50MPD2    C3  778   0.381   1.152  11.328  0.0001  0.6568 -0.1953
   50MPD2    C4  779   0.459   1.057  11.397  1.2317  0.3301  0.4447
   50MPD2    C5  780   0.590   1.035  11.350 -0.2050  0.6089 -0.7155
   50MPD2     H  781   0.388   1.291  11.170 -0.7323  0.6927  0.3965
   50MPD2    H1  782   0.427   0.999  11.483  1.0038 -1.7651 -1.0477
   50MPD2    H2  783   0.751   1.075  11.233 -0.3271 -0.5306  1.2262
   50MPD2    H3  784   0.652   0.964  11.403  2.2856  2.8572 -0.6612
   50MPD2     N  785   0.250   1.185  11.381  0.2411 -0.9175  0.1737
   50MPD2    H5  786   0.231   1.158  11.477  0.1618  1.3191  0.7886
   50MPD2    N1  787   0.632   1.284  11.079 -0.4647  0.5293  0.1837
   50MPD2    H7  788   0.569   1.344  11.027 -1.2346 -0.2459  0.2171
   51TMC2    C1  789   1.676   4.428   1.081 -0.2283 -0.6216  0.6682
   51TMC2    C2  790   1.786   4.406   1.156  1.1768  0.2553 -0.3794
   51TMC2    C3  791   1.839   4.512   1.219  0.4387 -0.1481 -0.5832
   51TMC2    C4  792   1.629   4.557   1.056 -0.7422  0.1615  0.0431
   51TMC2    C5  793   1.693   4.660   1.120 -0.1025 -0.6798  0.8071
   51TMC2    C6  794   1.789   4.634   1.206  0.2909  0.1219 -0.0008
   51TMC2     C  795   1.600   4.319   1.022 -0.7484  0.2142 -0.4883
   51TMC2     O  796   1.489   4.341   0.978  0.2231  0.2047 -0.1304
   51TMC2     H  797   1.809   4.314   1.208  0.6632  0.1436 -0.3521
   51TMC2    H1  798   1.548   4.579   0.987 -3.6100 -0.9371  3.1314
   51TMC2    H2  799   1.834   4.718   1.257  0.1877 -0.5090  1.1440
   51TMC2    C7  800   1.628   0.047   1.129  0.5291  0.1967  0.2976
   51TMC2    C8  801   1.942   4.496   1.319  0.5896  0.0433  0.2601
   51TMC2    O1  802   1.650   0.101   1.240  0.5246  0.3815  0.6489
   51TMC2    O2  803   2.030   4.414   1.316  0.1603 -0.1445  0.1051
   51TMC2    O5  804   1.905   4.563   1.428 -0.6133  0.7243 -0.9081
   51TMC2    H5  805   1.815   4.603   1.427 -0.1911  1.7268  0.6884
   52MPD2     C  806   1.533   3.814   0.981  0.0399 -0.0815  0.2764
   52MPD2    C1  807   1.435   3.917   0.975 -0.2212  0.0937 -0.4566
   52MPD2    C2  808   1.488   4.044   0.988  0.2625 -0.4717  1.1180
   52MPD2    C3  809   1.615   4.067   1.025  0.1525  0.4250  0.0042
   52MPD2    C4  810   1.703   3.966   1.034 -0.2357 -0.1934  0.0074
   52MPD2    C5  811   1.659   3.840   1.024 -0.0523 -0.1711  0.4364
   52MPD2     H  812   1.421   4.126   0.965  1.3178 -0.1479 -0.8517
   52MPD2    H1  813   1.807   3.995   1.040 -0.2697 -0.4495  1.9293
   52MPD2    H2  814   1.503   3.711   0.971  1.4038 -0.6644  2.2072
   52MPD2    H3  815   1.734   3.762   1.023 -0.0998 -0.2100 -0.1557
   52MPD2     N  816   1.665   4.199   1.049  0.5761 -0.3413 -0.5280
   52MPD2    H5  817   1.765   4.201   1.067  1.0401 -0.3073 -3.2338
   52MPD2    N1  818   1.301   3.902   0.939  0.3441 -0.7464 -0.2920
   52MPD2    H7  819   1.266   3.995   0.918 -2.8937 -2.1191 -1.0256
   53TMC2    C1  820   0.367   3.514  11.141 -0.0620  0.6055 -0.3172
   53TMC2    C2  821   0.346   3.636  11.081 -0.8660 -0.5762 -0.1546
   53TMC2    C3  822   0.408   3.750  11.127 -0.2388 -0.3202  0.6194
   53TMC2    C4  823   0.444   3.500  11.252  0.6378 -0.2220 -0.1049
   53TMC2    C5  824   0.490   3.614  11.299 -0.2411  0.5473  0.2247
   53TMC2    C6  825   0.468   3.740  11.247  0.6537 -0.7288 -0.2814
   53TMC2     C  826   0.247   3.435  11.140 -0.4064  0.0428  0.4607
   53TMC2     O  827   0.212   3.387  11.035 -0.1490 -0.2877  0.4493
   53TMC2     H  828   0.289   3.647  10.989 -1.3287 -0.7452  0.1081
   53TMC2    H1  829   0.471   3.402  11.290  1.9514  0.6081  1.1013
   53TMC2    H2  830   0.511   3.827  11.297  0.1610  0.1638 -1.4237
   53TMC2    C7  831   0.529   3.614  11.442  0.3966  0.0944  0.2167
   53TMC2    C8  832   0.363   3.881  11.089  0.0562 -0.5191 -0.5013
   53TMC2    O1  833   0.507   3.725  11.498  0.2534 -0.1904  0.0037
   53TMC2    O2  834   0.405   3.982  11.140 -0.7032  0.2623 -0.0250
   53TMC2    O5  835   0.327   3.868  10.964  0.0522 -0.1176  0.0982
   53TMC2    H5  836   0.285   3.780  10.952  1.3263 -0.5433 -1.2482
   54MPD2     C  837   4.735   3.315  11.222  0.0533  1.1537  0.0594
   54MPD2    C1  838   0.098   3.330  11.313 -0.3445 -0.0152  0.1187
   54MPD2    C2  839   0.093   3.270  11.443  0.3171  0.5364  0.2889
   54MPD2    C3  840   4.713   3.206  11.491 -0.2031  0.2122  0.7242
   54MPD2    C4  841   4.609   3.201  11.402 -0.5328 -0.5390 -0.2348
   54MPD2    C5  842   4.625   3.253  11.274  0.1734 -0.1565 -0.1463
   54MPD2     H  843   0.169   3.298  11.516 -1.4905  1.2570  1.9126
   54MPD2    H1  844   4.517   3.159  11.442  1.1404 -3.5289  0.4723
   54MPD2    H2  845   0.008   3.345  11.119  0.3545 -1.5641 -0.6909
   54MPD2    H3  846   4.536   3.249  11.213  0.0677  0.2530 -0.0169
   54MPD2     N  847   4.687   3.177  11.627  0.1714  0.0319  0.2110
   54MPD2    H5  848   4.592   3.152  11.655 -0.9906  0.6120 -3.1897
   54MPD2    N1  849   0.219   3.392  11.264 -0.2820 -0.7990  0.3891
   54MPD2    H7  850   0.283   3.412  11.340  0.1739  1.3443 -0.5517
   55TMC2    C1  851   1.555   1.418  17.492 -0.0494 -0.1117  0.4785
   55TMC2    C2  852   1.544   1.357  17.370  0.4004  0.9537 -0.0423
   55TMC2    C3  853   1.548   1.221  17.369 -0.2985  1.1443  0.7754
   55TMC2    C4  854   1.568   1.346  17.608  0.2488 -0.2314  0.0432
   55TMC2    C5  855   1.570   1.203  17.602 -0.2637 -0.1645  0.5833
   55TMC2    C6  856   1.565   1.137  17.482  0.4276 -0.4256  0.1210
   55TMC2     C  857   1.530   1.555  17.511 -0.2545 -0.9792 -0.6644
   55TMC2     O  858   1.509   1.597  17.621 -0.2701 -0.1177 -0.3341
   55TMC2     H  859   1.532   1.412  17.277 -1.7343  1.7922  0.7237
   55TMC2    H1  860   1.563   1.394  17.704 -0.5218  0.6080 -0.4151
   55TMC2    H2  861   1.580   1.029  17.475  0.8807 -0.1696 -2.8860
   55TMC2    C7  862   1.555   1.119  17.719 -0.5801  0.1738 -0.6413
   55TMC2    C8  863   1.535   1.134  17.247  0.2958  0.1243 -0.8368
   55TMC2    O1  864   1.584   0.999  17.713 -0.3853  0.3996 -0.7598
   55TMC2    O2  865   1.614   1.042  17.233 -0.5021  0.0015  0.0459
   55TMC2    O5  866   1.484   1.211  17.147  0.4002  0.3832  0.4801
   55TMC2    H5  867   1.406   1.267  17.168 -1.0092 -1.1378 -0.7030
   56MPD2     C  868   1.512   1.804  17.229  0.2035  0.1095 -0.2940
   56MPD2    C1  869   1.493   1.752  17.360  0.4469  0.3967 -0.5375
   56MPD2    C2  870   1.436   1.836  17.454  0.5678 -0.0848 -0.4453
   56MPD2    C3  871   1.411   1.973  17.427  0.2420  0.1116 -0.1480
   56MPD2    C4  872   1.440   2.021  17.303 -0.0827 -0.1476  0.1016
   56MPD2    C5  873   1.499   1.939  17.211 -0.4056 -0.9483  0.3274
   56MPD2     H  874   1.422   1.803  17.556 -2.2046 -1.6205 -1.3171
   56MPD2    H1  875   1.427   2.127  17.286  0.3911  0.4952  3.7384
   56MPD2    H2  876   1.554   1.750  17.145 -0.1591  0.8965 -0.9796
   56MPD2    H3  877   1.531   1.983  17.117  0.7477 -1.1954  0.6162
   56MPD2     N  878   1.363   2.049  17.542  0.8061  0.4168 -0.0061
   56MPD2    H5  879   1.359   1.994  17.628 -0.1085  1.1078  0.3941
   56MPD2    N1  880   1.526   1.619  17.386  0.8851 -1.1463  0.4250
   56MPD2    H7  881   1.566   1.575  17.303 -0.9667 -0.3671 -0.8973
   57TMC2    C1  882   0.290   2.418  13.180  0.0316  0.1771  0.3113
   57TMC2    C2  883   0.272   2.294  13.229  0.0416 -0.4485  0.0309
   57TMC2    C3  884   0.386   2.218  13.251 -0.0234  0.0559  0.1837
   57TMC2    C4  885   0.412   2.457  13.136 -0.2535  0.1004 -0.0297
   57TMC2    C5  886   0.517   2.374  13.147  0.4767  0.3645 -0.2038
   57TMC2    C6  887   0.517   2.259  13.216 -0.5690 -0.1277 -0.3482
   57TMC2     C  888   0.175   2.501  13.128 -0.3595  0.2754 -0.3764
   57TMC2     O  889   0.194   2.617  13.112 -0.7767 -0.0646  0.6463
   57TMC2     H  890   0.181   2.254  13.274 -0.6853  2.4883  1.1367
   57TMC2    H1  891   0.425   2.559  13.099  0.6746  0.5613  1.5765
   57TMC2    H2  892   0.605   2.198  13.230  0.2705  1.2173  0.1913
   57TMC2    C7  893   0.642   2.407  13.081 -0.6143  0.1686  0.3862
   57TMC2    C8  894   0.374   2.112  13.353  0.1339  0.3485  0.4919
   57TMC2    O1  895   0.679   2.521  13.085  0.5231  0.4012 -0.1123
   57TMC2    O2  896   0.285   2.112  13.440  0.0880  0.7557 -0.0938
   57TMC2    O5  897   0.464   2.021  13.329  0.8387 -0.4797  0.0872
   57TMC2    H5  898   0.514   2.031  13.245  1.2127 -3.2247 -0.0096
   58MPD2     C  899   4.414   2.634  13.178 -0.0146  0.0496 -0.3522
   58MPD2    C1  900   4.527   2.707  13.139 -0.6600  0.0838  0.3641
   58MPD2    C2  901   4.654   2.649  13.132 -0.9084  0.4610  0.0350
   58MPD2    C3  902   4.667   2.516  13.149 -0.1505 -0.2534 -0.1818
   58MPD2    C4  903   4.555   2.446  13.191 -0.0250  0.4135  0.2755
   58MPD2    C5  904   4.431   2.500  13.204 -0.4436 -0.3085  0.8247
   58MPD2     H  905   4.734   2.722  13.122 -1.6164  1.0989 -0.9323
   58MPD2    H1  906   4.566   2.344  13.227 -4.5474  0.3858  1.5530
   58MPD2    H2  907   4.315   2.676  13.195  0.0628  0.4828 -0.9829
   58MPD2    H3  908   4.352   2.438  13.243 -0.6345 -1.3338 -1.2068
   58MPD2     N  909   0.051   2.443  13.152  0.4151  0.0561 -0.4324
   58MPD2    H5  910   0.042   2.346  13.180 -0.5984 -0.0990 -1.3202
   58MPD2    N1  911   4.521   2.846  13.103  0.4108 -0.2343 -0.6138
   58MPD2    H7  912   4.612   2.889  13.092  0.5497 -0.7675 -1.5935
   59TMC2    C1  913   3.137   2.482  12.352 -0.2801 -0.2304 -0.0129
   59TMC2    C2  914   3.113   2.418  12.468  0.5320 -0.3501 -0.2156
   59TMC2    C3  915   3.040   2.303  12.464  0.5388  0.1497  0.4676
   59TMC2    C4  916   3.105   2.417  12.231  0.3790 -0.4720 -0.4007
   59TMC2    C5  917   3.040   2.301  12.236  0.1926 -0.1456 -0.2896
   59TMC2    C6  918   2.995   2.248  12.357 -0.6158  0.3395  0.2802
   59TMC2     C  919   3.188   2.622  12.343 -0.3610  0.2146 -0.7928
   59TMC2     O  920   3.188   2.668  12.231 -0.0984 -0.1984 -0.4901
   59TMC2     H  921   3.144   2.471  12.558  1.0526  1.1149 -1.2563
   59TMC2    H1  922   3.158   2.443  12.140 -0.1295 -0.9758 -0.8423
   59TMC2    H2  923   2.937   2.157  12.366 -0.0368  0.0740  1.3880
   59TMC2    C7  924   2.959   2.266  12.121 -0.8048  0.0995 -0.0085
   59TMC2    C8  925   3.009   2.238  12.589  0.3085 -0.1662 -0.6373
   59TMC2    O1  926   2.945   2.146  12.092  0.4867 -0.1712 -0.1850
   59TMC2    O2  927   2.914   2.163  12.603 -0.2912  0.0897  0.2416
   59TMC2    O5  928   3.120   2.254  12.665 -0.1412 -0.6012  0.3146
   59TMC2    H5  929   3.185   2.321  12.634  1.1710 -1.8062  0.4755
   60MPD2     C  930   3.294   2.900  12.366  1.0492 -0.4921 -0.2539
   60MPD2    C1  931   3.282   2.815  12.472  0.1563  0.2641  0.4120
   60MPD2    C2  932   3.317   2.865  12.596 -0.5766 -0.2701 -0.6131
   60MPD2    C3  933   3.364   2.992  12.608  0.4421  0.2832  0.0226
   60MPD2    C4  934   3.376   3.073  12.503  0.0890  0.1378  0.3889
   60MPD2    C5  935   3.340   3.033  12.376  0.2519 -0.0160  0.3063
   60MPD2     H  936   3.303   2.796  12.679  0.5499  2.7333  2.0669
   60MPD2    H1  937   3.413   3.175  12.511  2.1511 -0.6580  1.0372
   60MPD2    H2  938   3.281   2.865  12.264 -0.0517 -1.1028  0.1047
   60MPD2    H3  939   3.348   3.083  12.280  0.5102 -0.5633  0.0397
   60MPD2     N  940   3.421   3.041  12.727  0.6389 -0.0912  0.2241
   60MPD2    H5  941   3.445   3.140  12.733  1.7423 -0.3226 -0.4167
   60MPD2    N1  942   3.207   2.691  12.462 -0.0877  0.0808 -0.7104
   60MPD2    H7  943   3.191   2.651  12.554 -0.3605  2.3315  0.2285
   61TMC2    C1  944   2.086   4.057  15.698 -0.8387  0.5460 -0.3546
   61TMC2    C2  945   2.074   4.031  15.834 -0.0418  0.1106 -0.2074
   61TMC2    C3  946   2.042   4.139  15.918  0.1532 -0.7728  0.3829
   61TMC2    C4  947   2.058   4.181  15.646  0.4697  0.2840 -0.6904
   61TMC2    C5  948   2.017   4.280  15.731  0.1084  0.3381 -0.0613
   61TMC2    C6  949   2.029   4.268  15.869 -0.0659  0.7340 -0.1347
   61TMC2     C  950   2.074   3.949  15.601  0.3552 -0.1551 -0.0081
   61TMC2     O  951   2.084   3.838  15.652 -0.5099  0.0819  0.0979
   61TMC2     H  952   2.095   3.934  15.878  1.8807  0.3572 -0.5611
   61TMC2    H1  953   2.074   4.211  15.543  1.5461  2.2395  0.0387
   61TMC2    H2  954   2.003   4.351  15.934  1.0225 -1.2578  2.8178
   61TMC2    C7  955   2.035   4.406  15.664  0.2248  0.5452 -0.2553
   61TMC2    C8  956   2.045   4.122  16.062  0.0879  0.1461 -0.3164
   61TMC2    O1  957   2.137   4.419  15.597 -0.3091  0.2434 -0.2315
   61TMC2    O2  958   1.993   4.207  16.133  0.2154  0.4880  0.3872
   61TMC2    O5  959   2.174   4.094  16.086  0.0905  0.0671 -0.4633
   61TMC2    H5  960   2.221   4.043  16.017 -0.2315 -1.4538  0.4197
   62MPD2     C  961   2.042   3.755  15.373  0.2036 -1.1277  0.0016
   62MPD2    C1  962   2.051   3.893  15.360  0.1267 -1.2919 -0.0866
   62MPD2    C2  963   2.072   3.951  15.240  0.8193 -0.0785  0.1314
   62MPD2    C3  964   2.093   3.881  15.122  0.6608  0.2852  0.5580
   62MPD2    C4  965   2.083   3.746  15.130 -0.5778 -0.1860 -0.2302
   62MPD2    C5  966   2.060   3.684  15.255 -0.5979  0.8293 -0.2976
   62MPD2     H  967   2.072   4.060  15.239 -2.0928 -0.0961 -1.5241
   62MPD2    H1  968   2.099   3.690  15.039  2.4144  0.5135 -0.1242
   62MPD2    H2  969   2.028   3.700  15.464  0.9232 -0.0174  0.7889
   62MPD2    H3  970   2.057   3.575  15.254 -0.8509  0.8320 -0.0210
   62MPD2     N  971   2.128   3.940  14.999 -0.7594  0.1897 -0.0646
   62MPD2    H5  972   2.143   3.883  14.915  0.1407  1.7080 -0.9447
   62MPD2    N1  973   2.063   3.986  15.464 -0.1021 -0.2109 -0.1160
   62MPD2    H7  974   2.079   4.080  15.431  1.2637 -0.4910 -0.2623
   63TMC2    C1  975   1.809   3.608  10.923  0.3022  0.4272  0.6946
   63TMC2    C2  976   1.874   3.692  11.005 -0.3285  0.1653 -0.3098
   63TMC2    C3  977   1.983   3.764  10.958 -0.3412 -0.0723 -0.1855
   63TMC2    C4  978   1.831   3.616  10.784 -0.2358 -0.1473  0.1242
   63TMC2    C5  979   1.939   3.685  10.736  0.5202 -0.6161 -0.2145
   63TMC2    C6  980   2.010   3.762  10.822  1.2216 -0.0789 -0.2917
   63TMC2     C  981   1.727   3.513  10.995 -0.0422  0.6206 -0.1947
   63TMC2     O  982   1.677   3.545  11.106  1.0424 -0.0689  0.1620
   63TMC2     H  983   1.863   3.677  11.112 -0.4920  1.3548 -0.1633
   63TMC2    H1  984   1.776   3.555  10.713 -0.7474 -2.3528  2.4233
   63TMC2    H2  985   2.089   3.830  10.794 -1.1574  2.4865 -0.7050
   63TMC2    C7  986   1.930   3.734  10.598 -1.0167  0.6114  0.7870
   63TMC2    C8  987   2.044   3.870  11.036  0.3975  0.0873  0.3243
   63TMC2    O1  988   1.832   3.706  10.535  0.0237  0.0110 -0.0674
   63TMC2    O2  989   2.146   3.927  10.999 -0.2138  0.0977  0.2794
   63TMC2    O5  990   2.009   3.838  11.160  0.5535  0.0895 -0.3471
   63TMC2    H5  991   1.912   3.832  11.171  0.5349  0.0282 -0.5630
   64MPD2     C  992   1.397   3.129  10.954  0.7757 -0.2163 -0.3761
   64MPD2    C1  993   1.498   3.105  10.858  0.0384  0.5897  1.2067
   64MPD2    C2  994   1.596   3.203  10.853 -0.2607 -0.1044 -0.5115
   64MPD2    C3  995   1.595   3.316  10.935 -0.6066 -0.3563  0.2635
   64MPD2    C4  996   1.495   3.332  11.033 -0.3922 -0.1322 -1.2210
   64MPD2    C5  997   1.395   3.240  11.037 -0.4198 -0.1097  0.3731
   64MPD2     H  998   1.676   3.191  10.781 -0.3490  0.2024 -0.6568
   64MPD2    H1  999   1.486   3.409  11.109  1.3544 -1.1277  0.0124
   64MPD2    H2 1000   1.316   3.060  10.974  1.4023 -0.9932 -0.5008
   64MPD2    H3 1001   1.309   3.253  11.102  1.1374 -1.9809  2.8102
   64MPD2     N 1002   1.693   3.409  10.918  0.2886 -0.2604  0.1998
   64MPD2    H5 1003   1.755   3.399  10.838 -0.8063  0.7822 -0.7900
   64MPD2    N1 1004   1.504   2.998  10.770 -0.4795  0.3742 -0.1360
   64MPD2    H7 1005   1.583   2.998  10.707  1.1511 -0.3085  1.9039
   65TMC2    C1 1006   3.460   3.846  15.754 -0.7068 -0.1313  0.0683
   65TMC2    C2 1007   3.556   3.848  15.655 -0.4877  0.5541 -0.7010
   65TMC2    C3 1008   3.559   3.959  15.570  0.0938  0.3233 -0.0546
   65TMC2    C4 1009   3.373   3.952  15.777 -0.7434 -0.1336  0.0392
   65TMC2    C5 1010   3.374   4.051  15.680 -0.2735  0.3121  0.6029
   65TMC2    C6 1011   3.463   4.055  15.584 -0.1436 -0.2201 -0.3785
   65TMC2     C 1012   3.440   3.725  15.826  0.8708 -0.3609 -0.0240
   65TMC2     O 1013   3.394   3.738  15.936 -0.5118  0.3385 -0.0251
   65TMC2     H 1014   3.621   3.763  15.636 -0.2621  1.0760 -2.2538
   65TMC2    H1 1015   3.291   3.937  15.846  0.4755 -1.0450  1.2617
   65TMC2    H2 1016   3.458   4.138  15.515 -0.9662  0.7225  0.8170
   65TMC2    C7 1017   3.270   4.155  15.674 -0.2184 -0.0626 -0.5500
   65TMC2    C8 1018   3.627   3.944  15.443 -0.0170 -0.2116  0.5304
   65TMC2    O1 1019   3.286   4.241  15.591 -0.2944 -0.5237 -0.4032
   65TMC2    O2 1020   3.666   3.832  15.409 -0.1081  0.1035 -0.3330
   65TMC2    O5 1021   3.708   4.052  15.431 -0.2309 -0.1118  0.0549
   65TMC2    H5 1022   3.674   4.135  15.470 -0.7131 -1.1868  1.9390
   66MPD2     C 1023   3.385   3.457  15.913 -0.2422  0.4493  0.1380
   66MPD2    C1 1024   3.412   3.486  15.781 -0.1863 -0.6490  0.4521
   66MPD2    C2 1025   3.397   3.391  15.677 -0.4984  0.2835  0.4016
   66MPD2    C3 1026   3.347   3.271  15.710 -0.2391  0.3682 -0.3513
   66MPD2    C4 1027   3.312   3.240  15.842 -0.0332 -0.1033 -0.7797
   66MPD2    C5 1028   3.328   3.335  15.942 -0.9821  0.2888  0.3726
   66MPD2     H 1029   3.407   3.420  15.573  0.9933 -0.2507  0.3901
   66MPD2    H1 1030   3.274   3.145  15.876  1.6239 -1.2487 -2.1104
   66MPD2    H2 1031   3.395   3.527  15.995  0.5662  0.9320 -0.3705
   66MPD2    H3 1032   3.286   3.320  16.041 -1.4489  0.2463  0.1684
   66MPD2     N 1033   3.287   3.185  15.614 -0.3054  0.0210  0.1509
   66MPD2    H5 1034   3.240   3.101  15.648 -1.5510  0.2062 -1.0907
   66MPD2    N1 1035   3.439   3.619  15.736 -0.2156 -0.4686 -0.0874
   66MPD2    H7 1036   3.451   3.639  15.637 -0.1963  3.0557  0.6276
   67TMC2    C1 1037   3.537   2.916  14.274  0.2931  0.5345 -0.3809
   67TMC2    C2 1038   3.413   2.940  14.320 -0.1165 -0.6784  0.5644
   67TMC2    C3 1039   3.394   3.006  14.433  0.7843 -0.2961 -0.0277
   67TMC2    C4 1040   3.641   2.928  14.361 -0.6765  0.0436 -0.2269
   67TMC2    C5 1041   3.619   2.999  14.482 -0.0519  0.0187  0.3177
   67TMC2    C6 1042   3.493   3.046  14.514 -0.1209 -0.0644  0.1524
   67TMC2     C 1043   3.551   2.821  14.168 -0.1284  0.0299 -0.7642
   67TMC2     O 1044   3.659   2.765  14.149 -0.0872 -0.1623  0.8247
   67TMC2     H 1045   3.327   2.916  14.259  0.9363 -0.7189 -0.8934
   67TMC2    H1 1046   3.743   2.905  14.331 -0.1583  3.4928 -1.1889
   67TMC2    H2 1047   3.481   3.113  14.598  0.6725 -0.6092  0.7073
   67TMC2    C7 1048   3.732   3.043  14.556  0.4081 -0.4130  0.0894
   67TMC2    C8 1049   3.255   3.013  14.470 -0.0033  0.0126  0.3546
   67TMC2    O1 1050   3.839   3.031  14.500 -0.1197 -0.2297 -0.0627
   67TMC2    O2 1051   3.164   2.978  14.393  0.8599  0.3156  0.8490
   67TMC2    O5 1052   3.260   3.009  14.604  0.0683  0.4862  0.0752
   67TMC2    H5 1053   3.354   2.988  14.623 -0.7025 -1.4545  1.7073
   68MPD2     C 1054   3.466   2.592  13.997 -0.6393  0.8878 -0.7503
   68MPD2    C1 1055   3.391   2.701  14.014 -0.6690 -0.2434 -0.1015
   68MPD2    C2 1056   3.265   2.710  13.959 -0.0423 -0.5496 -0.1445
   68MPD2    C3 1057   3.217   2.605  13.874 -0.2732 -0.0752  0.7892
   68MPD2    C4 1058   3.306   2.498  13.843 -0.1551  0.0264 -0.4442
   68MPD2    C5 1059   3.425   2.494  13.913 -0.4620 -0.3778  0.7435
   68MPD2     H 1060   3.200   2.792  13.986  0.3518 -0.5180  0.7017
   68MPD2    H1 1061   3.283   2.415  13.776  0.4096  2.2353 -3.3738
   68MPD2    H2 1062   3.567   2.582  14.036 -2.1123 -1.2050  2.5338
   68MPD2    H3 1063   3.488   2.409  13.892  0.2322  0.6189 -1.2349
   68MPD2     N 1064   3.083   2.599  13.828 -0.2747  0.0960  0.3671
   68MPD2    H5 1065   3.052   2.506  13.804  1.7393 -0.2316 -0.9856
   68MPD2    N1 1066   3.437   2.807  14.095 -0.0385  0.1463 -0.3679
   68MPD2    H7 1067   3.373   2.884  14.086  0.6004  0.8535  1.2620
   69TMC2    C1 1068   0.648   4.387  12.679  0.2602 -0.5107  0.8034
   69TMC2    C2 1069   0.687   4.519  12.670 -0.4941  0.3251 -0.3330
   69TMC2    C3 1070   0.661   4.571  12.548 -0.6027  0.0500 -0.2433
   69TMC2    C4 1071   0.599   4.307  12.582  0.0478 -0.5564 -0.2509
   69TMC2    C5 1072   0.572   4.372  12.467 -0.4426  0.0786 -0.4379
   69TMC2    C6 1073   0.606   4.500  12.441  0.5774  0.1006  0.6240
   69TMC2     C 1074   0.668   4.324  12.807 -0.3118  0.0259 -0.5322
   69TMC2     O 1075   0.589   4.247  12.852  0.4960 -0.0557 -0.2298
   69TMC2     H 1076   0.715   4.582  12.754 -0.9160 -1.3400  1.0469
   69TMC2    H1 1077   0.572   4.204  12.601  0.5193 -0.9382 -1.6871
   69TMC2    H2 1078   0.594   4.548  12.344  1.7758 -0.1666  0.3399
   69TMC2    C7 1079   0.561   4.275  12.354 -0.0914  0.2979  0.8482
   69TMC2    C8 1080   0.701   4.709  12.528  0.3362 -0.2102 -0.5989
   69TMC2    O1 1081   0.593   4.159  12.380 -0.2422  0.1284 -0.0764
   69TMC2    O2 1082   0.700   0.061  12.611 -0.0025 -0.3184 -0.2070
   69TMC2    O5 1083   0.750   4.713  12.401  0.0165 -0.1095  0.0698
   69TMC2    H5 1084   0.777   4.627  12.363 -0.7154 -0.2774 -0.0810
   70MPD2     C 1085   0.992   4.328  12.987 -0.2382 -0.0389  0.5359
   70MPD2    C1 1086   0.862   4.294  12.961 -0.5049  0.2281 -0.0412
   70MPD2    C2 1087   0.809   4.191  13.035 -0.4335 -0.2227 -0.7604
   70MPD2    C3 1088   0.883   4.116  13.127  0.1565  0.0582 -0.3622
   70MPD2    C4 1089   1.015   4.150  13.138 -0.1642 -0.1835  0.4537
   70MPD2    C5 1090   1.062   4.257  13.073 -0.4859 -0.1734 -0.5001
   70MPD2     H 1091   0.702   4.178  13.021 -0.9184 -0.0003  2.7754
   70MPD2    H1 1092   1.087   4.091  13.193 -0.2350 -0.8650 -0.1839
   70MPD2    H2 1093   1.034   4.417  12.941 -2.3253  2.0602  2.7326
   70MPD2    H3 1094   1.168   4.276  13.068 -0.7608  1.2851 -0.7250
   70MPD2     N 1095   0.830   4.003  13.206  0.1891 -0.6090  0.5740
   70MPD2    H5 1096   0.902   3.954  13.258  1.1441  0.6155  0.4033
   70MPD2    N1 1097   0.792   4.362  12.859 -0.4750  0.0697 -0.1665
   70MPD2    H7 1098   0.844   4.431  12.804  1.5317 -0.7203  0.7399
   71TMC2    C1 1099   3.130   4.426   1.251 -0.2608 -0.5378  0.4150
   71TMC2    C2 1100   3.224   4.396   1.355 -0.4432  0.7911  0.5876
   71TMC2    C3 1101   3.197   4.294   1.443  0.1620 -0.0056  0.3597
   71TMC2    C4 1102   3.003   4.371   1.255  0.0160 -0.1000 -0.0988
   71TMC2    C5 1103   2.975   4.278   1.352  0.4830  0.8978 -0.0962
   71TMC2    C6 1104   3.071   4.232   1.437  0.4565 -0.3024 -0.1507
   71TMC2     C 1105   3.152   4.545   1.162  0.0055 -0.9072  0.1473
   71TMC2     O 1106   3.051   4.599   1.116 -0.6980  0.2756  0.0891
   71TMC2     H 1107   3.321   4.444   1.356 -0.0778  0.0367  0.7040
   71TMC2    H1 1108   2.928   4.389   1.178 -0.0408 -2.4247 -0.5973
   71TMC2    H2 1109   3.045   4.160   1.513  2.0898 -1.2315 -0.4773
   71TMC2    C7 1110   2.839   4.225   1.369  0.2792  0.3089  0.0617
   71TMC2    C8 1111   3.311   4.203   1.459  0.3646 -0.2157  0.3318
   71TMC2    O1 1112   2.836   4.111   1.417  0.2634  0.0861 -0.3120
   71TMC2    O2 1113   3.421   4.258   1.472 -0.3969  0.6804 -0.8513
   71TMC2    O5 1114   3.281   4.123   1.362  0.0301  0.0133 -0.3583
   71TMC2    H5 1115   3.203   4.068   1.384  0.2834  0.1377  0.8660
   72MPD2     C 1116   3.458   0.120   0.882 -1.0810  1.1292  0.2084
   72MPD2    C1 1117   3.319   0.100   0.875 -0.2205  0.3929 -0.0182
   72MPD2    C2 1118   3.263   0.007   0.969 -0.6733  0.1612  0.2755
   72MPD2    C3 1119   3.339   4.674   1.057 -0.4220 -0.1748  0.4113
   72MPD2    C4 1120   3.475   4.685   1.044 -0.3558  0.6802  0.4183
   72MPD2    C5 1121   3.532   0.033   0.958  0.1268 -0.8100 -0.6175
   72MPD2     H 1122   3.156   4.731   0.967 -0.4255 -1.4668  0.5155
   72MPD2    H1 1123   3.537   4.622   1.107 -1.4034 -0.8297 -0.0717
   72MPD2    H2 1124   3.510   0.183   0.810 -0.4499 -0.7723 -1.0410
   72MPD2    H3 1125   3.639   0.034   0.937  0.1881 -1.2715 -0.3269
   72MPD2     N 1126   3.286   4.574   1.142 -0.3329  0.1482 -0.0687
   72MPD2    H5 1127   3.349   4.514   1.196 -2.5566 -2.3222 -0.2142
   72MPD2    N1 1128   3.224   0.162   0.788  0.4474 -0.2206 -0.1217
   72MPD2    H7 1129   3.129   0.127   0.784  0.1399  0.4037  1.7071
   73TMC2    C1 1130   2.466   0.829  13.404  1.0948 -0.3047  0.5798
   73TMC2    C2 1131   2.469   0.840  13.264 -0.0959 -0.4831  0.0318
   73TMC2    C3 1132   2.582   0.808  13.198  0.3053 -0.1698 -0.4423
   73TMC2    C4 1133   2.568   0.767  13.470 -1.2828 -0.3490  0.4402
   73TMC2    C5 1134   2.675   0.737  13.395 -0.3238  0.2985 -0.2388
   73TMC2    C6 1135   2.691   0.759  13.263 -0.1982  0.4498  0.4353
   73TMC2     C 1136   2.428   0.950  13.473 -0.0637 -0.4722  0.0129
   73TMC2     O 1137   2.512   0.993  13.552  0.5170 -0.8713 -0.0103
   73TMC2     H 1138   2.396   0.897  13.208  0.5391 -1.3228 -1.6880
   73TMC2    H1 1139   2.565   0.762  13.579 -0.4199 -0.1663  0.4725
   73TMC2    H2 1140   2.787   0.757  13.212 -0.5888  1.8163 -0.3378
   73TMC2    C7 1141   2.793   0.792  13.463 -0.5604  0.0901 -0.2394
   73TMC2    C8 1142   2.606   0.874  13.071 -0.3872 -0.0210  0.5100
   73TMC2    O1 1143   2.900   0.753  13.423  0.2325  0.7317 -0.5433
   73TMC2    O2 1144   2.720   0.911  13.047 -0.1481  0.6170 -0.1587
   73TMC2    O5 1145   2.497   0.903  12.998 -0.5071 -0.4946 -0.0063
   73TMC2    H5 1146   2.424   0.838  13.007 -0.2690 -0.8134 -0.3700
   74MPD2     C 1147   2.249   1.424  13.374 -0.1150  0.7796  0.3188
   74MPD2    C1 1148   2.340   1.378  13.473  0.4637 -0.3254  0.0178
   74MPD2    C2 1149   2.363   1.244  13.496  0.9025  0.0139 -0.0365
   74MPD2    C3 1150   2.290   1.151  13.418 -0.2715  0.1477 -0.1889
   74MPD2    C4 1151   2.194   1.201  13.325 -0.0196  0.0661  0.0358
   74MPD2    C5 1152   2.176   1.332  13.305 -0.8539 -0.5078 -0.1729
   74MPD2     H 1153   2.429   1.210  13.576  0.4614  2.7699  1.5321
   74MPD2    H1 1154   2.147   1.131  13.257 -0.2960  0.7134 -0.4485
   74MPD2    H2 1155   2.244   1.528  13.346 -0.1516  0.4016 -1.1108
   74MPD2    H3 1156   2.120   1.370  13.220 -1.4876  0.9380  0.8996
   74MPD2     N 1157   2.320   1.011  13.415 -0.6649  0.3747 -0.6037
   74MPD2    H5 1158   2.268   0.949  13.354  1.7227 -0.4264 -1.8408
   74MPD2    N1 1159   2.404   1.485  13.542  0.0678 -0.2773  0.2770
   74MPD2    H7 1160   2.386   1.581  13.513  1.7483 -0.0140  0.1268
   75TMC2    C1 1161   2.864   2.646  13.832 -1.0761  0.6244 -0.1990
   75TMC2    C2 1162   2.841   2.541  13.916 -0.1057  0.2549 -0.0544
   75TMC2    C3 1163   2.712   2.507  13.932 -0.0157  0.0604  0.3222
   75TMC2    C4 1164   2.773   2.704  13.747  0.0823  0.3847 -0.7148
   75TMC2    C5 1165   2.648   2.646  13.748  0.3287  0.3348  0.2476
   75TMC2    C6 1166   2.616   2.548  13.838 -0.1750  1.3932 -0.0062
   75TMC2     C 1167   2.994   2.703  13.833 -1.3577  0.5942 -0.6055
   75TMC2     O 1168   3.006   2.825  13.831  0.0878 -0.3495 -0.4936
   75TMC2     H 1169   2.920   2.511  13.984 -0.6707 -0.0347  0.4649
   75TMC2    H1 1170   2.806   2.786  13.685  0.2996  0.2210 -0.8164
   75TMC2    H2 1171   2.510   2.523  13.842  0.0123  0.6481  0.3197
   75TMC2    C7 1172   2.562   2.643  13.626  0.1639  0.2680 -0.7525
   75TMC2    C8 1173   2.686   2.424  14.043  0.7131 -0.4624  0.3784
   75TMC2    O1 1174   2.479   2.553  13.606  0.6799 -0.1699  0.4851
   75TMC2    O2 1175   2.767   2.345  14.089  0.4374  0.4703  0.3052
   75TMC2    O5 1176   2.557   2.431  14.066  0.0900  0.0287 -0.1658
   75TMC2    H5 1177   2.527   2.521  14.040  1.0170  0.8606  1.6500
   76TMC2    C1 1178   1.428   2.965  11.858 -0.3299  0.2692  0.2087
   76TMC2    C2 1179   1.399   2.895  11.745  0.2885  0.2329  0.3810
   76TMC2    C3 1180   1.473   2.784  11.710  0.3990  0.3206 -0.0629
   76TMC2    C4 1181   1.533   2.936  11.936 -0.1695 -0.1041 -0.7474
   76TMC2    C5 1182   1.615   2.837  11.887 -0.7946 -0.0700 -1.1867
   76TMC2    C6 1183   1.591   2.758  11.779 -0.1038 -0.0835  0.6372
   76TMC2     C 1184   1.365   3.092  11.889 -0.4861  0.4847  0.1042
   76TMC2     O 1185   1.294   3.134  11.802  0.3348 -0.2783  0.2106
   76TMC2     H 1186   1.319   2.926  11.677  1.8970 -1.7192 -2.3859
   76TMC2    H1 1187   1.561   3.000  12.018 -2.2140 -0.1993  0.0076
   76TMC2    H2 1188   1.667   2.685  11.754 -1.6339 -0.8535 -1.8122
   76TMC2    C7 1189   1.709   2.783  11.985 -0.3596  0.3681  0.3882
   76TMC2    C8 1190   1.445   2.704  11.593 -0.2584 -0.5328 -0.1255
   76TMC2    O1 1191   1.730   2.659  11.992 -0.4040 -0.2247 -0.3452
   76TMC2    O2 1192   1.393   2.743  11.491  0.6732  0.2352  0.2994
   76TMC2    O5 1193   1.513   2.586  11.608 -0.9336  0.3173 -0.2654
   76TMC2    H5 1194   1.542   2.552  11.695  2.4451  2.3704 -0.5621
   77MPD2     C 1195   1.181   3.446  12.217  0.3644  0.4419 -0.4248
   77MPD2    C1 1196   1.146   3.421  12.089  0.1068 -0.1836 -0.2553
   77MPD2    C2 1197   1.211   3.316  12.023  0.2070 -0.4676  0.2859
   77MPD2    C3 1198   1.308   3.242  12.082 -0.8003 -0.4562  0.5498
   77MPD2    C4 1199   1.343   3.265  12.207  0.8190  0.8193  0.2853
   77MPD2    C5 1200   1.277   3.364  12.276  0.9402 -0.1085  0.4305
   77MPD2     H 1201   1.180   3.300  11.921  0.3042  2.2979 -0.1635
   77MPD2    H1 1202   1.424   3.215  12.260 -1.0662 -0.9682  1.4575
   77MPD2    H2 1203   1.141   3.523  12.281  0.2293 -0.9515  1.1693
   77MPD2    H3 1204   1.301   3.374  12.381  0.2602 -0.1082  0.5829
   77MPD2     N 1205   1.378   3.137  12.020 -0.3744  0.5128  0.7221
   77MPD2    H5 1206   1.450   3.090  12.074  0.7848  1.2501 -0.1959
   77MPD2    N1 1207   1.045   3.496  12.028 -0.0668 -0.1204  0.1902
   77MPD2    H7 1208   1.033   3.486  11.928 -0.3532  2.2393 -0.0140
   78TMC2    C1 1209   3.478   0.032   1.686 -0.4953  0.0541 -0.8998
   78TMC2    C2 1210   3.383   4.689   1.741  0.2624 -0.2296 -0.2901
   78TMC2    C3 1211   3.410   4.550   1.738 -0.4244  0.5897  0.0458
   78TMC2    C4 1212   3.588   4.720   1.623 -0.0295 -0.8191  0.0469
   78TMC2    C5 1213   3.605   4.583   1.611  0.1156  0.5383  0.4007
   78TMC2    C6 1214   3.518   4.492   1.672 -0.7884  0.0987  0.2154
   78TMC2     C 1215   3.464   0.176   1.689  0.6652 -0.6124 -0.0479
   78TMC2     O 1216   3.353   0.215   1.716  0.1704 -0.1864  0.2193
   78TMC2     H 1217   3.295   4.728   1.792  1.3130  0.6734  0.8203
   78TMC2    H1 1218   3.658   0.044   1.570 -0.0135  0.1434  1.2540
   78TMC2    H2 1219   3.509   4.384   1.662 -0.4262 -0.0224  1.1767
   78TMC2    C7 1220   3.700   4.532   1.517  1.1959  0.6322  0.3768
   78TMC2    C8 1221   3.311   4.457   1.785 -0.7727 -0.2962  0.8543
   78TMC2    O1 1222   3.741   4.418   1.538  0.4882  0.3466  0.3477
   78TMC2    O2 1223   3.335   4.339   1.802  0.4437  0.5941 -0.4696
   78TMC2    O5 1224   3.193   4.509   1.737  0.3226  0.4834 -0.1146
   78TMC2    H5 1225   3.204   4.587   1.679  1.6528  0.2592 -0.1610
   79MPD1     C 1226   3.562   0.637   1.524  0.0982 -0.0954  0.1841
   79MPD1    C1 1227   3.446   0.566   1.524  0.6463 -0.0258 -0.0761
   79MPD1    C2 1228   3.446   0.446   1.587 -0.0363 -0.4117 -0.5626
   79MPD1    C3 1229   3.562   0.384   1.633 -0.1616  0.2328  0.0535
   79MPD1    C4 1230   3.679   0.458   1.628  0.3090 -0.3333  1.2080
   79MPD1    C5 1231   3.680   0.583   1.572 -0.0013  0.2978  0.0710
   79MPD1     H 1232   3.356   0.386   1.592 -0.9798  1.0629  0.1854
   79MPD1    H1 1233   3.775   0.432   1.673  0.9063 -0.3661 -0.0837
   79MPD1    H2 1234   3.570   0.733   1.475  0.4673 -0.3646 -0.2781
   79MPD1    H3 1235   3.756   0.659   1.584 -0.8749  0.1910  6.2073
   79MPD1     N 1236   3.567   0.249   1.662  0.1449  0.0893  0.5932
   79MPD1    H5 1237   3.657   0.202   1.671 -0.2017 -0.7541 -0.3530
   79MPD1    N1 1238   3.319   0.626   1.491 -0.5686 -0.6055  0.0836
   79MPD1    H6 1239   3.248   0.558   1.465 -0.0928 -1.2384  0.4147
   79MPD1    H7 1240   3.317   0.694   1.415  2.4106 -1.2074 -0.5423
   80TMC2    C1 1241   0.605   3.051  11.445  0.6874 -0.0940  0.2615
   80TMC2    C2 1242   0.599   3.109  11.322 -0.3443  0.5136  0.0543
   80TMC2    C3 1243   0.481   3.121  11.254  0.2111 -0.7489 -0.1982
   80TMC2    C4 1244   0.491   2.999  11.497 -0.4202 -0.3827 -0.2488
   80TMC2    C5 1245   0.372   3.025  11.429 -0.2183  0.6770  0.0661
   80TMC2    C6 1246   0.369   3.071  11.302  0.1224  0.0327 -0.3679
   80TMC2     C 1247   0.725   3.028  11.518 -0.0802  0.0035  0.5362
   80TMC2     O 1248   0.829   3.032  11.458  0.0265  0.0235 -1.0368
   80TMC2     H 1249   0.693   3.137  11.276 -0.3214  2.4055  1.2367
   80TMC2    H1 1250   0.485   2.949  11.593 -1.8929  1.8760  0.8309
   80TMC2    H2 1251   0.274   3.075  11.250 -0.5048 -0.6487  0.7068
   80TMC2    C7 1252   0.249   2.948  11.466  0.8856  0.3008 -0.0705
   80TMC2    C8 1253   0.498   3.137  11.110 -0.3095 -0.0751  0.0776
   80TMC2    O1 1254   0.195   2.891  11.373 -0.0844 -0.0806  0.0802
   80TMC2    O2 1255   0.574   3.217  11.052  0.0617 -0.2400  0.3002
   80TMC2    O5 1256   0.425   3.037  11.042  0.0161 -0.6991 -0.0510
   80TMC2    H5 1257   0.358   2.984  11.090  0.1388 -0.4179  0.4291
   81MPD2     C 1258   0.926   2.942  11.705 -0.3602  0.3670  0.4912
   81MPD2    C1 1259   0.809   2.997  11.752  0.3678 -1.1265  0.1694
   81MPD2    C2 1260   0.793   3.019  11.890 -0.3686 -0.2577 -0.4852
   81MPD2    C3 1261   0.909   3.006  11.970  0.0519  1.0463  0.3134
   81MPD2    C4 1262   1.025   2.946  11.919  0.5262 -0.4490 -0.2534
   81MPD2    C5 1263   1.030   2.908  11.791 -0.6657  0.3152 -0.0433
   81MPD2     H 1264   0.700   3.048  11.935  0.0385 -0.1955  0.3179
   81MPD2    H1 1265   1.115   2.939  11.979 -0.3489 -0.2963  1.0783
   81MPD2    H2 1266   0.943   2.908  11.604  0.9789 -0.0756  0.8632
   81MPD2    H3 1267   1.121   2.857  11.760 -1.1656  0.2325 -1.3777
   81MPD2     N 1268   0.924   3.061  12.101 -0.2178 -0.0163  0.0382
   81MPD2    H5 1269   1.016   3.055  12.141 -0.6544 -0.7608  0.9226
   81MPD2    N1 1270   0.706   3.022  11.652 -0.5052 -0.4331  0.3154
   81MPD2    H7 1271   0.615   3.058  11.682  0.7097  1.5129  1.6535
   82TMC2    C1 1272   3.608   1.753  11.078  0.0472  0.5533  0.1137
   82TMC2    C2 1273   3.741   1.766  11.061  0.0220  0.6709 -1.0249
   82TMC2    C3 1274   3.822   1.668  11.116 -0.4071  0.4240 -0.1494
   82TMC2    C4 1275   3.546   1.666  11.162  0.4112  0.5132 -0.7135
   82TMC2    C5 1276   3.634   1.578  11.226 -0.0466 -0.3864 -0.3194
   82TMC2    C6 1277   3.771   1.577  11.207  0.3725  0.7872  0.5396
   82TMC2     C 1278   3.513   1.846  11.021  0.6858 -0.6142  0.1577
   82TMC2     O 1279   3.397   1.812  11.006 -0.2136 -0.0927  0.1520
   82TMC2     H 1280   3.780   1.839  10.991 -1.5733  2.6911  0.1915
   82TMC2    H1 1281   3.440   1.657  11.180  0.6442 -1.4314 -0.3020
   82TMC2    H2 1282   3.840   1.512  11.260 -0.7539 -0.5916  0.3326
   82TMC2    C7 1283   3.580   1.502  11.340  0.0260  0.3838  0.1454
   82TMC2    C8 1284   3.970   1.677  11.103 -0.3401  0.1282 -0.4150
   82TMC2    O1 1285   3.469   1.457  11.341  0.0791 -0.0740 -0.5521
   82TMC2    O2 1286   4.043   1.580  11.099  0.3421  0.7756  0.8781
   82TMC2    O5 1287   4.002   1.807  11.071 -0.4759 -0.1811 -0.2597
   82TMC2    H5 1288   3.927   1.866  11.091  0.6882  1.4509 -0.6336
   83MPD2     C 1289   3.427   2.293  10.790 -0.0728 -0.3798 -0.2187
   83MPD2    C1 1290   3.339   2.187  10.802  0.4869  0.4052 -0.2160
   83MPD2    C2 1291   3.391   2.080  10.865 -0.7273  0.0201  0.1149
   83MPD2    C3 1292   3.522   2.073  10.918 -0.0623  0.2522  0.1374
   83MPD2    C4 1293   3.605   2.186  10.898  0.1284  0.1748 -0.3149
   83MPD2    C5 1294   3.557   2.297  10.841  0.2166  0.1418  0.6813
   83MPD2     H 1295   3.323   1.999  10.886  1.0533 -1.8614 -1.3611
   83MPD2    H1 1296   3.706   2.179  10.936  1.1357  0.2423 -2.9782
   83MPD2    H2 1297   3.388   2.385  10.747  4.8344  0.1843 -3.4330
   83MPD2    H3 1298   3.614   2.389  10.842  1.8511 -0.8153 -4.4091
   83MPD2     N 1299   3.576   1.964  10.986 -0.4241 -0.4876 -0.3016
   83MPD2    H5 1300   3.666   1.989  11.025 -0.8553  0.5250  0.0175
   83MPD2    N1 1301   3.212   2.194  10.737 -0.5832 -0.2593  0.1635
   83MPD2    H7 1302   3.186   2.281  10.692 -0.2068  0.2437  0.9178
   84TMC2    C1 1303   4.631   1.481  11.406  0.2456 -0.3994  0.0267
   84TMC2    C2 1304   4.638   1.487  11.540  0.3011  0.5100 -0.1494
   84TMC2    C3 1305   4.725   1.396  11.598 -0.3820 -0.5366  0.2458
   84TMC2    C4 1306   4.688   1.387  11.321 -0.5480  0.4787 -0.1290
   84TMC2    C5 1307   0.042   1.307  11.385 -0.2505  0.0160  0.3572
   84TMC2    C6 1308   0.050   1.303  11.523 -0.4987  0.4760  0.3803
   84TMC2     C 1309   4.554   1.588  11.341 -0.6713  0.6092  0.0302
   84TMC2     O 1310   4.458   1.648  11.393  0.2231  0.5239 -0.3536
   84TMC2     H 1311   4.602   1.577  11.589 -1.4900 -0.7507  0.8694
   84TMC2    H1 1312   4.674   1.385  11.214 -0.2458  0.5853 -0.1699
   84TMC2    H2 1313   0.115   1.238  11.581 -1.8628 -0.5655  0.7470
   84TMC2    C7 1314   0.167   1.263  11.311  0.0690 -0.1037  0.3187
   84TMC2    C8 1315   4.730   1.381  11.744  0.3661  0.4692  0.2279
   84TMC2    O1 1316   0.157   1.289  11.191  0.1462  0.7832  0.1871
   84TMC2    O2 1317   0.007   1.271  11.792  0.1377 -0.2916  0.1324
   84TMC2    O5 1318   4.698   1.499  11.805 -0.2932  0.0214 -0.8701
   84TMC2    H5 1319   4.717   1.576  11.747  2.3794 -0.1718 -0.2662
   85TMC2    C1 1320   0.655   0.225  15.898  0.1839 -0.1414 -0.3220
   85TMC2    C2 1321   0.575   0.215  15.784  0.0437  0.1709 -0.1030
   85TMC2    C3 1322   0.554   0.322  15.704 -0.5319  1.1766  0.1620
   85TMC2    C4 1323   0.711   0.348  15.930  0.3406  0.5522 -0.7812
   85TMC2    C5 1324   0.683   0.456  15.849 -0.6344 -0.8765 -0.2668
   85TMC2    C6 1325   0.612   0.440  15.731 -0.2195  0.5715 -0.2147
   85TMC2     C 1326   0.661   0.126  16.003 -0.8285  0.3988  0.8313
   85TMC2     O 1327   0.736   0.147  16.096 -0.3040  0.1908  0.1042
   85TMC2     H 1328   0.538   0.115  15.761 -1.0175  0.4773  0.2430
   85TMC2    H1 1329   0.757   0.364  16.027  0.3436 -2.6995 -0.2483
   85TMC2    H2 1330   0.612   0.522  15.659 -1.0374  2.4908  1.9574
   85TMC2    C7 1331   0.750   0.579  15.880  0.1070  0.2299 -0.0291
   85TMC2    C8 1332   0.472   0.297  15.586 -0.5094  0.1500 -0.2803
   85TMC2    O1 1333   0.828   0.566  15.969  0.4795 -0.4923  0.1960
   85TMC2    O2 1334   0.463   0.183  15.541 -0.2389  1.0624  0.0667
   85TMC2    O5 1335   0.428   0.408  15.533 -0.0236 -0.0125 -0.2809
   85TMC2    H5 1336   0.435   0.482  15.597  0.6335 -0.5684  0.2843
   86MPD2     C 1337   0.391   4.550  16.299 -0.3188 -0.3199 -0.3112
   86MPD2    C1 1338   0.350   4.545  16.167 -0.2132 -0.5359  0.3205
   86MPD2    C2 1339   0.410   4.617  16.071 -0.5686  0.2884  0.4557
   86MPD2    C3 1340   0.513   4.699  16.099 -0.8222 -0.0634  0.3749
   86MPD2    C4 1341   0.556   4.708  16.225  0.4258  0.3777  0.3146
   86MPD2    C5 1342   0.488   4.646  16.324  0.6624  0.2396 -0.1452
   86MPD2     H 1343   0.361   4.615  15.974  2.3202 -1.6795 -0.9372
   86MPD2    H1 1344   0.629   0.040  16.260 -0.9101  0.7750  2.2739
   86MPD2    H2 1345   0.331   4.499  16.374  1.3078  0.4865  1.5302
   86MPD2    H3 1346   0.514   4.675  16.425 -1.6732 -0.3823  0.6348
   86MPD2     N 1347   0.566   0.032  15.991 -0.4748  0.1850  0.3903
   86MPD2    H5 1348   0.506   0.038  15.909  0.1282  1.8887  0.0848
   86MPD2    N1 1349   0.234   4.477  16.122  0.0288  1.0697  0.1483
   86MPD2    H7 1350   0.206   4.491  16.025  1.3838  0.5701 -0.3146
   87TMC2    C1 1351   3.132   3.416   0.668 -0.1542  0.1733  0.2528
   87TMC2    C2 1352   3.241   3.494   0.705 -0.6421 -0.0977  0.1189
   87TMC2    C3 1353   3.268   3.510   0.839 -0.0240 -0.5968 -0.6873
   87TMC2    C4 1354   3.066   3.351   0.768 -0.1390  0.6540 -0.2095
   87TMC2    C5 1355   3.087   3.375   0.903  0.2233 -0.6318 -0.3782
   87TMC2    C6 1356   3.192   3.458   0.943  0.1175  0.0307  0.2448
   87TMC2     C 1357   3.105   3.389   0.523 -0.2767 -0.0605  0.8916
   87TMC2     O 1358   3.075   3.271   0.494 -0.1330  0.3547  0.7077
   87TMC2     H 1359   3.305   3.540   0.629 -1.0115  0.4444  0.1323
   87TMC2    H1 1360   2.992   3.276   0.741 -1.1946  1.5620  0.1796
   87TMC2    H2 1361   3.233   3.454   1.044 -1.3922 -2.0743  0.7906
   87TMC2    C7 1362   2.971   3.395   0.981 -0.3211  0.3567  0.3310
   87TMC2    C8 1363   3.408   3.526   0.868 -0.3496  0.2314 -0.3823
   87TMC2    O1 1364   2.981   3.474   1.072 -0.2086  0.2610 -0.0718
   87TMC2    O2 1365   3.487   3.484   0.785  0.4694 -0.4882  0.3332
   87TMC2    O5 1366   3.405   3.654   0.912 -0.0551 -0.2282 -0.1072
   87TMC2    H5 1367   3.319   3.682   0.950  1.7734  2.3496  2.1788
   88MPD2     C 1368   2.631   3.260   0.940  1.2866 -0.0734 -0.2061
   88MPD2    C1 1369   2.732   3.351   0.969  0.8851 -0.0541  0.2975
   88MPD2    C2 1370   2.692   3.477   1.012  0.2597  0.8755 -0.5409
   88MPD2    C3 1371   2.561   3.520   1.022 -0.7282  0.4210 -0.5976
   88MPD2    C4 1372   2.464   3.432   0.998  0.8545  0.2155 -0.3004
   88MPD2    C5 1373   2.498   3.303   0.950 -0.1368  0.1830 -1.0217
   88MPD2     H 1374   2.767   3.555   1.023 -1.0306  2.0459 -0.0688
   88MPD2    H1 1375   2.364   3.474   1.001  0.8197  0.0812  0.4907
   88MPD2    H2 1376   2.645   3.164   0.892  2.5627  0.6559 -1.2901
   88MPD2    H3 1377   2.418   3.244   0.906 -0.1962 -1.2983  1.0876
   88MPD2     N 1378   2.528   3.650   1.055  0.0160  0.4093  0.2690
   88MPD2    H5 1379   2.430   3.674   1.046  0.3344  1.3065 -0.6653
   88MPD2    N1 1380   2.865   3.320   0.938 -0.0840 -0.0009  0.0068
   88MPD2    H7 1381   2.879   3.246   0.870  0.2750 -2.4566  2.7691
   89TMC2    C1 1382   3.563   1.335   1.480 -0.4428  0.0946 -0.4333
   89TMC2    C2 1383   3.432   1.307   1.511  0.2812 -0.5445  0.5880
   89TMC2    C3 1384   3.361   1.413   1.573  0.3624  0.7205 -0.3765
   89TMC2    C4 1385   3.624   1.453   1.508  0.0044  0.2665  0.0246
   89TMC2    C5 1386   3.554   1.546   1.577 -0.3374 -0.3370  0.0365
   89TMC2    C6 1387   3.422   1.536   1.603  0.4824  0.6131 -0.3856
   89TMC2     C 1388   3.651   1.244   1.406 -1.1608 -0.9758  0.5885
   89TMC2     O 1389   3.754   1.299   1.366  0.0760 -0.3199 -1.3563
   89TMC2     H 1390   3.393   1.206   1.518 -0.5156 -0.3986 -1.6225
   89TMC2    H1 1391   3.732   1.465   1.510  0.0876 -0.8652  2.5913
   89TMC2    H2 1392   3.365   1.624   1.632  0.2893  0.1680  0.5804
   89TMC2    C7 1393   3.597   1.680   1.545  0.4063  0.0821 -0.0623
   89TMC2    C8 1394   3.232   1.380   1.627 -0.0566 -0.6176  0.4775
   89TMC2    O1 1395   3.549   1.770   1.613  0.0736 -0.3728 -0.8054
   89TMC2    O2 1396   3.185   1.273   1.604 -0.2829 -0.4387  0.4339
   89TMC2    O5 1397   3.200   1.467   1.720  0.3560  0.1575 -0.0998
   89TMC2    H5 1398   3.270   1.532   1.742  1.5119 -0.9003 -0.6886
   90MPD2     C 1399   3.767   0.803   1.198  0.1587  0.3330  0.2481
   90MPD2    C1 1400   3.630   0.803   1.203 -0.1567 -0.2140  0.4296
   90MPD2    C2 1401   3.571   0.909   1.270  0.4876  0.6375 -0.4797
   90MPD2    C3 1402   3.646   1.025   1.304 -0.3660  0.4331  0.1403
   90MPD2    C4 1403   3.781   1.028   1.278 -0.7303  0.5825 -0.8346
   90MPD2    C5 1404   3.836   0.915   1.226  0.6065  0.4466  0.4721
   90MPD2     H 1405   3.464   0.907   1.285  0.7825  3.7893  1.9505
   90MPD2    H1 1406   3.848   1.110   1.299 -0.2721  0.1403 -0.5721
   90MPD2    H2 1407   3.816   0.721   1.146 -4.2613 -1.0524 -1.6668
   90MPD2    H3 1408   3.941   0.916   1.198  0.7830 -2.0981  1.0609
   90MPD2     N 1409   3.587   1.131   1.368  0.3455  0.4352 -0.2364
   90MPD2    H5 1410   3.486   1.126   1.381  0.3644 -2.2872 -1.1925
   90MPD2    N1 1411   3.546   0.691   1.179  0.2367  0.1885 -0.2394
   90MPD2    H7 1412   3.452   0.697   1.217  0.9008  3.4276  0.9429
   91TMC2    C1 1413   0.867   1.033  16.562 -0.3898  0.3860 -0.1494
   91TMC2    C2 1414   0.903   1.136  16.480  0.0944  0.4249 -0.1695
   91TMC2    C3 1415   0.816   1.185  16.395  0.0782  0.3411 -0.4980
   91TMC2    C4 1416   0.732   0.984  16.559 -0.1887  0.0674  0.2896
   91TMC2    C5 1417   0.651   1.033  16.459  0.0180 -0.5453  0.0148
   91TMC2    C6 1418   0.695   1.132  16.371  0.1243  0.4027 -0.1010
   91TMC2     C 1419   0.967   0.938  16.605 -0.5422  0.4869  0.0342
   91TMC2     O 1420   0.929   0.839  16.662  0.5082 -0.5121  0.3938
   91TMC2     H 1421   0.998   1.186  16.486  0.1924  0.4128 -1.6853
   91TMC2    H1 1422   0.697   0.905  16.623 -0.6325 -0.1517 -0.2157
   91TMC2    H2 1423   0.628   1.191  16.310  0.6640 -0.6517 -1.7400
   91TMC2    C7 1424   0.512   1.008  16.471 -0.2244  0.3067 -0.3956
   91TMC2    C8 1425   0.846   1.316  16.346  0.5043 -0.2058  0.4750
   91TMC2    O1 1426   0.473   0.975  16.584 -0.0953 -0.1386  0.1131
   91TMC2    O2 1427   0.803   1.367  16.245  1.1703 -0.2753  0.0602
   91TMC2    O5 1428   0.900   1.384  16.448 -0.5750 -0.2222 -0.2378
   91TMC2    H5 1429   0.881   1.343  16.535  2.0776  1.3831  1.1194
   92MPD2     C 1430   1.209   0.760  16.589  0.2741  0.1763 -0.2426
   92MPD2    C1 1431   1.208   0.900  16.573  0.2096 -0.4522 -0.2968
   92MPD2    C2 1432   1.331   0.967  16.557 -0.2331  0.1890  0.2291
   92MPD2    C3 1433   1.451   0.895  16.565  0.1080  0.4213  0.5702
   92MPD2    C4 1434   1.448   0.760  16.578 -0.7720 -0.0119 -0.1111
   92MPD2    C5 1435   1.329   0.692  16.590  0.1103 -0.1783 -0.6095
   92MPD2     H 1436   1.345   1.074  16.553  2.3939 -0.2049 -1.1594
   92MPD2    H1 1437   1.538   0.700  16.584 -0.6101  0.3447  1.2231
   92MPD2    H2 1438   1.117   0.710  16.617 -0.3906  2.2239  1.2849
   92MPD2    H3 1439   1.327   0.585  16.607  1.9625 -0.2809 -1.0603
   92MPD2     N 1440   1.570   0.966  16.542 -0.6174  0.5694 -0.2864
   92MPD2    H5 1441   1.571   1.067  16.537 -0.6600  0.5182 -1.2069
   92MPD2    N1 1442   1.095   0.977  16.574  0.1692  0.5193  0.6687
   92MPD2    H7 1443   1.105   1.072  16.542 -0.8079  0.6112  0.6502
   93TMC2    C1 1444   2.833   0.777  13.942 -0.7198 -0.3699 -0.0333
   93TMC2    C2 1445   2.775   0.894  13.989  0.1513 -0.3431 -0.1159
   93TMC2    C3 1446   2.865   0.993  14.032  0.0701 -1.0018 -0.8798
   93TMC2    C4 1447   2.969   0.746  13.967 -0.8996 -0.1649  0.4658
   93TMC2    C5 1448   3.054   0.847  14.019  0.5193  0.0870  0.5082
   93TMC2    C6 1449   2.999   0.971  14.036 -0.2549 -0.2073  0.1368
   93TMC2     C 1450   2.750   0.680  13.876  0.1484 -0.1352 -0.0306
   93TMC2     O 1451   2.803   0.581  13.832 -0.2842  0.2074  0.3717
   93TMC2     H 1452   2.671   0.909  14.014 -0.0306  0.0655 -1.0973
   93TMC2    H1 1453   3.011   0.653  13.930  1.2411  1.3078 -0.7668
   93TMC2    H2 1454   3.065   1.055  14.058 -1.0011 -0.1708  2.2797
   93TMC2    C7 1455   3.197   0.828  13.992 -0.1600 -0.1389 -0.1115
   93TMC2    C8 1456   2.823   1.121  14.063  0.2124 -0.1733  0.6435
   93TMC2    O1 1457   3.227   0.723  13.936 -0.3473  0.2978  0.0024
   93TMC2    O2 1458   2.899   1.199  14.119 -0.0168  0.1265  0.9322
   93TMC2    O5 1459   2.726   1.152  13.973  0.5245  0.0781  0.2469
   93TMC2    H5 1460   2.690   1.072  13.929  0.3129  0.2786  0.0604
   94MPD2     C 1461   2.516   0.501  13.837 -0.5218  0.1174  0.7048
   94MPD2    C1 1462   2.513   0.642  13.832  1.2448 -0.1043  1.0103
   94MPD2    C2 1463   2.397   0.709  13.797  0.2256  0.5053  0.3555
   94MPD2    C3 1464   2.294   0.632  13.747  0.4996  0.4506 -0.3170
   94MPD2    C4 1465   2.295   0.495  13.756 -0.1217  0.0792 -0.4049
   94MPD2    C5 1466   2.407   0.433  13.795  0.3231  0.2886  0.3974
   94MPD2     H 1467   2.379   0.815  13.808  0.1545  0.6760 -1.5406
   94MPD2    H1 1468   2.207   0.434  13.741 -0.3998  0.4279 -0.1813
   94MPD2    H2 1469   2.600   0.439  13.864  0.8461  1.0382 -1.5108
   94MPD2    H3 1470   2.412   0.324  13.790  1.4558  0.3340  0.4283
   94MPD2     N 1471   2.166   0.681  13.704  0.3389  0.3085  0.2807
   94MPD2    H5 1472   2.105   0.610  13.666 -0.1665  1.2628 -0.6996
   94MPD2    N1 1473   2.620   0.717  13.888 -0.3059  0.1461 -0.1392
   94MPD2    H7 1474   2.606   0.817  13.899  0.7340  0.5888 -2.8213
   95TMC2    C1 1475   2.513   3.498  15.856  1.0113  0.1605  0.4517
   95TMC2    C2 1476   2.496   3.461  15.986 -0.1430  0.2194 -0.8182
   95TMC2    C3 1477   2.455   3.560  16.071  0.5090  0.5472 -0.0328
   95TMC2    C4 1478   2.483   3.623  15.809  0.5042  0.1447 -0.1684
   95TMC2    C5 1479   2.442   3.723  15.901  0.1199  0.6197  1.5250
   95TMC2    C6 1480   2.426   3.693  16.036 -0.5985  0.3431  0.7712
   95TMC2     C 1481   2.572   3.396  15.770  0.5291 -0.1210  0.3165
   95TMC2     O 1482   2.618   3.437  15.659  0.7664  0.2520 -0.2071
   95TMC2     H 1483   2.507   3.362  16.029  1.2511  0.1210 -1.4043
   95TMC2    H1 1484   2.481   3.635  15.702 -3.5731 -1.1170 -0.2554
   95TMC2    H2 1485   2.398   3.769  16.108 -1.5347  2.5465 -1.9330
   95TMC2    C7 1486   2.389   3.853  15.869  0.0324 -0.0565  0.1272
   95TMC2    C8 1487   2.405   3.517  16.196 -0.2841 -0.0813 -0.0363
   95TMC2    O1 1488   2.335   3.913  15.962 -0.4838 -0.2923 -0.1307
   95TMC2    O2 1489   2.313   3.441  16.202 -0.5224  0.5912  0.1584
   95TMC2    O5 1490   2.526   3.486  16.248 -0.1267  0.8958  0.0901
   95TMC2    H5 1491   2.595   3.551  16.222  0.9257 -0.0520  0.5041
   96MPD2     C 1492   2.654   2.932  15.600  0.2220  0.1609 -0.1702
   96MPD2    C1 1493   2.732   3.047  15.586  0.0524 -0.6696  0.1150
   96MPD2    C2 1494   2.699   3.159  15.661 -0.1909  0.0061  0.2390
   96MPD2    C3 1495   2.590   3.154  15.750 -0.2207 -0.2600 -0.4697
   96MPD2    C4 1496   2.521   3.032  15.770  0.0493 -0.1503 -0.4107
   96MPD2    C5 1497   2.549   2.923  15.693  0.8884  1.3494  0.7640
   96MPD2     H 1498   2.753   3.253  15.658  0.4992 -0.4341 -1.2610
   96MPD2    H1 1499   2.447   3.042  15.848 -2.1624 -4.7209 -1.9144
   96MPD2    H2 1500   2.660   2.837  15.548 -0.3667  0.4983 -0.8646
   96MPD2    H3 1501   2.500   2.826  15.696  0.4187  1.6523  3.1091
   96MPD2     N 1502   2.545   3.269  15.821  0.0533  0.4164  0.2069
   96MPD2    H5 1503   2.488   3.245  15.902  1.4908  0.2131  1.1551
   96MPD2    N1 1504   2.845   3.048  15.506  0.2682 -0.2268  0.2308
   96MPD2    H7 1505   2.895   3.136  15.505 -0.0737 -0.0161  2.6624
   97TMC2    C1 1506   4.340   1.084  17.496  0.5330  0.1676  0.3788
   97TMC2    C2 1507   4.245   1.172  17.446  0.4781 -0.2191  0.1793
   97TMC2    C3 1508   4.284   1.268  17.354 -0.1051  0.3149  0.0495
   97TMC2    C4 1509   4.467   1.105  17.465  0.2226  0.3375 -0.0056
   97TMC2    C5 1510   4.509   1.208  17.381 -0.3413  0.4806  0.5689
   97TMC2    C6 1511   4.412   1.288  17.320  0.4682  1.0821 -0.5016
   97TMC2     C 1512   4.298   0.998  17.607  0.4042 -0.3274  0.2058
   97TMC2     O 1513   4.180   0.988  17.632 -0.1570  0.0125  0.5960
   97TMC2     H 1514   4.139   1.147  17.455 -0.0646  1.8800 -0.4073
   97TMC2    H1 1515   4.550   1.052  17.511  0.3927 -0.2003 -0.9441
   97TMC2    H2 1516   4.437   1.371  17.256  1.9008  1.2058  0.2284
   97TMC2    C7 1517   4.654   1.232  17.369 -0.1848  0.3886  1.0643
   97TMC2    C8 1518   4.194   1.369  17.313 -0.8529  0.6578  1.1161
   97TMC2    O1 1519   4.727   1.164  17.439 -0.2309  0.1729  0.3080
   97TMC2    O2 1520   4.190   1.414  17.200  0.2771  0.3544  0.2237
   97TMC2    O5 1521   4.090   1.366  17.396 -0.2183  0.6138  0.3580
   97TMC2    H5 1522   4.101   1.347  17.492 -3.9703  0.9968  0.8573
   98MPD2     C 1523   4.439   0.619   0.190  0.4581  0.2431  0.1173
   98MPD2    C1 1524   4.314   0.682   0.174 -0.6930 -0.3240  0.0119
   98MPD2    C2 1525   4.294   0.788   0.080 -0.3190  0.5091  0.3597
   98MPD2    C3 1526   4.399   0.824   0.003 -0.4862  0.2159  0.3063
   98MPD2    C4 1527   4.520   0.760   0.020 -0.1167 -0.1769  0.2063
   98MPD2    C5 1528   4.539   0.669   0.112  0.4147  0.0342 -0.2868
   98MPD2     H 1529   4.201   0.844   0.074 -0.4310 -0.1019 -3.4357
   98MPD2    H1 1530   4.610   0.780  17.721 -0.9760 -0.7466 -1.3690
   98MPD2    H2 1531   4.461   0.533   0.252 -1.0431  0.4167  0.8881
   98MPD2    H3 1532   4.645   0.645   0.122 -0.2389 -2.1197  1.4104
   98MPD2     N 1533   4.403   0.930  17.662 -0.0356  0.1939 -0.3936
   98MPD2    H5 1534   4.486   0.943  17.604 -1.2553  2.9335 -1.5497
   98MPD2    N1 1535   4.205   0.633   0.251  0.0689  0.1151 -0.4378
   98MPD2    H7 1536   4.219   0.547   0.304 -1.4036  0.5315  0.6312
   99TMC2    C1 1537   3.143   2.803   1.645 -0.0849  0.0936 -0.5922
   99TMC2    C2 1538   3.193   2.930   1.664  0.5879 -0.9380 -0.8704
   99TMC2    C3 1539   3.109   3.035   1.670 -0.6337  0.4737  0.1447
   99TMC2    C4 1540   3.011   2.789   1.612  0.0893 -0.2080  0.0955
   99TMC2    C5 1541   2.929   2.903   1.610  0.0550 -0.1374  0.6091
   99TMC2    C6 1542   2.980   3.023   1.635  0.6335 -0.4395  0.0620
   99TMC2     C 1543   3.241   2.695   1.632  0.5068  1.3441  0.2991
   99TMC2     O 1544   3.357   2.702   1.678  0.2889 -0.1699 -0.0564
   99TMC2     H 1545   3.300   2.941   1.675  0.3653 -0.0434  0.4317
   99TMC2    H1 1546   2.965   2.691   1.613 -1.0443  0.3528  1.2571
   99TMC2    H2 1547   2.915   3.109   1.625  0.6114 -0.3582  0.9373
   99TMC2    C7 1548   2.782   2.889   1.608  0.1372  0.5587 -0.0413
   99TMC2    C8 1549   3.152   3.173   1.661 -0.1828  0.8943 -0.8654
   99TMC2    O1 1550   2.724   2.980   1.667  0.3171 -0.1609  0.6483
   99TMC2    O2 1551   3.095   3.253   1.592  0.7161  0.0525 -0.5679
   99TMC2    O5 1552   3.233   3.184   1.763 -0.3697  0.5008  0.8703
   99TMC2    H5 1553   3.244   3.096   1.806 -0.4851 -0.5796 -1.3070
  100MPD2     C 1554   3.378   2.449   1.554  0.5553  0.0977  0.0737
  100MPD2    C1 1555   3.268   2.501   1.491  0.4196  0.5244 -0.5203
  100MPD2    C2 1556   3.222   2.449   1.375  0.0609  0.0729 -0.4391
  100MPD2    C3 1557   3.311   2.363   1.314  0.6625 -0.1823 -0.3056
  100MPD2    C4 1558   3.425   2.308   1.370 -0.2079  0.9004 -0.1558
  100MPD2    C5 1559   3.459   2.350   1.498 -0.2349 -0.1632 -0.9865
  100MPD2     H 1560   3.139   2.495   1.323  1.3584  2.0319 -0.7780
  100MPD2    H1 1561   3.494   2.244   1.317  0.5260  1.8629 -0.3572
  100MPD2    H2 1562   3.426   2.484   1.644  1.2418 -2.8309  0.8558
  100MPD2    H3 1563   3.539   2.302   1.553  0.3207  2.2881  0.3143
  100MPD2     N 1564   3.273   2.339   1.180  0.1247 -0.3750  0.4034
  100MPD2    H5 1565   3.195   2.395   1.148 -0.0536 -1.5208 -1.1709
  100MPD2    N1 1566   3.196   2.607   1.541  0.0885  0.2835  0.3092
  100MPD2    H7 1567   3.103   2.620   1.504  0.1154  2.5998  1.0742
  101TMC2    C1 1568   4.483   3.554  13.176 -0.1891 -0.1502  0.6857
  101TMC2    C2 1569   4.519   3.582  13.303  0.0849  0.8429  0.1588
  101TMC2    C3 1570   4.645   3.624  13.323  0.0283  0.4697  0.2425
  101TMC2    C4 1571   4.568   3.570  13.073  0.1858 -0.6851  0.4658
  101TMC2    C5 1572   4.693   3.617  13.098  0.4282 -0.6070  0.9654
  101TMC2    C6 1573   4.739   3.650  13.221 -0.8901  0.0629 -0.2435
  101TMC2     C 1574   4.344   3.506  13.149 -0.2882 -0.2307 -0.4783
  101TMC2     O 1575   4.278   3.468  13.247 -0.3284 -0.3700 -0.1219
  101TMC2     H 1576   4.450   3.577  13.386 -0.3778 -1.8351 -0.3880
  101TMC2    H1 1577   4.527   3.531  12.980  0.6470 -0.2844  0.0956
  101TMC2    H2 1578   0.102   3.685  13.233 -0.9518 -0.5709  2.2738
  101TMC2    C7 1579   0.025   3.627  12.978 -0.7897 -0.4525 -0.3137
  101TMC2    C8 1580   4.710   3.614  13.453  0.0512  0.0068 -0.1248
  101TMC2    O1 1581   4.699   3.629  12.877 -0.6527  0.2157  0.3450
  101TMC2    O2 1582   0.085   3.571  13.468 -0.6327  0.1759 -0.0701
  101TMC2    O5 1583   4.610   3.593  13.545 -0.5018  0.2791 -0.3844
  101TMC2    H5 1584   4.539   3.657  13.520 -0.0250  1.5676  1.5632
  102MPD2     C 1585   4.141   3.658  12.875 -0.2086  0.6190  0.3602
  102MPD2    C1 1586   4.167   3.571  12.978  0.1151  0.2292 -0.2317
  102MPD2    C2 1587   4.062   3.487  13.017  0.3866  0.9018  0.3484
  102MPD2    C3 1588   3.936   3.484  12.957 -0.4819  0.8762 -0.0201
  102MPD2    C4 1589   3.916   3.574  12.848  0.6799  0.2763 -0.2811
  102MPD2    C5 1590   4.017   3.659  12.816  0.4718 -0.0642 -0.3375
  102MPD2     H 1591   4.075   3.419  13.101 -0.8957 -0.2738 -0.4081
  102MPD2    H1 1592   3.822   3.587  12.796  0.0748 -2.4281  0.1376
  102MPD2    H2 1593   4.218   3.724  12.838  2.5317 -2.9355 -0.3044
  102MPD2    H3 1594   3.999   3.732  12.739 -3.2734 -0.2763  0.3287
  102MPD2     N 1595   3.849   3.387  12.995  0.0098 -0.3838  0.8729
  102MPD2    H5 1596   3.870   3.338  13.082  1.9776 -0.6551  0.2347
  102MPD2    N1 1597   4.297   3.566  13.034 -0.1983  0.4123  0.2493
  102MPD2    H7 1598   4.360   3.624  12.980 -0.1930  1.1638  1.0584
  103TMC2    C1 1599   2.248   3.296  12.295 -0.2849  0.0315  0.0454
  103TMC2    C2 1600   2.276   3.407  12.220  0.1764 -0.1807 -0.2084
  103TMC2    C3 1601   2.327   3.512  12.277  0.4696 -0.4722 -0.0154
  103TMC2    C4 1602   2.286   3.284  12.428  0.0093 -0.6886 -0.3606
  103TMC2    C5 1603   2.337   3.403  12.482 -1.2407 -0.4175 -1.3905
  103TMC2    C6 1604   2.365   3.513  12.410 -0.7216  0.8343 -0.1845
  103TMC2     C 1605   2.146   3.201  12.247 -0.6751 -0.2085  0.2318
  103TMC2     O 1606   2.076   3.241  12.153 -0.5329 -0.6158  0.2051
  103TMC2     H 1607   2.243   3.401  12.116 -0.2702  0.0388 -0.0798
  103TMC2    H1 1608   2.245   3.206  12.490  1.7486 -1.9138 -0.7593
  103TMC2    H2 1609   2.397   3.606  12.454 -1.7320  1.0241  0.1522
  103TMC2    C7 1610   2.370   3.395  12.630  0.0940 -0.2431 -0.0973
  103TMC2    C8 1611   2.290   3.634  12.215  0.1851  0.8478 -0.6774
  103TMC2    O1 1612   2.313   3.305  12.689  0.4568 -0.4196 -0.4633
  103TMC2    O2 1613   2.181   3.642  12.159  0.0654 -0.3816 -0.3825
  103TMC2    O5 1614   2.407   3.711  12.192  0.3796 -0.4042  0.1330
  103TMC2    H5 1615   2.480   3.686  12.251  0.8114  0.7324  0.0787
  104MPD2     C 1616   2.101   2.846  12.311 -0.0249 -0.3074 -0.1171
  104MPD2    C1 1617   2.069   2.969  12.256  0.2940  0.5724  0.4034
  104MPD2    C2 1618   1.955   2.978  12.176  0.5490  0.2970  1.0660
  104MPD2    C3 1619   1.877   2.870  12.138 -0.6825 -0.8257  0.9081
  104MPD2    C4 1620   1.923   2.748  12.186  0.6270 -0.3562  0.1740
  104MPD2    C5 1621   2.030   2.740  12.269  0.8026 -0.3239 -0.5463
  104MPD2     H 1622   1.921   3.074  12.138 -0.5125  0.1224  1.5539
  104MPD2    H1 1623   1.869   2.655  12.175  1.3376 -0.6633 -0.7153
  104MPD2    H2 1624   2.189   2.830  12.373  1.3685 -1.5033 -2.4035
  104MPD2    H3 1625   2.070   2.646  12.304  2.3274  0.8173  0.8147
  104MPD2     N 1626   1.770   2.887  12.046  0.3181 -0.1263  0.4075
  104MPD2    H5 1627   1.751   2.982  12.016 -0.2954  0.4359  2.5396
  104MPD2    N1 1628   2.152   3.068  12.295  0.1915  0.4154  0.0225
  104MPD2    H7 1629   2.228   3.044  12.358  0.0983  2.2407  0.8426
  105TMC2    C1 1630   3.169   2.846  17.551  0.6021  0.0673 -0.0559
  105TMC2    C2 1631   3.057   2.786  17.606 -0.1183  0.0929 -0.4379
  105TMC2    C3 1632   2.966   2.864  17.671  0.0627  0.0249  0.5367
  105TMC2    C4 1633   3.188   2.978  17.570 -0.1151 -0.2208  0.0392
  105TMC2    C5 1634   3.089   3.049  17.635 -0.8867  0.1970 -0.0514
  105TMC2    C6 1635   2.973   2.999  17.685 -0.1731  0.2952 -0.4576
  105TMC2     C 1636   3.236   2.766  17.445  0.5095  0.1445  0.2219
  105TMC2     O 1637   3.208   2.647  17.427  0.3813  0.0029  0.1673
  105TMC2     H 1638   3.029   2.684  17.585 -0.7636  0.3483 -0.8123
  105TMC2    H1 1639   3.266   3.036  17.522 -0.3136  2.2074  2.6153
  105TMC2    H2 1640   2.893   3.057  17.731 -0.5898  0.7249 -1.7152
  105TMC2    C7 1641   3.107   3.192  17.659 -0.1868 -0.4029  0.2081
  105TMC2    C8 1642   2.850   2.792  17.726 -0.5785  0.4928  0.5399
  105TMC2    O1 1643   3.151   3.256  17.565 -0.3242  0.1678  0.0891
  105TMC2    O2 1644   2.821   2.682  17.680  0.2139  0.2217 -0.6294
  105TMC2    O5 1645   2.811   2.851   0.078 -0.2717  0.6061 -0.3806
  105TMC2    H5 1646   2.859   2.932   0.106  1.2447 -0.1852 -0.7505
  106MPD2     C 1647   3.626   2.734  17.104  0.3087 -0.9895 -0.5876
  106MPD2    C1 1648   3.599   2.868  17.122 -0.6239  0.1252  0.4543
  106MPD2    C2 1649   3.495   2.899  17.213  0.9532  0.5374  0.0567
  106MPD2    C3 1650   3.417   2.799  17.274  0.6799  0.3448  0.1015
  106MPD2    C4 1651   3.449   2.668  17.247 -0.2544 -0.3984 -0.5684
  106MPD2    C5 1652   3.557   2.636  17.168  0.1403 -0.1564  0.7657
  106MPD2     H 1653   3.467   3.003  17.208 -0.9406 -0.1024 -2.7468
  106MPD2    H1 1654   3.395   2.594  17.305 -2.5457  1.6766 -0.0398
  106MPD2    H2 1655   3.692   2.706  17.023  2.5270 -1.1382  1.2711
  106MPD2    H3 1656   3.578   2.535  17.134 -1.7908 -1.4956  3.6272
  106MPD2     N 1657   3.322   2.846  17.374  0.1004  0.8274 -0.9379
  106MPD2    H5 1658   3.312   2.947  17.383 -0.0088  0.6966  0.3827
  106MPD2    N1 1659   3.667   2.980  17.058 -0.2914 -0.3933  0.4716
  106MPD2    H7 1660   3.628   3.073  17.068 -1.4534 -0.8605  0.2901
  107TMC2    C1 1661   3.997   2.172  11.202 -0.3796  0.0566  0.4502
  107TMC2    C2 1662   3.977   2.311  11.211 -0.0738  0.0117 -0.1638
  107TMC2    C3 1663   4.082   2.382  11.156  0.1531  0.1871 -0.7602
  107TMC2    C4 1664   4.100   2.108  11.138 -0.2714 -0.2660  0.2702
  107TMC2    C5 1665   4.203   2.181  11.093  0.2803  0.0616 -0.2531
  107TMC2    C6 1666   4.191   2.319  11.101 -0.2038 -0.0762  0.0763
  107TMC2     C 1667   3.882   2.096  11.236  0.0637  0.2751  0.2004
  107TMC2     O 1668   3.830   2.026  11.151 -0.1067  0.2460 -0.1441
  107TMC2     H 1669   3.897   2.359  11.265 -0.1006  0.2258 -0.3947
  107TMC2    H1 1670   4.102   1.999  11.139  1.6456 -0.2650 -2.0153
  107TMC2    H2 1671   4.274   2.381  11.070  0.1293 -1.0048 -0.9045
  107TMC2    C7 1672   4.314   2.120  11.030  0.4303  0.0593  0.9279
  107TMC2    C8 1673   4.099   2.528  11.168  0.3817 -0.4410 -0.4821
  107TMC2    O1 1674   4.362   2.180  10.935  0.3527 -0.2279 -0.1669
  107TMC2    O2 1675   4.209   2.560  11.210  0.3665 -0.2436 -0.2049
  107TMC2    O5 1676   3.986   2.587  11.202  0.0448  0.2447  0.2003
  107TMC2    H5 1677   3.911   2.549  11.151  0.5460 -0.7876  0.2205
  108MPD2     C 1678   3.610   2.069  11.348 -0.1202  0.4445  0.5841
  108MPD2    C1 1679   3.724   2.092  11.424  0.1853  0.0365  0.2288
  108MPD2    C2 1680   3.729   2.097  11.559 -0.1653  0.0521  0.1488
  108MPD2    C3 1681   3.604   2.090  11.628 -0.1659 -0.6169 -0.0489
  108MPD2    C4 1682   3.493   2.077  11.551 -0.5229  0.4210 -0.2318
  108MPD2    C5 1683   3.491   2.057  11.414 -0.3146 -0.3414  0.1879
  108MPD2     H 1684   3.823   2.117  11.609  0.1531 -1.4828  0.1504
  108MPD2    H1 1685   3.398   2.063  11.602 -0.5913  2.3768  0.1932
  108MPD2    H2 1686   3.619   2.056  11.241 -1.8140 -2.5926  0.7979
  108MPD2    H3 1687   3.402   2.044  11.355 -0.6551  0.4348  0.5254
  108MPD2     N 1688   3.589   2.088  11.771 -0.1460 -0.4412  0.6471
  108MPD2    H5 1689   3.499   2.092  11.818  0.1866  0.2064  1.2335
  108MPD2    N1 1690   3.850   2.120  11.365  0.3162  0.1005 -0.0970
  108MPD2    H7 1691   3.917   2.167  11.425  0.8844  0.2369 -0.8423
  109TMC2    C1 1692   4.164   4.158   0.138 -0.7579 -0.4519 -0.2729
  109TMC2    C2 1693   4.201   4.173   0.009 -0.1580  0.2474  0.3387
  109TMC2    C3 1694   4.216   4.300  17.722  0.3395  0.6836  0.0345
  109TMC2    C4 1695   4.105   4.265   0.210  0.4194  0.6367 -0.5504
  109TMC2    C5 1696   4.105   4.386   0.146 -0.0242  0.5541  0.2385
  109TMC2    C6 1697   4.176   4.408   0.038  0.0468 -0.0318  0.7168
  109TMC2     C 1698   4.184   4.024   0.197  0.3642  0.5836 -1.2048
  109TMC2     O 1699   4.258   3.956   0.131  0.0010 -0.3622 -0.4325
  109TMC2     H 1700   4.247   4.092  17.711 -0.6198  0.1072  0.1639
  109TMC2    H1 1701   4.052   4.235   0.300 -0.8702  2.0529 -0.8396
  109TMC2    H2 1702   4.166   4.504  17.745 -2.0478 -0.5607  0.1376
  109TMC2    C7 1703   4.054   4.505   0.214 -0.3934  0.3492 -0.3793
  109TMC2    C8 1704   4.274   4.329  17.585 -0.7244 -0.0152  0.6165
  109TMC2    O1 1705   4.101   4.611   0.182  0.4236 -0.2121  0.1472
  109TMC2    O2 1706   4.254   4.257  17.491  0.3484  0.4142  0.1847
  109TMC2    O5 1707   4.374   4.421  17.596 -0.5867  0.2213 -0.1649
  109TMC2    H5 1708   4.385   4.462  17.684  0.3039 -0.7397  0.1786
  110MPD2     C 1709   4.325   3.768   0.609  0.4826  0.6334  0.0702
  110MPD2    C1 1710   4.237   3.869   0.647  1.1693  0.1553 -0.8832
  110MPD2    C2 1711   4.166   3.938   0.556  0.0886 -0.5916  0.6651
  110MPD2    C3 1712   4.196   3.930   0.422  0.5006 -0.2396  0.0773
  110MPD2    C4 1713   4.270   3.819   0.384  0.0942  0.0498  0.0641
  110MPD2    C5 1714   4.331   3.739   0.474  0.4697  0.4518  0.1407
  110MPD2     H 1715   4.109   4.027   0.577 -0.7285 -0.5510 -1.7161
  110MPD2    H1 1716   4.283   3.795   0.278 -0.9945  0.5189 -0.1701
  110MPD2    H2 1717   4.384   3.703   0.673  0.0713  0.2247  0.0300
  110MPD2    H3 1718   4.383   3.651   0.437  3.0156  1.1325  2.1127
  110MPD2     N 1719   4.140   4.017   0.324  0.7649 -0.1067  0.4021
  110MPD2    H5 1720   4.075   4.084   0.365 -1.3234 -0.1117 -2.8425
  110MPD2    N1 1721   4.221   3.889   0.788 -0.2210 -0.8097 -0.3375
  110MPD2    H7 1722   4.290   3.841   0.845  1.8683  2.7348  0.1469
  111TMC2    C1 1723   3.826   3.756  11.777  0.9177 -0.1533 -0.2558
  111TMC2    C2 1724   3.764   3.762  11.900 -0.1410  0.4387 -0.8255
  111TMC2    C3 1725   3.842   3.772  12.008 -0.7820  0.3162  0.3648
  111TMC2    C4 1726   3.963   3.755  11.763 -0.7835  1.3094  0.5279
  111TMC2    C5 1727   4.037   3.747  11.875  0.0702  0.1269  0.8428
  111TMC2    C6 1728   3.982   3.765  11.999  0.4635 -0.3560  0.2765
  111TMC2     C 1729   3.753   3.738  11.651  0.7409  0.1839  0.1612
  111TMC2     O 1730   3.818   3.700  11.553  0.3692 -0.2080  0.3780
  111TMC2     H 1731   3.657   3.773  11.907  0.0316  0.4287  1.6726
  111TMC2    H1 1732   4.000   3.740  11.662  1.9696  1.4774  1.5396
  111TMC2    H2 1733   4.047   3.765  12.086  0.9801  2.9758 -0.1055
  111TMC2    C7 1734   4.179   3.723  11.866  0.3979 -0.6457 -0.8973
  111TMC2    C8 1735   3.785   3.780  12.136 -0.1708  0.0727  0.4526
  111TMC2    O1 1736   4.229   3.735  11.975  0.2403  0.5777 -0.7582
  111TMC2    O2 1737   3.828   3.710  12.226  0.1286 -0.0741  0.0926
  111TMC2    O5 1738   3.702   3.886  12.138  0.5466 -0.5622 -0.0298
  111TMC2    H5 1739   3.695   3.939  12.056  0.9054 -0.5835 -0.0731
  112MPD2     C 1740   3.364   3.764  11.327  0.2445 -0.2133  0.2161
  112MPD2    C1 1741   3.497   3.793  11.306 -0.3469  0.2896  0.0500
  112MPD2    C2 1742   3.576   3.784  11.420  0.2714 -0.7549 -0.4264
  112MPD2    C3 1743   3.535   3.762  11.545  0.3977  0.4367  0.2900
  112MPD2    C4 1744   3.400   3.746  11.559 -0.7213 -0.1944  0.1962
  112MPD2    C5 1745   3.317   3.735  11.450 -0.8529  0.1663  0.1303
  112MPD2     H 1746   3.681   3.803  11.404 -0.0510  1.8427  0.6005
  112MPD2    H1 1747   3.366   3.718  11.658 -1.1819  0.8988  0.3482
  112MPD2    H2 1748   3.299   3.759  11.240  0.7042 -2.7118 -0.0018
  112MPD2    H3 1749   3.216   3.701  11.474 -1.3886  0.5995 -1.5053
  112MPD2     N 1750   3.619   3.759  11.658  0.5285  0.1572 -0.1337
  112MPD2    H5 1751   3.591   3.752  11.755 -0.9913  1.4955 -0.4829
  112MPD2    N1 1752   3.559   3.822  11.185  0.3193 -0.1280  0.7871
  112MPD2    H7 1753   3.653   3.857  11.201 -0.6054  1.2278  3.2770
  113TMC2    C1 1754   2.046   2.625   0.612  1.1015 -0.1653 -0.1618
  113TMC2    C2 1755   1.949   2.723   0.594  1.0366  0.3005 -0.7366
  113TMC2    C3 1756   1.829   2.695   0.539  0.3757  0.0918 -0.1462
  113TMC2    C4 1757   2.024   2.497   0.571 -0.3066 -0.0271  0.1618
  113TMC2    C5 1758   1.907   2.485   0.494 -0.3994  0.2807  0.1350
  113TMC2    C6 1759   1.810   2.573   0.481  0.6501 -0.5718 -0.1940
  113TMC2     C 1760   2.170   2.671   0.668 -0.1131  0.9247 -0.3477
  113TMC2     O 1761   2.170   2.776   0.736  0.1263  0.2513 -0.3794
  113TMC2     H 1762   1.953   2.816   0.650  0.8853 -1.2097  1.7562
  113TMC2    H1 1763   2.100   2.420   0.563 -0.7057 -0.5319  1.3143
  113TMC2    H2 1764   1.718   2.541   0.433  0.3396 -0.8254  0.5698
  113TMC2    C7 1765   1.877   2.360   0.433  0.2343  0.3460 -0.0186
  113TMC2    C8 1766   1.725   2.795   0.523 -0.2096  1.2641 -0.6787
  113TMC2    O1 1767   1.808   2.365   0.330 -0.7725 -0.3174 -0.0818
  113TMC2    O2 1768   1.682   2.874   0.611  0.2730 -0.4497  0.3012
  113TMC2    O5 1769   1.678   2.771   0.398  0.0742  0.2031 -0.4141
  113TMC2    H5 1770   1.733   2.720   0.335 -0.0110 -0.2156 -0.1494
  114MPD2     C 1771   2.652   2.560   0.844  0.1769 -0.1960 -0.2046
  114MPD2    C1 1772   2.554   2.648   0.889 -0.4912 -0.3149  0.1122
  114MPD2    C2 1773   2.426   2.649   0.832  0.6075 -0.2627  0.1420
  114MPD2    C3 1774   2.400   2.577   0.720  0.4336 -0.4189  0.1361
  114MPD2    C4 1775   2.489   2.480   0.679  0.0162 -0.3599 -0.8869
  114MPD2    C5 1776   2.611   2.474   0.739  0.5544 -0.3828 -0.3112
  114MPD2     H 1777   2.343   2.694   0.886 -1.1080 -0.5529 -2.2620
  114MPD2    H1 1778   2.461   2.405   0.605 -0.9519 -0.4695 -0.4097
  114MPD2    H2 1779   2.758   2.573   0.865  0.3282  1.8379 -2.3206
  114MPD2    H3 1780   2.686   2.398   0.720  0.3339 -0.4185 -1.0269
  114MPD2     N 1781   2.270   2.578   0.657  0.1611 -0.1547 -0.5108
  114MPD2    H5 1782   2.267   2.524   0.571 -0.1439 -0.5368 -0.2559
  114MPD2    N1 1783   2.576   2.748   0.987  0.2184  0.1002  0.1388
  114MPD2    H7 1784   2.509   2.824   0.993  1.2056  0.9020  1.1266
  115TMC2    C1 1785   3.360   0.204  17.729 -0.4226 -0.2438  0.0672
  115TMC2    C2 1786   3.491   0.184   0.008  0.4003 -0.7019 -0.4239
  115TMC2    C3 1787   3.581   0.295   0.001  0.5018  0.0129  0.6067
  115TMC2    C4 1788   3.335   0.323  17.664  0.0981  0.1922 -0.5530
  115TMC2    C5 1789   3.425   0.428  17.643  0.4472 -0.3197 -0.5037
  115TMC2    C6 1790   3.552   0.416  17.689 -0.9804 -0.2692  0.6850
  115TMC2     C 1791   3.282   0.080  17.702  0.2350  0.5453 -0.2315
  115TMC2     O 1792   3.210   0.082  17.605 -0.6104 -0.1197  0.1830
  115TMC2     H 1793   3.510   0.101   0.075  3.9631 -1.2185 -2.0538
  115TMC2    H1 1794   3.232   0.341  17.638 -0.0883  0.5128  0.4106
  115TMC2    H2 1795   3.617   0.502  17.693  0.4950 -1.2820 -1.6652
  115TMC2    C7 1796   3.373   0.558  17.625 -0.1124  0.3902  0.5414
  115TMC2    C8 1797   3.720   0.281   0.036 -0.3413 -1.2965 -0.6858
  115TMC2    O1 1798   3.268   0.578  17.687 -0.4782  0.1913 -0.0587
  115TMC2    O2 1799   3.776   0.362   0.104 -0.0010 -0.1048 -0.5260
  115TMC2    O5 1800   3.771   0.245  17.668 -0.3561 -0.5181  0.2614
  115TMC2    H5 1801   3.725   0.182  17.609  0.2638 -0.5322 -0.2086
  116MPD2     C 1802   3.181   4.326   0.021  0.1058 -0.3000 -0.0463
  116MPD2    C1 1803   3.136   4.407  17.670  0.2265  0.0305 -0.2540
  116MPD2    C2 1804   3.177   4.538  17.674 -0.6654  0.2590  0.7905
  116MPD2    C3 1805   3.266   4.583   0.017  0.9961 -0.3747 -0.0186
  116MPD2    C4 1806   3.308   4.497   0.120 -0.0330 -0.1046 -0.1876
  116MPD2    C5 1807   3.260   4.367   0.122 -0.7825 -0.9651 -0.5311
  116MPD2     H 1808   3.155   4.604  17.591 -2.0032  0.1758  1.0756
  116MPD2    H1 1809   3.372   4.523   0.204 -2.7827 -1.2677  2.2732
  116MPD2    H2 1810   3.131   4.230   0.034 -2.0218  0.8443  0.1406
  116MPD2    H3 1811   3.277   4.295   0.201  0.6350 -0.5995 -0.4978
  116MPD2     N 1812   3.315   4.719   0.025  0.0613 -0.1996  0.2094
  116MPD2    H5 1813   3.378   4.737   0.102  1.0094  0.9013 -0.8204
  116MPD2    N1 1814   3.053   4.356  17.571 -0.3586 -0.5374  0.3073
  116MPD2    H7 1815   3.054   4.255  17.567 -2.0454 -0.5592  0.5306
  117TMC2    C1 1816   1.908   1.876  14.346 -0.0021  0.0005 -0.0486
  117TMC2    C2 1817   1.952   1.928  14.465 -0.0106 -0.3827  0.5202
  117TMC2    C3 1818   2.042   2.032  14.467  0.1179  0.6690 -0.1643
  117TMC2    C4 1819   1.953   1.931  14.230 -0.4074 -0.0189 -0.1981
  117TMC2    C5 1820   2.028   2.043  14.235  0.2742  0.1506  0.3261
  117TMC2    C6 1821   2.073   2.100  14.351  0.0129 -0.3022 -0.1476
  117TMC2     C 1822   1.858   1.738  14.345  0.7613 -0.2957 -0.7772
  117TMC2     O 1823   1.864   1.679  14.454 -0.4253 -0.1383  0.1857
  117TMC2     H 1824   1.915   1.894  14.561  0.1021 -0.4501  0.5387
  117TMC2    H1 1825   1.930   1.886  14.134  1.0648  0.8194 -0.9418
  117TMC2    H2 1826   2.139   2.186  14.360 -0.6030 -0.1610  3.0572
  117TMC2    C7 1827   2.074   2.096  14.105  0.2363  0.6059  0.3543
  117TMC2    C8 1828   2.116   2.068  14.586  0.0374  0.3113 -0.0478
  117TMC2    O1 1829   2.083   2.020  14.011  0.0106  0.5344  0.1538
  117TMC2    O2 1830   2.167   2.182  14.604 -0.1124  0.1284  0.3849
  117TMC2    O5 1831   2.140   1.952  14.654  0.1912 -0.5271  0.4282
  117TMC2    H5 1832   2.089   1.873  14.627  1.3067 -1.4165  0.8883
  118MPD2     C 1833   2.089   2.439  14.009 -0.1727 -0.1396  0.5315
  118MPD2    C1 1834   2.125   2.308  14.008  0.2686  0.2017  0.5103
  118MPD2    C2 1835   2.205   2.257  13.908 -0.0839 -0.2628  0.3469
  118MPD2    C3 1836   2.248   2.341  13.805 -0.1071  0.2625 -0.5145
  118MPD2    C4 1837   2.210   2.477  13.802 -0.0044  0.3737  0.6493
  118MPD2    C5 1838   2.137   2.520  13.906 -0.0692 -0.3307 -0.0486
  118MPD2     H 1839   2.224   2.151  13.895  1.3408  0.1160 -0.7990
  118MPD2    H1 1840   2.229   2.544  13.719  2.1850  0.9480  1.6083
  118MPD2    H2 1841   2.031   2.488  14.086 -0.5531  0.6043 -0.2418
  118MPD2    H3 1842   2.111   2.625  13.905  0.7995 -0.1395 -2.2003
  118MPD2     N 1843   2.340   2.307  13.707 -0.0230 -0.2422  0.9342
  118MPD2    H5 1844   2.354   2.386  13.644 -2.0037 -1.0329 -0.5064
  118MPD2    N1 1845   2.085   2.235  14.113 -0.2055  0.0618 -0.3395
  118MPD2    H7 1846   2.033   2.282  14.187  0.3308  1.8904 -1.1481
  119TMC2    C1 1847   4.102   2.533  12.586 -0.8390  0.1243 -0.5097
  119TMC2    C2 1848   4.181   2.422  12.565 -0.2042  0.6825  0.3528
  119TMC2    C3 1849   4.236   2.353  12.668 -0.0764  0.3449  0.7633
  119TMC2    C4 1850   4.061   2.554  12.712  0.1693 -0.4514 -0.7879
  119TMC2    C5 1851   4.113   2.479  12.812  0.7324  0.3353  0.0638
  119TMC2    C6 1852   4.203   2.375  12.800 -0.3170  0.1568  0.2295
  119TMC2     C 1853   4.146   2.653  12.519 -0.6333 -0.1456  0.1394
  119TMC2     O 1854   4.104   2.758  12.562  0.2092  0.7268  0.2242
  119TMC2     H 1855   4.211   2.391  12.466 -0.5388  0.0147  0.4569
  119TMC2    H1 1856   4.005   2.644  12.734 -0.4888 -0.8511 -0.8576
  119TMC2    H2 1857   4.259   2.338  12.885  0.0908  0.3701  0.0534
  119TMC2    C7 1858   4.076   2.514  12.950  0.1707  0.4648 -0.2934
  119TMC2    C8 1859   4.316   2.238  12.636  0.0879  0.4176 -0.0103
  119TMC2    O1 1860   4.034   2.631  12.965  0.5405  0.4955 -0.1843
  119TMC2    O2 1861   4.405   2.243  12.551 -0.1054 -0.3065 -0.4698
  119TMC2    O5 1862   4.318   2.158  12.749 -0.0539 -0.3348  0.0289
  119TMC2    H5 1863   4.241   2.162  12.810 -0.1680 -0.4406 -0.1066
  120MPD2     C 1864   4.607   2.874  12.469  0.0727  0.2735 -0.1850
  120MPD2    C1 1865   4.495   2.901  12.548 -0.2152  0.0911 -0.4680
  120MPD2    C2 1866   4.376   2.830  12.537 -0.5108 -0.8919 -0.3452
  120MPD2    C3 1867   4.374   2.722  12.455  0.0343 -0.6845  0.3202
  120MPD2    C4 1868   4.484   2.698  12.374  0.6976  0.0261  0.2515
  120MPD2    C5 1869   4.597   2.774  12.380  1.3058  0.0275  0.1030
  120MPD2     H 1870   4.304   2.861  12.612  0.0038  1.3215 -0.7411
  120MPD2    H1 1871   4.481   2.614  12.306  0.6620  0.4004 -0.2061
  120MPD2    H2 1872   4.698   2.932  12.467  0.3292 -0.1459 -1.4218
  120MPD2    H3 1873   4.685   2.742  12.326  0.7584 -1.9132  0.3575
  120MPD2     N 1874   4.259   2.639  12.444 -1.1264  0.2144 -0.1966
  120MPD2    H5 1875   4.258   2.564  12.375  0.8028  0.5910 -0.6371
  120MPD2    N1 1876   4.503   3.014  12.631  0.1547 -0.3274 -0.0293
  120MPD2    H7 1877   4.591   3.059  12.655 -0.0848 -0.3529  0.9162
  121TMC2    C1 1878   1.453   0.021  14.591  0.4401 -0.0242 -0.5202
  121TMC2    C2 1879   1.436   0.158  14.595 -0.6562  0.0543 -0.2647
  121TMC2    C3 1880   1.313   0.207  14.562  0.1251 -0.3622  0.1794
  121TMC2    C4 1881   1.362   4.681  14.530  0.2366 -0.4570  0.4706
  121TMC2    C5 1882   1.239   4.739  14.489 -0.5240  0.2619  0.0864
  121TMC2    C6 1883   1.217   0.134  14.505  0.3987  0.5569 -0.3357
  121TMC2     C 1884   1.589   4.723  14.556 -0.5190 -0.0001 -0.3706
  121TMC2     O 1885   1.678   4.735  14.641  0.1090  0.3861  0.6422
  121TMC2     H 1886   1.513   0.221  14.637  1.0033 -0.8141 -1.9757
  121TMC2    H1 1887   1.389   4.576  14.517  0.3703 -0.4056  0.3280
  121TMC2    H2 1888   1.123   0.180  14.477 -0.3170 -1.4070 -1.1687
  121TMC2    C7 1889   1.157   4.664  14.405  0.0489  0.4307  0.2499
  121TMC2    C8 1890   1.297   0.346  14.557  0.2350 -0.2514 -0.8094
  121TMC2    O1 1891   1.184   4.545  14.392  0.8142  0.2599  0.0062
  121TMC2    O2 1892   1.217   0.402  14.482  0.1023 -0.0071  0.1780
  121TMC2    O5 1893   1.380   0.409  14.644 -0.2511 -0.1470 -0.7663
  121TMC2    H5 1894   1.418   0.355  14.716 -1.5578  0.5024  0.4034
  122MPD2     C 1895   1.839   4.645  14.417  0.5727  0.6719 -0.1633
  122MPD2    C1 1896   1.717   4.668  14.352 -0.3434 -0.3319 -0.0017
  122MPD2    C2 1897   1.724   4.650  14.217  0.2094 -0.3661 -0.2082
  122MPD2    C3 1898   1.831   4.616  14.141 -0.1267 -0.0026  0.0125
  122MPD2    C4 1899   1.952   4.608  14.209  0.7367 -0.4389 -0.3554
  122MPD2    C5 1900   1.955   4.613  14.343 -0.0236  0.1858  0.2507
  122MPD2     H 1901   1.627   4.668  14.172  0.5298 -1.5329 -1.3766
  122MPD2    H1 1902   2.047   4.582  14.163 -0.8095 -0.6719 -3.4431
  122MPD2    H2 1903   1.862   4.648  14.523 -0.0273  1.6362 -0.0543
  122MPD2    H3 1904   2.047   4.597  14.398  0.0112  1.8197  0.6727
  122MPD2     N 1905   1.837   4.612  14.000 -0.6185 -0.2568  0.5249
  122MPD2    H5 1906   1.919   4.572  13.956  0.6336 -0.3919  2.9599
  122MPD2    N1 1907   1.597   4.698  14.426  0.3660  0.2529  0.1794
  122MPD2    H7 1908   1.508   4.700  14.377  1.4539 -0.8649 -1.8893
  123TMC2    C1 1909   4.404   2.328  10.083  0.0844  0.3011  0.1249
  123TMC2    C2 1910   4.465   2.442  10.129 -1.1062 -0.3842  0.6998
  123TMC2    C3 1911   4.487   2.539  10.038  0.6391 -0.1129  0.2791
  123TMC2    C4 1912   4.372   2.310   9.949  0.5273 -0.1222 -0.2056
  123TMC2    C5 1913   4.421   2.400   9.863 -0.0512  0.1170 -0.4091
  123TMC2    C6 1914   4.481   2.512   9.904  0.1063  0.5786 -0.8040
  123TMC2     C 1915   4.355   2.234  10.186  0.4747  0.5338  0.1344
  123TMC2     O 1916   4.404   2.250  10.300  0.1640 -0.2541 -0.8288
  123TMC2     H 1917   4.498   2.455  10.231  1.2152  1.0335 -0.2544
  123TMC2    H1 1918   4.328   2.215   9.919  3.3160 -1.4401 -0.0724
  123TMC2    H2 1919   4.511   2.593   9.838  1.1838  1.6693  1.0240
  123TMC2    C7 1920   4.393   2.397   9.718  0.2024 -0.0583  0.1189
  123TMC2    C8 1921   4.566   2.659  10.083 -0.0433  0.5355 -0.6239
  123TMC2    O1 1922   4.461   2.467   9.646 -0.5063  0.1994  0.4958
  123TMC2    O2 1923   4.664   2.704  10.030  0.0723 -0.0688 -0.1153
  123TMC2    O5 1924   4.509   2.697  10.196 -0.5336 -0.0144 -0.6944
  123TMC2    H5 1925   4.419   2.662  10.215 -0.0404 -0.0883  1.4907
  124MPD2     C 1926   4.050   1.870  10.372  0.2317  0.3561 -0.7514
  124MPD2    C1 1927   3.987   1.927  10.262 -0.3570 -0.6312  0.1049
  124MPD2    C2 1928   4.055   2.015  10.182 -0.3794  0.5244 -0.1961
  124MPD2    C3 1929   4.185   2.054  10.224  0.8855  0.3660 -0.2690
  124MPD2    C4 1930   4.242   2.004  10.339 -0.1318 -0.4363  0.2307
  124MPD2    C5 1931   4.173   1.910  10.413  0.1422  0.8891  0.2567
  124MPD2     H 1932   4.013   2.061  10.093  1.5688 -0.5496 -1.6864
  124MPD2    H1 1933   4.337   2.039  10.378 -1.2764  1.0315  1.7233
  124MPD2    H2 1934   3.997   1.797  10.432  3.3106 -1.9913 -0.8509
  124MPD2    H3 1935   4.206   1.868  10.507 -1.5641 -0.3339  0.3145
  124MPD2     N 1936   4.253   2.158  10.141 -0.1811 -0.3939 -0.2062
  124MPD2    H5 1937   4.231   2.171  10.043  0.2813 -0.7439 -0.3537
  124MPD2    N1 1938   3.856   1.890  10.251 -0.0201 -0.6546  0.2962
  124MPD2    H7 1939   3.820   1.817  10.310 -0.8848 -0.2542  0.2548
  125TMC2    C1 1940   0.307   0.223  10.423 -0.9623  0.7444 -0.2338
  125TMC2    C2 1941   0.233   0.126  10.356 -0.0958 -1.0684 -0.4497
  125TMC2    C3 1942   0.290   0.053  10.254 -0.0850 -0.6447  0.1217
  125TMC2    C4 1943   0.434   0.254  10.377 -0.2305 -0.3489 -0.5865
  125TMC2    C5 1944   0.478   0.193  10.262  0.9512  0.4088  0.0172
  125TMC2    C6 1945   0.413   0.082  10.205  0.5968 -0.9857  0.4969
  125TMC2     C 1946   0.230   0.323  10.498 -0.4435 -0.4483  0.3333
  125TMC2     O 1947   0.133   0.281  10.568  0.0759  0.1718 -0.2666
  125TMC2     H 1948   0.130   0.120  10.388 -0.1887  0.2134 -0.5040
  125TMC2    H1 1949   0.487   0.322  10.442 -1.4062  0.6603 -0.7012
  125TMC2    H2 1950   0.453   0.007  10.138  2.8605  1.1052 -0.5481
  125TMC2    C7 1951   0.592   0.247  10.188  0.2919 -0.6722 -0.4800
  125TMC2    C8 1952   0.214   4.695  10.175  0.0810 -0.1806  0.1008
  125TMC2    O1 1953   0.627   0.361  10.223  0.3521 -0.5202  0.5088
  125TMC2    O2 1954   0.255   4.641  10.071 -0.2787 -0.0826 -0.8939
  125TMC2    O5 1955   0.086   4.698  10.208 -0.1988  0.3737 -0.2930
  125TMC2    H5 1956   0.083   4.705  10.305 -1.4210 -2.8684 -0.0881
  126MPD1     C 1957   0.146   0.806  10.662 -0.0277 -0.2753 -0.8357
  126MPD1    C1 1958   0.253   0.806  10.580 -0.4149  0.0329  0.3985
  126MPD1    C2 1959   0.306   0.688  10.540 -0.2671  0.2058  0.2785
  126MPD1    C3 1960   0.248   0.563  10.570 -0.0158 -0.8124 -0.0093
  126MPD1    C4 1961   0.144   0.563  10.660 -0.7638  0.7238  0.1884
  126MPD1    C5 1962   0.092   0.686  10.698  0.3937 -0.2356 -0.2445
  126MPD1     H 1963   0.373   0.688  10.454 -0.8174  2.7947 -0.1681
  126MPD1    H1 1964   0.081   0.477  10.680 -0.2940  0.5436  0.9060
  126MPD1    H2 1965   0.098   0.897  10.696  0.2539 -0.0061 -1.1604
  126MPD1    H3 1966   4.740   0.695  10.755  0.1639  1.8088 -0.9361
  126MPD1     N 1967   0.289   0.446  10.494 -0.9209  0.3761  0.8107
  126MPD1    H5 1968   0.371   0.461  10.436  0.8147  0.6411  3.2835
  126MPD1    N1 1969   0.301   0.927  10.530 -0.5591  0.2233  0.2068
  126MPD1    H6 1970   0.398   0.926  10.498 -1.0049  0.0178 -1.1597
  126MPD1    H7 1971   0.283   1.005  10.592 -2.2400 -1.2743  1.6258
  127TMC2    C1 1972   1.652   3.006   9.729 -0.1859 -1.0843 -0.9513
  127TMC2    C2 1973   1.709   2.978   9.850 -0.1617 -0.7300  0.9286
  127TMC2    C3 1974   1.640   2.896   9.931 -0.7125 -0.1254  0.1508
  127TMC2    C4 1975   1.531   2.961   9.685  0.2477  0.6121  0.2065
  127TMC2    C5 1976   1.473   2.878   9.770  0.2406  0.4578  0.4959
  127TMC2    C6 1977   1.518   2.845   9.894  0.4724 -0.4688 -0.5418
  127TMC2     C 1978   1.703   3.127   9.666 -0.6487  0.2774 -0.0272
  127TMC2     O 1979   1.768   3.201   9.739  0.5114 -0.8993 -0.7270
  127TMC2     H 1980   1.804   3.020   9.879  0.1737 -1.4525  0.8902
  127TMC2    H1 1981   1.482   2.992   9.593  0.0371  0.0412  0.1316
  127TMC2    H2 1982   1.465   2.778   9.960  1.2237 -1.0123 -0.4802
  127TMC2    C7 1983   1.362   2.810   9.716 -0.7518 -0.8841 -0.2346
  127TMC2    C8 1984   1.732   2.804  10.009 -0.9487  0.0622  0.5891
  127TMC2    O1 1985   1.294   2.870   9.637  0.0177  0.0281  0.0604
  127TMC2    O2 1986   1.851   2.809   9.989  0.2073 -0.1195  0.2964
  127TMC2    O5 1987   1.675   2.810  10.137 -0.5048  0.3639  0.5872
  127TMC2    H5 1988   1.582   2.842  10.142  0.2135  2.6312 -0.5168
  128MPD2     C 1989   1.703   3.236   9.311 -0.2123 -0.0723 -0.0167
  128MPD2    C1 1990   1.723   3.251   9.449 -0.1221 -0.2277  0.0281
  128MPD2    C2 1991   1.772   3.368   9.504 -0.5385 -0.3915  0.2192
  128MPD2    C3 1992   1.808   3.474   9.424 -0.1946  0.4053 -0.5363
  128MPD2    C4 1993   1.792   3.459   9.290 -0.0022 -0.5121 -0.5687
  128MPD2    C5 1994   1.738   3.343   9.240 -0.2106  0.4409  0.0841
  128MPD2     H 1995   1.777   3.381   9.611  3.5275  0.1950 -0.0548
  128MPD2    H1 1996   1.806   3.532   9.211 -1.0067  3.4766  2.9839
  128MPD2    H2 1997   1.659   3.152   9.258 -1.9278  1.2705 -0.7362
  128MPD2    H3 1998   1.719   3.333   9.134 -2.9523 -2.4014  0.8504
  128MPD2     N 1999   1.868   3.586   9.492  0.4011 -0.1873 -0.3767
  128MPD2    H5 2000   1.890   3.586   9.591 -0.9339  0.5234 -0.0845
  128MPD2    N1 2001   1.689   3.141   9.528  0.1247  0.4745 -0.2998
  128MPD2    H7 2002   1.643   3.063   9.481 -0.8283 -0.4372  2.1057
  129TMC2    C1 2003   1.000   2.816   0.536 -0.7956  0.2593 -0.6767
  129TMC2    C2 2004   1.078   2.721   0.474  0.1918 -0.0111  0.0509
  129TMC2    C3 2005   1.051   2.593   0.519 -0.2303  0.6938  0.1525
  129TMC2    C4 2006   0.912   2.794   0.638 -0.4003  0.1437  0.4857
  129TMC2    C5 2007   0.892   2.663   0.674  0.2262  0.1930  0.0952
  129TMC2    C6 2008   0.952   2.565   0.609  0.7779  0.1185 -0.6784
  129TMC2     C 2009   0.979   2.932   0.452  0.4596 -0.3916 -0.2263
  129TMC2     O 2010   0.984   2.919   0.327  0.0299  0.1493 -0.3755
  129TMC2     H 2011   1.134   2.742   0.384  0.8686  0.4193  0.5755
  129TMC2    H1 2012   0.855   2.874   0.684 -0.9221  0.9510 -1.5416
  129TMC2    H2 2013   0.935   2.461   0.635  1.8933  0.5403  1.7358
  129TMC2    C7 2014   0.757   2.630   0.733  1.0770  0.9000  0.0441
  129TMC2    C8 2015   1.103   2.487   0.434  0.6023 -0.5851 -0.1827
  129TMC2    O1 2016   0.670   2.719   0.736 -0.3521  0.3014  0.5562
  129TMC2    O2 2017   1.058   2.371   0.442 -0.1871  0.6208 -0.5736
  129TMC2    O5 2018   1.228   2.521   0.398  0.9148  0.3022  0.1703
  129TMC2    H5 2019   1.258   2.612   0.418  0.9714  0.1486  0.7656
  130MPD2     C 2020   0.907   3.190   0.346  0.3514  0.5074 -0.1116
  130MPD2    C1 2021   0.931   3.169   0.478 -0.2975 -0.6744 -0.2642
  130MPD2    C2 2022   0.933   3.282   0.557 -0.0571  0.1741  0.5819
  130MPD2    C3 2023   0.908   3.410   0.509  0.3663 -0.3781 -0.2159
  130MPD2    C4 2024   0.882   3.432   0.373 -0.2962  0.0030 -0.0764
  130MPD2    C5 2025   0.879   3.319   0.301  0.6583 -0.3588  0.3182
  130MPD2     H 2026   0.947   3.259   0.662 -0.1839 -1.2500  0.2798
  130MPD2    H1 2027   0.873   3.527   0.322  0.7902 -0.8246 -1.7975
  130MPD2    H2 2028   0.920   3.129   0.257 -1.1643 -0.2257  0.1762
  130MPD2    H3 2029   0.873   3.328   0.193 -0.0810  1.8969  0.5550
  130MPD2     N 2030   0.920   3.508   0.604 -0.0652 -0.3347  0.5454
  130MPD2    H5 2031   0.953   3.473   0.694 -0.5101 -0.5791  0.6117
  130MPD2    N1 2032   0.976   3.048   0.525  0.7978  0.2079  0.4226
  130MPD2    H7 2033   1.000   3.036   0.623  0.7590 -3.0548  0.0269
  131TMC2    C1 2034   3.821   2.523   9.610 -0.6150  0.1982 -1.0827
  131TMC2    C2 2035   3.820   2.558   9.480  0.4268  0.6444  0.0026
  131TMC2    C3 2036   3.916   2.644   9.436 -0.0116  0.0086 -0.2310
  131TMC2    C4 2037   3.927   2.557   9.693  0.3027  0.2303 -0.1549
  131TMC2    C5 2038   4.030   2.631   9.644 -0.7119  0.1380 -0.0890
  131TMC2    C6 2039   4.024   2.677   9.514  0.4245  0.4942 -0.6081
  131TMC2     C 2040   3.722   2.441   9.674 -0.1207  0.5610 -0.2542
  131TMC2     O 2041   3.764   2.375   9.773 -0.1243 -0.5316  0.2970
  131TMC2     H 2042   3.740   2.520   9.416 -1.1392  0.1088  2.2755
  131TMC2    H1 2043   3.931   2.518   9.794 -0.1028  0.9661  0.1352
  131TMC2    H2 2044   4.091   2.757   9.485 -1.6602  1.6659 -2.1828
  131TMC2    C7 2045   4.117   2.695   9.745 -0.9837 -0.5407  0.2476
  131TMC2    C8 2046   3.926   2.686   9.299  0.1898  0.0598 -0.9428
  131TMC2    O1 2047   4.104   2.671   9.863 -0.3859  0.4077  0.1834
  131TMC2    O2 2048   3.990   2.785   9.274  0.0243  0.0116 -0.0163
  131TMC2    O5 2049   3.905   2.586   9.213  0.5274  0.0423  0.8156
  131TMC2    H5 2050   3.857   2.504   9.234 -1.6731  1.4429  1.1718
  132MPD2     C 2051   3.408   2.303   9.544 -0.0326 -0.1454 -1.0064
  132MPD2    C1 2052   3.503   2.330   9.639  0.0699 -0.0356 -0.1372
  132MPD2    C2 2053   3.497   2.276   9.765  0.1821 -0.3322 -0.8188
  132MPD2    C3 2054   3.403   2.176   9.793  0.5635 -0.1054  0.1676
  132MPD2    C4 2055   3.323   2.132   9.691 -0.3368  0.6211  0.3474
  132MPD2    C5 2056   3.317   2.201   9.568 -0.6671  0.1769  0.4919
  132MPD2     H 2057   3.556   2.314   9.849 -0.2258 -0.9188 -0.2706
  132MPD2    H1 2058   3.244   2.059   9.705  0.7936 -0.9144 -1.4157
  132MPD2    H2 2059   3.419   2.335   9.441  2.7942 -0.5946 -0.8493
  132MPD2    H3 2060   3.253   2.160   9.490 -1.6902  1.0020  0.8988
  132MPD2     N 2061   3.418   2.104   9.918  0.5086 -0.2809 -0.0678
  132MPD2    H5 2062   3.498   2.130   9.975 -0.4308 -1.2836  1.6858
  132MPD2    N1 2063   3.607   2.422   9.603 -0.2452  0.0041  0.4281
  132MPD2    H7 2064   3.603   2.480   9.520  1.4862 -0.5880 -0.0601
  133TMC2    C1 2065   3.986   3.698   9.867  0.1486  0.5373  0.0873
  133TMC2    C2 2066   4.048   3.608   9.951 -0.0770 -0.7438  0.5442
  133TMC2    C3 2067   4.101   3.658  10.070  0.0850  0.6201  0.8624
  133TMC2    C4 2068   3.977   3.829   9.899  0.0486 -0.7710 -0.4181
  133TMC2    C5 2069   4.027   3.874  10.014 -0.2189 -0.3666 -0.8025
  133TMC2    C6 2070   4.093   3.793  10.100  0.2998  0.0628  0.6206
  133TMC2     C 2071   3.889   3.653   9.764 -0.1170 -0.3834  0.1901
  133TMC2     O 2072   3.880   3.529   9.756 -0.1760 -0.0607  0.2122
  133TMC2     H 2073   4.059   3.508   9.910 -2.1797 -0.6592 -0.1968
  133TMC2    H1 2074   3.929   3.898   9.831 -0.3587 -1.0606 -0.4255
  133TMC2    H2 2075   4.140   3.845  10.183  2.3366  0.8495 -1.0281
  133TMC2    C7 2076   4.008   4.016  10.035  0.7066 -0.2944 -0.1346
  133TMC2    C8 2077   4.237   3.606  10.110  0.9219 -0.4622  0.5131
  133TMC2    O1 2078   3.997   4.079   9.931 -0.4928  1.1368  0.3235
  133TMC2    O2 2079   4.329   3.686  10.131  0.1518 -0.0155  0.2670
  133TMC2    O5 2080   4.233   3.471  10.117 -0.5784  0.1027 -0.3334
  133TMC2    H5 2081   4.143   3.431  10.116 -0.6202  0.2334 -1.4165
  134MPD2     C 2082   3.732   3.828   9.479 -0.1908  0.9305  0.4274
  134MPD2    C1 2083   3.745   3.731   9.575  0.3947  0.7803  0.1658
  134MPD2    C2 2084   3.659   3.628   9.575  0.4611 -0.2227 -0.3136
  134MPD2    C3 2085   3.577   3.602   9.465 -0.6518 -0.1581  0.6487
  134MPD2    C4 2086   3.563   3.698   9.365 -0.1397 -0.8845 -0.1316
  134MPD2    C5 2087   3.647   3.809   9.374  0.2101 -0.0750 -0.8996
  134MPD2     H 2088   3.663   3.548   9.648  1.9344  0.9355  0.8653
  134MPD2    H1 2089   3.495   3.680   9.283  2.7300 -2.7968 -2.0949
  134MPD2    H2 2090   3.794   3.917   9.483 -0.6572  1.2713  0.0288
  134MPD2    H3 2091   3.652   3.876   9.289 -0.9781 -1.0837 -1.7700
  134MPD2     N 2092   3.506   3.479   9.463  0.1049  0.4976  0.0084
  134MPD2    H5 2093   3.548   3.403   9.515  1.0149  1.9036  1.3433
  134MPD2    N1 2094   3.850   3.748   9.669  0.4044  0.2983 -0.1483
  134MPD2    H7 2095   3.894   3.839   9.674  0.3667  0.2349  1.4980
  135TMC2    C1 2096   1.098   0.072  10.308  0.4039  0.4832 -0.1606
  135TMC2    C2 2097   1.154   4.687  10.314 -0.3270  0.0583 -0.1953
  135TMC2    C3 2098   1.096   4.611  10.413 -0.9399  0.1154  0.7653
  135TMC2    C4 2099   1.000   0.107  10.398 -0.1833 -0.9125 -0.1285
  135TMC2    C5 2100   0.936   0.019  10.472  0.3316  0.0542 -0.0448
  135TMC2    C6 2101   0.977   4.632  10.477  0.2645 -0.2198  0.3202
  135TMC2     C 2102   1.166   0.172  10.232 -0.6417  0.1206  0.3163
  135TMC2     O 2103   1.160   0.285  10.272  0.1798 -0.2238  0.2679
  135TMC2     H 2104   1.245   4.666  10.259  1.5513  0.9168  2.5496
  135TMC2    H1 2105   0.964   0.209  10.401  1.5970 -0.2489 -1.0894
  135TMC2    H2 2106   0.922   4.566  10.544 -1.2279  0.6930  0.0119
  135TMC2    C7 2107   0.797   0.040  10.461  0.2279 -0.1584  0.0918
  135TMC2    C8 2108   1.122   4.468  10.397  0.2334 -1.2159 -0.2291
  135TMC2    O1 2109   0.744   0.136  10.506  0.1495 -0.3233  0.2138
  135TMC2    O2 2110   1.037   4.380  10.395  0.1285  0.2150 -0.8030
  135TMC2    O5 2111   1.242   4.452  10.450 -0.2063  0.0386 -0.2588
  135TMC2    H5 2112   1.300   4.530  10.455  0.7708 -0.6496 -0.7470
  136MPD2     C 2113   1.405   0.289  10.092  0.1625 -0.1087  0.5058
  136MPD2    C1 2114   1.344   0.175  10.056  0.5905  0.5909 -0.4625
  136MPD2    C2 2115   1.396   0.103   9.948 -0.1854 -0.1331 -0.0921
  136MPD2    C3 2116   1.501   0.146   9.874  1.0527 -0.7258  0.5654
  136MPD2    C4 2117   1.559   0.264   9.915  0.0142 -0.1235  0.2551
  136MPD2    C5 2118   1.510   0.337  10.025  0.0868 -0.8639 -0.2803
  136MPD2     H 2119   1.338   0.020   9.910 -0.7251 -0.4497  1.4364
  136MPD2    H1 2120   1.641   0.311   9.863  0.2573  1.2735  1.9155
  136MPD2    H2 2121   1.387   0.346  10.183  1.4064  0.1022  0.6169
  136MPD2    H3 2122   1.567   0.424  10.054 -1.0523 -0.0875 -0.3698
  136MPD2     N 2123   1.527   0.091   9.751 -0.2166  0.5377 -0.0166
  136MPD2    H5 2124   1.468   0.016   9.715  2.0093 -1.0112 -0.4646
  136MPD2    N1 2125   1.229   0.118  10.121 -0.1050  0.0125 -0.0967
  136MPD2    H7 2126   1.206   0.024  10.090 -1.4271  0.6748 -1.1160
  137TMC2    C1 2127   0.869   3.160   8.943  0.4758  0.1041 -0.0236
  137TMC2    C2 2128   0.960   3.242   8.879  0.1270  1.3194 -0.8212
  137TMC2    C3 2129   0.917   3.294   8.759  0.1705  0.5861  0.1167
  137TMC2    C4 2130   0.739   3.152   8.907 -0.0117  0.3776  0.2054
  137TMC2    C5 2131   0.702   3.211   8.788  0.1683 -0.2207  0.2113
  137TMC2    C6 2132   0.793   3.274   8.709  0.0836 -0.1713 -0.6902
  137TMC2     C 2133   0.905   3.104   9.069 -0.3236 -0.5451 -0.3058
  137TMC2     O 2134   1.002   3.152   9.122 -0.2847 -0.2876  0.4197
  137TMC2     H 2135   1.063   3.251   8.915 -0.1609 -0.5649  0.4613
  137TMC2    H1 2136   0.667   3.084   8.950 -1.4362  2.3887  1.0061
  137TMC2    H2 2137   0.760   3.334   8.625 -0.8644  0.5412  0.1759
  137TMC2    C7 2138   0.563   3.220   8.758 -0.4061  1.2899 -0.2697
  137TMC2    C8 2139   1.009   3.401   8.699  0.9261 -0.5948 -0.1245
  137TMC2    O1 2140   0.531   3.238   8.640 -0.4274  1.0321 -0.3694
  137TMC2    O2 2141   0.979   3.516   8.677 -0.2567  0.5372 -0.4092
  137TMC2    O5 2142   1.131   3.351   8.706 -0.1549 -0.4422  0.1403
  137TMC2    H5 2143   1.123   3.257   8.733 -1.5254 -0.1788  0.6435
  138MPD2     C 2144   0.750   2.816   9.247  0.1379  0.5634  0.2774
  138MPD2    C1 2145   0.820   2.934   9.232  0.7824  0.4232  0.2262
  138MPD2    C2 2146   0.882   2.985   9.346 -0.0511 -0.0250  0.5340
  138MPD2    C3 2147   0.861   2.933   9.474 -0.4503 -0.8649 -0.3016
  138MPD2    C4 2148   0.781   2.821   9.483 -0.8005 -0.0884  0.3309
  138MPD2    C5 2149   0.725   2.765   9.370  0.4726 -0.1214  0.3018
  138MPD2     H 2150   0.945   3.072   9.336 -0.0807 -0.0367  0.2578
  138MPD2    H1 2151   0.769   2.772   9.579  0.8995 -1.3140 -0.0825
  138MPD2    H2 2152   0.715   2.765   9.157 -0.6645 -0.0171  0.9202
  138MPD2    H3 2153   0.663   2.676   9.362  1.1934 -0.5161 -0.9546
  138MPD2     N 2154   0.912   3.007   9.580  0.2960 -0.4030 -0.3222
  138MPD2    H5 2155   0.966   3.089   9.556 -0.7578  0.6837  0.9954
  138MPD2    N1 2156   0.823   2.996   9.105 -0.1363  0.0433 -0.2613
  138MPD2    H7 2157   0.769   2.946   9.035  0.0603  1.7331 -1.6234
  139TMC2    C1 2158   1.353   2.058  13.312  0.4504  0.4050 -0.1817
  139TMC2    C2 2159   1.309   1.933  13.324 -0.0225 -0.1671 -0.3931
  139TMC2    C3 2160   1.176   1.907  13.292  0.0920 -0.5268 -0.8416
  139TMC2    C4 2161   1.266   2.162  13.294 -0.0833  0.0905 -0.0070
  139TMC2    C5 2162   1.127   2.130  13.283 -0.7071  0.3708  0.0186
  139TMC2    C6 2163   1.083   2.007  13.288 -0.0551  0.3404  0.0607
  139TMC2     C 2164   1.497   2.078  13.312 -0.2286  0.2395  0.2583
  139TMC2     O 2165   1.567   1.985  13.345 -0.1574 -0.2501 -0.4069
  139TMC2     H 2166   1.380   1.851  13.316  1.1660  0.8248 -0.1635
  139TMC2    H1 2167   1.286   2.267  13.309  0.7597 -0.4337  2.5053
  139TMC2    H2 2168   0.980   1.982  13.264  0.2203 -2.0869  1.3409
  139TMC2    C7 2169   1.040   2.245  13.298 -0.4264  0.3671 -0.2651
  139TMC2    C8 2170   1.140   1.764  13.276  0.8005 -0.2382  0.4068
  139TMC2    O1 2171   1.096   2.348  13.269 -0.2697 -0.0298 -0.0389
  139TMC2    O2 2172   1.219   1.681  13.237  0.1139 -0.0295  0.4183
  139TMC2    O5 2173   1.021   1.744  13.336 -0.2082 -0.5967  0.1002
  139TMC2    H5 2174   0.976   1.829  13.358 -0.6908 -0.4946 -1.2742
  140MPD2     C 2175   1.673   2.320  13.097 -0.1595  0.0335 -0.0899
  140MPD2    C1 2176   1.653   2.222  13.194  0.1133  0.4902  0.4055
  140MPD2    C2 2177   1.766   2.159  13.246 -0.2556 -0.1815 -0.1925
  140MPD2    C3 2178   1.892   2.186  13.198 -0.5446  0.5042 -0.0192
  140MPD2    C4 2179   1.909   2.279  13.100 -0.0879  0.2441 -0.0526
  140MPD2    C5 2180   1.799   2.343  13.050  0.1412 -0.9009 -0.7981
  140MPD2     H 2181   1.767   2.098  13.336  0.7167  0.2737  0.1096
  140MPD2    H1 2182   2.011   2.302  13.071  0.3084  0.6398  1.6567
  140MPD2    H2 2183   1.592   2.375  13.050 -0.7882 -0.3991  0.4813
  140MPD2    H3 2184   1.812   2.421  12.977 -1.3713 -0.8853 -1.0419
  140MPD2     N 2185   2.001   2.125  13.265 -0.5439  0.2153 -0.1401
  140MPD2    H5 2186   1.964   2.075  13.345 -1.2488 -0.2725 -0.7685
  140MPD2    N1 2187   1.522   2.185  13.227 -0.7075  0.6681 -0.2658
  140MPD2    H7 2188   1.445   2.242  13.194 -0.7285  0.6203 -0.3006
  141TMC2    C1 2189   1.652   3.449  14.060  0.1945 -0.0211 -0.2179
  141TMC2    C2 2190   1.536   3.519  14.049 -0.7228 -0.0913 -0.0976
  141TMC2    C3 2191   1.497   3.591  14.160 -0.0430  0.0558 -0.4047
  141TMC2    C4 2192   1.728   3.453  14.172  0.1825  0.3557 -0.3481
  141TMC2    C5 2193   1.694   3.538  14.277  0.4025 -0.0907 -0.1705
  141TMC2    C6 2194   1.574   3.596  14.271  0.0395  0.0789 -0.3654
  141TMC2     C 2195   1.721   3.414  13.933 -0.6398  0.4601 -0.0989
  141TMC2     O 2196   1.843   3.422  13.941  0.4249  0.8209 -0.0184
  141TMC2     H 2197   1.481   3.532  13.957 -2.0596  2.1141  1.0204
  141TMC2    H1 2198   1.810   3.383  14.181 -2.1811 -2.4242 -0.6220
  141TMC2    H2 2199   1.543   3.655  14.357 -2.6100 -0.6817 -0.7938
  141TMC2    C7 2200   1.807   3.609  14.347  0.5146 -0.6186 -0.2187
  141TMC2    C8 2201   1.373   3.651  14.165  0.3944 -0.2193  0.0251
  141TMC2    O1 2202   1.780   3.706  14.418  0.2046  0.0072  0.0202
  141TMC2    O2 2203   1.277   3.601  14.106 -0.1026  0.0956  0.1951
  141TMC2    O5 2204   1.361   3.761  14.244  0.6532 -0.0538 -0.2450
  141TMC2    H5 2205   1.449   3.803  14.248  0.8568 -0.7147  2.2661
  142TMC2    C1 2206   3.565   1.895   9.599  0.3815 -0.0675  0.1047
  142TMC2    C2 2207   3.525   1.873   9.472  0.2737  0.1976 -0.2854
  142TMC2    C3 2208   3.584   1.948   9.367  0.2532  0.4106 -0.0978
  142TMC2    C4 2209   3.675   1.972   9.622 -0.6423  0.2720 -0.0078
  142TMC2    C5 2210   3.722   2.052   9.524  0.3543  0.3301  0.3259
  142TMC2    C6 2211   3.672   2.044   9.399 -0.2915  0.2009 -0.1642
  142TMC2     C 2212   3.549   1.795   9.698 -0.4269  0.9875  0.0078
  142TMC2     O 2213   3.643   1.767   9.771  0.1569  0.1056  0.2028
  142TMC2     H 2214   3.439   1.811   9.452 -0.0829  0.9127 -0.9476
  142TMC2    H1 2215   3.709   1.979   9.725 -0.2453 -1.8833 -0.0105
  142TMC2    H2 2216   3.713   2.103   9.318  0.8079  1.5307  1.3768
  142TMC2    C7 2217   3.858   2.103   9.540  0.7323  0.2720 -0.1296
  142TMC2    C8 2218   3.497   1.980   9.255  0.3997  0.1520  0.3062
  142TMC2    O1 2219   3.904   2.054   9.642 -0.0676  0.4231  0.1534
  142TMC2    O2 2220   3.455   2.090   9.236 -0.5033  0.0125 -0.0795
  142TMC2    O5 2221   3.421   1.865   9.229 -0.6818  0.1218 -0.1956
  142TMC2    H5 2222   3.481   1.787   9.233  2.7334  2.6502 -2.2977
  143MPD2     C 2223   3.256   1.492   9.975  1.1045 -0.4675 -0.1033
  143MPD2    C1 2224   3.392   1.493   9.957 -0.2369  0.4024  0.1350
  143MPD2    C2 2225   3.453   1.575   9.865  0.7166  0.5078 -0.4674
  143MPD2    C3 2226   3.373   1.658   9.783 -1.1031  0.4747 -0.9228
  143MPD2    C4 2227   3.236   1.653   9.798 -0.0339  0.5589 -0.1473
  143MPD2    C5 2228   3.180   1.573   9.894  0.1776 -0.2626  0.0805
  143MPD2     H 2229   3.561   1.574   9.852  0.8095  2.2012  0.1296
  143MPD2    H1 2230   3.184   1.726   9.736 -1.2842 -0.4130 -0.2448
  143MPD2    H2 2231   3.207   1.432  10.052 -0.1414  2.0011  1.0234
  143MPD2    H3 2232   3.072   1.576   9.903  0.0777  1.5191 -1.6105
  143MPD2     N 2233   3.421   1.750   9.697  0.3706  0.1060 -0.6606
  143MPD2    H5 2234   3.357   1.800   9.635  0.0037  1.4950  0.8446
  143MPD2    N1 2235   3.466   1.403  10.042  0.0389  0.0045  0.1479
  143MPD2    H7 2236   3.410   1.337  10.094 -0.9346  0.6743 -0.0416
  144TMC2    C1 2237   2.601   1.531   0.280  0.0066 -0.0181 -0.0357
  144TMC2    C2 2238   2.705   1.460   0.228  0.1119  0.5169  0.4548
  144TMC2    C3 2239   2.815   1.426   0.303  0.3790  0.3487 -0.0941
  144TMC2    C4 2240   2.605   1.557   0.412 -0.3109 -0.1673 -0.3550
  144TMC2    C5 2241   2.705   1.511   0.484 -0.2367  0.4266  0.0671
  144TMC2    C6 2242   2.806   1.436   0.440 -0.0229  0.2836  0.7584
  144TMC2     C 2243   2.474   1.510   0.217 -0.0433  0.4057 -0.0544
  144TMC2     O 2244   2.475   1.481   0.097 -0.1647  0.1335  0.0221
  144TMC2     H 2245   2.690   1.433   0.124  2.4385  0.8980  0.0380
  144TMC2    H1 2246   2.525   1.606   0.467  0.3560  1.0276 -0.4513
  144TMC2    H2 2247   2.882   1.394   0.506  1.9626 -1.3458 -2.5852
  144TMC2    C7 2248   2.724   1.556   0.621 -0.6747 -0.5514 -0.6498
  144TMC2    C8 2249   2.903   1.330   0.242  0.5958 -0.3189  0.4691
  144TMC2    O1 2250   2.802   1.485   0.680 -0.4484 -0.8068 -0.3965
  144TMC2    O2 2251   2.955   1.237   0.299 -0.1114  0.3360  0.5872
  144TMC2    O5 2252   2.921   1.351   0.107  0.1107 -0.0448  0.0419
  144TMC2    H5 2253   2.890   1.441   0.083 -2.3487 -1.0056 -0.2902
  145MPD2     C 2254   2.046   1.230   0.265  0.1160 -0.0364  0.2886
  145MPD2    C1 2255   2.130   1.247   0.162  0.4127 -0.1811 -0.4459
  145MPD2    C2 2256   2.235   1.337   0.174  0.0510  0.0568  0.3057
  145MPD2    C3 2257   2.261   1.407   0.293  0.2389  0.3056 -0.0356
  145MPD2    C4 2258   2.161   1.399   0.387  0.1544  0.8560  0.4173
  145MPD2    C5 2259   2.054   1.322   0.371  0.3370  0.2278  0.1369
  145MPD2     H 2260   2.298   1.347   0.086 -0.0105  0.2689  0.2848
  145MPD2    H1 2261   2.163   1.452   0.481  0.4158  0.4405  0.6441
  145MPD2    H2 2262   1.961   1.162   0.264 -0.1832  0.3113  1.5688
  145MPD2    H3 2263   1.996   1.302   0.460 -1.4774  1.9532 -0.6595
  145MPD2     N 2264   2.376   1.487   0.306  0.0525 -0.1476  0.0402
  145MPD2    H5 2265   2.389   1.510   0.404  0.0012  0.1073 -0.0123
  145MPD2    N1 2266   2.121   1.185   0.040 -0.3601 -0.1689 -0.4786
  145MPD2    H7 2267   2.192   1.222  17.735  1.2422  1.3987  2.2283
  146TMC2    C1 2268   4.130   4.081  11.854 -0.0757  0.1797  0.2479
  146TMC2    C2 2269   4.075   4.044  11.730 -0.5418  0.2598 -0.0986
  146TMC2    C3 2270   4.157   4.025  11.624  0.2409  0.9745  0.6764
  146TMC2    C4 2271   4.271   4.086  11.871 -0.1503  0.1816  0.8961
  146TMC2    C5 2272   4.341   4.035  11.768 -0.8978 -0.0277  0.2688
  146TMC2    C6 2273   4.294   4.013  11.641 -0.4643 -0.1981  0.5088
  146TMC2     C 2274   4.046   4.145  11.951 -0.3248  0.4420 -0.7371
  146TMC2     O 2275   3.932   4.167  11.919  0.1693  0.0374  0.5391
  146TMC2     H 2276   3.969   4.054  11.710 -0.9256  0.4738  2.0459
  146TMC2    H1 2277   4.326   4.140  11.948  1.5262 -0.4097  0.1186
  146TMC2    H2 2278   4.362   3.974  11.566  0.7445  2.8078  0.0748
  146TMC2    C7 2279   4.481   4.007  11.787  0.4840  0.3505  0.0813
  146TMC2    C8 2280   4.084   4.009  11.494 -0.3782 -0.2373 -0.3985
  146TMC2    O1 2281   4.550   3.993  11.690 -0.5395  0.1054 -0.0096
  146TMC2    O2 2282   3.980   3.944  11.479  0.2577 -0.0793 -0.1697
  146TMC2    O5 2283   4.165   4.049  11.389  0.2504  0.3148  0.3806
  146TMC2    H5 2284   4.242   4.107  11.401 -0.5034  1.6335 -1.1591
  147MPD2     C 2285   0.173   3.933  12.049  0.3402 -0.4594  0.4431
  147MPD2    C1 2286   0.080   3.963  12.140 -0.2972  0.1434  0.7786
  147MPD2    C2 2287   4.686   3.991  12.101  0.2069 -0.4539 -0.1237
  147MPD2    C3 2288   4.653   3.992  11.965 -0.4317  0.4417  0.3145
  147MPD2    C4 2289   0.015   3.965  11.876  0.0417  0.3019  0.1780
  147MPD2    C5 2290   0.139   3.932  11.922  0.3143 -0.4085 -0.1927
  147MPD2     H 2291   4.607   4.010  12.173 -0.1628 -0.5119 -0.5167
  147MPD2    H1 2292   0.004   3.969  11.768  0.8679 -2.8312 -0.0236
  147MPD2    H2 2293   0.271   3.913  12.089  0.2592  2.5255  2.1178
  147MPD2    H3 2294   0.221   3.916  11.853  0.4245  3.6675 -0.9840
  147MPD2     N 2295   4.520   4.011  11.920  1.1603 -0.1092 -0.4074
  147MPD2    H5 2296   4.452   4.035  11.991  0.5229 -0.7859 -0.7952
  147MPD2    N1 2297   0.126   3.985  12.272  0.9998  0.3643  0.1060
  147MPD2    H7 2298   0.226   3.991  12.292  1.8906 -4.2947 -2.8900
  148TMC2    C1 2299   3.485   3.242  10.591 -0.9558  0.0995 -0.8724
  148TMC2    C2 2300   3.563   3.348  10.621 -0.0357  0.3733  0.3460
  148TMC2    C3 2301   3.679   3.326  10.695 -0.7688  0.0402  0.3906
  148TMC2    C4 2302   3.511   3.117  10.633  0.6246  0.5587 -0.4415
  148TMC2    C5 2303   3.623   3.101  10.695  0.0070  0.3525 -0.0728
  148TMC2    C6 2304   3.716   3.202  10.730 -0.1824 -0.4829  0.4091
  148TMC2     C 2305   3.368   3.261  10.512 -0.3546 -0.6413 -0.1469
  148TMC2     O 2306   3.323   3.374  10.506 -0.4294  0.4817 -0.5345
  148TMC2     H 2307   3.551   3.447  10.577  1.0434 -0.2755 -1.3784
  148TMC2    H1 2308   3.434   3.041  10.625  0.5804  0.6543 -0.9562
  148TMC2    H2 2309   3.797   3.190  10.802  0.2807 -0.1919 -0.0594
  148TMC2    C7 2310   3.679   2.969  10.703 -0.5110 -0.5480 -0.2639
  148TMC2    C8 2311   3.738   3.439  10.764  0.3131  0.0312  0.0586
  148TMC2    O1 2312   3.607   2.869  10.694  0.0665  0.4823 -0.0046
  148TMC2    O2 2313   3.841   3.432  10.829  0.0765 -0.3288  0.2844
  148TMC2    O5 2314   3.626   3.503  10.817  0.6699 -0.4009 -0.4102
  148TMC2    H5 2315   3.551   3.499  10.753  0.8800  1.1594 -0.7376
  149MPD2     C 2316   3.160   3.245  10.289  0.1606 -0.1783 -0.4048
  149MPD2    C1 2317   3.247   3.144  10.332  0.2954  0.5394 -0.2073
  149MPD2    C2 2318   3.232   3.026  10.267  0.1329 -0.2649  0.3308
  149MPD2    C3 2319   3.134   3.000  10.172 -1.4311 -0.3969 -0.7621
  149MPD2    C4 2320   3.055   3.100  10.132  0.0734 -0.0830  0.1352
  149MPD2    C5 2321   3.067   3.222  10.191  0.2677 -0.0377 -0.5637
  149MPD2     H 2322   3.300   2.948  10.297  3.2626  2.9355  1.4319
  149MPD2    H1 2323   2.981   3.086  10.054  1.6830  0.2564 -1.4709
  149MPD2    H2 2324   3.155   3.337  10.347  0.7802  0.2530 -1.0261
  149MPD2    H3 2325   2.989   3.292  10.167  0.8782  0.5398 -0.8622
  149MPD2     N 2326   3.123   2.866  10.129 -0.1483  0.4024  0.2226
  149MPD2    H5 2327   3.196   2.807  10.167  0.0158 -0.0709 -0.8221
  149MPD2    N1 2328   3.339   3.149  10.437  0.7925 -0.1567 -0.2960
  149MPD2    H7 2329   3.396   3.065  10.445  1.3575  0.1065 -1.7122
  150TMC2    C1 2330   0.924   2.309  12.093 -1.1036  0.1815 -0.7421
  150TMC2    C2 2331   0.892   2.394  11.991 -0.4803 -0.0874 -0.5334
  150TMC2    C3 2332   0.995   2.446  11.920  0.3146 -0.8065 -0.0909
  150TMC2    C4 2333   1.055   2.287  12.130 -0.6139 -0.3016 -0.1865
  150TMC2    C5 2334   1.159   2.348  12.058 -0.7107  0.7675 -0.3393
  150TMC2    C6 2335   1.130   2.432  11.956  1.3610 -0.5104  0.0673
  150TMC2     C 2336   0.824   2.210  12.134 -0.1740 -0.1775  0.3743
  150TMC2     O 2337   0.865   2.104  12.178  0.3184 -0.3525  0.1575
  150TMC2     H 2338   0.791   2.416  11.959 -2.0631 -1.2057  3.6626
  150TMC2    H1 2339   1.073   2.228  12.219  0.3144  0.2801  0.0097
  150TMC2    H2 2340   1.210   2.477  11.898  0.8629  1.2022  0.7136
  150TMC2    C7 2341   1.293   2.345  12.109 -0.5405 -0.1988 -0.1182
  150TMC2    C8 2342   0.966   2.522  11.795  0.3374  0.0514  0.1821
  150TMC2    O1 2343   1.367   2.439  12.073 -0.7047  0.3470  0.1157
  150TMC2    O2 2344   0.853   2.567  11.770  0.1889  0.3782  0.4071
  150TMC2    O5 2345   1.065   2.492  11.704 -0.4505  0.6573 -0.0457
  150TMC2    H5 2346   1.130   2.425  11.734 -0.9997 -0.6419 -1.7632
  151MPD2     C 2347   0.359   2.031  12.071 -0.5998  0.0356  0.5565
  151MPD2    C1 2348   0.357   2.161  12.021 -0.0318 -0.2848  0.4486
  151MPD2    C2 2349   0.466   2.239  12.037 -0.3884 -0.6779 -0.1591
  151MPD2    C3 2350   0.580   2.185  12.103  0.7117 -0.4600  0.4273
  151MPD2    C4 2351   0.576   2.058  12.144 -1.1087  0.4607  0.3394
  151MPD2    C5 2352   0.463   1.985  12.137  0.0764 -0.5191 -1.1094
  151MPD2     H 2353   0.457   2.346  12.026  1.1707 -0.4975  0.3369
  151MPD2    H1 2354   0.659   2.001  12.181 -0.5403  0.0479 -1.5370
  151MPD2    H2 2355   0.272   1.969  12.056 -0.3120  0.0795 -1.3411
  151MPD2    H3 2356   0.471   1.879  12.160 -0.8740 -0.5638 -0.9690
  151MPD2     N 2357   0.695   2.256  12.110 -0.9912  0.4518  0.2392
  151MPD2    H5 2358   0.695   2.353  12.080 -0.3233  0.9022  1.6354
  151MPD2    N1 2359   0.240   2.196  11.946  0.5680 -0.1477 -0.0873
  151MPD2    H7 2360   0.163   2.131  11.939  0.2993 -0.2799  4.0496
  152TMC2    C1 2361   1.026   2.327  12.533  0.9613  0.3703 -0.0272
  152TMC2    C2 2362   1.067   2.201  12.574  0.4885  0.1409  0.4212
  152TMC2    C3 2363   1.203   2.186  12.582  0.3857  0.3606  0.2633
  152TMC2    C4 2364   1.114   2.426  12.511 -0.7651  0.9147 -0.0927
  152TMC2    C5 2365   1.246   2.403  12.528  0.1667 -0.1485  0.2817
  152TMC2    C6 2366   1.298   2.281  12.562  0.6353  0.6622  0.0465
  152TMC2     C 2367   0.891   2.354  12.495 -0.2061 -0.7090 -0.2241
  152TMC2     O 2368   0.857   2.472  12.469 -0.0832 -0.2071  0.5523
  152TMC2     H 2369   1.005   2.118  12.605 -0.6373  0.5200 -0.8457
  152TMC2    H1 2370   1.068   2.519  12.480 -2.3069  0.5472  1.1061
  152TMC2    H2 2371   1.400   2.250  12.543 -0.5002 -3.1341  0.1821
  152TMC2    C7 2372   1.338   2.502  12.482 -0.5060 -1.0093  0.3276
  152TMC2    C8 2373   1.259   2.069  12.636  0.5498  0.4001 -0.1733
  152TMC2    O1 2374   1.302   2.581  12.401 -0.0893  0.1767 -0.1906
  152TMC2    O2 2375   1.319   2.062  12.744  0.5588  0.1273 -0.1869
  152TMC2    O5 2376   1.193   1.968  12.572  0.0937 -0.1845 -0.1960
  152TMC2    H5 2377   1.143   2.003  12.495  0.8937 -3.0879 -2.0350
  153MPD2     C 2378   0.606   2.110  12.473  0.3952 -0.7175  0.9393
  153MPD2    C1 2379   0.672   2.236  12.466  0.5097 -0.5535 -0.3069
  153MPD2    C2 2380   0.581   2.350  12.444 -0.3941  0.1603  0.0814
  153MPD2    C3 2381   0.442   2.339  12.440  0.0718  0.3653  0.0763
  153MPD2    C4 2382   0.389   2.208  12.446 -0.2173  0.1745 -0.1117
  153MPD2    C5 2383   0.469   2.099  12.451  0.7755  0.4913  0.3038
  153MPD2     H 2384   0.621   2.450  12.431  1.2103 -0.2865  1.5586
  153MPD2    H1 2385   0.283   2.186  12.450  0.1660 -1.5272  0.5571
  153MPD2    H2 2386   0.660   2.019  12.498  0.9493 -0.9268 -1.0358
  153MPD2    H3 2387   0.424   2.001  12.465 -0.6027  0.6079 -3.4423
  153MPD2     N 2388   0.361   2.454  12.421 -0.6773 -0.4006  0.2877
  153MPD2    H5 2389   0.400   2.546  12.438  1.8803 -1.1458 -1.5285
  153MPD2    N1 2390   0.815   2.238  12.486 -0.5050 -0.5722  0.5192
  153MPD2    H7 2391   0.850   2.148  12.519  1.7791 -0.1610 -0.8208
  154TMC2    C1 2392   2.584   2.874   0.609 -0.5022 -0.3653 -0.1372
  154TMC2    C2 2393   2.661   2.930   0.700 -0.4673  0.5375 -0.5733
  154TMC2    C3 2394   2.790   2.886   0.726 -0.6192 -0.3146 -0.2148
  154TMC2    C4 2395   2.638   2.768   0.535  0.8979  0.5798 -0.0804
  154TMC2    C5 2396   2.769   2.736   0.546  0.6732 -0.8505 -0.3116
  154TMC2    C6 2397   2.851   2.794   0.640  0.1833  0.3953  0.6749
  154TMC2     C 2398   2.443   2.920   0.599 -0.4157 -0.7371 -0.1654
  154TMC2     O 2399   2.402   2.985   0.693  0.1049 -0.1978 -0.0047
  154TMC2     H 2400   2.630   3.022   0.747 -1.5792 -1.0886  1.8280
  154TMC2    H1 2401   2.570   2.713   0.470  0.0043 -0.6725  1.9015
  154TMC2    H2 2402   2.957   2.776   0.653 -0.2230 -2.4153  0.1559
  154TMC2    C7 2403   2.834   2.667   0.430  0.5475 -0.4054 -0.0968
  154TMC2    C8 2404   2.879   2.976   0.783  0.2513  0.2288  0.6014
  154TMC2    O1 2405   2.759   2.622   0.346  0.5293  0.3691 -0.0483
  154TMC2    O2 2406   2.858   3.095   0.776 -0.1459 -0.7661 -0.4750
  154TMC2    O5 2407   2.919   2.913   0.887 -0.1301  0.1868 -0.1383
  154TMC2    H5 2408   2.930   2.817   0.872  0.4431  0.3887 -0.9744
  155MPD2     C 2409   2.230   2.928   0.287  0.5161 -0.4411  0.1937
  155MPD2    C1 2410   2.259   2.940   0.424  0.0523 -0.4084  0.5112
  155MPD2    C2 2411   2.175   3.013   0.503 -0.6496  0.5261  0.0676
  155MPD2    C3 2412   2.052   3.047   0.455  0.0042 -0.4122 -0.2351
  155MPD2    C4 2413   2.025   3.040   0.321  0.1542 -0.2441  0.3209
  155MPD2    C5 2414   2.114   2.984   0.234  0.0103  0.4255  0.2647
  155MPD2     H 2415   2.201   3.039   0.605  1.6460 -1.3538 -0.0419
  155MPD2    H1 2416   1.944   3.098   0.278  1.6520  1.1698 -0.6376
  155MPD2    H2 2417   2.296   2.885   0.213 -0.5085 -1.0978 -0.3340
  155MPD2    H3 2418   2.100   2.984   0.127 -0.5739 -0.7888  0.3343
  155MPD2     N 2419   1.956   3.101   0.548 -0.0473 -0.0178  0.0010
  155MPD2    H5 2420   1.973   3.108   0.648  1.4645 -0.2456 -0.2425
  155MPD2    N1 2421   2.388   2.900   0.470  0.1240 -0.3052 -0.2507
  155MPD2    H7 2422   2.442   2.839   0.411  1.9037  1.3167 -0.2995
  156TMC2    C1 2423   1.073   0.038  11.428  0.3396 -0.8673  0.7035
  156TMC2    C2 2424   1.120   4.729  11.307 -0.3533 -0.6229 -0.5219
  156TMC2    C3 2425   1.113   0.068  11.204  1.4833  0.2394  0.7774
  156TMC2    C4 2426   0.993   0.144  11.439 -0.2906  1.1301 -0.5991
  156TMC2    C5 2427   0.972   0.210  11.321 -0.0550 -0.4247 -0.4654
  156TMC2    C6 2428   1.039   0.181  11.205 -0.1180  0.7393 -0.0479
  156TMC2     C 2429   1.112   4.705  11.549  0.7652  0.1116 -0.1611
  156TMC2     O 2430   1.094   0.027  11.653 -0.7398 -0.0544  0.0145
  156TMC2     H 2431   1.200   4.656  11.304  0.7733  0.6238 -0.7194
  156TMC2    H1 2432   0.963   0.182  11.536 -0.7620 -0.1320 -0.2514
  156TMC2    H2 2433   1.021   0.244  11.118  1.3994  0.6963 -0.3903
  156TMC2    C7 2434   0.929   0.352  11.325  0.5443  0.0278  0.4733
  156TMC2    C8 2435   1.195   0.039  11.092 -0.2555 -0.0437  0.3979
  156TMC2    O1 2436   0.996   0.426  11.256 -0.1839  0.0610  0.4542
  156TMC2    O2 2437   1.247   4.670  11.071 -0.0826 -0.1053 -0.2015
  156TMC2    O5 2438   1.198   0.153  11.025  0.3082 -0.2046  0.6357
  156TMC2    H5 2439   1.267   0.160  10.955  0.2101 -0.6626  0.4947
  157MPD2     C 2440   1.107   4.336  11.610 -0.6357  0.4176  0.0432
  157MPD2    C1 2441   1.125   4.472  11.636  0.4841  0.5545 -0.2492
  157MPD2    C2 2442   1.161   4.505  11.766 -0.0997  0.6084 -0.4208
  157MPD2    C3 2443   1.163   4.406  11.866 -0.7100  0.7221 -0.3441
  157MPD2    C4 2444   1.140   4.273  11.835  0.3519 -0.3541  0.5079
  157MPD2    C5 2445   1.116   4.239  11.705 -0.4793  0.6736  0.2442
  157MPD2     H 2446   1.191   4.606  11.790  1.2421 -0.1290  0.9851
  157MPD2    H1 2447   1.146   4.188  11.903  1.1009 -0.4505  0.3127
  157MPD2    H2 2448   1.085   4.311  11.507  1.7297  0.4021 -0.4616
  157MPD2    H3 2449   1.111   4.134  11.678 -1.0301  0.7566  0.0250
  157MPD2     N 2450   1.210   4.450  11.995  0.4788  0.3271 -0.7768
  157MPD2    H5 2451   1.241   4.546  11.992  2.2005 -0.1875  0.8529
  157MPD2    N1 2452   1.126   4.568  11.527  0.6313  0.7214 -0.4606
  157MPD2    H7 2453   1.113   4.524  11.437 -0.3292  1.5715 -0.7369
  158TMC2    C1 2454   1.966   2.983  13.050 -0.2548  0.5112  0.2916
  158TMC2    C2 2455   2.036   2.965  12.932  0.3850 -0.0235 -0.0406
  158TMC2    C3 2456   1.984   3.011  12.813 -0.1257 -0.4279 -0.2041
  158TMC2    C4 2457   1.843   3.042  13.046 -0.0507  0.6026  0.2537
  158TMC2    C5 2458   1.799   3.089  12.921 -0.5349  0.0332 -0.2547
  158TMC2    C6 2459   1.868   3.086  12.803 -0.1118  0.3041  0.6669
  158TMC2     C 2460   2.033   2.957  13.178 -0.2983  0.1727 -0.1143
  158TMC2     O 2461   2.154   2.929  13.172 -0.4700  0.1901 -0.0618
  158TMC2     H 2462   2.124   2.902  12.931  0.3859 -0.0893  4.0472
  158TMC2    H1 2463   1.795   3.068  13.140  0.8208 -1.0932  1.1788
  158TMC2    H2 2464   1.818   3.102  12.708 -3.3513 -0.2149  2.2914
  158TMC2    C7 2465   1.661   3.134  12.915 -0.0277  0.0303  0.0055
  158TMC2    C8 2466   2.059   2.967  12.695 -0.7411  0.7149  0.4239
  158TMC2    O1 2467   1.631   3.204  12.822 -0.7579 -0.1755 -0.5871
  158TMC2    O2 2468   2.089   2.847  12.687  0.4140  0.1890 -0.7287
  158TMC2    O5 2469   2.007   3.033  12.590 -0.1204 -0.2060  0.7280
  158TMC2    H5 2470   1.987   3.127  12.610  0.4596  0.1909 -0.6094
  159MPD2     C 2471   2.067   2.856  13.680 -0.2490  0.3045  0.5954
  159MPD2    C1 2472   1.941   2.911  13.654  0.0646 -0.0472 -0.6524
  159MPD2    C2 2473   1.911   2.957  13.528  0.4121 -0.0601  0.1216
  159MPD2    C3 2474   1.992   2.921  13.419  0.6307 -0.7534 -0.6547
  159MPD2    C4 2475   2.112   2.859  13.446  0.0184  0.4161 -0.0196
  159MPD2    C5 2476   2.151   2.831  13.576  0.5828  1.4022 -0.4427
  159MPD2     H 2477   1.818   3.009  13.505 -1.6028 -2.6280  2.3899
  159MPD2    H1 2478   2.183   2.829  13.369 -0.0807 -0.1769  0.1215
  159MPD2    H2 2479   2.090   2.826  13.782 -2.3688  0.9470  1.2702
  159MPD2    H3 2480   2.242   2.774  13.592 -1.6733 -2.1228 -0.0572
  159MPD2     N 2481   1.952   2.954  13.290  0.0182 -0.3258  0.1440
  159MPD2    H5 2482   1.854   2.976  13.279  0.5222  0.5154 -2.4780
  159MPD2    N1 2483   1.853   2.932  13.770  0.5415 -0.0900  0.4039
  159MPD2    H7 2484   1.876   2.891  13.860 -3.0278 -2.2731  0.2703
  160TMC2    C1 2485   0.980   1.340   1.215  0.0495 -0.0865  0.2142
  160TMC2    C2 2486   1.027   1.423   1.311  0.3729 -0.6717  1.2617
  160TMC2    C3 2487   1.140   1.490   1.282 -0.0106 -0.3531  0.2163
  160TMC2    C4 2488   1.033   1.308   1.094 -0.8743 -0.0028  0.3302
  160TMC2    C5 2489   1.157   1.370   1.079 -0.3746  0.0793  0.0309
  160TMC2    C6 2490   1.214   1.456   1.172 -0.4143  0.0484  1.5583
  160TMC2     C 2491   0.851   1.286   1.237  0.1146  0.6921 -0.7122
  160TMC2     O 2492   0.824   1.272   1.354 -0.2924 -0.5004  0.7911
  160TMC2     H 2493   0.960   1.455   1.390  0.5490 -0.7026  1.4240
  160TMC2    H1 2494   0.981   1.249   1.020 -0.4843  0.5312 -0.3736
  160TMC2    H2 2495   1.321   1.470   1.164 -0.7986  1.3716 -1.3763
  160TMC2    C7 2496   1.214   1.352   0.945  0.0188 -0.7858  0.4127
  160TMC2    C8 2497   1.211   1.561   1.385  0.0524 -0.0622 -0.5837
  160TMC2    O1 2498   1.180   1.264   0.871 -0.0798 -0.1609 -0.3829
  160TMC2    O2 2499   1.305   1.632   1.362 -1.0434  0.2357 -0.2788
  160TMC2    O5 2500   1.178   1.512   1.508 -0.5649  0.0213  0.7336
  160TMC2    H5 2501   1.111   1.440   1.507 -2.1621  1.5317 -0.3615
  161MPD2     C 2502   0.556   1.276   1.245 -0.6396  0.6915 -0.5828
  161MPD2    C1 2503   0.626   1.338   1.146  0.3062  0.3649  0.1503
  161MPD2    C2 2504   0.561   1.404   1.046  0.2663 -0.2888  0.0011
  161MPD2    C3 2505   0.422   1.420   1.046  0.4453  0.6279 -0.5912
  161MPD2    C4 2506   0.355   1.354   1.144 -0.3815  0.5391 -0.0882
  161MPD2    C5 2507   0.414   1.280   1.246 -0.0561 -0.1641  0.3233
  161MPD2     H 2508   0.613   1.440   0.958 -0.8803  1.2774 -0.0350
  161MPD2    H1 2509   0.248   1.366   1.153 -0.3002  1.2158 -0.0407
  161MPD2    H2 2510   0.606   1.222   1.325  0.0971  1.9638 -0.1853
  161MPD2    H3 2511   0.359   1.239   1.329  2.1696 -4.4133 -0.3221
  161MPD2     N 2512   0.352   1.514   0.963 -0.7737  0.5467 -0.3420
  161MPD2    H5 2513   0.251   1.516   0.962 -0.8273 -1.5548 -0.6391
  161MPD2    N1 2514   0.768   1.328   1.135  0.3935  0.4024  0.9035
  161MPD2    H7 2515   0.813   1.362   1.050 -1.3401  0.3602 -0.0239
  162TMC2    C1 2516   4.414   3.582   1.204  0.5339  0.0478  0.4659
  162TMC2    C2 2517   4.370   3.580   1.336 -0.4076  0.2683  0.4912
  162TMC2    C3 2518   4.462   3.554   1.437 -0.3899  0.4656  0.8446
  162TMC2    C4 2519   4.552   3.577   1.183 -0.5292  0.0448 -0.2236
  162TMC2    C5 2520   4.645   3.572   1.288 -0.0611  0.6037 -0.4723
  162TMC2    C6 2521   4.596   3.552   1.410  0.3350 -0.5187  0.7323
  162TMC2     C 2522   4.328   3.585   1.086  0.7494 -0.3222  0.4643
  162TMC2     O 2523   4.397   3.606   0.986  1.0395  0.0280 -0.7282
  162TMC2     H 2524   4.266   3.594   1.366  0.1831  1.7955  1.8290
  162TMC2    H1 2525   4.593   3.584   1.082 -2.7891  0.5744 -1.1105
  162TMC2    H2 2526   4.673   3.550   1.487  1.4246 -3.2435 -0.3942
  162TMC2    C7 2527   0.035   3.517   1.260 -0.4136  0.2184 -0.2048
  162TMC2    C8 2528   4.437   3.615   1.563 -0.8692  0.0138 -0.3245
  162TMC2    O1 2529   0.126   3.540   1.340  0.1275  0.3816 -0.5909
  162TMC2    O2 2530   4.514   3.693   1.612  0.1299  0.5812  1.0183
  162TMC2    O5 2531   4.359   3.533   1.638  0.1659 -0.3608 -0.7724
  162TMC2    H5 2532   4.335   3.449   1.595 -2.2750  0.4549 -1.0121
  163MPD2     C 2533   3.898   3.610   0.804 -0.5054  0.9281  1.1525
  163MPD2    C1 2534   4.023   3.567   0.768 -0.3213  0.4587 -0.2839
  163MPD2    C2 2535   4.119   3.571   0.865 -0.0400  0.0648 -0.1544
  163MPD2    C3 2536   4.093   3.603   0.997  0.3280  0.1794 -0.3791
  163MPD2    C4 2537   3.961   3.637   1.030 -0.0047  0.5272 -0.3496
  163MPD2    C5 2538   3.866   3.633   0.930  0.0119 -0.1557  0.1550
  163MPD2     H 2539   4.216   3.527   0.849  0.4319  1.4250 -1.0712
  163MPD2    H1 2540   3.936   3.659   1.133 -0.6757 -2.3101  0.0864
  163MPD2    H2 2541   3.808   3.619   0.744  0.5160 -0.5150 -0.5812
  163MPD2    H3 2542   3.763   3.653   0.958 -0.7918  0.2973 -3.0431
  163MPD2     N 2543   4.190   3.591   1.102  0.0775  0.0829 -0.1108
  163MPD2    H5 2544   4.154   3.607   1.195 -1.0186  0.5029 -0.6063
  163MPD2    N1 2545   4.035   3.522   0.629 -0.0756  0.2286 -0.1946
  163MPD2    H7 2546   3.952   3.534   0.572  0.4044  2.3647 -0.4337
  164TMC2    C1 2547   4.138   2.808  10.889 -0.6240 -0.1263  0.0513
  164TMC2    C2 2548   4.240   2.909  10.907 -0.3959 -0.1450  0.9012
  164TMC2    C3 2549   4.194   3.015  10.975 -0.1595  0.3984  0.5756
  164TMC2    C4 2550   4.012   2.821  10.949 -0.1755  0.9557  0.6374
  164TMC2    C5 2551   3.979   2.942  11.001  0.1888 -0.4433  0.3324
  164TMC2    C6 2552   4.067   3.038  11.008  0.5735  0.0006 -0.4798
  164TMC2     C 2553   4.171   2.688  10.817 -0.3406  0.3221  0.1177
  164TMC2     O 2554   4.101   2.589  10.836 -0.5115  0.3671 -0.0820
  164TMC2     H 2555   4.344   2.909  10.874 -1.5858 -0.8318 -2.8126
  164TMC2    H1 2556   3.940   2.740  10.949  0.2532  0.5710  0.0240
  164TMC2    H2 2557   4.032   3.132  11.049 -1.6392 -0.4911 -1.2134
  164TMC2    C7 2558   3.840   2.971  11.047 -0.4652 -0.5935  0.9605
  164TMC2    C8 2559   4.280   3.121  11.002  1.1241  0.0313 -0.5193
  164TMC2    O1 2560   3.797   3.084  11.022  0.1227 -0.4012  0.3826
  164TMC2    O2 2561   4.262   3.203  11.092 -0.2779 -0.6395  0.0284
  164TMC2    O5 2562   4.320   3.159  10.881 -0.7486  0.2892 -0.7582
  164TMC2    H5 2563   4.314   3.086  10.816 -0.8563 -0.7834  0.4684
  165TMC2    C1 2564   1.421   0.622   1.401  0.1297  0.5832 -0.2513
  165TMC2    C2 2565   1.450   0.600   1.535  1.1498  0.4076  0.2157
  165TMC2    C3 2566   1.472   0.693   1.621  0.3994 -0.0094  0.0469
  165TMC2    C4 2567   1.429   0.752   1.357  0.0901 -0.0139 -0.4447
  165TMC2    C5 2568   1.438   0.847   1.452  0.0034 -0.7187 -0.1699
  165TMC2    C6 2569   1.457   0.821   1.590 -0.0714  0.3282  0.4469
  165TMC2     C 2570   1.443   0.511   1.310 -0.3501 -0.7580  0.3191
  165TMC2     O 2571   1.492   0.411   1.361 -0.1840  0.5132  0.6096
  165TMC2     H 2572   1.465   0.496   1.562  3.5009  0.6491 -0.1547
  165TMC2    H1 2573   1.430   0.784   1.254  2.2357 -0.6591 -0.6274
  165TMC2    H2 2574   1.462   0.892   1.672  0.5991  1.1692 -0.3273
  165TMC2    C7 2575   1.467   0.979   1.397  0.2319 -0.0695  0.4690
  165TMC2    C8 2576   1.519   0.656   1.750 -0.0435  0.1481  0.1274
  165TMC2    O1 2577   1.450   0.997   1.278  0.4083 -0.5327  0.5188
  165TMC2    O2 2578   1.575   0.728   1.828 -0.0840 -0.0562 -0.0477
  165TMC2    O5 2579   1.418   0.574   1.798  0.1978 -0.3757 -0.5498
  165TMC2    H5 2580   1.385   0.522   1.722  1.5601 -1.0353 -0.6838
  166MPD2     C 2581   1.417   0.229   0.885 -0.2990  0.1132 -0.6412
  166MPD2    C1 2582   1.488   0.212   0.999  0.0877 -0.3328  0.9095
  166MPD2    C2 2583   1.487   0.308   1.094  0.2941  0.4313  0.7530
  166MPD2    C3 2584   1.409   0.426   1.081  0.3401  0.1360 -0.1931
  166MPD2    C4 2585   1.333   0.437   0.971 -0.3583 -0.1605  0.5994
  166MPD2    C5 2586   1.339   0.344   0.872  0.2379  0.1494 -0.8300
  166MPD2     H 2587   1.545   0.286   1.183  0.6133  0.4611  0.5508
  166MPD2    H1 2588   1.284   0.528   0.940  2.2163  1.0291  0.0370
  166MPD2    H2 2589   1.415   0.158   0.803  0.4889 -0.6837  0.0397
  166MPD2    H3 2590   1.288   0.363   0.778 -1.7146  0.1706  0.2308
  166MPD2     N 2591   1.394   0.523   1.181  0.0590 -0.0614  0.1796
  166MPD2    H5 2592   1.341   0.607   1.158  0.3337 -0.3577 -1.4631
  166MPD2    N1 2593   1.556   0.085   1.011  0.7769  0.6483 -0.3109
  166MPD2    H7 2594   1.551   0.023   0.931  0.0111 -2.4782  2.1802
  167TMC2    C1 2595   3.919   3.423  12.231 -0.0337 -0.1447 -0.5275
  167TMC2    C2 2596   4.005   3.474  12.325 -0.2364 -0.5276  0.2892
  167TMC2    C3 2597   3.987   3.442  12.456  0.5455 -0.0611 -0.1008
  167TMC2    C4 2598   3.828   3.324  12.258 -0.5473 -0.3582 -0.5304
  167TMC2    C5 2599   3.826   3.278  12.383 -1.5480  0.0130  0.4273
  167TMC2    C6 2600   3.900   3.338  12.481  0.6085 -1.0346 -0.6044
  167TMC2     C 2601   3.968   3.429  12.100 -0.0598 -0.5643  0.1798
  167TMC2     O 2602   4.088   3.441  12.086  0.0337  0.3418 -0.1911
  167TMC2     H 2603   4.080   3.544  12.290  0.1524 -0.3763  1.4236
  167TMC2    H1 2604   3.762   3.284  12.183 -0.1742  0.2500 -1.1828
  167TMC2    H2 2605   3.891   3.299  12.582  2.0436  0.4610  0.1060
  167TMC2    C7 2606   3.757   3.154  12.416  0.2627  0.2473  0.2908
  167TMC2    C8 2607   4.117   3.416  12.513  0.2810  0.3730 -0.0162
  167TMC2    O1 2608   3.722   3.136  12.530 -0.3514 -0.8302 -0.6885
  167TMC2    O2 2609   4.223   3.435  12.458 -0.3637  0.3081 -0.0320
  167TMC2    O5 2610   4.112   3.378  12.640  0.6408 -0.5049 -0.0678
  167TMC2    H5 2611   4.025   3.385  12.686  1.0883  1.4552  0.4936
  168MPD2     C 2612   4.005   3.422  11.807 -0.2090  0.2161  0.2224
  168MPD2    C1 2613   3.883   3.427  11.869  0.1234 -0.2608  0.3203
  168MPD2    C2 2614   3.763   3.422  11.801 -0.6274  0.1603 -0.4048
  168MPD2    C3 2615   3.765   3.407  11.666 -0.2349  0.3472 -0.0219
  168MPD2    C4 2616   3.888   3.411  11.597 -0.2790  0.2034 -0.0124
  168MPD2    C5 2617   4.007   3.417  11.669 -0.2360 -0.0156 -0.0884
  168MPD2     H 2618   3.673   3.407  11.859 -0.1217 -2.6728 -0.3215
  168MPD2    H1 2619   3.891   3.402  11.489 -3.5540  2.3478 -0.2829
  168MPD2    H2 2620   4.098   3.420  11.862  0.5235 -1.8602 -1.1099
  168MPD2    H3 2621   4.105   3.411  11.624  0.5978  1.7228  1.4779
  168MPD2     N 2622   3.645   3.395  11.592 -0.2237 -0.4956  0.2302
  168MPD2    H5 2623   3.558   3.391  11.644 -0.3154  0.8197  0.1799
  168MPD2    N1 2624   3.870   3.413  12.004 -0.2439  0.1465 -0.1159
  168MPD2    H7 2625   3.775   3.421  12.037 -0.1111 -0.0472  0.3102
  169MPD1     C 2626   0.992   2.941   8.695 -0.2295 -0.6302  0.4686
  169MPD1    C1 2627   1.111   2.973   8.747 -0.3145  1.1984  0.4808
  169MPD1    C2 2628   1.137   2.907   8.868  0.9039 -0.4248 -1.0146
  169MPD1    C3 2629   1.047   2.819   8.930  0.3758  0.1437  0.9525
  169MPD1    C4 2630   0.925   2.794   8.863  0.0167 -0.4814 -0.3454
  169MPD1    C5 2631   0.903   2.860   8.751 -0.4342 -0.1827  0.0231
  169MPD1     H 2632   1.226   2.932   8.924 -0.9739  0.0521  1.7441
  169MPD1    H1 2633   0.846   2.743   8.917  0.0811  0.0975  0.2987
  169MPD1    H2 2634   0.961   2.980   8.599 -0.4661 -0.5266  0.5876
  169MPD1    H3 2635   0.803   2.852   8.710 -0.0556  2.1635 -1.3965
  169MPD1     N 2636   1.085   2.757   9.057 -0.6780 -0.1277 -0.1385
  169MPD1    H5 2637   1.161   2.797   9.111  0.6571 -1.8824 -0.7454
  169MPD1    N1 2638   1.186   3.084   8.704  0.6915 -0.0747 -0.2127
  169MPD1    H6 2639   1.202   3.075   8.604  1.6586 -0.1833 -0.0508
  169MPD1    H7 2640   1.279   3.082   8.745  0.6569 -0.6061 -0.1540
  170MPD1     C 2641   0.763   0.931  12.761 -0.2615  0.1270 -0.4515
  170MPD1    C1 2642   0.646   0.917  12.699  1.2587  0.9423  0.0649
  170MPD1    C2 2643   0.530   0.928  12.783  0.1707 -0.7564  0.0703
  170MPD1    C3 2644   0.539   0.964  12.918 -0.5819 -0.5084 -0.4593
  170MPD1    C4 2645   0.668   0.972  12.974  0.2673 -0.0039  0.4608
  170MPD1    C5 2646   0.777   0.966  12.890 -0.4848 -0.1726 -0.2548
  170MPD1     H 2647   0.436   0.891  12.743 -0.8982  1.0074  0.9250
  170MPD1    H1 2648   0.681   0.975  13.081 -2.0850  1.3925  0.7006
  170MPD1    H2 2649   0.855   0.906  12.709  0.5309  1.4359  0.3385
  170MPD1    H3 2650   0.874   0.945  12.934 -1.0068 -0.3377  0.8160
  170MPD1     N 2651   0.424   0.972  12.988  0.0633  0.9713 -0.9388
  170MPD1    H5 2652   0.342   0.970  12.927  0.2526 -0.6633 -1.1394
  170MPD1    N1 2653   0.638   0.851  12.578 -0.3066  0.0982  1.0836
  170MPD1    H6 2654   0.724   0.860  12.524 -0.3936  1.4561  1.1641
  170MPD1    H7 2655   0.553   0.881  12.531  2.5202  2.7183 -2.4215
  171MPD1     C 2656   2.891   2.004  15.467 -0.1745 -0.6453  0.2499
  171MPD1    C1 2657   2.973   1.966  15.366 -0.1717  0.2007  0.1384
  171MPD1    C2 2658   3.108   1.966  15.395 -0.0325  0.2292  0.5822
  171MPD1    C3 2659   3.155   1.976  15.530 -1.1423 -0.5437  0.6246
  171MPD1    C4 2660   3.064   1.978  15.629 -0.7169  0.4057  0.3594
  171MPD1    C5 2661   2.936   1.993  15.600 -0.3981  0.8613  0.2373
  171MPD1     H 2662   3.177   1.955  15.312 -2.7221  2.2796 -1.9416
  171MPD1    H1 2663   3.109   1.983  15.727 -2.4994  0.1055  1.2061
  171MPD1    H2 2664   2.786   2.011  15.440  0.0159  0.3334 -0.2628
  171MPD1    H3 2665   2.859   1.990  15.676 -0.1333 -0.4410  0.4505
  171MPD1     N 2666   3.292   1.964  15.575 -0.0423  0.1125  0.1534
  171MPD1    H5 2667   3.314   1.983  15.672  0.9326  3.3069 -0.6784
  171MPD1    N1 2668   2.920   1.955  15.237  0.0278  0.4301 -0.1805
  171MPD1    H6 2669   2.825   1.923  15.221 -0.1690  0.8207  0.2022
  171MPD1    H7 2670   2.979   1.897  15.177  0.5510 -0.6583  1.3779
  172MPD1     C 2671   3.077   2.039   1.163 -0.5348  0.4529 -0.1620
  172MPD1    C1 2672   2.987   2.130   1.108 -0.1413 -0.1651 -0.0097
  172MPD1    C2 2673   2.952   2.115   0.974  0.8841  0.2206  0.3998
  172MPD1    C3 2674   3.007   2.013   0.903 -0.4228  0.2301  0.7952
  172MPD1    C4 2675   3.089   1.925   0.962 -0.0295  0.7294 -0.6691
  172MPD1    C5 2676   3.123   1.932   1.094  0.0126 -0.2442 -0.5570
  172MPD1     H 2677   2.875   2.178   0.931 -1.2227 -2.3269  0.4456
  172MPD1    H1 2678   3.141   1.847   0.908  0.8029  0.1745  0.9016
  172MPD1    H2 2679   3.108   2.048   1.266  1.4076 -2.5767 -0.4684
  172MPD1    H3 2680   3.185   1.855   1.138 -2.1286 -1.9493 -0.5540
  172MPD1     N 2681   2.964   1.985   0.772  0.0382 -0.6819 -0.0411
  172MPD1    H5 2682   3.004   1.899   0.737 -0.3678 -0.6446 -0.5953
  172MPD1    N1 2683   2.915   2.212   1.191 -0.3094 -0.3338  0.5396
  172MPD1    H6 2684   2.872   2.290   1.142  1.0192  1.5228  2.2887
  172MPD1    H7 2685   2.969   2.241   1.273  0.9285  0.5202 -0.5721
  173MPD1     C 2686   3.235   0.236  13.760 -0.2209 -0.7688 -0.3037
  173MPD1    C1 2687   3.169   0.333  13.844  0.0958 -0.5699 -0.3231
  173MPD1    C2 2688   3.247   0.388  13.945  0.0025  0.2012  0.0577
  173MPD1    C3 2689   3.383   0.376  13.948 -0.5328  1.0347 -0.0964
  173MPD1    C4 2690   3.444   0.310  13.845 -0.4477  0.4031 -0.3491
  173MPD1    C5 2691   3.372   0.236  13.753  0.1075 -0.3903 -0.0790
  173MPD1     H 2692   3.196   0.441  14.026 -2.1246 -1.4082 -0.2347
  173MPD1    H1 2693   3.552   0.304  13.840 -0.4934 -1.0884  0.4197
  173MPD1    H2 2694   3.178   0.181  13.686 -1.2997 -2.2164  1.6230
  173MPD1    H3 2695   3.418   0.162  13.689 -0.7640  0.7262 -1.9745
  173MPD1     N 2696   3.470   0.436  14.045  0.2899  0.2515  0.5138
  173MPD1    H5 2697   3.571   0.425  14.047  0.4233  1.3436 -0.5541
  173MPD1    N1 2698   3.030   0.330  13.862  0.0245 -0.2176  0.8501
  173MPD1    H6 2699   2.985   0.410  13.906 -0.5700 -0.7023  1.1235
  173MPD1    H7 2700   2.988   0.308  13.772  0.9372 -2.2741  0.9368
  174MPD1     C 2701   4.211   0.729  13.848  0.1442 -0.3173 -0.6450
  174MPD1    C1 2702   4.182   0.821  13.944 -0.3029  0.5258 -0.1858
  174MPD1    C2 2703   4.067   0.797  14.014  0.1627  0.4771 -0.2028
  174MPD1    C3 2704   3.997   0.680  14.009 -0.1174 -0.4370  0.2910
  174MPD1    C4 2705   4.033   0.584  13.918 -0.6652 -0.0732  0.4959
  174MPD1    C5 2706   4.142   0.610  13.840 -0.5079  0.4113  0.1202
  174MPD1     H 2707   4.037   0.877  14.081 -3.5195 -1.6763  0.6815
  174MPD1    H1 2708   3.974   0.493  13.911  0.0475 -0.7384  3.0213
  174MPD1    H2 2709   4.291   0.751  13.778  0.3739  1.3648  0.1411
  174MPD1    H3 2710   4.170   0.534  13.768 -1.0210 -0.1885  0.5558
  174MPD1     N 2711   3.889   0.647  14.098  0.3009 -0.0715 -0.1543
  174MPD1    H5 2712   3.825   0.578  14.063 -0.8361  0.7586  0.2733
  174MPD1    N1 2713   4.246   0.950  13.949  0.2107  0.3702  0.0975
  174MPD1    H6 2714   4.241   0.989  14.043  1.3437  4.1182 -1.4035
  174MPD1    H7 2715   4.345   0.946  13.927  0.0156 -0.7562 -0.5460
  175MPD1     C 2716   2.360   1.915  14.988  0.0346 -0.0955  0.3405
  175MPD1    C1 2717   2.236   1.942  15.042  0.2400 -0.5960  0.0089
  175MPD1    C2 2718   2.226   1.913  15.180  0.2618 -0.1531  0.0387
  175MPD1    C3 2719   2.327   1.855  15.254  0.4220  0.6530  0.0721
  175MPD1    C4 2720   2.447   1.822  15.197 -0.9213 -0.5814 -0.7950
  175MPD1    C5 2721   2.458   1.851  15.061  1.1201 -0.7046  0.3231
  175MPD1     H 2722   2.138   1.945  15.235 -0.5115 -1.3502 -0.4800
  175MPD1    H1 2723   2.528   1.776  15.252 -1.3044  0.3642  0.5512
  175MPD1    H2 2724   2.380   1.945  14.886 -0.6844  0.9420  0.5076
  175MPD1    H3 2725   2.552   1.834  15.009  0.8907  1.0252 -0.6215
  175MPD1     N 2726   2.313   1.834  15.398  0.0129 -0.5050  0.1185
  175MPD1    H5 2727   2.398   1.806  15.447 -0.3088  0.7489  1.3926
  175MPD1    N1 2728   2.132   2.000  14.967 -0.0432  0.3447  0.9538
  175MPD1    H6 2729   2.132   1.961  14.873  1.7893  1.1239  0.6219
  175MPD1    H7 2730   2.037   1.990  15.001  0.4188 -1.5545  1.6707
  176MPD1     C 2731   3.625   4.475   0.036  0.6970  0.3000 -0.8729
  176MPD1    C1 2732   3.673   4.583   0.101  0.0336  0.4782 -1.0424
  176MPD1    C2 2733   3.771   4.653   0.038  0.5475  0.2471 -0.1240
  176MPD1    C3 2734   3.846   4.615  17.685 -0.2133  0.7462  0.3845
  176MPD1    C4 2735   3.796   4.502  17.624  0.3291  0.2879  0.1748
  176MPD1    C5 2736   3.697   4.432  17.687  0.3608  0.2582  0.3551
  176MPD1     H 2737   3.803   0.001   0.092  2.0566 -2.2609  3.0671
  176MPD1    H1 2738   3.836   4.454  17.535  0.5394 -0.8249  0.8686
  176MPD1    H2 2739   3.553   4.410   0.084  0.9006  0.7003 -0.0263
  176MPD1    H3 2740   3.670   4.335  17.646  0.7409  0.3690 -0.1584
  176MPD1     N 2741   3.951   4.695  17.637 -0.4185 -0.2410  0.1341
  176MPD1    H5 2742   3.973   0.039  17.688 -1.4819 -0.4584  0.9440
  176MPD1    N1 2743   3.611   4.641   0.209 -0.1691 -0.1359 -0.0424
  176MPD1    H6 2744   3.644   4.731   0.243  0.9166 -0.5008 -0.1198
  176MPD1    H7 2745   3.568   4.578   0.277 -2.8061 -0.7839 -2.3221
  177MPD1     C 2746   2.444   3.441  10.111  0.1101 -0.1831 -0.4693
  177MPD1    C1 2747   2.320   3.385  10.082 -0.4876  0.1686 -0.3096
  177MPD1    C2 2748   2.244   3.439   9.981  0.1594 -0.1376  0.2343
  177MPD1    C3 2749   2.275   3.561   9.930 -0.1006  0.3456 -0.0288
  177MPD1    C4 2750   2.401   3.619   9.962 -0.0484  0.4557 -0.1779
  177MPD1    C5 2751   2.475   3.554  10.045  0.2579 -0.3970 -0.0594
  177MPD1     H 2752   2.154   3.387   9.951  0.0037  1.0669 -1.3822
  177MPD1    H1 2753   2.438   3.707   9.911 -1.3628  0.3441 -1.3559
  177MPD1    H2 2754   2.516   3.407  10.185  2.2332  1.5153 -1.7656
  177MPD1    H3 2755   2.571   3.600  10.061 -0.1592  1.3044 -2.4889
  177MPD1     N 2756   2.185   3.630   9.853 -0.2464  0.2655  0.4757
  177MPD1    H5 2757   2.110   3.573   9.817 -0.4834  1.4102 -0.8628
  177MPD1    N1 2758   2.291   3.261  10.141 -0.0948 -0.0113 -0.2128
  177MPD1    H6 2759   2.189   3.264  10.142 -0.1061 -0.4154 -0.2492
  177MPD1    H7 2760   2.319   3.255  10.239 -0.7597  0.0893 -0.0150
  178MPD1     C 2761   4.600   4.026   0.376  1.2003  0.2096 -0.0320
  178MPD1    C1 2762   4.701   4.107   0.418  0.5806 -0.0163  0.1042
  178MPD1    C2 2763   0.014   4.204   0.334  0.5210 -0.2058 -0.5855
  178MPD1    C3 2764   4.710   4.218   0.203 -0.1850 -0.3327 -0.5622
  178MPD1    C4 2765   4.608   4.136   0.165 -0.1509  0.1336  0.2355
  178MPD1    C5 2766   4.556   4.041   0.249 -0.2218 -0.1086 -0.6232
  178MPD1     H 2767   0.088   4.270   0.377 -0.1573  0.6237 -0.6877
  178MPD1    H1 2768   4.573   4.146   0.063  0.9208  0.3578 -0.1032
  178MPD1    H2 2769   4.565   3.944   0.439  0.7687  0.5303  0.1441
  178MPD1    H3 2770   4.481   3.973   0.211  1.3380 -1.2129 -1.6991
  178MPD1     N 2771   0.023   4.310   0.111  0.1829 -0.5432 -0.0309
  178MPD1    H5 2772   4.714   4.310   0.022 -0.4738 -0.3467  0.3288
  178MPD1    N1 2773   0.007   4.098   0.552  0.2819 -0.0105 -0.0868
  178MPD1    H6 2774   4.734   4.001   0.581 -0.9939 -0.0655 -0.8289
  178MPD1    H7 2775   0.108   4.106   0.553  0.4873 -2.9868  2.0609
  179MPD1     C 2776   0.114   3.244  15.124 -0.6076  0.6628  0.5188
  179MPD1    C1 2777   4.727   3.276  15.069 -0.4085  0.1581 -0.3096
  179MPD1    C2 2778   4.618   3.189  15.101 -0.0736 -0.4334  0.0740
  179MPD1    C3 2779   4.644   3.070  15.170 -0.1448  0.4431  0.3313
  179MPD1    C4 2780   0.029   3.047  15.213  1.0939  0.9215  0.1481
  179MPD1    C5 2781   0.128   3.131  15.188 -0.4484 -0.8626 -0.2446
  179MPD1     H 2782   4.519   3.224  15.071 -0.7011 -0.4818  2.0996
  179MPD1    H1 2783   0.059   2.962  15.273 -0.1208  1.2824  1.2574
  179MPD1    H2 2784   0.203   3.306  15.124 -0.6376  0.6521 -3.3096
  179MPD1    H3 2785   0.224   3.100  15.229 -0.6672 -1.1585  0.0442
  179MPD1     N 2786   4.550   2.972  15.205 -0.2344 -0.3321 -0.9343
  179MPD1    H5 2787   4.584   2.892  15.257  1.8423 -0.0935 -1.9136
  179MPD1    N1 2788   4.708   3.411  15.032  0.1377 -0.0915 -1.2112
  179MPD1    H6 2789   0.048   3.444  14.979  0.1909  2.7445  0.6254
  179MPD1    H7 2790   4.633   3.425  14.966 -1.0859 -3.1233 -0.4753
  180MPD1     C 2791   3.707   4.450  15.134 -0.6696 -0.1499 -0.0107
  180MPD1    C1 2792   3.757   4.558  15.058  0.1261  0.1056 -1.0422
  180MPD1    C2 2793   3.752   4.548  14.918 -0.9225  0.4107  1.2038
  180MPD1    C3 2794   3.690   4.446  14.850 -0.6790 -0.7593 -0.4476
  180MPD1    C4 2795   3.645   4.337  14.927 -0.4834  0.1051 -0.1798
  180MPD1    C5 2796   3.649   4.346  15.065 -0.5668  0.3828  0.4216
  180MPD1     H 2797   3.796   4.627  14.859  0.8603 -2.0640 -0.7814
  180MPD1    H1 2798   3.607   4.246  14.881  1.3175  0.1390 -1.7141
  180MPD1    H2 2799   3.711   4.444  15.242  1.0675  1.1532 -0.0087
  180MPD1    H3 2800   3.608   4.269  15.130 -1.5715 -0.0883 -0.7741
  180MPD1     N 2801   3.701   4.432  14.711 -0.2137  0.5513 -0.1151
  180MPD1    H5 2802   3.759   4.503  14.668  0.3065 -0.1019 -0.4965
  180MPD1    N1 2803   3.841   4.643  15.135 -0.5682  0.1333 -0.1237
  180MPD1    H6 2804   3.793   4.650  15.224 -0.2996  1.2501 -0.0658
  180MPD1    H7 2805   3.842   4.739  15.101  1.1259 -0.4842 -1.8044
  181MPD1     C 2806   0.829   0.505  10.554  0.4840  0.0595 -0.5847
  181MPD1    C1 2807   0.875   0.635  10.585 -0.5199  0.3342 -0.1304
  181MPD1    C2 2808   0.947   0.712  10.488 -0.3050 -0.1570 -0.2584
  181MPD1    C3 2809   0.969   0.658  10.359 -1.0352  0.4631 -0.3423
  181MPD1    C4 2810   0.930   0.535  10.336 -0.1631  0.1766 -0.5749
  181MPD1    C5 2811   0.858   0.460  10.424 -0.4585  0.0633  0.7133
  181MPD1     H 2812   0.994   0.804  10.520  1.1739 -1.2997  0.8717
  181MPD1    H1 2813   0.944   0.479  10.244  2.9193  0.8837 -0.5318
  181MPD1    H2 2814   0.774   0.438  10.619  1.5959 -0.0645  0.2242
  181MPD1    H3 2815   0.819   0.365  10.389  0.6982  0.1225 -0.7221
  181MPD1     N 2816   1.040   0.727  10.258 -0.1726  0.1492  0.4620
  181MPD1    H5 2817   1.080   0.671  10.184 -1.5042  0.2834 -0.3523
  181MPD1    N1 2818   0.858   0.677  10.721 -0.8679 -0.0627 -0.1209
  181MPD1    H6 2819   0.790   0.627  10.778 -1.0318  0.1735 -0.1055
  181MPD1    H7 2820   0.833   0.776  10.726 -3.5065 -0.6648 -1.4309
  182MPD1     C 2821   2.529   0.221   1.295  0.1459  0.2520 -0.4152
  182MPD1    C1 2822   2.458   0.334   1.326 -0.7274  0.0202 -0.0581
  182MPD1    C2 2823   2.384   0.403   1.232  0.4537  0.0710  0.5324
  182MPD1    C3 2824   2.375   0.353   1.100 -0.0433  0.0221  0.4623
  182MPD1    C4 2825   2.438   0.236   1.073 -0.2072 -0.0930  0.1093
  182MPD1    C5 2826   2.512   0.170   1.168  0.3805  0.1904  0.4443
  182MPD1     H 2827   2.356   0.506   1.253  0.9564  0.2638  0.2626
  182MPD1    H1 2828   2.435   0.205   0.970  1.1362  1.4962 -0.3996
  182MPD1    H2 2829   2.587   0.162   1.366  1.3233  0.0599 -1.5242
  182MPD1    H3 2830   2.553   0.072   1.147  2.3343  0.6548  2.0625
  182MPD1     N 2831   2.306   0.417   0.993 -0.1281  0.6735  0.1786
  182MPD1    H5 2832   2.323   0.375   0.902 -0.8747 -0.7651  0.7058
  182MPD1    N1 2833   2.458   0.386   1.456  0.0317  0.1502 -1.1661
  182MPD1    H6 2834   2.537   0.369   1.518 -0.8146  2.4627  0.5577
  182MPD1    H7 2835   2.454   0.487   1.447 -0.6821  0.3005  0.9664
  183MPD1     C 2836   1.456   0.407   8.903 -0.0899 -0.4577 -0.2237
  183MPD1    C1 2837   1.393   0.506   8.968 -0.3428 -0.1716 -0.5101
  183MPD1    C2 2838   1.470   0.585   9.060 -0.4188  0.1789  0.4017
  183MPD1    C3 2839   1.602   0.556   9.094  0.7052  0.4164 -0.1354
  183MPD1    C4 2840   1.663   0.454   9.025 -0.3638 -0.7571 -0.2025
  183MPD1    C5 2841   1.586   0.381   8.934 -0.1236 -0.2876 -0.4946
  183MPD1     H 2842   1.419   0.666   9.112 -1.3150 -0.3772  0.3862
  183MPD1    H1 2843   1.769   0.437   9.043 -0.6498 -0.8033  1.4825
  183MPD1    H2 2844   1.409   0.348   8.826  1.7073 -2.0050 -0.1387
  183MPD1    H3 2845   1.635   0.292   8.894  0.3227 -0.1377 -0.2766
  183MPD1     N 2846   1.670   0.641   9.180 -0.1244  0.4894 -0.1916
  183MPD1    H5 2847   1.605   0.705   9.224 -0.9911  0.2052 -1.0659
  183MPD1    N1 2848   1.266   0.540   8.925 -0.1419 -0.6437 -0.1095
  183MPD1    H6 2849   1.209   0.587   8.995  1.3315  0.2879  0.4377
  183MPD1    H7 2850   1.215   0.458   8.890 -1.2945 -0.0165  0.0808
  184MPD1     C 2851   1.123   3.095  10.123 -0.6300  0.1662 -0.5036
  184MPD1    C1 2852   1.165   3.038  10.001  0.0959 -0.0770 -0.1557
  184MPD1    C2 2853   1.238   3.112   9.910 -0.8155  0.2594 -0.3846
  184MPD1    C3 2854   1.257   3.247   9.943  0.2419 -0.0901 -0.5849
  184MPD1    C4 2855   1.194   3.302  10.055  0.1102 -1.1207 -0.0547
  184MPD1    C5 2856   1.133   3.226  10.152 -0.3942 -0.8182 -1.0061
  184MPD1     H 2857   1.288   3.059   9.830 -2.4074 -0.7204 -0.7240
  184MPD1    H1 2858   1.184   3.405  10.087  0.0029 -1.6287  1.5585
  184MPD1    H2 2859   1.068   3.033  10.192  0.6499 -0.1227  0.2612
  184MPD1    H3 2860   1.094   3.269  10.244  0.2271 -1.1769 -0.5776
  184MPD1     N 2861   1.326   3.341   9.862 -0.0209  0.0092 -0.1065
  184MPD1    H5 2862   1.337   3.434   9.901  1.4324 -0.1410 -0.1517
  184MPD1    N1 2863   1.162   2.899   9.991 -0.0230  0.5512 -0.1253
  184MPD1    H6 2864   1.156   2.857   9.899  0.4482  0.1673  0.0148
  184MPD1    H7 2865   1.081   2.870  10.046  1.1562 -0.7485  0.9300
  185MPD1     C 2866   1.415   3.287   8.872 -0.5158  0.0770  0.1984
  185MPD1    C1 2867   1.419   3.426   8.889 -0.3763  0.4745  0.1422
  185MPD1    C2 2868   1.428   3.470   9.025  0.4947 -0.2308  0.0875
  185MPD1    C3 2869   1.411   3.382   9.130  0.4109  0.2730  1.0675
  185MPD1    C4 2870   1.409   3.244   9.104 -0.7658 -0.6286  0.2712
  185MPD1    C5 2871   1.407   3.203   8.974 -0.4038 -0.1052  0.0209
  185MPD1     H 2872   1.444   3.576   9.036 -2.3164  0.2243 -0.2776
  185MPD1    H1 2873   1.412   3.174   9.187  2.6138  0.4530  1.0216
  185MPD1    H2 2874   1.421   3.244   8.772  0.2719  0.7088 -0.0280
  185MPD1    H3 2875   1.417   3.098   8.948 -2.6849 -0.5718  1.0531
  185MPD1     N 2876   1.418   3.419   9.264 -0.5641  0.1944 -0.1233
  185MPD1    H5 2877   1.420   3.339   9.327  1.7614  0.0245 -0.4395
  185MPD1    N1 2878   1.458   3.511   8.786 -0.1013  0.2783 -0.4945
  185MPD1    H6 2879   1.447   3.610   8.805  1.9866  0.2966  0.6858
  185MPD1    H7 2880   1.423   3.485   8.694  1.7794  0.6987 -1.3333
  186MPD1     C 2881   4.197   3.270  15.568 -0.0701 -0.6278 -0.1060
  186MPD1    C1 2882   4.327   3.293  15.539  0.2463 -0.2702 -0.3977
  186MPD1    C2 2883   4.418   3.327  15.639 -0.7873  0.2607  0.3164
  186MPD1    C3 2884   4.366   3.366  15.763 -0.0131 -0.4957 -0.5792
  186MPD1    C4 2885   4.229   3.361  15.784  0.1321 -0.0974 -0.1308
  186MPD1    C5 2886   4.151   3.301  15.692 -0.0983  0.4651  0.4914
  186MPD1     H 2887   4.521   3.321  15.605 -1.2838 -1.4233 -0.8838
  186MPD1    H1 2888   4.190   3.390  15.880 -0.6456 -0.8605 -0.2131
  186MPD1    H2 2889   4.129   3.224  15.497 -1.4943 -0.9024  1.4466
  186MPD1    H3 2890   4.045   3.287  15.708 -0.2857  2.4435  0.9630
  186MPD1     N 2891   4.434   3.423  15.870 -0.0119 -0.3756  0.7041
  186MPD1    H5 2892   4.376   3.454  15.947 -0.6709  0.3205 -0.0832
  186MPD1    N1 2893   4.378   3.243  15.416 -0.6672  0.5103  0.2407
  186MPD1    H6 2894   4.470   3.282  15.398  0.2416 -1.4523  0.6241
  186MPD1    H7 2895   4.308   3.250  15.342  0.4450  0.0853 -0.8638
  187MPD1     C 2896   0.032   0.496  17.683 -0.6194  0.9101 -0.0704
  187MPD1    C1 2897   0.066   0.599  17.599 -0.1192  0.6369 -0.2845
  187MPD1    C2 2898   4.714   0.634  17.504 -0.7675 -0.0501 -0.3532
  187MPD1    C3 2899   4.589   0.569  17.494 -0.3000  0.6363 -0.3587
  187MPD1    C4 2900   4.565   0.464  17.576 -0.1194  0.0439 -0.2146
  187MPD1    C5 2901   4.655   0.426  17.666 -0.0382  0.9722  0.4411
  187MPD1     H 2902   0.008   0.719  17.446  0.4467 -0.4112 -0.1740
  187MPD1    H1 2903   4.464   0.425  17.576 -1.2085  2.8870  1.4362
  187MPD1    H2 2904   0.106   0.459  17.752 -0.6979  0.2503 -0.3344
  187MPD1    H3 2905   4.637   0.341  17.731  2.2244  0.2628  0.1438
  187MPD1     N 2906   4.480   0.605  17.406 -0.3885  0.1368 -0.3715
  187MPD1    H5 2907   4.396   0.549  17.410  0.2470 -0.7536  0.2975
  187MPD1    N1 2908   0.174   0.678  17.634  0.2874 -0.0322  0.6308
  187MPD1    H6 2909   0.246   0.616  17.671  1.6397  1.0692 -0.1576
  187MPD1    H7 2910   0.223   0.724  17.557  0.7209 -0.1941  0.8092
  188MPD1     C 2911   3.957   0.159  10.527  0.1406 -1.3003 -0.2991
  188MPD1    C1 2912   3.860   0.153  10.431 -0.0813 -0.5436  0.0688
  188MPD1    C2 2913   3.821   0.031  10.381 -0.3519 -0.3818  0.8816
  188MPD1    C3 2914   3.890   4.654  10.417 -0.7979  0.0978 -0.1340
  188MPD1    C4 2915   3.987   4.664  10.513  0.2824 -0.2232  0.5296
  188MPD1    C5 2916   4.024   0.049  10.559 -0.5727  0.1472 -0.0937
  188MPD1     H 2917   3.743   0.037  10.305  1.7573  0.2528 -1.2260
  188MPD1    H1 2918   4.030   4.572  10.549  0.5308 -1.3035 -2.5234
  188MPD1    H2 2919   4.003   0.246  10.572  2.0058 -1.8875 -1.0724
  188MPD1    H3 2920   4.089   0.059  10.645  0.0905 -1.2888 -0.4269
  188MPD1     N 2921   3.847   4.533  10.366  0.1129  0.2756  0.4682
  188MPD1    H5 2922   3.901   4.455  10.402 -1.2342 -0.4994  0.7900
  188MPD1    N1 2923   3.827   0.270  10.361 -0.8196 -0.1452 -0.1648
  188MPD1    H6 2924   3.833   0.353  10.419 -0.0005  1.3737 -2.4275
  188MPD1    H7 2925   3.737   0.268  10.313 -1.9224 -0.9456  1.9305
  189MPD1     C 2926   0.976   0.840   0.184  0.5001  0.1144  0.1122
  189MPD1    C1 2927   0.895   0.815   0.070 -0.0078  0.4207  1.2529
  189MPD1    C2 2928   0.833   0.925   0.012  0.2650  0.2943  0.0896
  189MPD1    C3 2929   0.863   1.054   0.053  0.0505 -0.0487 -0.5019
  189MPD1    C4 2930   0.952   1.071   0.156  0.5394 -0.3266 -0.1661
  189MPD1    C5 2931   1.007   0.970   0.223 -0.0605  0.0622  0.3271
  189MPD1     H 2932   0.767   0.903  17.686 -1.8155  1.8803  1.3055
  189MPD1    H1 2933   0.967   1.171   0.194  1.7793 -1.1489  1.5397
  189MPD1    H2 2934   1.030   0.756   0.225 -0.4674 -0.9886 -0.9068
  189MPD1    H3 2935   1.082   0.988   0.298  0.2955 -0.2702  0.0560
  189MPD1     N 2936   0.803   1.161  17.749  0.2772 -0.3058  0.5824
  189MPD1    H5 2937   0.731   1.142  17.680 -0.5138  0.8484  1.1029
  189MPD1    N1 2938   0.861   0.689   0.031  0.0484  0.2862  0.2672
  189MPD1    H6 2939   0.919   0.614   0.067  0.5549  0.8860  0.6803
  189MPD1    H7 2940   0.841   0.687  17.689  0.0865  1.3541  0.2382
  190MPD1     C 2941   0.038   0.652  14.893 -0.0057  0.2475  0.4795
  190MPD1    C1 2942   4.704   0.669  15.003 -0.5506 -0.0737 -0.0476
  190MPD1    C2 2943   4.734   0.594  15.113  0.2839 -0.2253 -0.3165
  190MPD1    C3 2944   0.099   0.501  15.107 -0.0786 -0.6593  0.0306
  190MPD1    C4 2945   0.186   0.506  15.009 -0.7592 -0.3558 -0.1035
  190MPD1    C5 2946   0.147   0.574  14.893 -0.7573  0.0414 -0.0190
  190MPD1     H 2947   4.667   0.601  15.198  1.2697  1.6210  0.2875
  190MPD1    H1 2948   0.280   0.452  15.013 -0.7067 -0.3522 -1.5643
  190MPD1    H2 2949   0.011   0.716  14.810  0.5363  1.6863  1.4072
  190MPD1    H3 2950   0.217   0.568  14.810 -1.9414  1.8071 -1.1405
  190MPD1     N 2951   0.132   0.410  15.215  0.2397 -0.0530  0.8646
  190MPD1    H5 2952   0.218   0.356  15.209  0.9545  1.0831  1.0148
  190MPD1    N1 2953   4.586   0.743  14.995 -0.1075  0.0092  0.2633
  190MPD1    H6 2954   4.560   0.770  15.090  1.2235 -1.9692  1.2052
  190MPD1    H7 2955   4.579   0.820  14.929  2.5050  0.6586  0.7434
  191MPD1     C 2956   3.418   1.428  12.622  0.3965 -0.2955 -0.3101
  191MPD1    C1 2957   3.364   1.552  12.581 -0.3584 -0.2837 -0.6804
  191MPD1    C2 2958   3.419   1.619  12.476  0.3352 -0.3963  0.1972
  191MPD1    C3 2959   3.508   1.544  12.395 -0.0757 -0.2770 -0.6352
  191MPD1    C4 2960   3.542   1.416  12.419  0.2154 -0.8153  0.3926
  191MPD1    C5 2961   3.501   1.356  12.536  0.0590  0.1469  0.1112
  191MPD1     H 2962   3.393   1.722  12.456  1.2083 -0.0512  0.8674
  191MPD1    H1 2963   3.594   1.356  12.345 -1.3331  0.9754 -2.1468
  191MPD1    H2 2964   3.388   1.375  12.712  0.6095 -0.9138 -0.6066
  191MPD1    H3 2965   3.530   1.254  12.559 -1.6522 -0.4689 -0.4739
  191MPD1     N 2966   3.542   1.609  12.273 -0.8680 -0.7354 -0.2656
  191MPD1    H5 2967   3.495   1.699  12.266 -2.0423 -1.3175  0.1720
  191MPD1    N1 2968   3.273   1.631  12.655  0.0146  0.1395  0.0452
  191MPD1    H6 2969   3.228   1.707  12.604  1.5289 -0.7474 -2.6685
  191MPD1    H7 2970   3.195   1.574  12.686 -0.4448  1.8380  1.9583
  192MPD1     C 2971   3.095   1.760  11.381  0.2684  0.0559 -0.0759
  192MPD1    C1 2972   3.064   1.729  11.510 -0.2947 -0.1901  0.6424
  192MPD1    C2 2973   3.162   1.716  11.602 -0.2532 -0.0656 -0.0566
  192MPD1    C3 2974   3.295   1.737  11.574  0.2740 -0.2539 -0.1128
  192MPD1    C4 2975   3.323   1.761  11.442 -0.7322 -0.3929  0.5931
  192MPD1    C5 2976   3.226   1.773  11.346 -0.0894 -0.0100 -0.4943
  192MPD1     H 2977   3.126   1.678  11.697  1.9165 -1.6976  0.1082
  192MPD1    H1 2978   3.427   1.770  11.412 -1.0183  2.5351  0.4745
  192MPD1    H2 2979   3.018   1.780  11.308  0.9223 -0.8613 -1.0328
  192MPD1    H3 2980   3.250   1.784  11.240  1.0646 -2.9761 -0.5495
  192MPD1     N 2981   3.409   1.737  11.662  0.7458  0.2992 -0.1345
  192MPD1    H5 2982   3.495   1.758  11.612  0.2904  4.0509  0.6968
  192MPD1    N1 2983   2.933   1.727  11.551 -0.1416  0.5466  0.0645
  192MPD1    H6 2984   2.914   1.661  11.627  0.3690 -0.3129 -0.5560
  192MPD1    H7 2985   2.859   1.718  11.481 -0.6959  0.2296  0.6897
  193MPD1     C 2986   3.747   1.907  17.388 -0.0945 -0.4953  0.2778
  193MPD1    C1 2987   3.813   1.826  17.293 -0.6283  0.1883 -0.6014
  193MPD1    C2 2988   3.823   1.883  17.163 -0.4870 -0.4234 -0.2875
  193MPD1    C3 2989   3.771   2.009  17.128  0.1011 -0.0163 -0.1758
  193MPD1    C4 2990   3.713   2.083  17.229 -0.1783 -0.5324  0.1020
  193MPD1    C5 2991   3.713   2.038  17.355  0.1366  0.9618  0.1846
  193MPD1     H 2992   3.861   1.823  17.081  0.3651  0.8188 -0.8198
  193MPD1    H1 2993   3.703   2.190  17.219  1.7251 -0.4169 -0.4868
  193MPD1    H2 2994   3.734   1.868  17.488  0.1300  0.0210  0.5107
  193MPD1    H3 2995   3.663   2.095  17.432  3.3929  2.1870  1.3488
  193MPD1     N 2996   3.786   2.080  17.004 -0.2009 -0.8267  0.9141
  193MPD1    H5 2997   3.747   2.173  17.001 -1.2029 -1.3710 -2.7974
  193MPD1    N1 2998   3.846   1.692  17.318  0.5118  0.4423 -0.1212
  193MPD1    H6 2999   3.935   1.664  17.278  0.4789 -0.2297  0.2906
  193MPD1    H7 3000   3.851   1.661  17.414  1.5413 -2.2484 -1.0339
  194MPD1     C 3001   0.951   4.008  17.256 -0.3366 -0.0823 -0.0528
  194MPD1    C1 3002   0.911   3.902  17.180  0.9959 -0.3007 -0.4327
  194MPD1    C2 3003   1.005   3.821  17.128  0.0897 -0.4020 -0.6750
  194MPD1    C3 3004   1.141   3.841  17.147 -0.1479  0.5428 -0.8198
  194MPD1    C4 3005   1.182   3.938  17.247  0.2479  0.3490 -0.0559
  194MPD1    C5 3006   1.079   4.018  17.298 -0.3144 -0.4876  0.2428
  194MPD1     H 3007   0.959   3.749  17.061 -0.9632  1.1716 -1.6441
  194MPD1    H1 3008   1.284   3.949  17.282 -0.5235  0.9806  1.9961
  194MPD1    H2 3009   0.889   4.095  17.276 -0.3408  0.0620 -0.7010
  194MPD1    H3 3010   1.098   4.104  17.361 -1.3563  0.4023 -0.6758
  194MPD1     N 3011   1.241   3.767  17.077 -0.0535  0.5677 -0.0924
  194MPD1    H5 3012   1.338   3.792  17.095 -0.2535  0.7265  0.7543
  194MPD1    N1 3013   0.778   3.907  17.125  0.4976 -0.0146 -0.4917
  194MPD1    H6 3014   0.739   3.813  17.117 -0.0340 -0.1224  3.2303
  194MPD1    H7 3015   0.714   3.971  17.171  2.7429  2.1298 -0.3551
  195MPD1     C 3016   3.471   1.392   0.723  0.3687  0.3988 -0.1302
  195MPD1    C1 3017   3.363   1.317   0.696  0.7839 -0.2705 -0.9652
  195MPD1    C2 3018   3.385   1.198   0.626 -0.1247 -1.1177  0.1719
  195MPD1    C3 3019   3.510   1.155   0.591  0.8122  0.0648 -0.4863
  195MPD1    C4 3020   3.618   1.236   0.621  0.4918  0.1751 -0.2424
  195MPD1    C5 3021   3.598   1.358   0.678 -0.6621  0.3320  0.7525
  195MPD1     H 3022   3.297   1.135   0.617 -0.4792 -0.4193 -1.1972
  195MPD1    H1 3023   3.721   1.218   0.593  1.4181  1.7246  2.2157
  195MPD1    H2 3024   3.449   1.480   0.781  0.3247  1.1102 -1.2273
  195MPD1    H3 3025   3.685   1.413   0.713 -0.5424 -0.3848  1.5824
  195MPD1     N 3026   3.538   1.037   0.526  0.3159  0.2659  0.4186
  195MPD1    H5 3027   3.634   1.006   0.516 -0.0722 -2.0166  3.5501
  195MPD1    N1 3028   3.248   1.324   0.772 -0.3953  0.7877 -0.2670
  195MPD1    H6 3029   3.232   1.419   0.806 -0.0711  0.0017  2.0533
  195MPD1    H7 3030   3.165   1.291   0.723 -0.8077  0.0093  0.9630
  196MPD1     C 3031   2.572   4.464   0.503  0.1529  0.8722 -0.3933
  196MPD1    C1 3032   2.600   4.534   0.392 -0.2045 -0.0873  0.0738
  196MPD1    C2 3033   2.668   4.652   0.410  0.0378  0.0717 -0.1962
  196MPD1    C3 3034   2.743   4.676   0.521 -0.0961  0.8554 -0.1548
  196MPD1    C4 3035   2.732   4.591   0.628  0.1966  0.4889  0.6380
  196MPD1    C5 3036   2.642   4.492   0.616  0.3859  1.0034 -0.4309
  196MPD1     H 3037   2.673   4.723   0.329 -0.0757 -1.1679 -1.2932
  196MPD1    H1 3038   2.794   4.592   0.717  0.2918 -1.2089  0.5952
  196MPD1    H2 3039   2.516   4.371   0.507  0.8905  0.4245 -0.3902
  196MPD1    H3 3040   2.636   4.425   0.701  2.0678  1.7194  0.2532
  196MPD1     N 3041   2.827   0.050   0.535  0.1093 -0.1309  0.3203
  196MPD1    H5 3042   2.878   0.056   0.623 -0.2477 -0.1261  0.5277
  196MPD1    N1 3043   2.521   4.516   0.275 -0.1000 -0.6266  0.0494
  196MPD1    H6 3044   2.556   4.567   0.194  0.1388  1.6760  1.5845
  196MPD1    H7 3045   2.502   4.419   0.253  1.5401 -0.3057 -2.8280
  197MPD1     C 3046   2.184   1.693  17.110  0.3876 -0.0975 -0.5165
  197MPD1    C1 3047   2.264   1.788  17.173 -0.5722 -0.1320 -0.2086
  197MPD1    C2 3048   2.324   1.888  17.098 -0.5367  0.7187  0.3596
  197MPD1    C3 3049   2.289   1.910  16.966 -0.7683  0.1562  0.1841
  197MPD1    C4 3050   2.198   1.829  16.907 -0.1218 -0.7767  0.4646
  197MPD1    C5 3051   2.149   1.719  16.977  0.5484 -0.4907  0.4883
  197MPD1     H 3052   2.397   1.953  17.145  1.5650 -2.2121  1.1213
  197MPD1    H1 3053   2.168   1.846  16.805  1.2498  0.3334  0.2396
  197MPD1    H2 3054   2.155   1.598  17.155  0.7096 -0.4182 -0.9852
  197MPD1    H3 3055   2.083   1.656  16.918  0.4505 -0.1319  0.2157
  197MPD1     N 3056   2.340   2.021  16.888  0.0648  0.5150  0.7587
  197MPD1    H5 3057   2.307   2.022  16.792 -0.2616  3.0839  0.8845
  197MPD1    N1 3058   2.298   1.768  17.306 -0.4773  0.0966  0.0623
  197MPD1    H6 3059   2.228   1.718  17.361 -2.1174 -0.7727 -2.8002
  197MPD1    H7 3060   2.325   1.854  17.352  0.8546 -1.6395  2.5597
  198MPD1     C 3061   3.898   0.975  15.488 -0.2383  0.5951  0.2361
  198MPD1    C1 3062   3.995   0.944  15.398 -0.8155 -0.4744  0.1813
  198MPD1    C2 3063   4.121   0.960  15.442 -0.4461 -0.1287  0.6639
  198MPD1    C3 3064   4.159   1.022  15.564  0.8266 -0.5150 -0.0011
  198MPD1    C4 3065   4.054   1.058  15.642  0.7755  0.3347 -1.0279
  198MPD1    C5 3066   3.926   1.029  15.612 -0.5582 -0.8779  0.0900
  198MPD1     H 3067   4.200   0.921  15.379 -1.2981 -1.8484  0.6452
  198MPD1    H1 3068   4.068   1.093  15.744  1.1229 -1.0095 -0.6245
  198MPD1    H2 3069   3.793   0.951  15.471 -0.4189 -0.0769  2.2463
  198MPD1    H3 3070   3.851   1.032  15.690  0.0266  1.5026  0.5526
  198MPD1     N 3071   4.291   1.033  15.613  0.1795  0.0752 -0.2444
  198MPD1    H5 3072   4.361   0.977  15.566 -1.6509 -1.4807 -1.0648
  198MPD1    N1 3073   3.980   0.880  15.272  0.3022 -0.5990 -0.1984
  198MPD1    H6 3074   3.902   0.916  15.217 -1.0248 -2.7530  0.2702
  198MPD1    H7 3075   4.066   0.868  15.218 -0.3041  0.5614 -1.4138
  199MPD1     C 3076   2.165   2.050   9.888  0.2235 -0.1507  0.3907
  199MPD1    C1 3077   2.144   1.941   9.967 -0.2399  0.0408  0.1982
  199MPD1    C2 3078   2.028   1.871   9.957  0.3169 -0.4106 -0.2373
  199MPD1    C3 3079   1.925   1.913   9.874 -0.3558 -0.2371 -0.3411
  199MPD1    C4 3080   1.951   2.021   9.797 -0.0057  0.8098  0.6824
  199MPD1    C5 3081   2.063   2.091   9.804 -0.2385 -0.2011 -0.3772
  199MPD1     H 3082   2.022   1.783  10.020 -1.9167 -0.0618  0.0230
  199MPD1    H1 3083   1.873   2.049   9.727  0.0960 -0.9134 -0.1287
  199MPD1    H2 3084   2.263   2.097   9.886 -0.4277  1.2348  0.6302
  199MPD1    H3 3085   2.090   2.175   9.740 -0.9707  2.3080  2.5992
  199MPD1     N 3086   1.801   1.841   9.867 -0.1011 -0.0980 -0.3903
  199MPD1    H5 3087   1.738   1.874   9.794  1.3173 -0.1306 -1.6136
  199MPD1    N1 3088   2.256   1.887  10.035  0.1626  0.0675  0.1678
  199MPD1    H6 3089   2.244   1.829  10.118  2.0056  0.3057  0.6058
  199MPD1    H7 3090   2.323   1.957  10.066  1.7281 -1.2268 -0.3002
  200MPD1     C 3091   0.995   2.062  15.322  0.3680  0.2689  0.3127
  200MPD1    C1 3092   0.961   2.002  15.205  0.2065 -0.2887  0.8620
  200MPD1    C2 3093   0.946   2.085  15.097 -0.1395 -0.5946 -0.2031
  200MPD1    C3 3094   0.972   2.217  15.102  0.0309 -0.3421  0.3425
  200MPD1    C4 3095   1.012   2.276  15.219  0.3367 -0.5065  0.2769
  200MPD1    C5 3096   1.019   2.197  15.330  0.0195 -0.1269 -0.1122
  200MPD1     H 3097   0.922   2.033  15.005  1.8570  0.6406 -1.4281
  200MPD1    H1 3098   1.053   2.376  15.211 -3.3733  1.0056  0.0471
  200MPD1    H2 3099   1.013   1.998  15.407  0.6222 -0.8129 -0.5637
  200MPD1    H3 3100   1.047   2.233  15.428 -0.1632 -0.5443  0.0951
  200MPD1     N 3101   0.986   2.284  14.973 -0.4395  0.6068  0.6705
  200MPD1    H5 3102   0.975   2.222  14.893  1.7372  0.0937  0.7800
  200MPD1    N1 3103   0.971   1.859  15.194 -0.1977 -0.3510  0.3193
  200MPD1    H6 3104   0.965   1.814  15.285 -0.6548 -2.0961 -0.5601
  200MPD1    H7 3105   0.888   1.831  15.142 -0.4253  0.5111  0.2275
  201MPD1     C 3106   2.927   0.587  13.064 -0.0974  0.4345 -0.1488
  201MPD1    C1 3107   3.016   0.553  13.158 -0.1888  0.0320  0.6033
  201MPD1    C2 3108   3.087   0.436  13.133 -0.0418  0.7925  0.7274
  201MPD1    C3 3109   3.056   0.356  13.028 -0.3850  0.7196 -0.1290
  201MPD1    C4 3110   2.951   0.380  12.940  0.6859  0.2324 -0.2362
  201MPD1    C5 3111   2.887   0.494  12.969 -0.3431  0.0354  0.1235
  201MPD1     H 3112   3.169   0.414  13.200 -0.7171 -0.1885  1.2360
  201MPD1    H1 3113   2.924   0.321  12.854  1.0622  0.4248 -0.4904
  201MPD1    H2 3114   2.879   0.684  13.066 -0.0019  0.5011 -1.4942
  201MPD1    H3 3115   2.823   0.524  12.887 -1.2751 -1.1677  0.4156
  201MPD1     N 3116   3.127   0.232  13.021 -0.2725  0.0564  0.3001
  201MPD1    H5 3117   3.207   0.234  13.083  0.1406 -0.9195 -0.1961
  201MPD1    N1 3118   3.083   0.639  13.245  0.0231 -0.1782 -0.1065
  201MPD1    H6 3119   3.022   0.696  13.303 -0.3013  0.4477 -1.0558
  201MPD1    H7 3120   3.142   0.588  13.311  0.8309  1.4050  0.4041
  202MPD1     C 3121   2.475   4.461   8.882 -0.3057  0.4374  0.1644
  202MPD1    C1 3122   2.390   4.478   8.986  0.0354 -0.1851  0.0783
  202MPD1    C2 3123   2.444   4.538   9.097 -1.0907 -0.2774  0.4685
  202MPD1    C3 3124   2.577   4.556   9.114 -1.1862 -0.2173  0.0229
  202MPD1    C4 3125   2.662   4.507   9.022  0.0197  0.3796 -0.4349
  202MPD1    C5 3126   2.610   4.472   8.904 -0.5687  0.4263 -0.0468
  202MPD1     H 3127   2.366   4.566   9.168 -2.2081  0.2651 -0.9746
  202MPD1    H1 3128   2.770   4.515   9.020  0.2193 -1.8282  0.7301
  202MPD1    H2 3129   2.437   4.412   8.792 -1.4900  0.4976  0.6315
  202MPD1    H3 3130   2.666   4.442   8.816  0.4800  0.8840  0.4642
  202MPD1     N 3131   2.633   4.630   9.220 -0.3001 -0.0290 -0.2474
  202MPD1    H5 3132   2.734   4.633   9.219 -0.3019 -0.5683 -1.7668
  202MPD1    N1 3133   2.253   4.486   8.960  0.6683  0.2286 -0.1051
  202MPD1    H6 3134   2.219   4.419   8.891  1.7035 -0.7544  0.3501
  202MPD1    H7 3135   2.195   4.487   9.044 -1.1912 -0.3674 -1.3679
  203MPD1     C 3136   1.346   0.904  12.310  0.7375 -0.6086 -0.7826
  203MPD1    C1 3137   1.313   0.790  12.233  0.2520 -0.3366  0.5553
  203MPD1    C2 3138   1.305   0.668  12.294 -0.6155  0.2367  0.3724
  203MPD1    C3 3139   1.339   0.652  12.431  0.3344 -0.1158 -1.0159
  203MPD1    C4 3140   1.371   0.768  12.503  0.1050 -0.2278 -0.1434
  203MPD1    C5 3141   1.372   0.892  12.440  0.5964 -0.3068  0.3853
  203MPD1     H 3142   1.269   0.582  12.238  1.8090  0.0885 -0.9300
  203MPD1    H1 3143   1.384   0.773  12.610 -0.1996  0.2950 -0.1318
  203MPD1    H2 3144   1.341   1.005  12.272 -0.2156 -0.2102  0.4182
  203MPD1    H3 3145   1.407   0.983  12.487 -0.2160  0.0762  0.2480
  203MPD1     N 3146   1.337   0.522  12.489  1.2106  0.1294 -0.0114
  203MPD1    H5 3147   1.334   0.437  12.433 -0.0887 -0.0603  0.3474
  203MPD1    N1 3148   1.265   0.814  12.098  0.2999 -0.4919  0.0696
  203MPD1    H6 3149   1.164   0.815  12.113  0.2085  0.2490 -0.5675
  203MPD1    H7 3150   1.292   0.907  12.065 -1.9637  0.6630  1.4770
  204MPD1     C 3151   0.701   2.273  17.356 -0.2241 -0.4523  0.0540
  204MPD1    C1 3152   0.781   2.291  17.247  0.6388 -0.2687  0.1295
  204MPD1    C2 3153   0.876   2.197  17.221 -0.6091 -0.0305  0.3214
  204MPD1    C3 3154   0.900   2.094  17.307  0.9765 -0.1061  0.0653
  204MPD1    C4 3155   0.819   2.075  17.419 -0.0276  0.4736  0.6236
  204MPD1    C5 3156   0.710   2.159  17.435  0.4058 -1.4489 -0.2302
  204MPD1     H 3157   0.949   2.216  17.143  0.5054 -3.3854  0.5323
  204MPD1    H1 3158   0.840   2.001  17.495  1.3323  1.2429  1.0038
  204MPD1    H2 3159   0.635   2.351  17.392  0.3835 -1.2405  2.8190
  204MPD1    H3 3160   0.645   2.151  17.522  0.5916  1.2906  0.1675
  204MPD1     N 3161   1.006   2.005  17.274 -0.2084  0.4258 -0.0671
  204MPD1    H5 3162   1.060   2.037  17.194 -1.6985 -0.3542 -1.3871
  204MPD1    N1 3163   0.797   2.421  17.200  0.2080 -0.0222  0.3516
  204MPD1    H6 3164   0.848   2.433  17.113  0.3212 -0.1394  0.4010
  204MPD1    H7 3165   0.716   2.483  17.207  0.8804  0.6645  1.9262
  205MPD1     C 3166   1.942   0.586  16.926 -0.1983  0.4853 -0.5201
  205MPD1    C1 3167   1.922   0.519  17.046 -0.0796  0.4767 -0.7899
  205MPD1    C2 3168   1.799   0.538  17.110  0.1794  0.6089 -0.5861
  205MPD1    C3 3169   1.692   0.601  17.055 -0.6894 -0.0629  0.3635
  205MPD1    C4 3170   1.713   0.653  16.932 -0.5838 -0.2581 -0.0611
  205MPD1    C5 3171   1.834   0.655  16.869  0.0527 -0.5072 -0.5668
  205MPD1     H 3172   1.778   0.489  17.204  0.6761  1.3699 -0.0797
  205MPD1    H1 3173   1.632   0.697  16.874  0.4961  0.5059 -0.9756
  205MPD1    H2 3174   2.036   0.582  16.872 -0.0717 -0.8170 -0.2135
  205MPD1    H3 3175   1.850   0.697  16.770 -1.5959 -0.1939 -0.7123
  205MPD1     N 3176   1.561   0.611  17.103  0.4653 -0.1445  0.6629
  205MPD1    H5 3177   1.493   0.676  17.064  0.6113  0.1611  0.9144
  205MPD1    N1 3178   2.034   0.466  17.119  0.1814 -0.2471 -0.0706
  205MPD1    H6 3179   2.009   0.386  17.175  0.4120 -1.9137 -2.3478
  205MPD1    H7 3180   2.105   0.440  17.051  1.0002 -0.2924  0.8004
  206MPD1     C 3181   1.149   3.878  16.689 -0.2255 -0.0358  0.2757
  206MPD1    C1 3182   1.192   3.796  16.586 -0.6294  1.0627  0.2350
  206MPD1    C2 3183   1.153   3.833  16.458 -0.0102  0.5496  0.1123
  206MPD1    C3 3184   1.106   3.958  16.427 -0.5647 -0.4945  0.6521
  206MPD1    C4 3185   1.078   4.046  16.529  0.2714 -0.1031 -0.5326
  206MPD1    C5 3186   1.096   4.001  16.658  0.2876 -0.2758 -0.0487
  206MPD1     H 3187   1.174   3.758  16.383  0.5845  0.0450  0.7857
  206MPD1    H1 3188   1.035   4.143  16.508  1.3023  0.1113 -1.7061
  206MPD1    H2 3189   1.168   3.857  16.794 -0.8680 -2.1595 -0.0173
  206MPD1    H3 3190   1.069   4.071  16.736  0.7926 -1.1911  0.9479
  206MPD1     N 3191   1.076   4.008  16.297  0.1647  0.3130  0.2501
  206MPD1    H5 3192   1.046   4.105  16.294  1.4187  0.7415  1.9411
  206MPD1    N1 3193   1.231   3.664  16.614 -0.8927 -0.6867  0.0118
  206MPD1    H6 3194   1.280   3.653  16.702  0.6765  2.6859 -0.4419
  206MPD1    H7 3195   1.289   3.630  16.537 -1.2499 -1.7879  0.2290
  207MPD1     C 3196   3.461   0.506  10.416  0.1288 -0.5976  0.2441
  207MPD1    C1 3197   3.429   0.553  10.296  0.5386 -0.2878  0.1356
  207MPD1    C2 3198   3.490   0.661  10.241 -0.8001  0.0726 -0.0313
  207MPD1    C3 3199   3.568   0.745  10.327 -0.9319  0.2629  0.2455
  207MPD1    C4 3200   3.594   0.701  10.460  0.1629 -0.9911 -0.6064
  207MPD1    C5 3201   3.543   0.577  10.500  0.7076  0.1345  0.5042
  207MPD1     H 3202   3.466   0.700  10.142 -0.8703 -1.7143 -0.7094
  207MPD1    H1 3203   3.657   0.752  10.532 -2.3749 -0.4300  1.2380
  207MPD1    H2 3204   3.418   0.413  10.450 -0.0574  0.0175  1.6915
  207MPD1    H3 3205   3.568   0.543  10.600  1.4651  0.1289  0.3133
  207MPD1     N 3206   3.626   0.867  10.288  0.2263  0.1957  0.0893
  207MPD1    H5 3207   3.686   0.913  10.356  1.0669 -1.3299  0.3771
  207MPD1    N1 3208   3.358   0.469  10.202 -0.0876 -0.0412  0.3267
  207MPD1    H6 3209   3.296   0.402  10.247  0.7656 -1.5618 -0.7639
  207MPD1    H7 3210   3.312   0.517  10.125 -0.7497 -1.6463 -0.2777
  208MPD1     C 3211   1.332   3.912   0.560 -0.0818  0.1819  0.3208
  208MPD1    C1 3212   1.276   3.956   0.448  0.4327  0.2573 -0.3545
  208MPD1    C2 3213   1.313   4.082   0.401 -0.1671 -0.7337 -0.5681
  208MPD1    C3 3214   1.382   4.174   0.475 -0.1982  0.5277 -0.0755
  208MPD1    C4 3215   1.433   4.128   0.592 -0.7278 -0.6953  0.3743
  208MPD1    C5 3216   1.413   4.001   0.626 -0.0091  0.2744  0.6471
  208MPD1     H 3217   1.263   4.126   0.315  1.2489 -1.1755 -1.6301
  208MPD1    H1 3218   1.495   4.185   0.661 -1.1104 -0.4151  0.4876
  208MPD1    H2 3219   1.324   3.808   0.588  2.3108  0.2562  1.2290
  208MPD1    H3 3220   1.457   3.968   0.719 -0.9674  0.4296  1.1495
  208MPD1     N 3221   1.412   4.301   0.424 -0.3592  0.4269  0.4686
  208MPD1    H5 3222   1.393   4.321   0.327  0.0174 -3.2379 -0.3378
  208MPD1    N1 3223   1.202   3.874   0.369  0.6967  0.0250  0.3419
  208MPD1    H6 3224   1.151   3.808   0.427  2.1230 -0.9004  0.5385
  208MPD1    H7 3225   1.130   3.917   0.310  1.6992 -0.0052 -0.9173
  209MPD1     C 3226   4.390   0.244  11.177  0.3492  0.3282 -0.1212
  209MPD1    C1 3227   4.456   0.331  11.257  0.1290 -0.4515 -0.7827
  209MPD1    C2 3228   4.452   0.465  11.236  0.2280  0.5104 -0.5629
  209MPD1    C3 3229   4.374   0.511  11.131  0.0702  0.6275  0.5212
  209MPD1    C4 3230   4.313   0.425  11.047  0.2793 -0.5755 -0.3319
  209MPD1    C5 3231   4.329   0.294  11.069 -0.6478  0.8335  0.5580
  209MPD1     H 3232   4.505   0.531  11.303 -0.0629 -0.0210  0.2021
  209MPD1    H1 3233   4.245   0.441  10.964 -0.1317  1.9023  0.4885
  209MPD1    H2 3234   4.394   0.137  11.195  1.1107  0.3594 -0.1045
  209MPD1    H3 3235   4.285   0.224  11.000  1.4258 -1.0444  1.1382
  209MPD1     N 3236   4.361   0.645  11.106  0.9393 -0.0314  0.7423
  209MPD1    H5 3237   4.419   0.712  11.156 -0.1217  1.4326 -0.0192
  209MPD1    N1 3238   4.528   0.276  11.370 -1.0112  0.8851 -0.7112
  209MPD1    H6 3239   4.613   0.328  11.385 -1.5500  1.9813 -1.4738
  209MPD1    H7 3240   4.568   0.190  11.332 -0.2976 -0.0470  2.1445
  210MPD1     C 3241   4.257   1.381  11.637 -0.4444  0.8975 -0.1614
  210MPD1    C1 3242   4.363   1.296  11.632 -0.3855 -0.0209  0.1655
  210MPD1    C2 3243   4.401   1.241  11.512  0.5349  0.4242  0.0441
  210MPD1    C3 3244   4.339   1.279  11.395  0.2067 -0.4041 -0.1926
  210MPD1    C4 3245   4.242   1.378  11.397 -0.7470 -0.1588  0.3070
  210MPD1    C5 3246   4.200   1.420  11.520 -0.1442 -0.3599  0.3384
  210MPD1     H 3247   4.476   1.163  11.514  2.0689  1.8928 -0.6154
  210MPD1    H1 3248   4.183   1.407  11.311 -0.7086 -0.9946  0.0019
  210MPD1    H2 3249   4.215   1.419  11.730 -0.6874  0.8987 -0.2728
  210MPD1    H3 3250   4.121   1.493  11.528  1.1019  1.1819 -1.3397
  210MPD1     N 3251   4.351   1.222  11.268 -0.1533 -0.3056 -0.0945
  210MPD1    H5 3252   4.290   1.264  11.199  0.5549  1.0846  0.1384
  210MPD1    N1 3253   4.418   1.244  11.753  0.4981 -0.1890  0.3928
  210MPD1    H6 3254   4.428   1.311  11.828 -1.6767  2.0159 -1.2800
  210MPD1    H7 3255   4.507   1.201  11.729  0.0363 -1.3160  0.7064
  211MPD1     C 3256   2.481   0.626  16.606  0.0669  0.2130 -0.2605
  211MPD1    C1 3257   2.359   0.570  16.582 -0.9285  0.1294 -0.5589
  211MPD1    C2 3258   2.261   0.645  16.521 -0.2825 -0.4120 -0.6887
  211MPD1    C3 3259   2.283   0.772  16.483 -0.0077 -0.1933 -0.4262
  211MPD1    C4 3260   2.405   0.828  16.505 -0.2822 -0.0753  0.3074
  211MPD1    C5 3261   2.501   0.751  16.564 -0.0617 -0.6173  0.7206
  211MPD1     H 3262   2.161   0.604  16.516 -0.5429  0.0417  0.8349
  211MPD1    H1 3263   2.432   0.933  16.495 -0.5542 -0.0481 -0.1385
  211MPD1    H2 3264   2.561   0.568  16.651  0.3562 -0.5417 -1.7550
  211MPD1    H3 3265   2.601   0.790  16.576 -0.3403  0.6274 -1.0108
  211MPD1     N 3266   2.175   0.849  16.431  0.0321 -0.6875 -0.3191
  211MPD1    H5 3267   2.092   0.792  16.417 -2.1140  1.9309  1.9041
  211MPD1    N1 3268   2.340   0.447  16.640 -0.7240  0.1113 -0.1659
  211MPD1    H6 3269   2.424   0.393  16.623 -1.7614 -1.7431  0.5971
  211MPD1    H7 3270   2.259   0.396  16.606 -0.1807 -1.2363  0.5618
  212MPD1     C 3271   0.739   4.474  16.466 -0.4784  0.1732  0.0394
  212MPD1    C1 3272   0.723   4.375  16.364 -0.5096 -0.6807  0.3087
  212MPD1    C2 3273   0.717   4.239  16.397 -0.5493 -0.1025 -0.0807
  212MPD1    C3 3274   0.726   4.202  16.532 -0.0167 -0.5206  0.1719
  212MPD1    C4 3275   0.752   4.300  16.626 -1.1968  0.2822  0.0946
  212MPD1    C5 3276   0.747   4.435  16.599  0.2887  0.5377  0.0250
  212MPD1     H 3277   0.696   4.160  16.325  2.1573  0.8328 -1.9175
  212MPD1    H1 3278   0.760   4.270  16.730 -0.6681 -1.3209 -0.3953
  212MPD1    H2 3279   0.747   4.581  16.452  0.3656 -0.0334 -1.1033
  212MPD1    H3 3280   0.757   4.509  16.677  1.3847 -1.3300  1.6385
  212MPD1     N 3281   0.702   4.072  16.583  0.0197  0.5538  0.4278
  212MPD1    H5 3282   0.706   4.049  16.681 -1.0211  1.1689  0.6138
  212MPD1    N1 3283   0.709   4.404  16.228 -0.3349  0.5491  0.0322
  212MPD1    H6 3284   0.616   4.443  16.213 -1.1140 -1.3513 -0.1209
  212MPD1    H7 3285   0.707   4.322  16.168 -0.3014 -0.1186  0.9417
  213MPD1     C 3286   3.972   0.285  15.969  0.1781 -0.8762  0.2108
  213MPD1    C1 3287   3.911   0.163  15.951 -0.5540  0.3532  0.2892
  213MPD1    C2 3288   3.845   0.143  15.832  0.0714 -0.6767 -0.7272
  213MPD1    C3 3289   3.805   0.244  15.746 -0.1558  0.1600 -0.1342
  213MPD1    C4 3290   3.851   0.368  15.779 -0.5232  0.0328  0.1415
  213MPD1    C5 3291   3.940   0.386  15.879 -0.5164 -0.3186 -0.1515
  213MPD1     H 3292   3.814   0.043  15.803  0.2370 -0.3496 -2.0696
  213MPD1    H1 3293   3.822   0.456  15.724  0.2019 -0.0915 -0.4438
  213MPD1    H2 3294   4.043   0.311  16.046 -1.2873  0.2054  1.1951
  213MPD1    H3 3295   3.965   0.486  15.913  1.4643 -0.6343 -0.6955
  213MPD1     N 3296   3.723   0.219  15.635 -0.3266  0.1021 -0.1822
  213MPD1    H5 3297   3.710   0.119  15.619  3.3976 -0.5162  0.6436
  213MPD1    N1 3298   3.973   0.046  16.004  0.4924  0.4421 -0.6154
  213MPD1    H6 3299   3.910   4.706  15.999  0.7863  0.2724 -1.5430
  213MPD1    H7 3300   3.998   0.061  16.101  1.6429 -0.6545 -0.7481
  214MPD1     C 3301   3.315   4.280  15.095 -0.4208 -0.9766  0.4965
  214MPD1    C1 3302   3.340   4.295  15.230 -0.0150 -0.6455  0.1013
  214MPD1    C2 3303   3.373   4.423  15.271 -0.2536 -0.5317  0.1211
  214MPD1    C3 3304   3.357   4.530  15.185 -0.1546 -0.2661  0.1323
  214MPD1    C4 3305   3.307   4.515  15.052  0.6788  0.1795 -0.0763
  214MPD1    C5 3306   3.296   4.386  15.014  0.4928 -0.1547 -0.7023
  214MPD1     H 3307   3.404   4.435  15.374  3.7703 -1.3676 -0.9831
  214MPD1    H1 3308   3.279   4.600  14.991 -1.4119 -1.7123 -1.7363
  214MPD1    H2 3309   3.300   4.187  15.042  1.8200 -0.8537 -0.3205
  214MPD1    H3 3310   3.265   4.361  14.914  0.2061 -0.8578 -0.4386
  214MPD1     N 3311   3.403   4.657  15.216 -0.4994  0.0963 -0.7174
  214MPD1    H5 3312   3.388   4.730  15.147  0.0256  0.2321 -0.6866
  214MPD1    N1 3313   3.360   4.182  15.314  0.0163  0.7617  0.4617
  214MPD1    H6 3314   3.305   4.103  15.282  1.2585 -0.5956  1.6386
  214MPD1    H7 3315   3.343   4.206  15.412  0.4834  0.7451  0.5499
  215MPD1     C 3316   3.831   4.565  11.045 -0.6185  0.2264  0.7555
  215MPD1    C1 3317   3.904   4.595  11.155  0.8063 -0.0380  0.0904
  215MPD1    C2 3318   3.938   4.720  11.176 -0.3914  0.5304  0.0312
  215MPD1    C3 3319   3.913   0.072  11.078 -0.6883 -0.1684 -0.4896
  215MPD1    C4 3320   3.828   0.044  10.975 -0.0051 -0.0540  0.6310
  215MPD1    C5 3321   3.782   4.658  10.960  0.1956  0.2540 -0.2009
  215MPD1     H 3322   3.987   0.009  11.268  0.0645 -0.8921  0.2478
  215MPD1    H1 3323   3.797   0.119  10.903 -1.9899  1.1673  2.7308
  215MPD1    H2 3324   3.792   4.464  11.043  1.2640 -0.5190  1.7752
  215MPD1    H3 3325   3.711   4.630  10.883  0.8712 -2.4248  0.1441
  215MPD1     N 3326   3.978   0.205  11.096 -0.4764  0.2092 -0.0926
  215MPD1    H5 3327   4.049   0.207  11.169  1.7991 -0.3063 -2.2999
  215MPD1    N1 3328   3.910   4.496  11.262 -0.1547  0.0696  0.5621
  215MPD1    H6 3329   3.926   4.402  11.225 -1.0256  0.8556 -1.7972
  215MPD1    H7 3330   3.993   4.521  11.316  0.9062 -1.0976 -0.5354
  216MPD1     C 3331   1.148   3.562  17.395 -0.4239 -0.1614 -0.3910
  216MPD1    C1 3332   1.269   3.506  17.379 -0.0105 -0.8945 -0.1180
  216MPD1    C2 3333   1.272   3.403  17.284  0.3643  0.5472  0.8870
  216MPD1    C3 3334   1.161   3.365  17.210  0.0457 -0.0008  0.2371
  216MPD1    C4 3335   1.050   3.438  17.223  0.1028 -0.4190  0.3943
  216MPD1    C5 3336   1.038   3.534  17.315  0.4023  0.1140  0.0140
  216MPD1     H 3337   1.368   3.355  17.269 -1.1049 -1.8448 -0.8623
  216MPD1    H1 3338   0.962   3.425  17.161 -0.0216  1.7062  0.1059
  216MPD1    H2 3339   1.131   3.638  17.471 -1.1622 -1.1534  0.4387
  216MPD1    H3 3340   0.953   3.598  17.336 -1.0531 -1.1740 -1.9412
  216MPD1     N 3341   1.171   3.267  17.109  0.4604  0.1266  0.2847
  216MPD1    H5 3342   1.260   3.228  17.081  1.5661  2.9032 -0.1254
  216MPD1    N1 3343   1.380   3.539  17.462  0.0465  0.0893 -0.1478
  216MPD1    H6 3344   1.370   3.632  17.501  2.0395  0.0919  0.3454
  216MPD1    H7 3345   1.464   3.538  17.405 -2.3590 -3.0185 -3.6692
  217MPD1     C 3346   0.937   4.423   9.214 -0.1251  0.1143 -0.8233
  217MPD1    C1 3347   0.952   4.556   9.249  0.2059 -0.2848 -0.6799
  217MPD1    C2 3348   1.076   4.611   9.263 -0.5254 -0.3962  0.0190
  217MPD1    C3 3349   1.181   4.520   9.271  0.1154 -0.4330  0.1630
  217MPD1    C4 3350   1.165   4.388   9.243  0.3763 -0.6244  0.1504
  217MPD1    C5 3351   1.041   4.338   9.208 -0.2957 -0.1065 -0.2477
  217MPD1     H 3352   1.079   4.715   9.291 -0.9275 -0.2359 -0.5283
  217MPD1    H1 3353   1.246   4.315   9.248  2.2511  1.3482 -1.6310
  217MPD1    H2 3354   0.839   4.395   9.177 -0.2489 -1.3044  0.5786
  217MPD1    H3 3355   1.025   4.238   9.171  2.0036 -1.1254  1.5092
  217MPD1     N 3356   1.309   4.557   9.315 -0.7228  0.4854 -0.2156
  217MPD1    H5 3357   1.378   4.484   9.302  0.7593  1.7798  0.3488
  217MPD1    N1 3358   0.844   4.640   9.216  0.1503 -0.0056  0.0813
  217MPD1    H6 3359   0.832   4.728   9.264  0.2123  0.1834 -0.2532
  217MPD1    H7 3360   0.766   4.582   9.245  0.6645 -0.6338  0.2207
  218MPD1     C 3361   3.347   1.106  12.908 -0.3222  0.5421  0.7818
  218MPD1    C1 3362   3.456   1.078  12.992  0.6010  0.9686  0.4228
  218MPD1    C2 3363   3.556   1.008  12.937  0.5007  0.5433  0.4853
  218MPD1    C3 3364   3.562   0.985  12.798 -0.0994  0.3537 -0.3032
  218MPD1    C4 3365   3.457   1.033  12.721 -0.3177  0.3209 -0.1393
  218MPD1    C5 3366   3.349   1.098  12.778  0.4256 -0.2207 -0.6226
  218MPD1     H 3367   3.635   0.973  13.002 -1.2038  0.7911  2.6857
  218MPD1    H1 3368   3.460   0.998  12.618 -2.2181  1.0748 -0.4640
  218MPD1    H2 3369   3.256   1.152  12.944  1.0112  1.9626  2.3556
  218MPD1    H3 3370   3.259   1.131  12.728 -0.3914 -1.6239 -0.0899
  218MPD1     N 3371   3.663   0.901  12.740  0.9533 -0.0222  0.2512
  218MPD1    H5 3372   3.660   0.888  12.639 -0.0630  1.5919  0.0758
  218MPD1    N1 3373   3.442   1.067  13.133 -0.5716 -0.0143 -0.1984
  218MPD1    H6 3374   3.535   1.074  13.175 -0.2281  0.3957 -1.0285
  218MPD1    H7 3375   3.384   1.138  13.178  0.4567  0.2896  0.6708
  219MPD1     C 3376   4.525   1.129  12.368  0.2473 -0.1104  0.5496
  219MPD1    C1 3377   4.414   1.123  12.293  0.0365 -0.3511 -0.3878
  219MPD1    C2 3378   4.317   1.044  12.345  0.3842  0.1251  0.2055
  219MPD1    C3 3379   4.326   0.976  12.464 -0.6489 -0.4197  0.3481
  219MPD1    C4 3380   4.443   0.986  12.534  0.1478 -0.5207  0.2222
  219MPD1    C5 3381   4.535   1.070  12.494  0.0411 -0.3453 -0.2012
  219MPD1     H 3382   4.229   1.033  12.284  1.0201 -1.6755 -0.3820
  219MPD1    H1 3383   4.460   0.940  12.631  0.7854 -0.4885  0.1257
  219MPD1    H2 3384   4.620   1.167  12.333  0.0733  0.0116  0.2058
  219MPD1    H3 3385   4.630   1.071  12.547  1.1129 -1.1327 -2.0855
  219MPD1     N 3386   4.230   0.890  12.516 -0.3512  0.0954  0.6055
  219MPD1    H5 3387   4.260   0.820  12.583 -0.1967 -0.2504  0.1720
  219MPD1    N1 3388   4.402   1.199  12.174  0.0899 -1.1464  0.3897
  219MPD1    H6 3389   4.491   1.197  12.123 -0.3905 -2.2696 -0.3959
  219MPD1    H7 3390   4.329   1.157  12.117 -1.6438  2.3687  0.0317
  220MPD1     C 3391   2.963   1.155   9.733 -0.1020  0.2551  0.2654
  220MPD1    C1 3392   2.885   1.076   9.822 -0.6071  0.3018 -0.3337
  220MPD1    C2 3393   2.936   1.053   9.949 -0.1889  0.5341 -0.2973
  220MPD1    C3 3394   3.057   1.099   9.994  0.3086  0.1789  0.1428
  220MPD1    C4 3395   3.128   1.185   9.910 -0.0346 -1.0288  0.1996
  220MPD1    C5 3396   3.079   1.210   9.787 -1.1215 -0.2938 -0.0295
  220MPD1     H 3397   2.879   0.982  10.008  0.6829  0.5533  0.5757
  220MPD1    H1 3398   3.215   1.240   9.944 -0.7126 -1.6532  3.0080
  220MPD1    H2 3399   2.939   1.180   9.631 -0.6065  1.9776  0.8070
  220MPD1    H3 3400   3.145   1.268   9.722  0.8600 -2.9101 -0.3520
  220MPD1     N 3401   3.110   1.053  10.117  0.0453  0.4226 -0.2882
  220MPD1    H5 3402   3.057   0.982  10.165 -0.2780  1.7602  1.3356
  220MPD1    N1 3403   2.755   1.037   9.792  0.3241  0.4584  0.3591
  220MPD1    H6 3404   2.737   1.028   9.692  1.7647  2.8627 -0.1149
  220MPD1    H7 3405   2.736   0.949   9.840 -0.6841 -0.4539 -1.7151
  221MPD1     C 3406   2.177   4.219  16.642  0.2828 -0.4925  0.6016
  221MPD1    C1 3407   2.248   4.335  16.632  0.1128 -0.2808  0.0251
  221MPD1    C2 3408   2.200   4.430  16.545  0.6186  0.2364 -0.1832
  221MPD1    C3 3409   2.085   4.416  16.472  0.3937 -0.6664 -0.1553
  221MPD1    C4 3410   2.024   4.296  16.480 -0.3139  0.1785 -0.0714
  221MPD1    C5 3411   2.071   4.199  16.564 -0.1068 -0.3101  0.2916
  221MPD1     H 3412   2.248   4.526  16.539  1.7041 -0.3828 -1.4405
  221MPD1    H1 3413   1.941   4.270  16.415 -1.1790  2.1850  0.2231
  221MPD1    H2 3414   2.202   4.132  16.701  2.1983  0.1924  0.8009
  221MPD1    H3 3415   2.015   4.107  16.570 -0.0181 -0.2864  1.3929
  221MPD1     N 3416   2.038   4.511  16.379 -0.2623  0.3509  0.2623
  221MPD1    H5 3417   1.954   4.482  16.330 -0.2651  0.4861  0.1879
  221MPD1    N1 3418   2.347   4.366  16.728 -0.0806  0.0562 -1.1354
  221MPD1    H6 3419   2.419   4.415  16.675  0.4444 -1.1085 -1.5192
  221MPD1    H7 3420   2.385   4.285  16.777 -0.5057  1.4277  1.4130
  222MPD1     C 3421   3.894   0.335   1.373 -0.3785  0.3251 -0.5131
  222MPD1    C1 3422   3.933   0.296   1.242 -0.1068 -0.6460  0.1484
  222MPD1    C2 3423   4.000   0.178   1.225 -0.0289 -0.1864  0.0757
  222MPD1    C3 3424   4.033   0.092   1.332  0.4167  0.0934 -0.3328
  222MPD1    C4 3425   3.969   0.117   1.452 -0.0949  0.6493 -0.6070
  222MPD1    C5 3426   3.900   0.237   1.471 -0.9743  0.0555 -0.5402
  222MPD1     H 3427   4.034   0.150   1.126  2.2789 -0.5330  0.9778
  222MPD1    H1 3428   3.996   0.052   1.534 -0.0970  1.0384 -0.2955
  222MPD1    H2 3429   3.852   0.431   1.399  0.9943 -0.0545  3.1365
  222MPD1    H3 3430   3.874   0.269   1.571 -0.7334  0.0636 -0.4802
  222MPD1     N 3431   4.107   4.714   1.314 -0.0483  0.2240 -0.5246
  222MPD1    H5 3432   4.116   4.651   1.394  1.2098  0.6629 -0.3245
  222MPD1    N1 3433   3.928   0.400   1.137  0.7211  0.3575  0.1481
  222MPD1    H6 3434   3.844   0.454   1.158 -0.1156 -0.2173 -1.6940
  222MPD1    H7 3435   3.915   0.363   1.043  3.8319 -0.6965  0.1221
  223MPD1     C 3436   4.157   4.230   1.930 -0.4074  0.3230  0.1776
  223MPD1    C1 3437   4.060   4.261   1.835  0.1692  0.2260  0.0913
  223MPD1    C2 3438   4.097   4.290   1.707  0.1890  0.1228 -1.1247
  223MPD1    C3 3439   4.229   4.290   1.674  0.0469 -0.0772  0.5421
  223MPD1    C4 3440   4.329   4.260   1.764 -0.3077 -0.1077 -0.4118
  223MPD1    C5 3441   4.285   4.223   1.888 -0.1685 -0.7552 -0.0643
  223MPD1     H 3442   4.026   4.328   1.634 -0.1011  1.6161 -0.0721
  223MPD1    H1 3443   4.436   4.258   1.746 -0.1616 -1.0765  0.5622
  223MPD1    H2 3444   4.136   4.208   2.034  2.1176  2.9732  1.2413
  223MPD1    H3 3445   4.360   4.200   1.963  1.7601  0.3757 -1.6373
  223MPD1     N 3446   4.261   4.345   1.551 -0.5142  0.0526  0.2303
  223MPD1    H5 3447   4.189   4.395   1.501  0.2095 -0.0065 -0.8744
  223MPD1    N1 3448   3.932   4.301   1.874  0.3457  0.1827  0.2653
  223MPD1    H6 3449   3.861   4.301   1.801  0.5791 -0.5653  0.0410
  223MPD1    H7 3450   3.891   4.282   1.966 -0.9680  1.4678 -0.0502
  224MPD1     C 3451   1.519   4.649   8.948  0.5134  0.3917  0.2345
  224MPD1    C1 3452   1.465   0.010   9.017  0.3721  0.0167  0.0342
  224MPD1    C2 3453   1.538   0.104   9.083 -0.1623 -0.4398  0.2276
  224MPD1    C3 3454   1.677   0.078   9.095  0.2591  0.1156 -0.1847
  224MPD1    C4 3455   1.736   4.711   9.024  0.1139  0.0599  0.1474
  224MPD1    C5 3456   1.652   4.631   8.946  0.3993  0.1308 -0.5200
  224MPD1     H 3457   1.488   0.188   9.129  0.2766  0.3900 -0.8332
  224MPD1    H1 3458   1.842   4.691   9.039 -0.3213 -1.7203  0.8019
  224MPD1    H2 3459   1.462   4.571   8.899 -1.0969  3.2628 -2.5365
  224MPD1    H3 3460   1.694   4.547   8.892  3.1836  1.9000 -1.0936
  224MPD1     N 3461   1.764   0.156   9.181  0.7508 -0.0751  0.0386
  224MPD1    H5 3462   1.863   0.136   9.171  0.6298 -0.8293  0.3585
  224MPD1    N1 3463   1.335   0.045   8.979  0.5291 -0.4128  0.1311
  224MPD1    H6 3464   1.301   0.120   9.038  1.5554  1.3183 -1.4545
  224MPD1    H7 3465   1.279   4.701   8.993  1.2351 -1.0379 -0.7181
  225MPD1     C 3466   3.205   1.090  13.339  0.0111  0.5589  0.1799
  225MPD1    C1 3467   3.208   1.212  13.275 -0.4064 -0.1290  0.2395
  225MPD1    C2 3468   3.126   1.229  13.164  0.1976 -0.7416 -0.0805
  225MPD1    C3 3469   3.031   1.136  13.137  0.4009  0.0678 -0.1457
  225MPD1    C4 3470   3.019   1.022  13.215 -0.3163  0.3788 -0.6131
  225MPD1    C5 3471   3.111   0.993  13.314  0.0007 -0.2148 -0.5506
  225MPD1     H 3472   3.146   1.306  13.091 -0.3350 -1.1606 -0.6686
  225MPD1    H1 3473   2.939   0.956  13.184  1.6698 -2.2265 -0.0854
  225MPD1    H2 3474   3.279   1.064  13.415 -0.6719  0.7454  0.9079
  225MPD1    H3 3475   3.110   0.905  13.377  2.2579  0.4956  0.4491
  225MPD1     N 3476   2.931   1.155  13.036  0.6433 -0.3876  0.5006
  225MPD1    H5 3477   2.860   1.086  13.013  2.1898 -1.7244 -0.1730
  225MPD1    N1 3478   3.321   1.302  13.296  0.1595 -0.4792  0.1046
  225MPD1    H6 3479   3.367   1.299  13.387  0.2102  0.2117  0.0997
  225MPD1    H7 3480   3.302   1.395  13.261 -2.0603 -1.8441 -2.3271
  226MPD1     C 3481   0.832   0.982   9.589  0.0967 -0.7148 -0.4464
  226MPD1    C1 3482   0.961   0.987   9.539  0.6378 -0.7839 -0.0033
  226MPD1    C2 3483   1.018   1.108   9.517 -0.0737 -0.5036  0.0629
  226MPD1    C3 3484   0.948   1.229   9.523  0.3914 -0.5371 -0.5386
  226MPD1    C4 3485   0.819   1.222   9.572 -0.2917 -0.1868  0.0505
  226MPD1    C5 3486   0.760   1.101   9.605 -0.3852 -0.0866 -0.1458
  226MPD1     H 3487   1.119   1.126   9.481 -1.1098  1.5422 -1.8564
  226MPD1    H1 3488   0.764   1.314   9.590 -1.1679 -0.5408 -0.8572
  226MPD1    H2 3489   0.776   0.894   9.616  1.0813 -0.9113  0.9608
  226MPD1    H3 3490   0.666   1.108   9.658  0.0066 -1.7399  0.7718
  226MPD1     N 3491   1.017   1.350   9.491 -0.1312  0.4592 -0.0430
  226MPD1    H5 3492   1.106   1.344   9.442 -0.4180  0.0528 -0.5138
  226MPD1    N1 3493   1.021   0.863   9.505  0.4267 -0.0283 -0.2267
  226MPD1    H6 3494   1.119   0.862   9.533 -0.2442  2.1386  2.2137
  226MPD1    H7 3495   0.972   0.785   9.548  0.3912  0.1363  0.0317
  227MPD1     C 3496   1.222   2.330   9.076  0.4030  0.6580 -0.3455
  227MPD1    C1 3497   1.333   2.282   9.137  1.1808 -1.2051 -0.6600
  227MPD1    C2 3498   1.319   2.161   9.196 -0.2813 -1.1473 -0.4021
  227MPD1    C3 3499   1.195   2.095   9.204  0.0821 -0.6068  0.8568
  227MPD1    C4 3500   1.078   2.150   9.152 -0.0502 -0.6482  0.3116
  227MPD1    C5 3501   1.102   2.264   9.082 -1.1198 -0.1980  0.5399
  227MPD1     H 3502   1.404   2.108   9.238  0.8059 -0.6683 -1.9537
  227MPD1    H1 3503   0.984   2.097   9.149 -0.2878 -0.2643  1.0488
  227MPD1    H2 3504   1.231   2.413   9.006  2.1895 -0.5866 -1.5831
  227MPD1    H3 3505   1.029   2.313   9.020  0.8878  1.4877 -0.5109
  227MPD1     N 3506   1.195   1.972   9.278 -0.1645 -0.5877  0.0670
  227MPD1    H5 3507   1.287   1.938   9.303 -0.6100 -1.6518  0.2850
  227MPD1    N1 3508   1.458   2.343   9.121  0.1245 -0.3699  0.4905
  227MPD1    H6 3509   1.445   2.438   9.087 -0.3934  0.3668  2.7897
  227MPD1    H7 3510   1.525   2.337   9.197  0.2523 -0.4666  0.3694
  228MPD1     C 3511   0.397   0.028  12.882 -0.3287 -0.3133  0.5026
  228MPD1    C1 3512   0.367   4.667  12.970  0.3880 -0.2828  0.2930
  228MPD1    C2 3513   0.323   4.548  12.913 -0.2041 -0.4892 -0.2238
  228MPD1    C3 3514   0.306   4.530  12.773  0.0996  0.4335  0.1997
  228MPD1    C4 3515   0.336   4.629  12.684 -0.2281 -0.1950 -0.3325
  228MPD1    C5 3516   0.383   0.001  12.742 -0.2895  0.0237 -1.1418
  228MPD1     H 3517   0.289   4.461  12.967 -0.7148  0.3796  0.8592
  228MPD1    H1 3518   0.330   4.628  12.576 -0.7584  0.2134 -0.3030
  228MPD1    H2 3519   0.439   0.123  12.913  0.7950  0.2065 -2.5805
  228MPD1    H3 3520   0.424   0.074  12.673 -1.3847  1.7775  0.0872
  228MPD1     N 3521   0.259   4.402  12.738 -0.1810 -0.5275  0.2444
  228MPD1    H5 3522   0.243   4.340  12.817 -1.2749 -0.8772 -0.2448
  228MPD1    N1 3523   0.352   4.683  13.108  0.6046 -0.2613 -0.0197
  228MPD1    H6 3524   0.380   4.604  13.166  0.4439  0.5403  1.1686
  228MPD1    H7 3525   0.409   0.020  13.143 -0.3812  0.8349 -0.8164
  229MPD1     C 3526   4.281   2.964  13.480 -0.1791 -0.0591  0.4078
  229MPD1    C1 3527   4.231   3.000  13.603 -0.2868 -0.9003  0.0270
  229MPD1    C2 3528   4.303   2.971  13.726  0.2965  0.3882  0.8004
  229MPD1    C3 3529   4.440   2.935  13.711  0.2249 -0.5265  0.4741
  229MPD1    C4 3530   4.490   2.907  13.582 -0.3653 -0.3471  0.6193
  229MPD1    C5 3531   4.407   2.913  13.479  0.0642  0.3683 -0.2527
  229MPD1     H 3532   4.269   2.996  13.826 -0.3022  1.0968  0.4184
  229MPD1    H1 3533   4.591   2.876  13.556 -1.0355 -1.8465 -0.1817
  229MPD1    H2 3534   4.242   2.995  13.384 -2.1596  0.7838  1.4654
  229MPD1    H3 3535   4.457   2.891  13.385 -0.7812 -0.1772 -0.5786
  229MPD1     N 3536   4.530   2.923  13.819  0.2388 -0.5371 -0.3898
  229MPD1    H5 3537   4.622   2.887  13.797 -0.9678 -2.6536 -2.0213
  229MPD1    N1 3538   4.098   3.047  13.608 -0.6247  0.1863  0.2124
  229MPD1    H6 3539   4.077   3.084  13.516 -0.2447  1.3656  0.5972
  229MPD1    H7 3540   4.089   3.118  13.681 -1.5683  0.2866 -0.0070
  230MPD1     C 3541   4.519   3.288  14.748 -0.1342 -0.4720  0.4419
  230MPD1    C1 3542   4.529   3.361  14.628  0.3636  0.4994  0.4577
  230MPD1    C2 3543   4.551   3.296  14.508  0.3298 -0.3612 -0.2051
  230MPD1    C3 3544   4.588   3.160  14.517  0.3502  0.1945  0.2849
  230MPD1    C4 3545   4.571   3.081  14.633  0.2800  0.7471 -0.1778
  230MPD1    C5 3546   4.536   3.151  14.746  0.1959 -0.4255  0.1836
  230MPD1     H 3547   4.566   3.360  14.423  0.9407 -1.1575 -0.7006
  230MPD1    H1 3548   4.590   2.974  14.634  1.5360  1.0026  2.3085
  230MPD1    H2 3549   4.508   3.335  14.845 -3.7593 -0.7125  0.1541
  230MPD1    H3 3550   4.527   3.102  14.842 -1.7027  0.0612  0.2521
  230MPD1     N 3551   4.641   3.106  14.399 -0.0512 -0.5293  0.4645
  230MPD1    H5 3552   4.643   3.175  14.324  0.2143 -0.1794  0.7980
  230MPD1    N1 3553   4.502   3.500  14.626  0.0425  0.0632 -0.3713
  230MPD1    H6 3554   4.553   3.533  14.544 -0.0638 -1.1275 -0.9138
  230MPD1    H7 3555   4.504   3.555  14.711  2.6606 -0.8972  0.1660
  231MPD1     C 3556   2.936   0.158  15.952 -0.1295 -0.5284 -0.0657
  231MPD1    C1 3557   3.000   0.258  15.893 -0.1664 -0.2467  0.0574
  231MPD1    C2 3558   3.016   0.262  15.756 -0.3959 -0.1079  0.0915
  231MPD1    C3 3559   2.960   0.165  15.673  0.0780  0.6567  0.1452
  231MPD1    C4 3560   2.891   0.068  15.734 -0.4025  0.0933  0.7261
  231MPD1    C5 3561   2.875   0.067  15.873 -0.4603 -0.0616 -0.8552
  231MPD1     H 3562   3.059   0.347  15.704  1.9575 -2.5422 -1.9496
  231MPD1    H1 3563   2.838   4.733  15.677  0.4601  0.0915 -0.0757
  231MPD1    H2 3564   2.927   0.140  16.059 -1.7020  0.3016 -0.0559
  231MPD1    H3 3565   2.820   4.726  15.919  0.4111 -1.0075 -1.4824
  231MPD1     N 3566   2.978   0.173  15.535  0.7497 -0.2537  0.0538
  231MPD1    H5 3567   3.039   0.246  15.501  0.6342 -1.1713 -2.0983
  231MPD1    N1 3568   3.086   0.332  15.967 -0.5597  0.0216 -0.3094
  231MPD1    H6 3569   3.057   0.337  16.064 -4.1335 -0.2697 -1.3434
  231MPD1    H7 3570   3.076   0.423  15.923  0.0598  1.0737  1.7561
  232MPD1     C 3571   4.520   2.464  17.167 -0.3494  0.4965 -0.4114
  232MPD1    C1 3572   4.426   2.550  17.110 -0.2577  0.0843  0.4243
  232MPD1    C2 3573   4.312   2.563  17.191 -0.1555  0.9922  0.4976
  232MPD1    C3 3574   4.310   2.534  17.329  0.5496 -0.6948  0.3112
  232MPD1    C4 3575   4.425   2.476  17.389  1.0900 -0.0277  0.8271
  232MPD1    C5 3576   4.524   2.432  17.302 -0.4143  0.1138 -0.2751
  232MPD1     H 3577   4.218   2.604  17.156 -1.1512 -1.1806  0.6417
  232MPD1    H1 3578   4.431   2.452  17.494 -1.5224  0.4485  1.1014
  232MPD1    H2 3579   4.602   2.424  17.109 -0.4070 -2.7431  1.7930
  232MPD1    H3 3580   4.612   2.382  17.342 -2.4745 -2.4053  1.1336
  232MPD1     N 3581   4.193   2.578  17.396 -0.1558  0.7243 -0.2971
  232MPD1    H5 3582   4.131   2.641  17.345 -1.7442 -1.0426 -0.5280
  232MPD1    N1 3583   4.425   2.577  16.976  0.0614  0.4250  0.1698
  232MPD1    H6 3584   4.520   2.601  16.947  0.5132 -2.0019 -0.3296
  232MPD1    H7 3585   4.362   2.657  16.972  0.6953  1.0550  2.6417
  233MPD1     C 3586   1.307   0.283   0.414 -0.3052  0.1979 -0.7075
  233MPD1    C1 3587   1.227   0.392   0.435  0.4095  1.1533  0.1830
  233MPD1    C2 3588   1.284   0.501   0.500 -0.2992 -0.2893  0.0062
  233MPD1    C3 3589   1.417   0.493   0.547  0.1469  0.1773 -0.4358
  233MPD1    C4 3590   1.492   0.381   0.522  0.0147 -0.3818 -0.5299
  233MPD1    C5 3591   1.432   0.277   0.466  0.1110 -0.9393 -0.6279
  233MPD1     H 3592   1.220   0.588   0.509  0.6916  0.5657 -1.2254
  233MPD1    H1 3593   1.592   0.359   0.557 -1.0882 -2.5250  1.2932
  233MPD1    H2 3594   1.267   0.193   0.369 -2.6671 -0.4825  2.6886
  233MPD1    H3 3595   1.490   0.186   0.455 -0.7031 -1.2280 -2.6202
  233MPD1     N 3596   1.483   0.587   0.627  0.0994 -0.2020  0.0785
  233MPD1    H5 3597   1.579   0.571   0.658 -0.2946 -0.4718  1.1420
  233MPD1    N1 3598   1.106   0.413   0.365  0.0864  0.1133 -0.2068
  233MPD1    H6 3599   1.038   0.477   0.405 -1.8765 -2.5581  0.7175
  233MPD1    H7 3600   1.054   0.326   0.355 -0.1249  0.1722  0.4116
  234MPD1     C 3601   2.485   3.428   9.581 -1.0919  0.4214 -0.2455
  234MPD1    C1 3602   2.408   3.482   9.477 -0.3742  0.2784  0.1620
  234MPD1    C2 3603   2.403   3.619   9.457  0.2173 -0.0899 -0.6089
  234MPD1    C3 3604   2.466   3.703   9.550 -0.5903 -0.3859 -0.6082
  234MPD1    C4 3605   2.542   3.655   9.647  0.1391 -0.0063 -0.3359
  234MPD1    C5 3606   2.545   3.518   9.672 -0.1230 -0.5250 -0.8867
  234MPD1     H 3607   2.341   3.664   9.380  1.1023 -0.0264 -1.2801
  234MPD1    H1 3608   2.622   3.710   9.695 -0.0598 -0.1663  0.1758
  234MPD1    H2 3609   2.490   3.322   9.603  2.2054  0.8945  1.3171
  234MPD1    H3 3610   2.619   3.485   9.743  0.5734  1.1139 -0.8800
  234MPD1     N 3611   2.452   3.840   9.521  0.8722  0.1458 -0.8515
  234MPD1    H5 3612   2.399   3.863   9.438  0.6248 -0.1374 -0.7736
  234MPD1    N1 3613   2.365   3.394   9.371  0.1636  0.5722  0.2738
  234MPD1    H6 3614   2.283   3.435   9.327 -1.9559 -1.3259  2.4121
  234MPD1    H7 3615   2.341   3.304   9.410 -1.2570  1.6859  1.9685
  235MPD1     C 3616   3.019   1.358  10.431  0.7414  0.7787  0.4857
  235MPD1    C1 3617   2.974   1.456  10.349  0.3238 -0.3378  0.6764
  235MPD1    C2 3618   3.065   1.550  10.311 -0.2453 -0.3351  0.5030
  235MPD1    C3 3619   3.195   1.536  10.342 -0.8681 -0.0752  1.0171
  235MPD1    C4 3620   3.243   1.432  10.426 -0.0277 -0.6024 -0.3049
  235MPD1    C5 3621   3.147   1.352  10.473 -0.8872  0.3799 -0.7912
  235MPD1     H 3622   3.029   1.633  10.251  3.2990 -0.0088 -1.1450
  235MPD1    H1 3623   3.345   1.416  10.458  0.2186 -0.5143 -1.0284
  235MPD1    H2 3624   2.940   1.288  10.457  1.4299 -0.1420  0.0800
  235MPD1    H3 3625   3.171   1.269  10.539  0.5885  0.0897 -1.6959
  235MPD1     N 3626   3.272   1.635  10.282  0.2324 -0.1058  0.1820
  235MPD1    H5 3627   3.231   1.687  10.205 -0.1270 -1.1360 -0.3167
  235MPD1    N1 3628   2.841   1.483  10.334  0.5653 -0.1140 -0.7284
  235MPD1    H6 3629   2.835   1.544  10.253 -0.7065  1.9435  0.8971
  235MPD1    H7 3630   2.786   1.398  10.330 -1.7415  1.2774  1.7704
  236MPD1     C 3631   3.138   2.443   9.242  0.3687 -0.5413  0.3691
  236MPD1    C1 3632   3.091   2.336   9.317  0.2615  0.1907 -0.0961
  236MPD1    C2 3633   3.048   2.365   9.447 -0.4265 -0.2365  0.3537
  236MPD1    C3 3634   3.064   2.489   9.499 -0.0793 -0.5914 -0.3454
  236MPD1    C4 3635   3.109   2.592   9.423 -0.5670  0.5408 -0.5892
  236MPD1    C5 3636   3.150   2.568   9.295 -0.2993 -0.3483 -0.2658
  236MPD1     H 3637   3.021   2.275   9.502  2.3009 -1.1991  0.1331
  236MPD1    H1 3638   3.127   2.686   9.473  1.1506  0.7960 -1.6996
  236MPD1    H2 3639   3.167   2.439   9.138  0.7626  1.2316  0.4036
  236MPD1    H3 3640   3.207   2.641   9.240  0.8611 -0.4610  0.8037
  236MPD1     N 3641   3.044   2.520   9.636  0.2776  0.0190  0.0878
  236MPD1    H5 3642   3.066   2.614   9.667 -0.3695  0.1739  0.0715
  236MPD1    N1 3643   3.072   2.203   9.261  0.0472  0.4193  0.2483
  236MPD1    H6 3644   3.056   2.129   9.328 -1.6041  2.0367  1.6541
  236MPD1    H7 3645   3.137   2.179   9.187  1.8255 -1.3426  2.3970
  237MPD1     C 3646   3.475   1.277  15.250  1.0775 -0.1616 -0.1921
  237MPD1    C1 3647   3.407   1.183  15.331 -0.1534 -0.2538 -0.8817
  237MPD1    C2 3648   3.272   1.151  15.303 -0.2582 -0.4968 -0.3943
  237MPD1    C3 3649   3.205   1.235  15.214 -0.1816 -0.2661 -0.1311
  237MPD1    C4 3650   3.273   1.328  15.136 -0.5852 -0.6815  0.3106
  237MPD1    C5 3651   3.404   1.350  15.150 -0.0605  0.1233  0.0982
  237MPD1     H 3652   3.223   1.071  15.358 -1.9496  1.5710  1.1306
  237MPD1    H1 3653   3.225   1.392  15.063  1.5640  1.7470  1.0063
  237MPD1    H2 3654   3.582   1.291  15.253  0.8981  1.0996  0.1832
  237MPD1    H3 3655   3.453   1.428  15.092 -2.2090 -0.4488 -2.4814
  237MPD1     N 3656   3.066   1.232  15.201 -0.6963  0.2140 -0.1438
  237MPD1    H5 3657   3.032   1.263  15.110  0.9356 -0.2596 -0.9172
  237MPD1    N1 3658   3.484   1.098  15.415  0.5123  0.0273 -0.4345
  237MPD1    H6 3659   3.426   1.093  15.499  0.7536  1.6956 -0.1689
  237MPD1    H7 3660   3.564   1.153  15.446 -0.5164  1.7491 -0.8698
  238MPD1     C 3661   4.272   1.213  14.972  0.2672 -0.6653 -0.4935
  238MPD1    C1 3662   4.269   1.140  15.085 -0.0388 -0.6201 -0.5596
  238MPD1    C2 3663   4.236   1.009  15.073 -0.0497 -0.0525 -0.2434
  238MPD1    C3 3664   4.211   0.954  14.947  0.0445 -0.0239  0.4555
  238MPD1    C4 3665   4.215   1.033  14.835 -0.0961  0.6614 -0.6824
  238MPD1    C5 3666   4.245   1.162  14.849  0.1800  0.1822  1.0208
  238MPD1     H 3667   4.259   0.952  15.163 -2.8168 -0.0704  0.4560
  238MPD1    H1 3668   4.185   0.994  14.738 -2.3583  0.7056  0.0015
  238MPD1    H2 3669   4.309   1.314  14.983  2.4006 -1.4041 -0.9236
  238MPD1    H3 3670   4.247   1.229  14.763 -0.3242 -0.5415  0.4508
  238MPD1     N 3671   4.188   0.813  14.924  0.1582  0.6968  0.1414
  238MPD1    H5 3672   4.173   0.786  14.827 -0.8502 -0.5467  0.6371
  238MPD1    N1 3673   4.325   1.191  15.205  0.7050 -0.4500  0.0903
  238MPD1    H6 3674   4.280   1.154  15.288 -1.5797 -0.3114 -1.0842
  238MPD1    H7 3675   4.328   1.292  15.206  0.0035 -0.4268  0.0817
  239MPD1     C 3676   0.351   0.990  14.080 -0.1596 -0.3754  0.1516
  239MPD1    C1 3677   0.286   1.093  14.147 -0.1717  0.6272  1.2399
  239MPD1    C2 3678   0.181   1.152  14.085 -0.8737  0.1277 -0.2529
  239MPD1    C3 3679   0.122   1.100  13.966 -0.1639 -0.2002  0.7162
  239MPD1    C4 3680   0.184   0.984  13.915 -0.3087 -0.4450 -0.3513
  239MPD1    C5 3681   0.298   0.931  13.967 -0.3175 -0.1268 -0.4974
  239MPD1     H 3682   0.147   1.248  14.122  1.8801  2.0044 -2.5847
  239MPD1    H1 3683   0.149   0.938  13.823 -0.4533  0.0901 -0.5655
  239MPD1    H2 3684   0.439   0.944  14.124 -0.3088 -0.6374  0.1757
  239MPD1    H3 3685   0.349   0.847  13.922 -0.1103  1.1490 -2.6300
  239MPD1     N 3686   0.006   1.158  13.901 -0.5500 -0.2470 -0.1648
  239MPD1    H5 3687   4.715   1.105  13.821  0.5464 -0.1824 -0.6222
  239MPD1    N1 3688   0.350   1.170  14.245  0.2498  0.8545  0.4050
  239MPD1    H6 3689   0.286   1.232  14.295 -1.5114  0.3381 -1.1831
  239MPD1    H7 3690   0.417   1.128  14.308  0.4359  2.1815  1.1057
  240MPD1     C 3691   4.595   0.275  13.641 -0.1814 -0.0800  0.5107
  240MPD1    C1 3692   4.459   0.262  13.630 -0.6780  0.2208  0.3738
  240MPD1    C2 3693   4.373   0.309  13.735 -0.2801 -0.2920 -0.1477
  240MPD1    C3 3694   4.423   0.349  13.859  0.0886  0.6972 -0.8980
  240MPD1    C4 3695   4.554   0.359  13.860 -0.2854  0.2341  0.0483
  240MPD1    C5 3696   4.635   0.303  13.765 -0.0633 -0.3355  1.4471
  240MPD1     H 3697   4.265   0.296  13.725  0.0815 -2.4723 -1.2402
  240MPD1    H1 3698   4.603   0.401  13.947  0.8058  0.7558 -0.8141
  240MPD1    H2 3699   4.674   0.246  13.574 -0.1844 -1.1373  0.9611
  240MPD1    H3 3700   0.003   0.307  13.778  0.1947 -2.1835 -0.1644
  240MPD1     N 3701   4.343   0.385  13.966  0.3211 -0.0193  0.6114
  240MPD1    H5 3702   4.245   0.373  13.946  0.9896 -2.0643 -1.4293
  240MPD1    N1 3703   4.412   0.169  13.538  0.8126 -0.2068  0.2762
  240MPD1    H6 3704   4.316   0.193  13.513  0.7182 -0.8032  0.0745
  240MPD1    H7 3705   4.464   0.179  13.452  1.2137 -0.4329  0.4932
  241MPD1     C 3706   4.683   0.922  14.672 -0.0919  0.5135 -0.0035
  241MPD1    C1 3707   4.557   0.924  14.715 -0.3185 -0.5497 -0.7200
  241MPD1    C2 3708   4.464   0.848  14.650  0.3131  0.2037 -0.4936
  241MPD1    C3 3709   4.499   0.777  14.534 -0.3704 -0.2034 -0.7802
  241MPD1    C4 3710   4.628   0.771  14.489  0.5123  0.1329  0.7278
  241MPD1    C5 3711   4.718   0.841  14.562 -0.6499 -0.0869  0.2883
  241MPD1     H 3712   4.362   0.848  14.686 -0.0169  1.2948 -1.4144
  241MPD1    H1 3713   4.649   0.716  14.398  0.9780 -2.8762  2.6599
  241MPD1    H2 3714   0.021   0.979  14.721  0.2120 -0.2381  0.3786
  241MPD1    H3 3715   0.080   0.843  14.527 -0.4211 -0.5377  0.9208
  241MPD1     N 3716   4.406   0.708  14.455  0.4046  0.5307  0.1659
  241MPD1    H5 3717   4.435   0.670  14.365  1.3092 -0.2432  0.7753
  241MPD1    N1 3718   4.528   0.999  14.826  0.2920 -0.4793  0.3944
  241MPD1    H6 3719   4.427   0.999  14.836  0.3755  2.2356  1.1276
  241MPD1    H7 3720   4.575   1.089  14.821 -0.7772 -0.0149 -1.4272
  242MPD1     C 3721   4.204   3.695  15.539  0.5464 -0.2483  0.4321
  242MPD1    C1 3722   4.271   3.809  15.505 -0.6396 -0.1951  0.1528
  242MPD1    C2 3723   4.262   3.853  15.374  0.0882  0.3706  0.4625
  242MPD1    C3 3724   4.192   3.779  15.278  0.4419 -0.2577  0.0021
  242MPD1    C4 3725   4.124   3.671  15.319  0.0037  0.2476 -0.4946
  242MPD1    C5 3726   4.140   3.623  15.444  0.3218 -0.4849  0.1308
  242MPD1     H 3727   4.312   3.946  15.353  0.2885  0.2291  0.3155
  242MPD1    H1 3728   4.066   3.602  15.259 -0.1701 -1.1425  1.2946
  242MPD1    H2 3729   4.203   3.650  15.637  0.6737 -0.0778  0.5124
  242MPD1    H3 3730   4.075   3.544  15.478  0.0874 -0.2455  0.2404
  242MPD1     N 3731   4.186   3.802  15.140  0.2046  0.1805  0.3378
  242MPD1    H5 3732   4.122   3.743  15.089 -0.1395 -0.0655  1.0653
  242MPD1    N1 3733   4.360   3.866  15.599  0.1835 -0.3861 -0.1234
  242MPD1    H6 3734   4.370   3.965  15.580 -0.6922  0.0307  1.6547
  242MPD1    H7 3735   4.334   3.859  15.697  1.9070  0.8945  0.4186
  243MPD1     C 3736   0.208   2.043  17.599 -0.6979  0.2933  0.4680
  243MPD1    C1 3737   0.240   2.118  17.487 -0.1158  0.2437 -0.5272
  243MPD1    C2 3738   0.331   2.064  17.393 -0.8936 -0.8615 -0.2001
  243MPD1    C3 3739   0.388   1.937  17.408  0.9445 -0.2515  0.3981
  243MPD1    C4 3740   0.352   1.868  17.524 -0.0933  0.4600  0.1822
  243MPD1    C5 3741   0.260   1.919  17.609 -0.1342  0.8194  0.3325
  243MPD1     H 3742   0.361   2.122  17.306 -2.0476 -1.7456 -1.1760
  243MPD1    H1 3743   0.408   1.778  17.546 -0.7363 -0.0580 -0.3118
  243MPD1    H2 3744   0.146   2.074  17.683 -0.4271 -0.2311  0.8555
  243MPD1    H3 3745   0.247   1.866  17.702  0.7476  1.5751  0.8841
  243MPD1     N 3746   0.494   1.898  17.321  0.3927 -0.4147 -0.5733
  243MPD1    H5 3747   0.527   1.961  17.249  1.1841 -2.3400 -1.8708
  243MPD1    N1 3748   0.175   2.241  17.457 -0.5074 -0.1041 -0.5678
  243MPD1    H6 3749   0.120   2.276  17.535  2.5662  0.7863  1.1919
  243MPD1    H7 3750   0.108   2.219  17.383 -0.5833  0.8535 -0.7925
  244MPD1     C 3751   1.214   1.209  16.816  0.2823 -0.1234 -0.6326
  244MPD1    C1 3752   1.159   1.298  16.725  0.7548  0.1037 -0.1381
  244MPD1    C2 3753   1.066   1.388  16.773 -0.0320 -0.7845 -0.1381
  244MPD1    C3 3754   1.020   1.385  16.904 -0.1532  0.0380 -0.2109
  244MPD1    C4 3755   1.072   1.292  16.984 -0.2372 -0.1916  0.1934
  244MPD1    C5 3756   1.174   1.214  16.947  0.3763  0.0773 -0.3194
  244MPD1     H 3757   1.033   1.463  16.702  1.0121 -2.0760 -1.9908
  244MPD1    H1 3758   1.024   1.285  17.081 -2.3282  0.5318 -0.7745
  244MPD1    H2 3759   1.299   1.150  16.785  1.1045  1.5066 -1.4110
  244MPD1    H3 3760   1.223   1.150  17.019 -0.4985 -0.9300 -0.6373
  244MPD1     N 3761   0.929   1.485  16.944  0.0818  0.1639  0.4131
  244MPD1    H5 3762   0.906   1.550  16.870  3.6320 -0.0422 -0.8524
  244MPD1    N1 3763   1.200   1.304  16.590 -0.1288  0.6000  0.5326
  244MPD1    H6 3764   1.299   1.291  16.574 -0.0137 -0.2558  2.0099
  244MPD1    H7 3765   1.165   1.388  16.543  0.8889  0.6430 -0.1436
  245MPD1     C 3766   2.951   2.551  13.371  0.1434  0.4106  0.7726
  245MPD1    C1 3767   3.063   2.525  13.449  0.4469 -0.7543  0.0173
  245MPD1    C2 3768   3.127   2.628  13.508 -0.1867 -0.0546 -0.6273
  245MPD1    C3 3769   3.096   2.758  13.498  0.1764 -0.8441 -0.6030
  245MPD1    C4 3770   2.990   2.786  13.412 -0.5767  0.6287  0.0068
  245MPD1    C5 3771   2.922   2.684  13.351  0.2775  0.2007  0.8534
  245MPD1     H 3772   3.218   2.610  13.566  0.8661  0.0636 -2.2433
  245MPD1    H1 3773   2.965   2.891  13.400 -0.6189  0.4688 -1.2636
  245MPD1    H2 3774   2.904   2.478  13.306 -0.5247  0.2140  1.4796
  245MPD1    H3 3775   2.848   2.718  13.280 -0.6559 -1.5922  0.9753
  245MPD1     N 3776   3.167   2.858  13.569  0.8669 -0.3164 -0.9792
  245MPD1    H5 3777   3.254   2.835  13.615  0.6379 -2.2393 -1.5067
  245MPD1    N1 3778   3.130   2.400  13.443  0.3304  0.0020  0.5793
  245MPD1    H6 3779   3.193   2.380  13.520  3.0960  0.9635 -1.4028
  245MPD1    H7 3780   3.067   2.320  13.436  1.1764 -0.7448  1.6472
  246MPD1     C 3781   4.152   4.438  10.281 -0.0694  0.8542 -0.3119
  246MPD1    C1 3782   4.157   4.338  10.373  0.2249  0.1458 -0.0272
  246MPD1    C2 3783   4.116   4.216  10.326  0.0067 -0.0773  0.5332
  246MPD1    C3 3784   4.082   4.184  10.194 -0.1685 -0.2519 -0.1503
  246MPD1    C4 3785   4.092   4.285  10.104  0.0414 -0.4595 -0.1727
  246MPD1    C5 3786   4.110   4.414  10.155 -0.6436 -0.0418  0.0825
  246MPD1     H 3787   4.112   4.134  10.396 -2.3706 -0.8791 -0.5031
  246MPD1    H1 3788   4.069   4.282   9.998 -0.6490 -1.4925  0.0099
  246MPD1    H2 3789   4.183   4.534  10.320 -1.9245  1.1735  0.3987
  246MPD1    H3 3790   4.142   4.488  10.083 -0.2000  1.3761  1.7326
  246MPD1     N 3791   4.047   4.059  10.160 -0.2066 -0.1133  0.0768
  246MPD1    H5 3792   4.048   3.998  10.241 -0.5208 -0.8839 -0.4936
  246MPD1    N1 3793   4.183   4.371  10.505 -0.6224 -0.2523  0.4582
  246MPD1    H6 3794   4.212   4.295  10.565  0.3498  0.4148  0.8384
  246MPD1    H7 3795   4.232   4.456  10.531  1.5602 -1.1993 -0.5798
  247MPD1     C 3796   2.527   4.288  15.627 -0.1870 -0.1033  0.1931
  247MPD1    C1 3797   2.469   4.269  15.756 -1.0955  0.1800 -0.5088
  247MPD1    C2 3798   2.436   4.141  15.789  0.4993  0.7795  0.7235
  247MPD1    C3 3799   2.452   4.032  15.700 -1.0308  0.3266  0.4017
  247MPD1    C4 3800   2.504   4.050  15.581 -0.2471 -0.3843  0.1375
  247MPD1    C5 3801   2.541   4.178  15.544  0.0077  0.6235  0.3919
  247MPD1     H 3802   2.417   4.113  15.892  0.5157  0.1363  0.5520
  247MPD1    H1 3803   2.534   3.974  15.509  0.7000  0.4428 -0.3542
  247MPD1    H2 3804   2.565   4.381  15.587  1.1523 -1.4077 -1.5641
  247MPD1    H3 3805   2.581   4.177  15.443 -0.7521  1.9350  0.0912
  247MPD1     N 3806   2.429   3.899  15.742  0.3484  0.3421 -0.3151
  247MPD1    H5 3807   2.470   3.829  15.682  0.8378  0.0192  0.4094
  247MPD1    N1 3808   2.482   4.366  15.852  0.1407  0.1191 -1.1553
  247MPD1    H6 3809   2.404   4.351  15.916 -0.6438  1.1756 -1.8698
  247MPD1    H7 3810   2.465   4.454  15.804 -1.0534 -0.2419 -1.3976
  248MPD1     C 3811   3.253   2.450   0.228 -0.1137 -0.0058  0.0770
  248MPD1    C1 3812   3.291   2.506   0.347 -0.5699  0.5565 -0.5661
  248MPD1    C2 3813   3.191   2.579   0.416 -0.0081  0.0720 -0.7045
  248MPD1    C3 3814   3.066   2.600   0.361  0.6664  0.1120 -0.2805
  248MPD1    C4 3815   3.034   2.548   0.239  0.4580 -0.7757  0.6720
  248MPD1    C5 3816   3.126   2.460   0.184  0.2535 -0.2344 -1.0184
  248MPD1     H 3817   3.204   2.612   0.518  0.6666 -0.4288 -0.6239
  248MPD1    H1 3818   2.935   2.547   0.195  0.6672  0.9779  0.1678
  248MPD1    H2 3819   3.318   2.381   0.177  0.3654  0.2957  0.2817
  248MPD1    H3 3820   3.090   2.409   0.095  2.5569 -1.3386 -1.3171
  248MPD1     N 3821   2.973   2.667   0.446 -0.3466 -0.3846 -0.3837
  248MPD1    H5 3822   3.006   2.710   0.533  0.7286 -0.4333 -0.7610
  248MPD1    N1 3823   3.431   2.511   0.386 -0.3002 -0.2923 -0.4179
  248MPD1    H6 3824   3.427   2.514   0.487  1.2408  2.8165 -0.4482
  248MPD1    H7 3825   3.488   2.429   0.364 -0.0184 -0.7617  2.0847
  249MPD1     C 3826   0.130   1.817  10.589  0.0371 -0.5716  0.4172
  249MPD1    C1 3827   0.165   1.713  10.510 -0.3216 -0.4630  0.1245
  249MPD1    C2 3828   0.288   1.653  10.553  0.1084 -0.1050 -0.3529
  249MPD1    C3 3829   0.363   1.696  10.655  0.5397  0.7605 -0.6599
  249MPD1    C4 3830   0.317   1.797  10.733  0.0717  0.3655 -0.1282
  249MPD1    C5 3831   0.198   1.846  10.699  0.0993 -0.2114 -0.3268
  249MPD1     H 3832   0.318   1.572  10.488 -1.3247 -1.8461  1.1489
  249MPD1    H1 3833   0.359   1.848  10.818  4.2058 -1.2367 -1.1983
  249MPD1    H2 3834   0.038   1.872  10.571 -0.5925 -1.7083  0.1005
  249MPD1    H3 3835   0.153   1.918  10.766  0.4268  0.0857 -0.4231
  249MPD1     N 3836   0.478   1.620  10.686  0.0124  0.6384  0.3468
  249MPD1    H5 3837   0.513   1.551  10.621 -0.6098 -0.6896  1.4230
  249MPD1    N1 3838   0.089   1.679  10.393  0.6814  0.0592  0.5008
  249MPD1    H6 3839   4.734   1.716  10.400 -0.3319 -2.1817 -1.3987
  249MPD1    H7 3840   0.073   1.580  10.376  1.1133  0.1771 -0.5842
  250MPD2     C 3841   1.317   1.127  12.907  0.1640 -0.0257 -0.8951
  250MPD2    C1 3842   1.224   1.196  12.831 -0.6757 -0.0812 -0.1220
  250MPD2    C2 3843   1.145   1.131  12.737 -1.1612 -0.5685  0.3035
  250MPD2    C3 3844   1.176   0.989  12.713  0.5551  0.1191  0.2926
  250MPD2    C4 3845   1.266   0.927  12.788  0.7327  0.5686 -0.4611
  250MPD2    C5 3846   1.342   0.989  12.881  0.2450  0.2440  0.3430
  250MPD2     H 3847   1.068   1.192  12.692 -0.3056  0.5867  0.4098
  250MPD2    H1 3848   1.284   0.820  12.783  2.7186  0.9294 -0.9392
  250MPD2    H2 3849   1.371   1.181  12.983 -2.1122 -1.2177  1.5675
  250MPD2    H3 3850   1.413   0.938  12.945  0.2465  1.4041  1.2803
  250MPD2     N 3851   1.102   0.903  12.620 -0.4964 -0.2127 -0.1267
  250MPD2    H5 3852   1.138   0.808  12.624  1.2167  0.3270 -2.5554
  250MPD2    N1 3853   1.209   1.329  12.853  0.4554  0.0405  0.6937
  250MPD2    H7 3854   1.276   1.360  12.923  1.1412 -2.6305  1.2049
  251TMC3    C1 3855   1.148   1.549  12.838  0.0678  0.5445 -0.0430
  251TMC3    C2 3856   1.051   1.647  12.860  0.5003  0.9775 -0.6654
  251TMC3    C3 3857   1.095   1.773  12.887 -0.5823  0.9661  0.1164
  251TMC3    C4 3858   1.285   1.576  12.841  0.0335  0.2394 -0.1745
  251TMC3    C5 3859   1.321   1.709  12.847  0.2590  0.0788  0.2118
  251TMC3    C6 3860   1.226   1.803  12.882 -0.2511 -0.0118 -0.3878
  251TMC3     C 3861   1.109   1.416  12.814  0.4021 -0.0098  0.7474
  251TMC3     O 3862   1.006   1.400  12.754  0.1094  0.3730 -0.7638
  251TMC3     H 3863   0.945   1.623  12.862  1.1390 -1.8438 -0.5608
  251TMC3    H1 3864   1.364   1.508  12.810  0.2789  0.8144 -0.8062
  251TMC3    H2 3865   1.262   1.895  12.927 -1.5639  0.3087 -0.0026
  251TMC3    C7 3866   1.459   1.744  12.860  0.3184 -0.3765  0.0137
  251TMC3    C8 3867   1.001   1.874  12.906  0.2055 -0.1261 -0.2178
  251TMC3    O1 3868   1.539   1.654  12.868 -0.2909 -0.1478  0.4375
  251TMC3    O2 3869   0.890   1.843  12.943  0.2628  0.3090  0.2330
  252TMC3    C1 3870   1.080   2.601   9.228 -0.9873  0.0978  0.2268
  252TMC3    C2 3871   1.211   2.625   9.271 -0.0652 -0.1757  0.0987
  252TMC3    C3 3872   1.258   2.566   9.383 -0.4600 -0.0642  0.0280
  252TMC3    C4 3873   1.000   2.511   9.292  0.4593  0.0034  0.1794
  252TMC3    C5 3874   1.058   2.449   9.397  0.3032  0.8049  0.0384
  252TMC3    C6 3875   1.181   2.482   9.452 -0.3743  0.4030  0.1268
  252TMC3     C 3876   1.021   2.654   9.106  0.1156 -0.4948  0.3102
  252TMC3     O 3877   0.945   2.573   9.054 -0.0325  0.0895 -0.0004
  252TMC3     H 3878   1.276   2.681   9.204 -0.2950  0.4422  0.3996
  252TMC3    H1 3879   0.902   2.482   9.257  0.8691 -0.5204 -0.5420
  252TMC3    H2 3880   1.205   2.451   9.553 -0.3277 -1.5307 -0.4755
  252TMC3    C7 3881   0.999   2.322   9.448  0.2359  0.4073 -0.4586
  252TMC3    C8 3882   1.397   2.580   9.416  0.2914  0.3626 -0.4962
  252TMC3    O1 3883   0.878   2.315   9.438  0.2939 -0.3728 -0.3961
  252TMC3    O2 3884   1.461   2.651   9.343  0.3607  0.0223 -0.2573
  253MPD2     C 3885   2.824   1.516  15.176 -1.1691  0.5499  0.1425
  253MPD2    C1 3886   2.685   1.502  15.165 -0.1482 -0.4797  0.6792
  253MPD2    C2 3887   2.609   1.477  15.279 -0.5817  0.1996 -0.1747
  253MPD2    C3 3888   2.670   1.473  15.404  0.0738 -0.1243 -0.3752
  253MPD2    C4 3889   2.811   1.499  15.412  0.0957  0.8200 -0.3100
  253MPD2    C5 3890   2.885   1.530  15.297  0.3267 -0.2027 -0.2170
  253MPD2     H 3891   2.507   1.443  15.270 -0.0785 -1.7683  1.6884
  253MPD2    H1 3892   2.871   1.504  15.503 -3.3736  1.5327  1.9475
  253MPD2    H2 3893   2.894   1.537  15.096  0.3346 -2.1463  0.7544
  253MPD2    H3 3894   2.990   1.554  15.304  0.7505 -1.5519 -1.9024
  253MPD2     N 3895   2.610   1.446  15.529 -0.3273 -0.3632 -0.6322
  253MPD2    H5 3896   2.669   1.444  15.612  0.5203 -0.4974 -1.2343
  253MPD2    N1 3897   2.620   1.501  15.040  0.0289  0.4962 -0.0580
  253MPD2    H7 3898   2.518   1.503  15.041  0.0170  0.3848 -0.9812
  254TMC3    C1 3899   2.432   1.402  15.686 -0.8869  0.2424  0.1555
  254TMC3    C2 3900   2.296   1.412  15.708 -0.5281 -0.2588  0.3664
  254TMC3    C3 3901   2.253   1.397  15.840  0.1952  0.9012  0.4875
  254TMC3    C4 3902   2.516   1.349  15.781 -0.0387 -0.4330  0.0789
  254TMC3    C5 3903   2.464   1.326  15.909  0.4497  0.3363 -0.2269
  254TMC3    C6 3904   2.333   1.365  15.939 -0.2618  0.1501  0.5102
  254TMC3     C 3905   2.478   1.424  15.545  0.1218  0.2618 -0.6992
  254TMC3     O 3906   2.394   1.449  15.458 -0.2246 -0.0067  0.1068
  254TMC3     H 3907   2.238   1.442  15.622 -0.0764 -0.1065  0.1115
  254TMC3    H1 3908   2.616   1.313  15.762 -0.4684 -1.0497 -1.0236
  254TMC3    H2 3909   2.283   1.330  16.028  0.6155  0.1004  0.9856
  254TMC3    C7 3910   2.540   1.305  16.035 -0.6906  0.4177 -0.8446
  254TMC3    C8 3911   2.144   1.479  15.887  0.2092 -0.8424  0.4364
  254TMC3    O1 3912   2.478   1.289  16.139 -0.0989 -0.6410 -0.2543
  254TMC3    O2 3913   2.127   1.492  16.009 -0.3078  0.6686 -1.0715
  255MPD2     C 3914   0.266   3.526  10.177 -0.1583  0.1082  1.0019
  255MPD2    C1 3915   0.372   3.614  10.143 -0.4612 -0.1833 -0.5079
  255MPD2    C2 3916   0.500   3.569  10.120  0.7242  0.0168 -0.4178
  255MPD2    C3 3917   0.513   3.431  10.114 -0.0464 -0.0286 -0.6698
  255MPD2    C4 3918   0.413   3.342  10.151 -0.1433 -0.3660 -0.1921
  255MPD2    C5 3919   0.287   3.390  10.177 -0.3816 -0.1315 -0.0595
  255MPD2     H 3920   0.585   3.631  10.097  0.6506  0.6849  1.0923
  255MPD2    H1 3921   0.423   3.235  10.165 -1.3747 -0.6747 -1.5602
  255MPD2    H2 3922   0.165   3.548  10.211 -0.5368  0.7578 -0.5477
  255MPD2    H3 3923   0.221   3.319  10.225 -0.1411 -0.2844  0.0464
  255MPD2     N 3924   0.642   3.388  10.066 -0.4531 -0.4208 -0.1553
  255MPD2    H5 3925   0.705   3.462  10.039  0.3615 -0.2116  2.2932
  255MPD2    N1 3926   0.342   3.752  10.143  0.1248 -0.1643  0.5257
  255MPD2    H7 3927   0.242   3.766  10.129  0.1445  0.9282  1.4474
  256TMC3    C1 3928   0.358   3.985  10.133 -0.1939 -0.5206  0.1866
  256TMC3    C2 3929   0.375   4.082  10.224 -0.4904  0.2077 -0.7330
  256TMC3    C3 3930   0.274   4.168  10.241  0.2046 -0.3359  0.0477
  256TMC3    C4 3931   0.253   3.990  10.046 -0.9109  0.3201 -0.1936
  256TMC3    C5 3932   0.161   4.082  10.059  1.1065 -0.5829 -1.3275
  256TMC3    C6 3933   0.167   4.176  10.157 -0.0554 -0.6399  0.2656
  256TMC3     C 3934   0.429   3.862  10.150  0.6459  1.0640 -0.2083
  256TMC3     O 3935   0.541   3.864  10.191 -0.3328  0.3057  0.2387
  256TMC3     H 3936   0.444   4.071  10.307 -0.6597 -1.6058 -0.8225
  256TMC3    H1 3937   0.260   3.923   9.960 -2.1428 -1.3173  0.9636
  256TMC3    H2 3938   0.087   4.249  10.162  0.5421  0.0055  0.4420
  256TMC3    C7 3939   0.072   4.098   9.952 -0.1345 -0.2133  0.2990
  256TMC3    C8 3940   0.283   4.287  10.328  0.2419 -0.0296  0.2459
  256TMC3    O1 3941   0.019   4.206   9.930 -0.1670 -0.2810  0.4796
  256TMC3    O2 3942   0.172   4.330  10.369 -0.0570  0.8966  0.9501
  257MPD2     C 3943   4.386   1.297  12.744  0.9318 -0.6286 -0.9264
  257MPD2    C1 3944   4.517   1.310  12.708  0.5821 -0.4076 -1.1187
  257MPD2    C2 3945   4.616   1.250  12.788 -0.4428 -0.2093 -0.2764
  257MPD2    C3 3946   4.577   1.170  12.892  0.3162 -0.7362 -0.2805
  257MPD2    C4 3947   4.448   1.153  12.924  0.2966 -0.2931 -0.0905
  257MPD2    C5 3948   4.352   1.226  12.857 -0.2625  0.6578 -0.8247
  257MPD2     H 3949   4.721   1.268  12.773 -0.4352  2.6261  3.2863
  257MPD2    H1 3950   4.411   1.080  12.996 -2.4411  1.4489  0.2807
  257MPD2    H2 3951   4.307   1.339  12.684  0.5016  0.4478  0.3912
  257MPD2    H3 3952   4.249   1.208  12.883  0.0414  0.3636  0.1844
  257MPD2     N 3953   4.681   1.126  12.976  0.2101  0.6955 -0.0027
  257MPD2    H5 3954   0.034   1.156  12.947  0.5820  0.1645  0.6444
  257MPD2    N1 3955   4.547   1.387  12.590  0.2879 -0.6068  0.1829
  257MPD2    H7 3956   4.470   1.421  12.533  1.0933  1.2638  0.2191
  258TMC3    C1 3957   0.059   1.060  13.168 -0.1004  0.1789  0.3649
  258TMC3    C2 3958   0.173   1.042  13.102 -0.1911 -1.0453 -0.6292
  258TMC3    C3 3959   0.283   1.016  13.176 -0.8544 -0.2404  0.6827
  258TMC3    C4 3960   0.051   1.057  13.309 -0.1223  0.4618  0.4715
  258TMC3    C5 3961   0.169   1.048  13.381 -0.1759 -0.3189  0.1056
  258TMC3    C6 3962   0.286   1.024  13.314  0.1320 -0.1730 -0.3298
  258TMC3     C 3963   4.666   1.071  13.097  0.5697 -0.6223  0.1503
  258TMC3     O 3964   4.565   1.052  13.163 -0.8991 -0.1074 -0.1367
  258TMC3     H 3965   0.178   1.043  12.994  3.1614  3.6696 -0.4390
  258TMC3    H1 3966   4.694   1.059  13.357 -0.4158  2.5993 -0.1692
  258TMC3    H2 3967   0.379   1.006  13.365  0.8836  0.4824 -1.4777
  258TMC3    C7 3968   0.184   1.117  13.504  0.0041 -0.3988  0.8820
  258TMC3    C8 3969   0.413   1.024  13.114 -0.5213  0.3157  0.2860
  258TMC3    O1 3970   0.089   1.182  13.540  0.7091  0.2188  0.9725
  258TMC3    O2 3971   0.495   1.064  13.193 -0.4604  0.0597 -0.8834
  259MPD2     C 3972   3.500   3.681   0.487  0.0975 -0.4835  0.4427
  259MPD2    C1 3973   3.554   3.568   0.425 -0.0719  0.1121  0.8840
  259MPD2    C2 3974   3.587   3.559   0.291 -0.1350 -0.0291 -0.0119
  259MPD2    C3 3975   3.579   3.676   0.214  0.4761  0.0191 -0.2080
  259MPD2    C4 3976   3.537   3.794   0.280  0.6172 -0.0182 -0.2319
  259MPD2    C5 3977   3.515   3.793   0.413 -0.6506 -0.1777 -0.1177
  259MPD2     H 3978   3.638   3.475   0.245  0.5914  0.2974  0.1938
  259MPD2    H1 3979   3.536   3.886   0.223  0.3339  0.0430 -0.1267
  259MPD2    H2 3980   3.469   3.683   0.591  0.9092  0.7072  0.6710
  259MPD2    H3 3981   3.494   3.889   0.458  0.2547 -1.1136  2.3131
  259MPD2     N 3982   3.607   3.668   0.077 -0.1063 -0.4566  0.0241
  259MPD2    H5 3983   3.652   3.581   0.050  0.4949  0.2068 -1.1269
  259MPD2    N1 3984   3.564   3.453   0.505  0.0762 -0.3328 -0.0352
  259MPD2    H7 3985   3.519   3.454   0.596  1.9600  1.1889  0.9013
  260TMC3    C1 3986   3.585   3.707  17.605 -0.4921  0.2073  0.1960
  260TMC3    C2 3987   3.679   3.729  17.511  0.0452 -0.0628  0.1653
  260TMC3    C3 3988   3.692   3.639  17.413 -0.0265 -0.2394 -0.3566
  260TMC3    C4 3989   3.499   3.596  17.608 -0.1329 -0.3076 -0.0305
  260TMC3    C5 3990   3.504   3.514  17.501 -0.0997  0.3853  0.3359
  260TMC3    C6 3991   3.604   3.538  17.402  0.0665 -0.0019 -0.0776
  260TMC3     C 3992   3.595   3.766  17.737  0.2934 -0.4981 -0.2152
  260TMC3     O 3993   3.558   3.882  17.747  0.3451  0.8134  0.1681
  260TMC3     H 3994   3.751   3.810  17.517  0.8424 -0.7123 -0.5597
  260TMC3    H1 3995   3.424   3.588  17.686  1.0369  0.5776  1.1954
  260TMC3    H2 3996   3.613   3.473  17.315  0.1862 -1.3929  0.9726
  260TMC3    C7 3997   3.507   3.375  17.530  0.8615  0.6485  0.4271
  260TMC3    C8 3998   3.822   3.585  17.399 -0.0764  0.2326  0.5156
  260TMC3    O1 3999   3.573   3.298  17.463  0.4434 -0.0104 -0.2028
  260TMC3    O2 4000   3.913   3.672  17.394 -0.2551  0.0787  0.1306
  261MPD2     C 4001   0.537   0.811  11.971  0.0788  0.0700  0.0548
  261MPD2    C1 4002   0.664   0.876  11.967  0.0689 -0.6513  0.4703
  261MPD2    C2 4003   0.682   0.973  11.874 -0.2883  0.2352  0.1104
  261MPD2    C3 4004   0.575   1.025  11.798 -0.0591 -0.0591 -0.1336
  261MPD2    C4 4005   0.458   0.955  11.799 -0.2843 -0.5676  0.5177
  261MPD2    C5 4006   0.441   0.847  11.875 -0.1585 -0.6953 -0.1769
  261MPD2     H 4007   0.780   1.017  11.864 -0.4198  0.2511 -1.1091
  261MPD2    H1 4008   0.375   0.985  11.736 -0.3000 -0.7024  0.4725
  261MPD2    H2 4009   0.520   0.746  12.057 -2.1594  1.9258  1.0260
  261MPD2    H3 4010   0.353   0.785  11.887  0.1685 -1.1225  0.0599
  261MPD2     N 4011   0.585   1.143  11.725 -0.5144 -0.6487 -0.6271
  261MPD2    H5 4012   0.682   1.173  11.721 -1.1780  1.6979  0.8145
  261MPD2    N1 4013   0.765   0.851  12.062 -0.0812 -0.4662 -0.2016
  261MPD2    H7 4014   0.845   0.914  12.060 -3.1606  3.5951  4.4698
  262TMC3    C1 4015   0.500   1.342  11.597  1.0553  0.2693 -0.5657
  262TMC3    C2 4016   0.396   1.430  11.576 -0.0434 -0.2200  0.3144
  262TMC3    C3 4017   0.408   1.519  11.473  0.6878 -0.4289 -0.0101
  262TMC3    C4 4018   0.624   1.365  11.541 -0.1015 -0.2187 -0.6524
  262TMC3    C5 4019   0.632   1.462  11.442 -0.3070 -0.3545  0.1414
  262TMC3    C6 4020   0.527   1.545  11.409  0.2093  0.1373 -0.3175
  262TMC3     C 4021   0.473   1.216  11.672  0.0175  0.5600 -0.7266
  262TMC3     O 4022   0.353   1.194  11.668 -0.6180 -0.0327  0.0921
  262TMC3     H 4023   0.294   1.419  11.613 -0.9989  0.9229 -2.0052
  262TMC3    H1 4024   0.702   1.291  11.553 -0.0588 -0.1319 -0.3856
  262TMC3    H2 4025   0.534   1.599  11.316 -0.7874  0.7739 -0.0233
  262TMC3    C7 4026   0.759   1.475  11.368  0.1941  0.7370 -0.1829
  262TMC3    C8 4027   0.293   1.606  11.451  0.1698  0.1173 -0.0464
  262TMC3    O1 4028   0.835   1.386  11.397  0.3542 -0.1809  0.0085
  262TMC3    O2 4029   0.216   1.626  11.539  0.5059  0.2760  0.6175
  263MPD2     C 4030   1.307   0.237  11.684  0.3259 -0.2458  0.5917
  263MPD2    C1 4031   1.418   0.205  11.605  0.1919  0.3288  0.2457
  263MPD2    C2 4032   1.428   0.263  11.481 -0.2026 -0.4208 -0.9037
  263MPD2    C3 4033   1.339   0.366  11.448 -0.5408 -0.4167 -1.0820
  263MPD2    C4 4034   1.239   0.407  11.526 -0.0214 -0.4151 -0.5369
  263MPD2    C5 4035   1.225   0.339  11.644 -0.1002  0.2032  1.3993
  263MPD2     H 4036   1.492   0.226  11.402  1.1614 -1.4007  0.6925
  263MPD2    H1 4037   1.166   0.484  11.506 -1.0966 -0.9086  1.5166
  263MPD2    H2 4038   1.301   0.187  11.780  0.2401  0.5816  1.0080
  263MPD2    H3 4039   1.148   0.370  11.713 -0.1726  3.6229 -0.2094
  263MPD2     N 4040   1.337   0.442  11.333 -0.6182  0.3658 -0.5393
  263MPD2    H5 4041   1.272   0.520  11.336 -0.8806  0.1293 -0.1481
  263MPD2    N1 4042   1.509   0.105  11.657  0.1730 -0.4964 -0.2362
  263MPD2    H7 4043   1.485   0.087  11.754  0.6355  0.8709  0.1318
  264TMC3    C1 4044   1.395   0.535  11.132 -0.0226 -0.4779 -0.6566
  264TMC3    C2 4045   1.392   0.668  11.174 -0.0551  0.6122 -0.0401
  264TMC3    C3 4046   1.421   0.768  11.085 -0.4125 -0.2327 -0.1013
  264TMC3    C4 4047   1.425   0.495  11.001 -0.2520 -0.0257 -1.0296
  264TMC3    C5 4048   1.451   0.601  10.920  0.0282 -0.3420 -0.4498
  264TMC3    C6 4049   1.452   0.732  10.956  0.1053 -0.7654 -0.5309
  264TMC3     C 4050   1.425   0.436  11.229  0.1284  0.0684  0.0938
  264TMC3     O 4051   1.506   0.355  11.193  0.4272 -0.5801  0.2752
  264TMC3     H 4052   1.401   0.681  11.281 -0.1430 -1.0072  0.1738
  264TMC3    H1 4053   1.415   0.393  10.965  2.7365 -1.0415  1.0122
  264TMC3    H2 4054   1.484   0.810  10.887 -0.5393 -0.1223 -0.1094
  264TMC3    C7 4055   1.549   0.568  10.814 -0.0569  0.5759 -0.5547
  264TMC3    C8 4056   1.491   0.889  11.142  0.6622 -0.5394  0.3587
  264TMC3    O1 4057   1.590   0.656  10.746 -0.5207  0.1890 -0.1942
  264TMC3    O2 4058   1.585   0.936  11.079  0.1041  0.6031  0.0438
  265MPD2     C 4059   3.960   1.431  15.431  0.3051 -0.0841 -0.9342
  265MPD2    C1 4060   3.844   1.474  15.373 -0.0738 -0.1729 -0.7194
  265MPD2    C2 4061   3.796   1.418  15.252  0.3715  0.8420  0.3639
  265MPD2    C3 4062   3.865   1.312  15.196  0.2696  0.1943  0.4415
  265MPD2    C4 4063   3.975   1.254  15.261 -0.4324  0.9376  0.0226
  265MPD2    C5 4064   4.011   1.310  15.381  0.5823 -0.7037  0.5089
  265MPD2     H 4065   3.704   1.454  15.207  0.7552 -0.4900 -1.5072
  265MPD2    H1 4066   4.036   1.179  15.212 -0.2614  1.8683 -1.1985
  265MPD2    H2 4067   3.990   1.463  15.530 -0.3898  2.4711 -1.5547
  265MPD2    H3 4068   4.081   1.264  15.450  0.0355 -2.2990  0.0028
  265MPD2     N 4069   3.831   1.260  15.067  0.4928 -0.0353  0.0361
  265MPD2    H5 4070   3.863   1.165  15.047  3.2361  0.9646 -0.3131
  265MPD2    N1 4071   3.760   1.574  15.425  0.1138 -0.0250 -0.7365
  265MPD2    H7 4072   3.699   1.609  15.352  0.0634  0.4181 -0.4819
  266TMC3    C1 4073   3.716   1.762  15.573 -0.2585 -0.3513  0.1506
  266TMC3    C2 4074   3.774   1.848  15.660  0.6384 -0.0258 -0.7861
  266TMC3    C3 4075   3.696   1.957  15.694 -0.4989  0.3730 -0.2933
  266TMC3    C4 4076   3.589   1.781  15.528  0.1134 -0.0536  0.1116
  266TMC3    C5 4077   3.508   1.880  15.573 -0.1916  0.4936  0.2175
  266TMC3    C6 4078   3.563   1.972  15.657 -0.0964 -0.9892 -0.0839
  266TMC3     C 4079   3.793   1.641  15.540  0.4155 -0.6949  0.2498
  266TMC3     O 4080   3.882   1.622  15.626 -0.3342 -0.2034 -0.4392
  266TMC3     H 4081   3.873   1.837  15.702  0.6232  0.6995 -0.5588
  266TMC3    H1 4082   3.553   1.706  15.458  0.1989  1.2175 -1.3007
  266TMC3    H2 4083   3.500   2.056  15.687  0.2070  0.3432 -3.1453
  266TMC3    C7 4084   3.391   1.911  15.501 -0.2677  0.1586 -0.3562
  266TMC3    C8 4085   3.731   2.023  15.817 -0.1950 -0.2668  0.3104
  266TMC3    O1 4086   3.385   1.851  15.395 -0.2075 -0.0641 -0.2226
  266TMC3    O2 4087   3.774   1.953  15.906 -0.0875 -0.1263  0.5213
  267MPD2     C 4088   1.755   2.506  16.912 -0.2047 -0.4671  0.2245
  267MPD2    C1 4089   1.744   2.622  16.989 -0.6547 -0.2491 -1.0817
  267MPD2    C2 4090   1.637   2.717  16.971 -0.2266 -0.0589 -0.5388
  267MPD2    C3 4091   1.536   2.683  16.878 -0.5322 -0.0501  0.9265
  267MPD2    C4 4092   1.555   2.577  16.795 -0.7740 -0.2722  0.6823
  267MPD2    C5 4093   1.664   2.494  16.810 -0.0660  0.3740  0.3521
  267MPD2     H 4094   1.643   2.804  17.036  0.2268 -0.3457 -0.2012
  267MPD2    H1 4095   1.483   2.551  16.718  1.0087  1.6976 -1.6758
  267MPD2    H2 4096   1.835   2.434  16.923 -0.8404 -0.9968  1.4414
  267MPD2    H3 4097   1.676   2.405  16.749  0.7035  0.7224 -0.0052
  267MPD2     N 4098   1.412   2.754  16.866  0.4002  0.8611 -0.2484
  267MPD2    H5 4099   1.343   2.723  16.798  1.3352 -1.7608  0.0049
  267MPD2    N1 4100   1.843   2.635  17.095  0.4976  0.5834  1.0308
  267MPD2    H7 4101   1.898   2.552  17.114  1.3507  1.0849  0.7603
  268TMC3    C1 4102   1.938   2.706  17.292 -0.1015  0.1099  0.3743
  268TMC3    C2 4103   2.013   2.809  17.330  0.5010 -0.3446 -0.2789
  268TMC3    C3 4104   2.025   2.826  17.463  0.1811 -0.1418  0.7932
  268TMC3    C4 4105   1.894   2.607  17.382  0.1690 -0.1725  0.3556
  268TMC3    C5 4106   1.934   2.622  17.517  0.5645  0.7729 -0.0860
  268TMC3    C6 4107   2.004   2.733  17.556  0.6805  0.0170 -0.1980
  268TMC3     C 4108   1.863   2.744  17.176  0.1538 -0.7858  0.1694
  268TMC3     O 4109   1.837   2.866  17.168 -0.0398  0.0439 -0.2555
  268TMC3     H 4110   2.051   2.879  17.256  0.8732  0.7615  0.9602
  268TMC3    H1 4111   1.815   2.545  17.341  0.4382  0.9729 -1.9169
  268TMC3    H2 4112   2.030   2.750  17.659 -1.2752 -2.5325  0.7230
  268TMC3    C7 4113   1.885   2.531  17.618 -0.6766  0.4141  0.2618
  268TMC3    C8 4114   2.008   2.963  17.508 -0.9595 -0.0114  0.1046
  268TMC3    O1 4115   1.880   2.576  17.732  0.5446 -0.1681 -0.0061
  268TMC3    O2 4116   2.041   2.998  17.621 -0.0259  0.0215  0.3914
  269MPD2     C 4117   1.762   2.052  15.467 -0.4226  0.0456  0.4403
  269MPD2    C1 4118   1.630   2.068  15.509 -0.2346  0.2789  0.3034
  269MPD2    C2 4119   1.579   2.201  15.515  0.3026 -0.1530 -0.0220
  269MPD2    C3 4120   1.658   2.305  15.467 -0.3564  0.1496  0.1646
  269MPD2    C4 4121   1.791   2.285  15.437  0.5122 -0.6118  1.2328
  269MPD2    C5 4122   1.847   2.162  15.444  0.0494  0.0252  0.3595
  269MPD2     H 4123   1.482   2.232  15.552 -0.5055  1.0052 -3.0692
  269MPD2    H1 4124   1.857   2.367  15.411 -1.7819  1.3558  1.6474
  269MPD2    H2 4125   1.812   1.956  15.465  0.5217  0.5543 -0.3265
  269MPD2    H3 4126   1.951   2.153  15.415 -0.6482  1.9410 -2.7289
  269MPD2     N 4127   1.598   2.432  15.449 -0.5211  0.2107 -0.1831
  269MPD2    H5 4128   1.501   2.439  15.480  0.0541 -0.0577  1.7245
  269MPD2    N1 4129   1.546   1.960  15.534 -0.4714  0.0538 -0.5050
  269MPD2    H7 4130   1.590   1.870  15.515  0.5260 -0.3243  3.5581
  270TMC3    C1 4131   1.359   1.840  15.600  0.0616  0.3402  0.8152
  270TMC3    C2 4132   1.226   1.815  15.573 -0.2386  0.0393 -0.1632
  270TMC3    C3 4133   1.186   1.689  15.585  1.0538  0.3853 -0.3422
  270TMC3    C4 4134   1.441   1.747  15.661 -0.2207  0.4037 -0.7306
  270TMC3    C5 4135   1.382   1.628  15.698 -0.0339 -0.0067 -0.0560
  270TMC3    C6 4136   1.262   1.591  15.649  0.0087  0.0779  0.5803
  270TMC3     C 4137   1.411   1.968  15.563  0.2394 -0.0101  0.0144
  270TMC3     O 4138   1.333   2.061  15.561  0.0293 -0.0203  0.5551
  270TMC3     H 4139   1.162   1.887  15.523 -3.0200 -2.5897 -0.3375
  270TMC3    H1 4140   1.544   1.763  15.693  0.1000 -2.6060 -0.2607
  270TMC3    H2 4141   1.225   1.491  15.668  1.4005 -0.5715 -0.2127
  270TMC3    C7 4142   1.453   1.534  15.789 -0.2285 -0.3384 -0.1815
  270TMC3    C8 4143   1.097   1.639  15.477  0.2035 -0.3697 -0.7827
  270TMC3    O1 4144   1.574   1.539  15.779  0.0862 -0.5610  0.4742
  270TMC3    O2 4145   0.993   1.699  15.456  0.0283  0.3594 -0.1119
  271MPD2     C 4146   0.895   1.356  13.703  0.5790 -0.0150 -0.7180
  271MPD2    C1 4147   0.843   1.441  13.802 -0.0039  0.5152  0.1675
  271MPD2    C2 4148   0.739   1.525  13.766  0.4129 -0.0750 -0.5325
  271MPD2    C3 4149   0.680   1.529  13.640  0.4200 -0.0311 -0.3912
  271MPD2    C4 4150   0.737   1.449  13.546 -0.1815 -0.9166 -0.0113
  271MPD2    C5 4151   0.843   1.366  13.577 -0.1947 -0.5984 -0.2342
  271MPD2     H 4152   0.706   1.590  13.846  2.2381  2.6620 -2.0242
  271MPD2    H1 4153   0.704   1.453  13.442  1.5700  2.3818 -0.4050
  271MPD2    H2 4154   0.980   1.291  13.720 -1.4239 -2.2953  0.5644
  271MPD2    H3 4155   0.880   1.306  13.495 -0.9134  1.5923 -2.1833
  271MPD2     N 4156   0.564   1.594  13.604 -0.8198  0.1940  0.1601
  271MPD2    H5 4157   0.531   1.576  13.510 -0.3846 -0.7843  0.1942
  271MPD2    N1 4158   0.903   1.443  13.934  0.0671  0.3743  0.2717
  271MPD2    H7 4159   0.859   1.490  14.012  0.3340 -0.9241  1.2159
  272TMC3    C1 4160   1.023   1.378  14.118 -0.2753 -0.0385  0.3467
  272TMC3    C2 4161   1.142   1.332  14.169 -0.3026 -0.5045  0.1054
  272TMC3    C3 4162   1.150   1.312  14.304  0.1114 -0.7864 -0.2376
  272TMC3    C4 4163   0.929   1.438  14.198 -0.3150  0.1708 -0.0067
  272TMC3    C5 4164   0.950   1.425  14.332 -0.0671  0.6552 -0.6661
  272TMC3    C6 4165   1.059   1.360  14.394  0.1330  1.5612  0.0114
  272TMC3     C 4166   1.019   1.386  13.971 -0.2222  0.4122  0.3064
  272TMC3     O 4167   1.105   1.331  13.905 -0.3125 -0.4956 -0.0098
  272TMC3     H 4168   1.221   1.306  14.100 -0.6635 -1.9582  0.2366
  272TMC3    H1 4169   0.832   1.477  14.168 -0.7104  1.0114  2.3368
  272TMC3    H2 4170   1.057   1.336  14.499  0.0584  0.8181 -0.1556
  272TMC3    C7 4171   0.883   1.518  14.417  0.3992 -0.7721  0.4822
  272TMC3    C8 4172   1.263   1.233  14.345  0.9424  0.2743 -0.9851
  272TMC3    O1 4173   0.766   1.553  14.381 -0.4540  0.6541  0.1162
  272TMC3    O2 4174   1.321   1.170  14.261  0.2003  0.0896  0.4298
  273MPD2     C 4175   2.165   4.318  11.997 -0.0557  0.1154 -0.2547
  273MPD2    C1 4176   2.260   4.308  11.905 -0.6048  0.2837 -0.7834
  273MPD2    C2 4177   2.226   4.264  11.776 -0.1650  1.1949  0.2575
  273MPD2    C3 4178   2.093   4.222  11.745 -0.3599  0.7205  0.3737
  273MPD2    C4 4179   1.993   4.237  11.839  0.5303  0.2065 -0.0250
  273MPD2    C5 4180   2.036   4.285  11.964  0.9677 -0.4461 -0.7019
  273MPD2     H 4181   2.300   4.272  11.697 -0.1979 -1.1280 -0.0064
  273MPD2    H1 4182   1.893   4.207  11.812 -0.3657  2.8095  0.3700
  273MPD2    H2 4183   2.181   4.356  12.097 -1.3208 -1.1454  0.4196
  273MPD2    H3 4184   1.956   4.299  12.036  0.4050  0.4564 -1.5003
  273MPD2     N 4185   2.060   4.171  11.612  0.2337 -0.5581 -0.5775
  273MPD2    H5 4186   1.961   4.175  11.591  0.3469  0.2500 -0.9809
  273MPD2    N1 4187   2.390   4.361  11.942 -0.5610 -0.5920  0.1627
  273MPD2    H7 4188   2.404   4.404  12.032  0.4864 -0.1406 -0.2164
  274TMC3    C1 4189   2.128   4.153  11.385  0.4536 -0.2918  0.1847
  274TMC3    C2 4190   2.004   4.162  11.338  0.5321  0.0218  0.1272
  274TMC3    C3 4191   1.994   4.206  11.211  0.1289 -0.5730 -0.0243
  274TMC3    C4 4192   2.238   4.198  11.312  0.8821 -0.1403  0.4272
  274TMC3    C5 4193   2.212   4.264  11.196 -0.3726 -0.0157 -0.4705
  274TMC3    C6 4194   2.093   4.258  11.132 -0.7295 -0.4719  0.0595
  274TMC3     C 4195   2.157   4.136  11.528  1.1709 -0.4266 -0.6894
  274TMC3     O 4196   2.267   4.104  11.557  0.0809  0.2649 -0.3112
  274TMC3     H 4197   1.916   4.125  11.389  0.4811 -1.0766 -0.7380
  274TMC3    H1 4198   2.337   4.193  11.356  1.2732  0.3038 -0.3937
  274TMC3    H2 4199   2.076   4.325  11.049  0.6159  0.4928  0.5677
  274TMC3    C7 4200   2.327   4.341  11.136 -0.3099  0.0406 -0.1145
  274TMC3    C8 4201   1.876   4.166  11.143 -0.9764 -0.1399 -0.8896
  274TMC3    O1 4202   2.321   4.354  11.012 -0.1453  0.3011  0.0897
  274TMC3    O2 4203   1.776   4.149  11.209 -0.0051 -0.2035  0.8156
  275MPD2     C 4204   2.159   2.872  14.327 -0.0676 -0.3815 -0.1078
  275MPD2    C1 4205   2.187   2.736  14.340  0.2884  0.1566 -0.3119
  275MPD2    C2 4206   2.086   2.650  14.323  0.3634 -0.0121  0.6625
  275MPD2    C3 4207   1.954   2.690  14.308 -0.1939 -0.4270 -0.8537
  275MPD2    C4 4208   1.926   2.824  14.312  0.0811 -0.3922 -0.3271
  275MPD2    C5 4209   2.035   2.917  14.320  0.7486 -0.3476 -0.3010
  275MPD2     H 4210   2.116   2.546  14.317 -1.8088 -0.4625 -2.2273
  275MPD2    H1 4211   1.829   2.871  14.304  0.9419  1.5391  0.5158
  275MPD2    H2 4212   2.231   2.953  14.330  0.8982 -1.3283  2.2807
  275MPD2    H3 4213   2.018   3.023  14.304  2.1882 -0.5673 -3.1863
  275MPD2     N 4214   1.845   2.601  14.306 -0.0912  0.1995 -0.5511
  275MPD2    H5 4215   1.757   2.649  14.322 -1.3233 -2.7994  1.6677
  275MPD2    N1 4216   2.316   2.687  14.356  0.1205 -0.1276 -0.0471
  275MPD2    H7 4217   2.318   2.586  14.363 -0.8028 -0.2750 -1.9039
  276TMC3    C1 4218   2.540   2.667  14.401 -0.2898  0.4982 -0.7068
  276TMC3    C2 4219   2.534   2.532  14.365  0.4758  0.0053 -0.0476
  276TMC3    C3 4220   2.645   2.462  14.394  0.0201 -0.2488  0.5759
  276TMC3    C4 4221   2.628   2.719  14.494 -0.0887 -0.0167 -0.2988
  276TMC3    C5 4222   2.729   2.634  14.525 -0.2191 -0.8428  0.2245
  276TMC3    C6 4223   2.735   2.505  14.476 -0.8646 -0.0350  0.2785
  276TMC3     C 4224   2.430   2.757  14.387  0.0576 -0.2321 -0.3147
  276TMC3     O 4225   2.436   2.873  14.423 -0.1428 -0.2662  0.0093
  276TMC3     H 4226   2.468   2.505  14.283  0.0409  2.2595 -0.4619
  276TMC3    H1 4227   2.627   2.823  14.523 -0.1847 -0.1697  0.2504
  276TMC3    H2 4228   2.814   2.441  14.513  0.0718  1.2022  0.4423
  276TMC3    C7 4229   2.834   2.691  14.611  0.1982  0.1584  0.2835
  276TMC3    C8 4230   2.632   2.317  14.395 -0.6131  0.4519 -0.8181
  276TMC3    O1 4231   2.820   2.805  14.649 -1.0413 -0.2097 -0.1960
  276TMC3    O2 4232   2.686   2.261  14.489 -0.2038  0.2627  0.1252
  277MPD2     C 4233   3.999   1.075  12.923 -0.4076  0.0540 -0.5916
  277MPD2    C1 4234   3.895   1.110  13.010  0.2373  0.3219  0.3113
  277MPD2    C2 4235   3.897   1.046  13.128  0.0452 -0.0603  0.3291
  277MPD2    C3 4236   3.988   0.948  13.155  0.0812 -0.3026  0.8332
  277MPD2    C4 4237   4.095   0.913  13.071 -0.2168  0.3629 -0.0059
  277MPD2    C5 4238   4.100   0.984  12.951  0.1296  0.0917  0.3150
  277MPD2     H 4239   3.815   1.060  13.199 -0.1892  1.0605 -0.1686
  277MPD2    H1 4240   4.175   0.849  13.109 -0.4560  0.9523  1.4965
  277MPD2    H2 4241   4.010   1.126  12.828  0.8226 -0.2030 -0.5897
  277MPD2    H3 4242   4.177   0.966  12.877 -0.8004 -0.9559 -0.4082
  277MPD2     N 4243   3.956   0.879  13.282  0.3748 -0.0810  0.6764
  277MPD2    H5 4244   3.884   0.909  13.347 -0.4397  1.3219 -0.9026
  277MPD2    N1 4245   3.805   1.212  12.971  0.5138  0.0520 -0.0182
  277MPD2    H7 4246   3.806   1.247  12.875 -2.8147 -0.5244 -0.2657
  278TMC3    C1 4247   3.966   0.717  13.463 -0.4756 -0.3376  0.1348
  278TMC3    C2 4248   3.907   0.593  13.459 -0.2343 -0.1379  0.0744
  278TMC3    C3 4249   3.845   0.539  13.567 -0.6751  0.3774  0.2779
  278TMC3    C4 4250   3.922   0.807  13.553 -0.6927  0.1016  0.3628
  278TMC3    C5 4251   3.846   0.752  13.655 -0.2800  0.1183 -0.5364
  278TMC3    C6 4252   3.817   0.620  13.671 -0.2265  0.5298  0.1251
  278TMC3     C 4253   4.019   0.766  13.332 -0.1147  1.3412 -0.6544
  278TMC3     O 4254   4.091   0.689  13.267 -0.8070 -0.8055  0.0973
  278TMC3     H 4255   3.947   0.514  13.396  1.0469  0.4586  0.1187
  278TMC3    H1 4256   3.950   0.911  13.562  4.5547 -1.0824 -2.1697
  278TMC3    H2 4257   3.775   0.571  13.758  0.2800  1.1168  0.6930
  278TMC3    C7 4258   3.784   0.850  13.741 -0.3799  0.1306 -0.0455
  278TMC3    C8 4259   3.818   0.399  13.584 -0.5804  0.5566 -0.4323
  278TMC3    O1 4260   3.816   0.967  13.718  0.0105 -0.0316  0.3929
  278TMC3    O2 4261   3.830   0.352  13.698  0.5287 -0.2519 -0.3864
  279MPD2     C 4262   3.262   1.574   0.406  0.5896  0.5724  0.0662
  279MPD2    C1 4263   3.193   1.654   0.326  0.3257  0.1008  0.6915
  279MPD2    C2 4264   3.216   1.645   0.185  0.2261  0.1803  0.1405
  279MPD2    C3 4265   3.316   1.555   0.139 -0.2503 -0.1584  0.6870
  279MPD2    C4 4266   3.381   1.475   0.231 -0.1657 -0.8305  0.2536
  279MPD2    C5 4267   3.352   1.484   0.362  0.0290 -0.3420  0.0176
  279MPD2     H 4268   3.168   1.710   0.112 -1.2646 -0.3161  0.6682
  279MPD2    H1 4269   3.452   1.403   0.193  0.9332  0.6287 -0.4346
  279MPD2    H2 4270   3.248   1.573   0.514 -1.3318  0.6196 -0.1921
  279MPD2    H3 4271   3.406   1.418   0.430 -1.4418  0.1142  1.6014
  279MPD2     N 4272   3.357   1.547   0.003 -1.0010  0.2039  0.5148
  279MPD2    H5 4273   3.441   1.497  17.734 -0.9651  0.3867  0.2876
  279MPD2    N1 4274   3.091   1.731   0.386 -0.7696  0.0618  0.1779
  279MPD2    H7 4275   3.087   1.733   0.487 -0.3375  1.5898  0.1535
  280TMC3    C1 4276   2.902   1.877   0.385  0.4521  0.7010  0.3468
  280TMC3    C2 4277   2.948   1.920   0.506  0.2665 -0.6260  0.5669
  280TMC3    C3 4278   2.844   1.976   0.571  0.9134  0.1438  0.4680
  280TMC3    C4 4279   2.777   1.876   0.331 -0.5231 -0.6322 -0.6622
  280TMC3    C5 4280   2.688   1.953   0.394 -0.4235 -0.1620  0.0977
  280TMC3    C6 4281   2.717   1.994   0.520  0.1677 -0.3211 -0.3996
  280TMC3     C 4282   2.995   1.796   0.318 -0.0356  0.4951 -0.4873
  280TMC3     O 4283   2.974   1.791   0.197  0.0093 -0.0589  0.0707
  280TMC3     H 4284   3.045   1.900   0.551  1.5621  1.9957 -1.0652
  280TMC3    H1 4285   2.748   1.819   0.243  0.3766 -1.2230 -0.5791
  280TMC3    H2 4286   2.640   2.032   0.585 -0.9875 -1.2758 -1.2007
  280TMC3    C7 4287   2.545   1.907   0.380 -0.0466  0.3067  0.0972
  280TMC3    C8 4288   2.864   2.040   0.697  0.5070  0.2915 -0.4652
  280TMC3    O1 4289   2.504   1.840   0.475  0.0753 -0.0558  0.2273
  280TMC3    O2 4290   2.802   2.148   0.716 -0.4522 -0.2010 -0.4367
  281TMC3    C1 4291   2.156   1.964  13.245 -0.2440 -0.5803  0.0017
  281TMC3    C2 4292   2.138   1.880  13.134  0.9240  0.2154 -0.4187
  281TMC3    C3 4293   2.063   1.767  13.152  0.7534 -0.3698  0.0434
  281TMC3    C4 4294   2.124   1.932  13.371  0.3127 -0.2498  0.5021
  281TMC3    C5 4295   2.054   1.810  13.382 -0.3272  0.0615 -0.2662
  281TMC3    C6 4296   2.016   1.729  13.275 -0.4896  0.5652 -0.0637
  281TMC3     C 4297   2.118   2.101  13.204 -0.0934 -0.5409  0.5468
  281TMC3     O 4298   2.178   2.149  13.107  0.2472 -0.5079  0.2624
  281TMC3     H 4299   2.185   1.902  13.039  0.5281  0.0277 -0.6603
  281TMC3    H1 4300   2.129   2.001  13.454 -2.3818  1.1382 -0.4770
  281TMC3    H2 4301   1.949   1.644  13.282  1.0413 -0.6006  0.6046
  281TMC3    C7 4302   2.032   1.759  13.514 -0.5869 -0.4144 -0.6882
  281TMC3    C8 4303   1.962   1.762  13.043  0.3720  0.3300 -0.7447
  281TMC3    O1 4304   2.066   1.832  13.608 -0.5934  0.2330 -0.4007
  281TMC3    O2 4305   1.889   1.664  13.040 -0.0036  0.2991 -0.0407
  282MPD2     C 4306   3.979   3.212  14.979  0.2714 -0.3678 -0.6017
  282MPD2    C1 4307   3.879   3.134  15.021  0.5786 -0.1593 -0.4584
  282MPD2    C2 4308   3.794   3.078  14.925  0.5949 -0.3838  0.2825
  282MPD2    C3 4309   3.809   3.096  14.790  0.3246 -0.3882  0.4880
  282MPD2    C4 4310   3.916   3.176  14.750  0.9068  0.1043 -0.1207
  282MPD2    C5 4311   4.004   3.230  14.846 -0.1893 -0.5162 -0.5146
  282MPD2     H 4312   3.709   3.022  14.964 -0.2335  1.2436  0.8000
  282MPD2    H1 4313   3.936   3.200  14.646  1.0941 -0.2663 -0.1687
  282MPD2    H2 4314   4.048   3.261  15.046 -1.4302  0.4568  0.5467
  282MPD2    H3 4315   4.086   3.288  14.807  0.0607  0.6691  1.7421
  282MPD2     N 4316   3.719   3.044  14.693 -0.3855  0.5673 -0.5150
  282MPD2    H5 4317   3.626   3.021  14.727 -1.0189  0.6970 -2.1575
  282MPD2    N1 4318   3.833   3.119  15.155 -0.1619 -0.3709  0.3132
  282MPD2    H7 4319   3.743   3.076  15.172 -0.9231  1.0064 -0.2148
  283TMC3    C1 4320   3.815   3.171  15.392  0.4583 -0.1826  0.8309
  283TMC3    C2 4321   3.818   3.278  15.475  0.5507 -0.0140 -0.0287
  283TMC3    C3 4322   3.753   3.265  15.593  0.3154  0.1448  0.4995
  283TMC3    C4 4323   3.741   3.055  15.419  0.1174  0.1053  0.4261
  283TMC3    C5 4324   3.674   3.048  15.536 -0.2738 -0.0153 -0.1501
  283TMC3    C6 4325   3.687   3.157  15.630  0.2727 -0.7870  0.2134
  283TMC3     C 4326   3.883   3.201  15.258  0.0242  0.2861 -0.4535
  283TMC3     O 4327   3.972   3.288  15.267 -0.0487  0.4586 -0.3688
  283TMC3     H 4328   3.864   3.373  15.448  0.1944  0.2460  0.2683
  283TMC3    H1 4329   3.738   2.965  15.357 -1.6883 -0.8904  1.9389
  283TMC3    H2 4330   3.624   3.152  15.717 -1.3943  1.4231 -0.8535
  283TMC3    C7 4331   3.579   2.952  15.576  0.5511  0.0609  0.1716
  283TMC3    C8 4332   3.784   3.354  15.698  0.2773 -0.1773 -0.2345
  283TMC3    O1 4333   3.546   2.942  15.692  0.2327  0.7444  0.0797
  283TMC3    O2 4334   3.800   3.308  15.810  0.6160  0.5387 -0.7150
  284MPD2     C 4335   1.978   2.096  12.029  0.3370 -0.6479 -0.0810
  284MPD2    C1 4336   2.106   2.048  12.009  0.3886  0.3123  0.3236
  284MPD2    C2 4337   2.150   1.939  12.081 -0.2057 -0.3666 -0.3002
  284MPD2    C3 4338   2.072   1.858  12.157  1.0056  0.0089  0.2280
  284MPD2    C4 4339   1.941   1.900  12.170 -0.2521  0.1114  0.8299
  284MPD2    C5 4340   1.898   2.014  12.107  0.2251 -0.1792 -0.5347
  284MPD2     H 4341   2.253   1.918  12.056  0.2410  2.9204 -1.1408
  284MPD2    H1 4342   1.880   1.850  12.244  0.3425 -2.6645 -0.5261
  284MPD2    H2 4343   1.943   2.192  11.992  0.3213 -0.5730  0.1271
  284MPD2    H3 4344   1.796   2.049  12.123  0.1827 -1.6651  2.5773
  284MPD2     N 4345   2.134   1.754  12.231 -0.2725 -0.1244 -0.4948
  284MPD2    H5 4346   2.235   1.751  12.221 -0.0699 -0.1653  1.6692
  284MPD2    N1 4347   2.203   2.123  11.939 -0.1184  0.1253 -0.1630
  284MPD2    H7 4348   2.303   2.108  11.945 -0.1521  0.1508  0.4206
  285TMC3    C1 4349   2.289   2.243  11.759 -0.2723 -0.0389 -0.5272
  285TMC3    C2 4350   2.378   2.143  11.750 -0.5175 -0.2365  0.2653
  285TMC3    C3 4351   2.458   2.135  11.639 -0.2895 -0.3798  0.0858
  285TMC3    C4 4352   2.274   2.344  11.666 -0.0214 -0.1788  0.1855
  285TMC3    C5 4353   2.352   2.326  11.559 -0.5246 -0.2384 -0.2944
  285TMC3    C6 4354   2.447   2.225  11.543  0.9221  0.1889 -0.2839
  285TMC3     C 4355   2.176   2.221  11.846  0.4403  0.2403 -0.0286
  285TMC3     O 4356   2.071   2.281  11.821  0.1289 -0.1352 -0.2741
  285TMC3     H 4357   2.396   2.065  11.823  0.3269 -0.8452 -0.6081
  285TMC3    H1 4358   2.195   2.418  11.674 -0.0353 -0.3042  1.2676
  285TMC3    H2 4359   2.516   2.228  11.459  0.9948  4.9194 -0.0202
  285TMC3    C7 4360   2.327   2.400  11.435  0.0610  0.7597  0.6385
  285TMC3    C8 4361   2.476   1.997  11.603  0.2796 -0.6515 -0.5361
  285TMC3    O1 4362   2.423   2.421  11.362  0.3384 -0.7126  0.2899
  285TMC3    O2 4363   2.393   1.921  11.647  0.2207 -0.4158 -0.7002
  286MPD2     C 4364   2.224   1.260   1.129 -0.0765 -0.5112  0.1405
  286MPD2    C1 4365   2.174   1.251   1.001 -0.1309  0.1572 -0.0243
  286MPD2    C2 4366   2.227   1.148   0.914  0.1073  0.0398 -0.2047
  286MPD2    C3 4367   2.320   1.056   0.960  0.7273  0.1409 -0.7750
  286MPD2    C4 4368   2.344   1.060   1.093 -0.3198  0.6689 -0.0338
  286MPD2    C5 4369   2.297   1.160   1.180 -1.2858  0.3442  0.0743
  286MPD2     H 4370   2.195   1.148   0.810 -1.3321  1.4126  0.2503
  286MPD2    H1 4371   2.414   0.989   1.135  1.2102  2.5875  0.7258
  286MPD2    H2 4372   2.176   1.328   1.199 -0.4734 -0.3716 -0.2693
  286MPD2    H3 4373   2.313   1.161   1.287  0.8842 -2.4750 -0.2376
  286MPD2     N 4374   2.394   0.959   0.889 -0.0773 -0.0050  0.1687
  286MPD2    H5 4375   2.447   0.892   0.944 -0.5038 -0.6010 -0.1453
  286MPD2    N1 4376   2.062   1.324   0.959  0.1452 -0.2176 -0.6030
  286MPD2    H7 4377   2.020   1.378   1.034 -0.3266 -2.2638  0.6046
  287TMC3    C1 4378   2.443   0.820   0.695 -0.1719 -0.2296  0.3235
  287TMC3    C2 4379   2.402   0.773   0.573 -0.6084 -0.0796 -0.3579
  287TMC3    C3 4380   2.461   0.655   0.523 -0.6892  0.0300 -0.4233
  287TMC3    C4 4381   2.541   0.756   0.760  1.1104 -0.2219  0.7531
  287TMC3    C5 4382   2.590   0.637   0.718 -0.6645 -0.7478  0.2066
  287TMC3    C6 4383   2.549   0.584   0.597 -0.5043 -0.5804 -0.1118
  287TMC3     C 4384   2.371   0.927   0.749  0.0337 -1.2732 -0.1058
  287TMC3     O 4385   2.281   0.977   0.675  0.0132  0.2109  0.0560
  287TMC3     H 4386   2.329   0.831   0.518  0.2128 -0.6469 -2.0416
  287TMC3    H1 4387   2.570   0.791   0.859  2.0736 -0.2370  0.4772
  287TMC3    H2 4388   2.594   0.493   0.560  1.3336  0.3263 -0.1201
  287TMC3    C7 4389   2.695   0.568   0.789 -0.2735  0.1190 -0.2074
  287TMC3    C8 4390   2.433   0.598   0.396  0.0118 -0.3161 -0.1974
  287TMC3    O1 4391   2.776   0.633   0.859 -0.8631  0.0820  0.4368
  287TMC3    O2 4392   2.443   0.474   0.384 -0.1565  0.4589  0.0407
  288TMC3    C1 4393   3.729   0.666  14.254 -0.0988  0.9141  0.6680
  288TMC3    C2 4394   3.705   0.694  14.394  0.4893  0.4374  0.5707
  288TMC3    C3 4395   3.596   0.638  14.450  0.5832 -0.5189  0.2055
  288TMC3    C4 4396   3.647   0.584  14.181  0.3172  0.2828 -0.2942
  288TMC3    C5 4397   3.537   0.541  14.251  0.2217  0.4249 -0.5725
  288TMC3    C6 4398   3.506   0.571  14.380  0.7000  0.1475  0.5930
  288TMC3     C 4399   3.851   0.724  14.202  0.1604  0.5577  0.8751
  288TMC3     O 4400   3.897   0.828  14.248 -0.5458 -0.0002 -0.3269
  288TMC3     H 4401   3.772   0.756  14.452  0.4747 -0.7932  1.9034
  288TMC3    H1 4402   3.670   0.564  14.077 -2.4607 -1.0976 -0.6606
  288TMC3    H2 4403   3.422   0.523  14.430  1.3051  1.2763  2.6914
  288TMC3    C7 4404   3.432   0.482  14.168  0.4394 -0.4956 -0.4247
  288TMC3    C8 4405   3.564   0.681  14.580  0.3485  0.1701  0.8033
  288TMC3    O1 4406   3.327   0.454  14.229 -0.7771 -0.4274 -0.2260
  288TMC3    O2 4407   3.578   0.799  14.612 -0.0275  0.0580  0.1275
  289MPD2     C 4408   3.982   0.005  14.218 -0.1857 -0.7733  0.0295
  289MPD2    C1 4409   3.911   0.117  14.257 -0.1526  0.1239  0.1735
  289MPD2    C2 4410   3.774   0.113  14.268 -0.0839 -0.7154  0.0521
  289MPD2    C3 4411   3.702   4.740  14.239  0.1749 -0.1382 -0.0536
  289MPD2    C4 4412   3.770   4.637  14.187  0.9511  0.3350 -0.6322
  289MPD2    C5 4413   3.906   4.639  14.173  0.3232  0.0106 -0.1276
  289MPD2     H 4414   3.735   0.208  14.302 -0.9384 -1.6763  1.7588
  289MPD2    H1 4415   3.717   4.549  14.153  0.7432  0.6711 -1.1738
  289MPD2    H2 4416   4.090   4.734  14.216 -0.1740 -0.5811 -0.5283
  289MPD2    H3 4417   3.959   4.567  14.112 -0.9674 -1.5187  0.5709
  289MPD2     N 4418   3.562   4.723  14.252 -0.2721 -0.0470 -0.3350
  289MPD2    H5 4419   3.521   4.633  14.231  0.8126 -0.7776  0.6453
  289MPD2    N1 4420   3.998   0.227  14.281 -0.1721 -0.6910  0.2759
  289MPD2    H7 4421   4.097   0.206  14.278 -0.2697 -0.9024 -1.4009
  290TMC3    C1 4422   3.332   0.043  14.267 -0.7414  0.1411  0.6651
  290TMC3    C2 4423   3.249   0.134  14.210  0.3269 -0.2088  0.3771
  290TMC3    C3 4424   3.116   0.095  14.203  0.1801 -0.1983  0.5271
  290TMC3    C4 4425   3.294   4.653  14.309 -0.0329 -0.6318  0.1459
  290TMC3    C5 4426   3.159   4.627  14.293 -0.3794  0.5995  0.4382
  290TMC3    C6 4427   3.072   4.722  14.258  0.2101  0.4116  0.0865
  290TMC3     C 4428   3.474   0.085  14.271  1.1221 -0.7707 -0.0636
  290TMC3     O 4429   3.500   0.204  14.279 -0.3088 -0.0180 -0.1663
  290TMC3     H 4430   3.281   0.233  14.179  0.3384 -0.1192  0.6799
  290TMC3    H1 4431   3.369   4.588  14.355 -0.3349 -0.7671  0.4471
  290TMC3    H2 4432   2.966   4.702  14.265 -0.1123  0.7754 -3.6332
  290TMC3    C7 4433   3.097   4.514  14.367  0.3074  0.5510  0.2903
  290TMC3    C8 4434   3.010   0.196  14.198  0.3865 -0.9551 -0.4058
  290TMC3    O1 4435   2.974   4.521  14.377  0.3112  0.6959 -0.2190
  290TMC3    O2 4436   2.895   0.163  14.171  0.2654  0.1565  0.2838
  291MPD2     C 4437   2.929   0.336   0.164 -0.4442 -0.8305  0.3997
  291MPD2    C1 4438   3.047   0.272   0.202 -0.6668  0.0184 -0.0817
  291MPD2    C2 4439   3.157   0.350   0.244  0.0024 -0.1895 -0.4587
  291MPD2    C3 4440   3.158   0.486   0.235 -0.2697 -0.6237  0.7098
  291MPD2    C4 4441   3.042   0.547   0.195  0.9302  0.3862 -0.5173
  291MPD2    C5 4442   2.928   0.473   0.155 -0.1205  0.3175 -0.1511
  291MPD2     H 4443   3.241   0.302   0.293 -0.8400  1.1681  2.2919
  291MPD2    H1 4444   3.041   0.655   0.187 -0.7772  0.4476  0.4451
  291MPD2    H2 4445   2.836   0.283   0.151 -0.1797 -1.1999  0.0235
  291MPD2    H3 4446   2.839   0.522   0.119 -1.3431  0.6407  3.2579
  291MPD2     N 4447   3.272   0.558   0.275  0.0437  0.1757 -0.0120
  291MPD2    H5 4448   3.274   0.660   0.276  2.7346  0.1288 -0.8532
  291MPD2    N1 4449   3.053   0.133   0.207  0.3400  0.1879 -0.1157
  291MPD2    H7 4450   3.137   0.093   0.249 -0.3800 -0.0855  1.0692
  292TMC3    C1 4451   2.982   4.643   0.202  0.1567 -1.0091  0.4321
  292TMC3    C2 4452   3.039   4.623   0.329 -0.3714 -0.8913  0.0305
  292TMC3    C3 4453   3.025   4.492   0.380  0.9549  0.5693 -0.3293
  292TMC3    C4 4454   2.911   4.553   0.135 -0.4108 -0.2612 -0.4351
  292TMC3    C5 4455   2.894   4.433   0.197  0.5521  0.3567 -0.0829
  292TMC3    C6 4456   2.956   4.394   0.315 -0.1454  0.2729 -0.4848
  292TMC3     C 4457   2.956   0.041   0.165 -0.3513 -0.2960  0.5547
  292TMC3     O 4458   2.860   0.068   0.093  0.2965  0.0148  0.0829
  292TMC3     H 4459   3.090   4.704   0.379 -0.4820 -0.9628  0.2565
  292TMC3    H1 4460   2.880   4.567   0.032 -2.0762 -0.5069  0.0337
  292TMC3    H2 4461   2.952   4.292   0.352  0.4323 -0.6009 -2.8888
  292TMC3    C7 4462   2.833   4.323   0.118  0.4445 -0.4052 -0.7247
  292TMC3    C8 4463   3.084   4.475   0.509  0.4407 -0.2162 -0.2238
  292TMC3    O1 4464   2.854   4.207   0.148 -0.9843 -0.2464  0.5507
  292TMC3    O2 4465   3.206   4.487   0.518 -0.1851  0.0756 -0.7721
  293MPD2     C 4466   0.467   1.041  12.203  0.1069  0.1078  0.6307
  293MPD2    C1 4467   0.368   1.005  12.296 -0.4787  0.1143  0.4573
  293MPD2    C2 4468   0.372   1.059  12.422  1.2190  0.3113 -0.1100
  293MPD2    C3 4469   0.488   1.127  12.463 -0.0760 -0.2995 -1.2777
  293MPD2    C4 4470   0.594   1.140  12.379  0.1287  0.0060  0.0249
  293MPD2    C5 4471   0.579   1.104  12.246  0.5267 -0.7940 -0.0534
  293MPD2     H 4472   0.285   1.054  12.487  0.4439  0.1855 -1.1727
  293MPD2    H1 4473   0.683   1.195  12.404 -1.0000  1.7419  0.2079
  293MPD2    H2 4474   0.456   1.008  12.100  1.5032 -0.0387  0.5342
  293MPD2    H3 4475   0.657   1.127  12.174 -1.8466  2.2591 -1.6361
  293MPD2     N 4476   0.487   1.186  12.587 -0.4028 -0.3829  0.1127
  293MPD2    H5 4477   0.416   1.162  12.656  1.2066  0.9251  2.2526
  293MPD2    N1 4478   0.250   0.941  12.248  0.5846 -0.8468 -0.2627
  293MPD2    H7 4479   0.242   0.917  12.150  0.3256  2.4836 -1.0470
  294TMC3    C1 4480   0.029   0.851  12.241 -0.7156 -0.4841 -0.3986
  294TMC3    C2 4481   4.665   0.791  12.312 -0.1707 -0.0033  0.3938
  294TMC3    C3 4482   4.561   0.741  12.232 -0.7071  0.5379  0.1504
  294TMC3    C4 4483   0.023   0.854  12.104  0.1732  0.8995 -0.2977
  294TMC3    C5 4484   4.658   0.807  12.036  0.3678 -0.7293 -0.0529
  294TMC3    C6 4485   4.556   0.748  12.098  0.7417  0.1999  0.4581
  294TMC3     C 4486   0.144   0.884  12.316 -0.8585  0.1676  0.2596
  294TMC3     O 4487   0.137   0.875  12.438  0.0034  0.1808 -0.7065
  294TMC3     H 4488   4.654   0.783  12.419  0.4054 -1.1139  0.3732
  294TMC3    H1 4489   0.106   0.895  12.049  0.8692 -0.0492  0.0514
  294TMC3    H2 4490   4.456   0.751  12.056  0.4437 -0.3975  1.1455
  294TMC3    C7 4491   4.650   0.852  11.899 -0.8004  0.3563 -0.7008
  294TMC3    C8 4492   4.474   0.646  12.304 -0.1020  0.5337  0.2302
  294TMC3    O1 4493   4.560   0.931  11.863  0.3859 -0.1994 -0.3609
  294TMC3    O2 4494   4.462   0.664  12.422  0.0666  0.6222  0.0102
  295MPD2     C 4495   0.869   4.554   0.535  0.4721 -0.7205  0.1037
  295MPD2    C1 4496   0.764   4.481   0.568 -0.4194 -0.3040  0.0441
  295MPD2    C2 4497   0.781   4.352   0.632 -0.3240 -0.0405  0.1100
  295MPD2    C3 4498   0.911   4.305   0.662 -0.8818 -0.0655 -0.2900
  295MPD2    C4 4499   1.016   4.381   0.621 -0.0973  0.2627  0.3684
  295MPD2    C5 4500   0.996   4.503   0.558 -0.3268  0.3321  0.0267
  295MPD2     H 4501   0.688   4.305   0.664 -0.2532 -1.6933 -2.1146
  295MPD2    H1 4502   1.118   4.357   0.650  0.7572  3.1565 -0.3152
  295MPD2    H2 4503   0.858   4.655   0.496  0.0385 -0.0479  1.9842
  295MPD2    H3 4504   1.084   4.565   0.546  0.4793 -1.0047 -0.9845
  295MPD2     N 4505   0.941   4.175   0.710  0.0051  0.2311 -0.2686
  295MPD2    H5 4506   1.038   4.163   0.735  0.2523 -1.0216 -1.8918
  295MPD2    N1 4507   0.628   4.518   0.536 -0.9394  0.9516  0.5387
  295MPD2    H7 4508   0.559   4.444   0.532  0.0541  0.1060 -1.3884
  296TMC3    C1 4509   0.919   3.941   0.781  0.1542  0.0884  0.2253
  296TMC3    C2 4510   1.039   3.929   0.837  0.2357  0.6755 -0.1879
  296TMC3    C3 4511   1.108   3.806   0.834  0.1081 -0.1475 -0.2371
  296TMC3    C4 4512   0.868   3.834   0.711  0.1120  0.6245  0.1605
  296TMC3    C5 4513   0.937   3.717   0.701  0.3958  0.3846  0.3526
  296TMC3    C6 4514   1.056   3.701   0.761 -0.0731 -0.4658  0.2892
  296TMC3     C 4515   0.852   4.072   0.735 -0.1258 -0.1662  0.3133
  296TMC3     O 4516   0.732   4.069   0.700 -0.2533  0.4650  0.4878
  296TMC3     H 4517   1.070   4.003   0.909 -0.5595 -0.4774  1.3367
  296TMC3    H1 4518   0.774   3.844   0.658 -0.3012  0.0900  0.7839
  296TMC3    H2 4519   1.107   3.606   0.750  0.5880  0.0696 -1.2453
  296TMC3    C7 4520   0.889   3.642   0.597  0.2920 -0.3813 -0.0976
  296TMC3    C8 4521   1.247   3.787   0.889  0.3918 -0.2752  0.0965
  296TMC3    O1 4522   0.859   3.706   0.495  0.2526  0.3673 -0.0075
  296TMC3    O2 4523   1.291   3.674   0.877 -0.1264  0.0706  0.3828
  297MPD2     C 4524   2.739   1.795  15.961 -0.9865  0.4657  0.1594
  297MPD2    C1 4525   2.664   1.903  15.925 -0.0181 -0.4753 -0.5764
  297MPD2    C2 4526   2.716   2.029  15.925 -0.2515  0.2736  0.7241
  297MPD2    C3 4527   2.848   2.055  15.948 -0.1621  0.1402  0.5879
  297MPD2    C4 4528   2.922   1.948  15.995  0.4057  0.4109  0.3885
  297MPD2    C5 4529   2.867   1.821  16.003  0.0206  0.2029  0.2130
  297MPD2     H 4530   2.654   2.114  15.899 -0.5134 -0.2171 -0.2897
  297MPD2    H1 4531   3.020   1.964  16.038  1.0862  2.4670 -1.9419
  297MPD2    H2 4532   2.697   1.695  15.967 -0.7799  0.5150  2.5166
  297MPD2    H3 4533   2.934   1.743  16.037 -0.7920 -0.7125 -0.2821
  297MPD2     N 4534   2.903   2.185  15.931 -0.0217  0.2008 -0.2861
  297MPD2    H5 4535   2.850   2.259  15.886 -0.8641 -0.1659  0.0789
  297MPD2    N1 4536   2.526   1.880  15.885 -0.1508  0.3462 -0.5889
  297MPD2    H7 4537   2.469   1.963  15.868 -0.8143  0.0110 -0.0094
  298TMC3    C1 4538   2.337   1.776  15.808  0.6529 -0.6067 -0.4200
  298TMC3    C2 4539   2.319   1.766  15.668  0.1037  0.5844  0.7012
  298TMC3    C3 4540   2.234   1.860  15.613  0.5935 -0.4378  0.3365
  298TMC3    C4 4541   2.276   1.875  15.882 -0.5846  0.4286  0.3419
  298TMC3    C5 4542   2.198   1.964  15.817 -0.0076 -0.1447 -0.6781
  298TMC3    C6 4543   2.165   1.956  15.686  0.5437  0.1243 -0.0796
  298TMC3     C 4544   2.477   1.757  15.836 -0.1336  0.0054  0.4588
  298TMC3     O 4545   2.537   1.655  15.804  0.4460  0.0638  0.1437
  298TMC3     H 4546   2.369   1.690  15.609 -0.2719 -1.1267  2.5814
  298TMC3    H1 4547   2.310   1.900  15.982  0.3653 -1.0021  0.3778
  298TMC3    H2 4548   2.116   2.038  15.635 -2.0171 -0.5449  1.2948
  298TMC3    C7 4549   2.150   2.077  15.899 -0.9178  0.4725  0.5537
  298TMC3    C8 4550   2.203   1.872  15.475  1.0626  0.5655 -0.3648
  298TMC3    O1 4551   2.177   2.076  16.017  0.3153  0.0403  0.3509
  298TMC3    O2 4552   2.093   1.911  15.450  0.2192  0.0455 -0.2301
  299MPD2     C 4553   3.092   1.068  11.075  0.1534 -0.3895  0.6789
  299MPD2    C1 4554   3.135   1.115  10.952  0.3033  0.0790  0.1130
  299MPD2    C2 4555   3.058   1.104  10.836  0.0759  0.3526  0.0125
  299MPD2    C3 4556   2.932   1.044  10.843 -0.1853  0.8978  0.0574
  299MPD2    C4 4557   2.893   1.006  10.970  0.0615  0.1356 -0.0498
  299MPD2    C5 4558   2.968   1.014  11.081 -0.6246  0.6316  0.4381
  299MPD2     H 4559   3.098   1.140  10.742 -0.4316 -1.2157 -0.8104
  299MPD2    H1 4560   2.798   0.956  10.985  0.4598 -1.5998 -3.2160
  299MPD2    H2 4561   3.146   1.076  11.168 -1.4626  0.4184  1.5414
  299MPD2    H3 4562   2.931   0.998  11.182  1.0710 -0.2212  0.9315
  299MPD2     N 4563   2.853   1.020  10.735  1.2340 -0.2182 -0.6995
  299MPD2    H5 4564   2.761   0.992  10.770  1.6745 -1.1529 -0.2805
  299MPD2    N1 4565   3.265   1.167  10.947 -0.2372 -0.3380 -0.0172
  299MPD2    H7 4566   3.323   1.145  11.027 -0.8551 -0.4474  0.3987
  300TMC3    C1 4567   2.773   1.029  10.504 -1.2332 -0.2357 -0.3042
  300TMC3    C2 4568   2.803   1.048  10.372 -0.1513 -0.6951  0.1859
  300TMC3    C3 4569   2.698   1.024  10.284  0.0946  0.3154  0.0338
  300TMC3    C4 4570   2.666   0.952  10.548  0.2835 -0.2334 -0.0769
  300TMC3    C5 4571   2.566   0.935  10.458  0.5147 -0.3863  0.0802
  300TMC3    C6 4572   2.578   0.959  10.324  0.2666  0.0586 -0.3610
  300TMC3     C 4573   2.885   1.032  10.599 -0.1852 -0.0010  0.0834
  300TMC3     O 4574   2.993   1.060  10.555  0.1906  0.1989 -0.2777
  300TMC3     H 4575   2.895   1.097  10.341 -1.0233  1.0629  0.3897
  300TMC3    H1 4576   2.655   0.911  10.648 -0.4195  0.4166  0.1146
  300TMC3    H2 4577   2.493   0.958  10.258  0.9005  0.3327 -1.1891
  300TMC3    C7 4578   2.433   0.896  10.501  0.2225 -0.0694  0.0327
  300TMC3    C8 4579   2.692   1.135  10.193  0.5013 -0.5780 -0.2365
  300TMC3    O1 4580   2.360   0.838  10.425  0.5724 -0.3502 -0.3111
  300TMC3    O2 4581   2.757   1.238  10.216  0.3614  0.2447  0.3395
  301MPD2     C 4582   0.716   2.266   0.450  0.1389  0.0633  0.0954
  301MPD2    C1 4583   0.580   2.297   0.458  0.1915  0.0239 -0.0361
  301MPD2    C2 4584   0.489   2.202   0.489 -0.2413  0.1660 -0.6618
  301MPD2    C3 4585   0.538   2.072   0.515  0.3314 -0.0197  0.2220
  301MPD2    C4 4586   0.671   2.032   0.496  0.5876  0.5139 -0.5409
  301MPD2    C5 4587   0.758   2.136   0.461 -0.0919 -0.4571  0.1394
  301MPD2     H 4588   0.389   2.239   0.508  0.1439  2.0555 -2.2653
  301MPD2    H1 4589   0.705   1.929   0.508 -0.1555  0.4639  1.1102
  301MPD2    H2 4590   0.790   2.342   0.429 -0.5799  0.1823 -2.0344
  301MPD2    H3 4591   0.864   2.114   0.460 -0.0684 -0.3943  0.9904
  301MPD2     N 4592   0.455   1.970   0.565  0.1978  0.4512  0.4251
  301MPD2    H5 4593   0.507   1.884   0.577 -0.1693  0.1119 -0.4083
  301MPD2    N1 4594   0.525   2.427   0.442 -0.1005  0.2576 -0.3580
  301MPD2    H7 4595   0.423   2.433   0.439  0.1381  3.5450 -1.6180
  302TMC3    C1 4596   0.275   1.884   0.692  1.2758  0.2887  0.3690
  302TMC3    C2 4597   0.356   1.782   0.731  0.0659  0.2671  0.3341
  302TMC3    C3 4598   0.313   1.702   0.835 -0.1094  0.3560  0.1573
  302TMC3    C4 4599   0.161   1.914   0.761  0.1794  0.3328  0.4820
  302TMC3    C5 4600   0.133   1.834   0.869  0.4143 -0.6241 -0.3870
  302TMC3    C6 4601   0.210   1.728   0.912 -0.1421  0.2648 -1.0639
  302TMC3     C 4602   0.324   1.984   0.598 -0.1584 -0.2271  0.0386
  302TMC3     O 4603   0.236   2.066   0.564  1.0851  0.1229  0.7132
  302TMC3     H 4604   0.449   1.761   0.680  0.6438  1.1787  1.0190
  302TMC3    H1 4605   0.106   2.003   0.735  0.5435  0.2462 -0.6303
  302TMC3    H2 4606   0.189   1.690   1.011 -0.7057 -3.3448 -2.5761
  302TMC3    C7 4607   0.009   1.865   0.950  0.7750 -0.5977  0.1300
  302TMC3    C8 4608   0.406   1.606   0.874  0.7886 -0.0186 -0.5149
  302TMC3    O1 4609   0.013   1.824   1.069  0.0837 -0.1484 -0.1370
  302TMC3    O2 4610   0.521   1.631   0.840  0.0121  0.2478 -0.0371
  303MPD2     C 4611   0.764   0.983  10.857 -0.6752 -0.0639  0.5186
  303MPD2    C1 4612   0.642   1.005  10.802  0.1662 -0.1166 -0.4077
  303MPD2    C2 4613   0.634   1.006  10.660  0.1044 -0.0535  0.3208
  303MPD2    C3 4614   0.748   1.004  10.575  0.4144 -0.4896  0.8537
  303MPD2    C4 4615   0.867   1.007  10.638  0.5860 -0.4509 -0.4783
  303MPD2    C5 4616   0.876   0.978  10.773 -0.2692  0.4632  0.4767
  303MPD2     H 4617   0.537   0.996  10.612  1.7486 -2.5297 -2.4966
  303MPD2    H1 4618   0.963   1.012  10.588  1.2657 -2.7230  0.5920
  303MPD2    H2 4619   0.782   0.983  10.964  1.9173 -0.2940  0.0893
  303MPD2    H3 4620   0.973   0.979  10.821  0.2990  0.2358 -0.6656
  303MPD2     N 4621   0.753   0.988  10.433 -0.3296  0.6320 -0.0711
  303MPD2    H5 4622   0.843   0.963  10.394  0.2482  3.3055 -0.4967
  303MPD2    N1 4623   0.525   1.005  10.890  0.6062  0.4525 -0.4962
  303MPD2    H7 4624   0.529   0.992  10.991 -0.9384  0.5165 -0.4343
  304TMC3    C1 4625   0.298   1.026  10.941  0.4297 -0.1722 -0.5269
  304TMC3    C2 4626   0.179   1.081  10.909  0.0505 -0.0354  0.0360
  304TMC3    C3 4627   0.070   1.051  10.984  0.7978  0.3656 -0.1318
  304TMC3    C4 4628   0.306   0.922  11.032  0.6290  0.2910 -0.0772
  304TMC3    C5 4629   0.196   0.896  11.110 -0.6011  0.1537  0.3321
  304TMC3    C6 4630   0.082   0.967  11.088 -0.3099  0.6470  0.0026
  304TMC3     C 4631   0.404   1.048  10.843  0.3169  0.0311 -0.4758
  304TMC3     O 4632   0.375   1.095  10.737  0.6769  0.7430 -0.0078
  304TMC3     H 4633   0.180   1.167  10.843 -1.7992  0.3573  0.5186
  304TMC3    H1 4634   0.386   0.849  11.040 -0.8412 -1.3166 -0.0199
  304TMC3    H2 4635   4.738   0.958  11.156 -1.0900 -1.0867 -1.1858
  304TMC3    C7 4636   0.177   0.756  11.128 -0.5631  0.4136 -0.8938
  304TMC3    C8 4637   4.696   1.007  10.903  0.0969  0.3236 -0.5168
  304TMC3    O1 4638   0.275   0.692  11.171 -0.2359 -0.6413 -0.5249
  304TMC3    O2 4639   4.659   0.899  10.946  0.3949  0.0686 -0.0576
  305MPD2     C 4640   3.539   2.784  13.698  0.5817  0.3215  0.6472
  305MPD2    C1 4641   3.607   2.914  13.696 -0.2681  0.2702 -0.7713
  305MPD2    C2 4642   3.599   2.980  13.573  0.2477 -0.5576 -0.4276
  305MPD2    C3 4643   3.537   2.925  13.463  0.1069  0.0550  0.5585
  305MPD2    C4 4644   3.474   2.803  13.473 -0.9167 -0.4176  0.3422
  305MPD2    C5 4645   3.474   2.732  13.590  0.2176  0.0273 -0.1956
  305MPD2     H 4646   3.643   3.079  13.564  1.0095 -1.0706 -2.4294
  305MPD2    H1 4647   3.428   2.755  13.388 -0.3502  1.3575 -0.9535
  305MPD2    H2 4648   3.542   2.719  13.785 -0.3684 -0.6757 -0.0664
  305MPD2    H3 4649   3.424   2.636  13.591 -2.2384  1.2960 -0.7417
  305MPD2     N 4650   3.528   2.978  13.338  0.6981  0.2350 -0.2675
  305MPD2    H5 4651   3.475   2.925  13.271  1.7044 -0.5374 -0.4575
  305MPD2    N1 4652   3.682   2.958  13.811 -0.1065  0.2900 -0.2336
  305MPD2    H7 4653   3.686   2.888  13.884  0.6702  2.2201  1.5579
  306TMC3    C1 4654   3.795   3.091  13.954 -0.4477  0.6357 -0.2218
  306TMC3    C2 4655   3.897   2.996  13.961  0.3999  0.0070 -0.5045
  306TMC3    C3 4656   3.963   2.991  14.082  0.3122  0.5434 -0.3662
  306TMC3    C4 4657   3.777   3.188  14.045  0.8588 -0.0279  0.6157
  306TMC3    C5 4658   3.862   3.190  14.160 -0.0054  0.3303 -0.8417
  306TMC3    C6 4659   3.942   3.083  14.187  0.2616  0.3546  0.0856
  306TMC3     C 4660   3.710   3.092  13.836  0.0690  0.1837 -0.1511
  306TMC3     O 4661   3.664   3.195  13.792 -0.1521  0.2195  0.7001
  306TMC3     H 4662   3.920   2.922  13.885  0.1438 -2.3548  1.6954
  306TMC3    H1 4663   3.718   3.276  14.027  1.6951  0.8917  2.3847
  306TMC3    H2 4664   3.992   3.077  14.283  1.7309  1.6527 -0.5915
  306TMC3    C7 4665   3.803   3.253  14.283  0.5149 -0.5073 -0.8087
  306TMC3    C8 4666   4.026   2.858  14.110  0.3293 -0.2836 -0.3082
  306TMC3    O1 4667   3.693   3.204  14.309  0.1535  0.1830 -0.2950
  306TMC3    O2 4668   4.015   2.774  14.023 -0.0283 -0.5291  0.6486
  307MPD2     C 4669   1.519   1.013   0.245 -0.9203  0.3168  0.4091
  307MPD2    C1 4670   1.459   1.129   0.189  0.1279 -1.1103 -0.0017
  307MPD2    C2 4671   1.358   1.191   0.263  0.2684  0.0954 -0.0460
  307MPD2    C3 4672   1.302   1.138   0.376 -0.1457  0.6204 -0.0891
  307MPD2    C4 4673   1.352   1.021   0.423  0.2653  0.0930  0.3320
  307MPD2    C5 4674   1.463   0.964   0.360  0.2848 -0.0258  0.6002
  307MPD2     H 4675   1.316   1.282   0.223  0.2496  0.2432  0.3082
  307MPD2    H1 4676   1.310   0.975   0.512 -2.0967  0.1287 -0.7465
  307MPD2    H2 4677   1.594   0.961   0.187  0.6751 -0.7016  3.4219
  307MPD2    H3 4678   1.507   0.876   0.405  2.9443  1.1462  0.3074
  307MPD2     N 4679   1.190   1.209   0.442  0.0624  0.7301 -0.1195
  307MPD2    H5 4680   1.155   1.291   0.394  1.0551 -0.2068 -2.4319
  307MPD2    N1 4681   1.486   1.186   0.065 -0.6666  0.3300 -0.1068
  307MPD2    H7 4682   1.452   1.279   0.042 -2.1297  0.5687  3.0930
  308TMC3    C1 4683   0.794   1.283   0.427  0.4810  0.0652  0.5364
  308TMC3    C2 4684   0.821   1.415   0.400  0.6848 -0.0735  0.5823
  308TMC3    C3 4685   0.938   1.462   0.462 -0.3634  0.5030  0.2838
  308TMC3    C4 4686   0.867   1.205   0.514 -0.5982 -0.0579 -0.9639
  308TMC3    C5 4687   0.986   1.254   0.555 -0.2369  0.0288  0.4228
  308TMC3    C6 4688   1.026   1.382   0.525 -0.7027 -0.0454  0.5941
  308TMC3     C 4689   0.697   1.210   0.346  0.1335 -0.1041 -0.2607
  308TMC3     O 4690   0.691   1.088   0.352 -0.4046 -0.0132 -0.5646
  308TMC3     H 4691   0.765   1.478   0.331 -1.3000 -1.6127  0.7680
  308TMC3    H1 4692   0.838   1.103   0.537  2.1358 -0.3694  1.1870
  308TMC3    H2 4693   1.121   1.427   0.552  0.4163 -0.3537 -2.8418
  308TMC3    C7 4694   1.097   1.161   0.536 -0.6829 -0.2833  0.1008
  308TMC3    C8 4695   0.969   1.596   0.429 -0.2549  0.3072  0.4013
  308TMC3    O1 4696   1.078   1.047   0.576  0.3970 -0.5003  0.0730
  308TMC3    O2 4697   0.958   1.628   0.313 -0.5373 -0.3565  0.0532
  309MPD2     C 4698   0.602   1.646  16.786 -0.1054  0.8456 -0.4925
  309MPD2    C1 4699   0.605   1.743  16.684 -0.7619 -0.3358  0.3636
  309MPD2    C2 4700   0.492   1.825  16.681  0.0983 -0.8540 -0.0185
  309MPD2    C3 4701   0.382   1.809  16.763  0.2195  0.2999  0.4005
  309MPD2    C4 4702   0.385   1.709  16.852  0.2030  0.1794  0.3317
  309MPD2    C5 4703   0.494   1.634  16.866 -0.7616 -0.3586  0.3010
  309MPD2     H 4704   0.489   1.905  16.608  2.2083 -0.6894  0.0825
  309MPD2    H1 4705   0.300   1.692  16.919  0.6612  0.0194  0.8719
  309MPD2    H2 4706   0.692   1.587  16.796 -1.8999 -1.6283  0.7420
  309MPD2    H3 4707   0.499   1.547  16.930 -3.3318 -0.7098  0.0053
  309MPD2     N 4708   0.271   1.894  16.759 -0.2127  0.1438  1.0984
  309MPD2    H5 4709   0.195   1.869  16.821  0.7079  0.4284  2.3482
  309MPD2    N1 4710   0.715   1.773  16.602 -0.6304  0.0808  0.2223
  309MPD2    H7 4711   0.709   1.850  16.537 -1.4299  0.2579  0.5068
  310TMC3    C1 4712   0.919   1.720  16.499  0.0831 -0.7217  0.4076
  310TMC3    C2 4713   0.857   1.725  16.378 -0.4158 -0.2710 -0.0611
  310TMC3    C3 4714   0.933   1.713  16.266  0.2061 -0.0501  0.5856
  310TMC3    C4 4715   1.048   1.683  16.509  0.5415  0.0230 -0.3842
  310TMC3    C5 4716   1.122   1.669  16.399 -0.2695  0.4138 -0.3686
  310TMC3    C6 4717   1.071   1.679  16.273 -0.2059  0.2729 -0.3989
  310TMC3     C 4718   0.833   1.710  16.611 -0.8045 -0.1577 -0.3966
  310TMC3     O 4719   0.872   1.632  16.698 -0.1082  0.0542 -0.2247
  310TMC3     H 4720   0.755   1.758  16.357 -0.7237 -0.2359  1.4759
  310TMC3    H1 4721   1.099   1.681  16.605  0.7077  0.2264 -0.4684
  310TMC3    H2 4722   1.125   1.642  16.187  0.7565  0.3942  0.1607
  310TMC3    C7 4723   1.259   1.626  16.407 -0.2228 -0.0805 -0.8526
  310TMC3    C8 4724   0.867   1.740  16.139 -0.1577 -0.0252  0.5226
  310TMC3    O1 4725   1.294   1.556  16.495  0.0329  0.0298 -0.0466
  310TMC3    O2 4726   0.746   1.728  16.128  0.3714  0.2074  0.4086
  311MPD2     C 4727   2.696   2.390  12.395 -0.2176  0.0481 -0.4667
  311MPD2    C1 4728   2.683   2.501  12.473 -0.3813 -0.4204 -0.0221
  311MPD2    C2 4729   2.597   2.497  12.583 -0.8547  0.3797 -0.3090
  311MPD2    C3 4730   2.533   2.375  12.609  0.0449 -0.6219 -0.3691
  311MPD2    C4 4731   2.563   2.259  12.542  0.8445  0.1543 -0.7593
  311MPD2    C5 4732   2.653   2.266  12.438 -0.5552 -0.0266 -0.9315
  311MPD2     H 4733   2.581   2.587  12.642  0.2143 -0.4430  1.2330
  311MPD2    H1 4734   2.522   2.166  12.580  2.0178 -0.6045 -1.3651
  311MPD2    H2 4735   2.749   2.389  12.300 -0.0904  1.0789 -0.4085
  311MPD2    H3 4736   2.653   2.178  12.375  2.4069 -0.5219 -0.2666
  311MPD2     N 4737   2.448   2.383  12.723 -0.1513  0.2880 -0.7714
  311MPD2    H5 4738   2.456   2.472  12.771 -1.5471 -2.0577  3.8933
  311MPD2    N1 4739   2.733   2.629  12.438 -0.3641 -0.1207 -0.3101
  311MPD2    H7 4740   2.715   2.702  12.507  0.9582  0.3506 -0.4720
  312TMC3    C1 4741   2.256   2.346  12.846 -0.6409 -0.3900  0.0971
  312TMC3    C2 4742   2.137   2.362  12.783 -0.3423  0.1456 -0.3963
  312TMC3    C3 4743   2.073   2.480  12.803 -0.2422 -0.0019 -0.3767
  312TMC3    C4 4744   2.305   2.444  12.936  0.2218 -0.0565  0.1147
  312TMC3    C5 4745   2.228   2.557  12.963 -0.9118 -0.2497 -0.1821
  312TMC3    C6 4746   2.117   2.577  12.889 -0.8561 -0.6587 -0.0215
  312TMC3     C 4747   2.352   2.292  12.759  0.0389 -0.0033 -0.0597
  312TMC3     O 4748   2.302   2.208  12.688  0.2735  0.0226  0.2283
  312TMC3     H 4749   2.087   2.274  12.745 -1.0775  0.5305 -0.3122
  312TMC3    H1 4750   2.395   2.439  12.997 -0.7114  0.1942  1.5130
  312TMC3    H2 4751   2.077   2.677  12.885  0.9880  0.0854  0.1940
  312TMC3    C7 4752   2.304   2.673  13.019 -0.4370  0.1119  0.4870
  312TMC3    C8 4753   1.943   2.480  12.752  0.3227 -0.1588  0.5605
  312TMC3    O1 4754   2.318   2.774  12.949 -0.3087  0.0331  0.0486
  312TMC3    O2 4755   1.895   2.375  12.720 -0.2444 -0.9971 -0.2469
  313MPD2     C 4756   1.698   1.410  11.041 -0.1174  0.0057 -0.1158
  313MPD2    C1 4757   1.760   1.528  10.996  0.3162  0.0488  0.7128
  313MPD2    C2 4758   1.869   1.518  10.913  0.4242 -1.0501  0.4918
  313MPD2    C3 4759   1.912   1.395  10.862  0.0354 -0.7047  0.6202
  313MPD2    C4 4760   1.840   1.280  10.906  0.2638 -0.5531 -1.1348
  313MPD2    C5 4761   1.742   1.287  11.001  0.4412 -0.0547  0.2482
  313MPD2     H 4762   1.919   1.606  10.875 -2.5250  1.4205  2.2912
  313MPD2    H1 4763   1.881   1.182  10.884  2.2066 -0.1064  0.5315
  313MPD2    H2 4764   1.607   1.425  11.096  0.6966  0.6756  1.0397
  313MPD2    H3 4765   1.692   1.194  11.027  0.1924  0.0852  0.2698
  313MPD2     N 4766   2.022   1.381  10.771  0.2634 -0.2574 -0.0110
  313MPD2    H5 4767   2.025   1.286  10.738 -1.9203 -0.1702 -0.5077
  313MPD2    N1 4768   1.709   1.651  11.037 -0.5198  0.0801  0.0845
  313MPD2    H7 4769   1.768   1.729  11.012 -0.5478 -0.4615 -1.6820
  314TMC3    C1 4770   1.562   1.821  11.093  0.1276  0.2745  0.3147
  314TMC3    C2 4771   1.657   1.890  11.170 -0.8493 -0.0027 -0.8028
  314TMC3    C3 4772   1.635   2.025  11.189  0.1480  0.3094 -0.1118
  314TMC3    C4 4773   1.455   1.880  11.045  0.3713  0.2553 -0.3125
  314TMC3    C5 4774   1.459   2.018  11.042 -0.6037 -0.7129 -1.0984
  314TMC3    C6 4775   1.550   2.093  11.110 -0.2567 -0.2019  0.0407
  314TMC3     C 4776   1.576   1.675  11.071 -0.1253 -0.0463 -0.8727
  314TMC3     O 4777   1.478   1.609  11.046  0.1109  0.2945 -0.0794
  314TMC3     H 4778   1.730   1.837  11.229 -2.6348 -0.3812  1.0422
  314TMC3    H1 4779   1.397   1.824  10.973 -1.8589  0.0570  1.6336
  314TMC3    H2 4780   1.536   2.201  11.111  1.0917 -0.0302 -0.9011
  314TMC3    C7 4781   1.385   2.073  10.933 -0.8240  0.0175  0.1188
  314TMC3    C8 4782   1.766   2.096  11.218  0.4603  0.2623 -0.3175
  314TMC3    O1 4783   1.284   2.013  10.901 -0.1441 -0.9749  0.3487
  314TMC3    O2 4784   1.795   2.187  11.143  0.0744  0.2144  0.5626
  315MPD2     C 4785   1.833   1.364  17.035  0.3411 -0.0556 -0.0296
  315MPD2    C1 4786   1.881   1.360  17.162 -0.0211  1.1576  0.0234
  315MPD2    C2 4787   1.887   1.480  17.231 -0.2431  0.8884  0.3690
  315MPD2    C3 4788   1.837   1.591  17.174 -0.2031 -0.2801  0.3828
  315MPD2    C4 4789   1.781   1.591  17.051  0.3601  0.8181 -0.5852
  315MPD2    C5 4790   1.780   1.472  16.977  0.9415  0.8928 -0.4548
  315MPD2     H 4791   1.915   1.485  17.335 -0.5356  1.3823  0.4247
  315MPD2    H1 4792   1.743   1.681  17.005 -1.4354  0.1167 -0.4511
  315MPD2    H2 4793   1.830   1.270  16.980  0.7520  0.5959 -1.1708
  315MPD2    H3 4794   1.738   1.482  16.878  1.9100  0.0299 -0.9526
  315MPD2     N 4795   1.852   1.710  17.251 -0.8974 -0.4821  0.7868
  315MPD2    H5 4796   1.880   1.695  17.347  1.5733  0.8946  0.2722
  315MPD2    N1 4797   1.918   1.239  17.227  0.0678 -0.5639  0.0202
  315MPD2    H7 4798   1.930   1.154  17.172 -0.8564 -0.4659 -0.3321
  316TMC3    C1 4799   1.916   1.929  17.282 -0.3673 -0.0219 -0.7815
  316TMC3    C2 4800   1.920   1.894  17.414 -0.1719  0.4685 -0.0462
  316TMC3    C3 4801   2.014   1.959  17.486 -0.0834 -0.1565  0.5523
  316TMC3    C4 4802   1.995   2.030  17.227  0.2248  0.4357  0.7550
  316TMC3    C5 4803   2.085   2.092  17.310 -0.2712 -0.4505 -0.4260
  316TMC3    C6 4804   2.087   2.061  17.443  0.2842  0.9996 -0.0653
  316TMC3     C 4805   1.846   1.834  17.200 -0.0838 -0.0564  0.2268
  316TMC3     O 4806   1.828   1.867  17.083  0.0216 -0.2959 -0.3584
  316TMC3     H 4807   1.861   1.816  17.463 -1.8165  0.6322 -1.7435
  316TMC3    H1 4808   1.970   2.073  17.130 -0.4514 -0.5927  0.4801
  316TMC3    H2 4809   2.141   2.120  17.516  0.2689  0.6059  0.2671
  316TMC3    C7 4810   2.155   2.208  17.255 -0.0044 -0.8688  0.4544
  316TMC3    C8 4811   2.026   1.906  17.621 -0.5922  0.2354 -0.2341
  316TMC3    O1 4812   2.224   2.268  17.339 -0.0950  0.1767  0.1569
  316TMC3    O2 4813   1.922   1.853  17.661  0.4146 -0.4787  0.2183
  317MPD2     C 4814   3.938   4.297  12.178  1.0232  0.1850  0.4693
  317MPD2    C1 4815   4.050   4.217  12.186  0.9120 -0.2826  0.6722
  317MPD2    C2 4816   4.111   4.202  12.305 -0.0226  0.1766  0.4344
  317MPD2    C3 4817   4.053   4.260  12.425  0.6744 -0.0577  0.2243
  317MPD2    C4 4818   3.958   4.355  12.398 -0.0387  0.0551 -0.1523
  317MPD2    C5 4819   3.903   4.374  12.279  0.3383  0.3214 -0.3533
  317MPD2     H 4820   4.193   4.134  12.322 -0.1356 -0.7187 -2.7086
  317MPD2    H1 4821   3.914   4.428  12.466 -0.3111  0.5698 -0.8769
  317MPD2    H2 4822   3.891   4.321  12.083  2.5662  3.0281  0.4157
  317MPD2    H3 4823   3.844   4.463  12.261 -0.5275 -0.1630  0.0438
  317MPD2     N 4824   4.104   4.220  12.547  0.0628  0.2598  0.0631
  317MPD2    H5 4825   4.170   4.142  12.547  0.4288  0.5634  1.1931
  317MPD2    N1 4826   4.109   4.155  12.074 -0.8916 -0.4065  0.7844
  317MPD2    H7 4827   4.197   4.106  12.085  0.1772  1.1398 -0.7927
  318TMC3    C1 4828   4.182   4.239  12.753 -0.7503 -0.5589  0.0758
  318TMC3    C2 4829   4.159   4.121  12.812  0.1924  0.1939 -0.5528
  318TMC3    C3 4830   4.247   4.084  12.914  0.5816  0.0845  0.5218
  318TMC3    C4 4831   4.275   4.324  12.798 -1.1774 -0.2015  0.0998
  318TMC3    C5 4832   4.352   4.293  12.907 -0.0901 -0.8437 -0.6793
  318TMC3    C6 4833   4.338   4.172  12.964  0.0139 -0.6366 -0.2796
  318TMC3     C 4834   4.078   4.285  12.660 -0.0036 -0.2694  0.2167
  318TMC3     O 4835   4.002   4.375  12.691 -0.5789  0.4474 -0.0964
  318TMC3     H 4836   4.087   4.052  12.769  0.6783  0.3699 -1.6362
  318TMC3    H1 4837   4.278   4.415  12.739 -2.3058 -0.0391  0.3014
  318TMC3    H2 4838   4.395   4.152  13.054  0.8296 -0.4753 -0.7543
  318TMC3    C7 4839   4.368   4.406  12.989  0.2175 -0.2857  0.8055
  318TMC3    C8 4840   4.210   3.971  12.997 -0.5871 -0.7740  0.1515
  318TMC3    O1 4841   4.277   4.489  12.983  0.0182 -0.4337  0.2718
  318TMC3    O2 4842   4.308   3.938  13.062  0.3199 -0.0191  0.1087
  319MPD2     C 4843   0.553   1.437  16.458 -0.6058 -1.1508 -0.0788
  319MPD2    C1 4844   0.473   1.349  16.527 -0.1702 -0.4151 -0.2318
  319MPD2    C2 4845   0.339   1.345  16.480 -0.4525 -0.4805  0.6176
  319MPD2    C3 4846   0.296   1.408  16.367 -0.1589 -0.4440  0.4099
  319MPD2    C4 4847   0.393   1.474  16.293 -0.2069  0.5427  0.0743
  319MPD2    C5 4848   0.509   1.504  16.351  0.0046 -0.3346 -0.8735
  319MPD2     H 4849   0.264   1.298  16.543 -1.2939 -0.0211 -0.0429
  319MPD2    H1 4850   0.371   1.525  16.200 -1.4025 -1.6839 -0.8723
  319MPD2    H2 4851   0.657   1.460  16.479 -0.3288 -0.4708 -2.2492
  319MPD2    H3 4852   0.585   1.560  16.299 -0.5714 -0.6935 -2.1006
  319MPD2     N 4853   0.162   1.413  16.316 -0.3505  0.5085 -0.4361
  319MPD2    H5 4854   0.147   1.452  16.224  0.5474 -2.4187 -1.8261
  319MPD2    N1 4855   0.510   1.278  16.643 -0.0512  0.1062  0.4851
  319MPD2    H7 4856   0.431   1.227  16.683 -0.0527 -1.4850 -1.5188
  320TMC3    C1 4857   4.676   1.363  16.319  0.1353  0.0233 -0.0011
  320TMC3    C2 4858   4.632   1.454  16.236 -0.0707  0.0271 -0.4203
  320TMC3    C3 4859   4.506   1.456  16.193  0.2532 -0.0879 -0.2851
  320TMC3    C4 4860   4.598   1.262  16.367  0.2485 -0.6525 -0.2428
  320TMC3    C5 4861   4.471   1.258  16.322  0.1027  0.6133 -1.1389
  320TMC3    C6 4862   4.419   1.350  16.230 -0.1887 -0.4245  0.8019
  320TMC3     C 4863   0.052   1.388  16.399  1.0642 -0.3322  0.2876
  320TMC3     O 4864   0.039   1.350  16.516  0.5857 -0.0496  0.6335
  320TMC3     H 4865   4.690   1.544  16.219 -0.1170  0.3547  1.1454
  320TMC3    H1 4866   4.657   1.185  16.416  2.2791  0.6946 -0.5533
  320TMC3    H2 4867   4.313   1.347  16.206 -0.5460 -0.5408  2.4130
  320TMC3    C7 4868   4.403   1.140  16.341  0.3928  0.5347 -0.4941
  320TMC3    C8 4869   4.467   1.549  16.088 -0.4782  0.4964  0.0343
  320TMC3    O1 4870   4.349   1.081  16.248  0.1436  0.7209  0.5223
  320TMC3    O2 4871   4.511   1.662  16.098  0.4073  0.1622  0.3414
  321TMC3    C1 4872   0.632   1.248  16.838  0.2878 -0.3965 -0.2587
  321TMC3    C2 4873   0.510   1.249  16.906 -0.9508  0.5075 -0.3659
  321TMC3    C3 4874   0.517   1.236  17.042 -0.3210  0.6973  1.0265
  321TMC3    C4 4875   0.748   1.203  16.892 -0.4494  0.0644 -0.2244
  321TMC3    C5 4876   0.747   1.179  17.027 -0.7495 -0.7606  1.0645
  321TMC3    C6 4877   0.640   1.211  17.103  0.0447  0.7879 -0.2630
  321TMC3     C 4878   0.633   1.278  16.697  0.7098  0.1127  0.2503
  321TMC3     O 4879   0.738   1.320  16.651  0.8456  0.0621  0.0711
  321TMC3     H 4880   0.417   1.280  16.861 -0.3113  1.9885 -0.6871
  321TMC3    H1 4881   0.843   1.201  16.840 -1.3334  1.1641 -1.9010
  321TMC3    H2 4882   0.654   1.214  17.210 -0.1216  1.6115 -0.2638
  321TMC3    C7 4883   0.811   1.048  17.063  0.1116 -0.7035  0.5660
  321TMC3    C8 4884   0.403   1.165  17.108 -0.1925 -0.5366  0.1016
  321TMC3    O1 4885   0.916   1.011  17.014  0.3704  0.6249  0.0178
  321TMC3    O2 4886   0.435   1.094  17.201 -0.2039  1.1032  0.7882
  322MPD2     C 4887   3.831   2.326  12.582  0.4065 -0.9126  0.3960
  322MPD2    C1 4888   3.825   2.265  12.708 -0.3983 -0.4244  0.0340
  322MPD2    C2 4889   3.879   2.140  12.720  0.2334 -0.1803  0.1112
  322MPD2    C3 4890   3.952   2.077  12.622  0.3413 -0.1086 -0.1425
  322MPD2    C4 4891   3.970   2.136  12.498 -0.4309 -0.3206 -0.0524
  322MPD2    C5 4892   3.909   2.260  12.483 -0.1255 -0.0111  0.1251
  322MPD2     H 4893   3.862   2.087  12.813  1.0282  0.2180  0.4872
  322MPD2    H1 4894   4.037   2.105  12.419  0.1735 -2.3694  1.2687
  322MPD2    H2 4895   3.789   2.426  12.575  3.5634  0.4578  0.8358
  322MPD2    H3 4896   3.923   2.314  12.390  0.7764  0.0546  0.2981
  322MPD2     N 4897   4.021   1.958  12.652  0.6460  0.5870  0.4761
  322MPD2    H5 4898   3.993   1.913  12.739  0.8803  0.9655  0.7492
  322MPD2    N1 4899   3.750   2.328  12.808  0.3948 -0.0954  0.2900
  322MPD2    H7 4900   3.721   2.425  12.802  1.9093  0.3493  0.1044
  323TMC3    C1 4901   3.706   2.390  13.030  0.4730  0.0887  0.0129
  323TMC3    C2 4902   3.744   2.513  13.003 -0.6025 -0.6066  0.2885
  323TMC3    C3 4903   3.735   2.606  13.103 -0.4499 -0.0793  0.2616
  323TMC3    C4 4904   3.676   2.348  13.156 -0.1649 -0.6986 -0.0861
  323TMC3    C5 4905   3.671   2.444  13.253 -0.6371  0.6157 -0.1716
  323TMC3    C6 4906   3.704   2.571  13.236  0.0551 -0.0461 -0.7630
  323TMC3     C 4907   3.740   2.283  12.938 -0.6826  0.0995 -0.1632
  323TMC3     O 4908   3.791   2.191  12.996 -0.7499 -0.1517  0.6611
  323TMC3     H 4909   3.781   2.541  12.905  0.1747  1.9356  1.3110
  323TMC3    H1 4910   3.658   2.244  13.180 -2.7510 -0.6421 -1.8274
  323TMC3    H2 4911   3.717   2.642  13.317 -1.9952 -0.6767  0.1128
  323TMC3    C7 4912   3.654   2.397  13.387 -0.5686  0.6614  1.0302
  323TMC3    C8 4913   3.761   2.746  13.079 -0.2101  0.8721 -0.4325
  323TMC3    O1 4914   3.589   2.296  13.387 -0.0359 -0.5316 -0.2136
  323TMC3    O2 4915   3.771   2.824  13.173 -0.0348  0.2358 -0.2555
  324MPD2     C 4916   0.673   3.954  14.673 -0.1707  0.5546  0.4260
  324MPD2    C1 4917   0.667   3.977  14.535 -0.0224  0.2756  0.4145
  324MPD2    C2 4918   0.545   3.955  14.465  0.3991 -0.7359 -0.1250
  324MPD2    C3 4919   0.427   3.949  14.542  0.1989  0.2861 -0.5583
  324MPD2    C4 4920   0.437   3.939  14.676 -0.0724  0.7926  0.1978
  324MPD2    C5 4921   0.558   3.936  14.735  0.0962  0.7294  0.0233
  324MPD2     H 4922   0.539   3.941  14.357  1.2409 -0.0744 -0.2601
  324MPD2    H1 4923   0.356   3.920  14.746  2.1035 -2.4444  1.8504
  324MPD2    H2 4924   0.768   3.958  14.725  0.3825 -1.9733 -0.4250
  324MPD2    H3 4925   0.575   3.926  14.842  1.4788 -1.0936 -0.3657
  324MPD2     N 4926   0.303   3.940  14.478  0.1334  0.6294 -0.6578
  324MPD2    H5 4927   0.225   3.919  14.540  0.8948 -1.9060 -0.5592
  324MPD2    N1 4928   0.782   4.020  14.473 -0.2262  0.6465  0.1664
  324MPD2    H7 4929   0.869   4.031  14.524  1.4128  1.6713 -2.8198
  325TMC3    C1 4930   0.137   3.947  14.318 -0.2238  0.3917 -0.2461
  325TMC3    C2 4931   0.096   3.897  14.200 -0.6043 -0.5272  0.3288
  325TMC3    C3 4932   4.714   3.934  14.153  0.1270 -0.5593  0.0092
  325TMC3    C4 4933   0.066   4.048  14.386  0.4527  0.0959  0.2363
  325TMC3    C5 4934   4.694   4.100  14.332 -0.0757  0.3050 -0.0932
  325TMC3    C6 4935   4.639   4.032  14.218 -0.7575  0.4917 -0.0173
  325TMC3     C 4936   0.279   3.945  14.341  0.6531 -0.1678  0.0940
  325TMC3     O 4937   0.355   3.945  14.244 -0.1242  0.1510  0.1525
  325TMC3     H 4938   0.160   3.826  14.148  0.1824 -0.2089  0.8537
  325TMC3    H1 4939   0.113   4.092  14.474 -0.2000  0.8871  0.1910
  325TMC3    H2 4940   4.570   4.085  14.154 -1.3652  1.0247  1.0861
  325TMC3    C7 4941   4.656   4.235  14.369 -0.1316  0.3898 -0.1179
  325TMC3    C8 4942   4.648   3.837  14.074  0.3927  0.3070  0.0072
  325TMC3    O1 4943   4.731   4.297  14.441  0.2384 -0.2556 -0.3444
  325TMC3    O2 4944   4.702   3.725  14.066  0.0607 -0.1274  0.4093
  326MPD2     C 4945   1.437   4.410  11.388  0.5173 -0.0640 -0.1852
  326MPD2    C1 4946   1.448   4.419  11.254 -0.7287  0.5606  0.0514
  326MPD2    C2 4947   1.570   4.465  11.200 -0.2080  0.5635 -1.1982
  326MPD2    C3 4948   1.683   4.482  11.282 -0.0940 -0.3628 -0.2433
  326MPD2    C4 4949   1.675   4.453  11.421  0.0477 -0.0995 -0.4852
  326MPD2    C5 4950   1.546   4.431  11.465 -0.2009  0.4561 -0.9354
  326MPD2     H 4951   1.574   4.463  11.092 -1.8784 -0.7470 -1.2363
  326MPD2    H1 4952   1.758   4.459  11.490  0.1278  2.6185 -0.8175
  326MPD2    H2 4953   1.349   4.374  11.441  0.4628  0.2658 -0.0527
  326MPD2    H3 4954   1.535   4.409  11.571  1.3449  2.4557 -0.3553
  326MPD2     N 4955   1.813   4.511  11.233  0.1276  0.2879 -0.3619
  326MPD2    H5 4956   1.885   4.538  11.300 -1.5775  2.1614  0.7025
  326MPD2    N1 4957   1.343   4.388  11.163  0.0554 -0.0864  0.1120
  326MPD2    H7 4958   1.356   4.401  11.064 -3.0399  1.3063 -0.1197
  327TMC3    C1 4959   1.152   4.320  11.074  0.3849  0.4965  0.2257
  327TMC3    C2 4960   1.070   4.410  11.007  0.0552 -0.7740  0.2179
  327TMC3    C3 4961   1.052   4.393  10.873  0.3351  0.3473  0.0327
  327TMC3    C4 4962   1.220   4.218  11.019  0.6214  0.0864  0.3123
  327TMC3    C5 4963   1.208   4.202  10.880 -0.1295 -0.5570  0.0325
  327TMC3    C6 4964   1.128   4.290  10.813  0.1464 -0.1904 -0.1899
  327TMC3     C 4965   1.213   4.383  11.192 -0.1783 -0.1706  0.7158
  327TMC3     O 4966   1.144   4.409  11.287 -0.2178  0.0187  0.3949
  327TMC3     H 4967   1.018   4.487  11.063 -0.8051 -0.2931 -1.2326
  327TMC3    H1 4968   1.282   4.153  11.080 -1.2609 -0.9900  1.0439
  327TMC3    H2 4969   1.127   4.291  10.704  2.2889 -2.0745 -0.2194
  327TMC3    C7 4970   1.319   4.145  10.807  0.7436 -0.1698 -0.0520
  327TMC3    C8 4971   1.062   4.525  10.816  0.4326 -0.4160 -0.2685
  327TMC3    O1 4972   1.306   4.134  10.686 -0.3911 -0.1011  0.2333
  327TMC3    O2 4973   1.171   4.553  10.771 -0.2035 -0.3881 -0.1529
  328MPD2     C 4974   4.510   0.293  17.026 -0.1922 -0.5092  0.2489
  328MPD2    C1 4975   4.406   0.218  17.075 -0.1491 -0.5014  1.0193
  328MPD2    C2 4976   4.295   0.220  17.000  0.6842  0.7865  0.1564
  328MPD2    C3 4977   4.275   0.304  16.894  0.2833  0.2869 -0.8707
  328MPD2    C4 4978   4.375   0.389  16.846  0.9319  0.4628 -0.3708
  328MPD2    C5 4979   4.496   0.381  16.916 -0.0793  0.3546 -0.5361
  328MPD2     H 4980   4.218   0.150  17.032  0.0310  1.4967  0.1253
  328MPD2    H1 4981   4.353   0.466  16.774  0.5179  1.4016  0.7672
  328MPD2    H2 4982   4.606   0.288  17.077  0.6387 -1.0826 -1.3840
  328MPD2    H3 4983   4.578   0.447  16.889  0.4771 -0.3368 -0.5459
  328MPD2     N 4984   4.158   0.308  16.820  0.7348 -0.1981  0.2812
  328MPD2    H5 4985   4.147   0.383  16.753 -2.2477  0.0828  1.1107
  328MPD2    N1 4986   4.421   0.156  17.202  0.3804 -0.7351  0.0910
  328MPD2    H7 4987   4.504   0.175  17.258 -0.1004  1.4120  0.0782
  329TMC3    C1 4988   4.342   0.068  17.403 -0.3398  0.1415 -0.0357
  329TMC3    C2 4989   4.330   0.198  17.447  0.3264  0.4713 -0.1106
  329TMC3    C3 4990   4.216   0.236  17.509  0.1691  0.2267 -0.6783
  329TMC3    C4 4991   4.248   4.715  17.437  0.5286 -0.5248  0.6069
  329TMC3    C5 4992   4.132   0.022  17.497 -0.4627 -0.1282  0.1963
  329TMC3    C6 4993   4.109   0.153  17.528 -0.0512 -0.6425 -0.2299
  329TMC3     C 4994   4.333   0.069  17.260 -0.6157  0.6523 -0.1709
  329TMC3     O 4995   4.242   0.006  17.210  0.2592  0.1711 -0.3800
  329TMC3     H 4996   4.409   0.270  17.433  0.9284  0.0325  1.0502
  329TMC3    H1 4997   4.253   4.618  17.387 -0.1361 -0.7507  0.9772
  329TMC3    H2 4998   4.018   0.184  17.578  0.6494  1.2972 -0.1596
  329TMC3    C7 4999   4.035   4.653  17.533 -0.6622 -0.5661 -0.0937
  329TMC3    C8 5000   4.195   0.382  17.502 -0.5213 -0.5450  0.3346
  329TMC3    O1 5001   4.036   4.552  17.463 -0.0104 -0.1714  0.8386
  329TMC3    O2 5002   4.248   0.452  17.415  0.0292 -0.0375 -0.0703
  330TMC3    C1 5003   2.042   3.991   9.580  0.7034 -0.1871 -0.1293
  330TMC3    C2 5004   1.981   3.911   9.490 -0.1475  0.3615  0.1360
  330TMC3    C3 5005   1.992   3.775   9.507 -0.1267 -0.6713  0.3465
  330TMC3    C4 5006   2.109   3.944   9.694 -0.4585 -0.1374  0.4598
  330TMC3    C5 5007   2.111   3.809   9.708  0.5247 -0.2263 -0.4160
  330TMC3    C6 5008   2.056   3.722   9.620 -0.0224 -0.3157 -0.4008
  330TMC3     C 5009   2.017   4.132   9.585 -0.3684 -0.0502 -0.2067
  330TMC3     O 5010   2.091   4.201   9.648 -0.0340 -0.7432 -0.2614
  330TMC3     H 5011   1.938   3.957   9.402 -1.6399 -3.6039 -1.1775
  330TMC3    H1 5012   2.148   4.016   9.765 -1.8250  2.0164 -0.9832
  330TMC3    H2 5013   2.082   3.617   9.607  1.1748 -0.0117 -0.5044
  330TMC3    C7 5014   2.195   3.764   9.820 -0.0135  0.0760 -0.2764
  330TMC3    C8 5015   1.914   3.697   9.419  0.6238 -0.0565 -0.9229
  330TMC3    O1 5016   2.251   3.854   9.883 -0.4302 -0.2250  0.2069
  330TMC3    O2 5017   1.892   3.729   9.303 -0.2623 -0.3808 -0.5119
  331MPD2     C 5018   0.621   3.137  12.838  0.1070  0.2187  0.1188
  331MPD2    C1 5019   0.682   3.091  12.724  0.1021 -0.4781 -0.2278
  331MPD2    C2 5020   0.600   3.025  12.635  0.0619 -0.0140 -0.3602
  331MPD2    C3 5021   0.466   3.001  12.665 -0.2123  0.5605  0.4277
  331MPD2    C4 5022   0.416   3.029  12.791 -0.0917  0.4430  0.4495
  331MPD2    C5 5023   0.491   3.102  12.876 -0.7097  0.4826 -0.2082
  331MPD2     H 5024   0.628   2.974  12.544  0.3206  1.1155 -0.9018
  331MPD2    H1 5025   0.319   3.009  12.835  0.6372 -1.0395  1.3736
  331MPD2    H2 5026   0.690   3.185  12.906 -1.3413  0.6886  1.2601
  331MPD2    H3 5027   0.452   3.134  12.972  1.1374 -2.0495  1.3768
  331MPD2     N 5028   0.383   2.938  12.563  0.0147 -0.2250  0.5587
  331MPD2    H5 5029   0.426   2.928  12.471  2.1643  1.4865  1.3953
  331MPD2    N1 5030   0.815   3.132  12.695  0.1606 -0.8737 -0.1577
  331MPD2    H7 5031   0.852   3.213  12.744  3.0522 -2.0855 -0.2884
  332TMC3    C1 5032   0.236   2.789  12.467  0.0201 -0.6669  0.0354
  332TMC3    C2 5033   0.239   2.844  12.339 -0.1287 -0.5634  0.7873
  332TMC3    C3 5034   0.194   2.758  12.244 -0.5418 -0.6213  0.1557
  332TMC3    C4 5035   0.207   2.662  12.493 -0.3906 -0.0517 -0.9414
  332TMC3    C5 5036   0.170   2.577  12.394  0.2621  0.0666  0.7129
  332TMC3    C6 5037   0.164   2.624  12.270  0.5393  0.3443  0.4351
  332TMC3     C 5038   0.270   2.864  12.584 -0.0575 -0.1055 -1.2148
  332TMC3     O 5039   0.217   2.842  12.689 -0.2133  0.7760  0.0067
  332TMC3     H 5040   0.263   2.947  12.317  1.8783 -1.8554 -2.9431
  332TMC3    H1 5041   0.205   2.635  12.598  3.9299 -2.1492 -1.3950
  332TMC3    H2 5042   0.157   2.547  12.193 -0.8574 -0.9559  1.8381
  332TMC3    C7 5043   0.226   2.443  12.399 -1.0288 -0.2420  0.4219
  332TMC3    C8 5044   0.189   2.808  12.111  0.2641  0.3515 -0.0872
  332TMC3    O1 5045   0.157   2.345  12.371  0.1941  0.6212  0.6860
  332TMC3    O2 5046   0.257   2.907  12.084  0.1407 -0.1279 -0.2400
  333MPD2     C 5047   0.019   3.162  10.820  0.0780 -0.6279  1.2556
  333MPD2    C1 5048   0.088   3.068  10.744  0.1443  0.0207 -0.4153
  333MPD2    C2 5049   0.063   2.933  10.764  0.0515  0.3009 -0.2765
  333MPD2    C3 5050   4.718   2.896  10.860 -0.1134 -0.3838  0.1473
  333MPD2    C4 5051   4.642   2.984  10.927 -0.5036  0.3254 -0.0044
  333MPD2    C5 5052   4.665   3.121  10.909 -0.0368  0.2731  0.4417
  333MPD2     H 5053   0.108   2.850  10.710  0.4600  1.6624 -2.0338
  333MPD2    H1 5054   4.590   2.960  11.019  2.0961 -2.1081  0.8283
  333MPD2    H2 5055   0.047   3.267  10.819 -0.1607 -0.5710  0.2295
  333MPD2    H3 5056   4.618   3.199  10.969 -0.6233  0.1547  0.1378
  333MPD2     N 5057   4.700   2.757  10.878 -0.8882  0.2170 -0.1075
  333MPD2    H5 5058   0.026   2.689  10.843 -1.1765  0.4410 -1.0760
  333MPD2    N1 5059   0.190   3.118  10.656  0.0301  0.8737 -0.8990
  333MPD2    H7 5060   0.209   3.217  10.670  0.9870  0.5700 -0.0682
  334TMC3    C1 5061   0.336   3.120  10.473 -0.0113 -0.5587 -0.1213
  334TMC3    C2 5062   0.414   3.030  10.412 -0.8441  0.3718 -0.4653
  334TMC3    C3 5063   0.533   3.070  10.364 -0.3446 -0.2042  0.2347
  334TMC3    C4 5064   0.374   3.245  10.508  0.1372  0.2979 -0.5333
  334TMC3    C5 5065   0.496   3.286  10.465 -0.2942 -0.2688  0.2351
  334TMC3    C6 5066   0.584   3.196  10.404  1.3030 -0.1738  0.7010
  334TMC3     C 5067   0.233   3.049  10.546  0.3569  0.3997  0.5222
  334TMC3     O 5068   0.203   2.931  10.520 -0.1642 -0.0373  0.1107
  334TMC3     H 5069   0.380   2.928  10.399  1.0916 -0.1845 -1.1302
  334TMC3    H1 5070   0.315   3.316  10.566  0.6683  1.0347 -0.9058
  334TMC3    H2 5071   0.686   3.224  10.381  0.9438  0.3413 -0.2803
  334TMC3    C7 5072   0.537   3.424  10.483 -0.2521 -0.8326  0.1410
  334TMC3    C8 5073   0.616   2.976  10.289  0.1288 -0.4543 -0.2159
  334TMC3    O1 5074   0.657   3.447  10.462  0.1232  0.7002 -0.4522
  334TMC3    O2 5075   0.557   2.872  10.253  0.4688  0.2006 -0.3781
  335TMC3    C1 5076   0.164   4.472   0.021  0.4361  0.0287 -0.4056
  335TMC3    C2 5077   0.080   4.497  17.670 -0.7510 -0.3818  1.0986
  335TMC3    C3 5078   0.128   4.560  17.561  0.0807  0.6444  0.2110
  335TMC3    C4 5079   0.294   4.512   0.015  0.1678  0.0908 -0.0336
  335TMC3    C5 5080   0.338   4.579  17.661  0.4062  0.3844  0.1635
  335TMC3    C6 5081   0.260   4.599  17.549  0.3505 -0.2413  0.7043
  335TMC3     C 5082   0.121   4.399   0.133  0.2719 -0.6051 -0.1386
  335TMC3     O 5083   0.199   4.399   0.226  0.3488 -0.5492 -0.0986
  335TMC3     H 5084   4.713   4.486  17.681 -0.8539 -2.8974 -2.5192
  335TMC3    H1 5085   0.352   4.501   0.106 -1.0233  2.5597  1.0324
  335TMC3    H2 5086   0.295   4.655  17.463 -1.5796 -0.2795 -0.1078
  335TMC3    C7 5087   0.478   4.607  17.650  0.1191  0.6086 -0.5015
  335TMC3    C8 5088   0.055   4.557  17.434 -0.2548 -0.7406 -0.2916
  335TMC3    O1 5089   0.527   4.621  17.539  0.0987 -0.7184 -0.4858
  335TMC3    O2 5090   0.108   4.625  17.348  0.0927  0.3398 -0.2985
  336MPD2     C 5091   4.572   2.738  15.775  0.0617  0.3660  0.0134
  336MPD2    C1 5092   4.508   2.643  15.698  0.4094 -0.4515 -0.2733
  336MPD2    C2 5093   4.512   2.511  15.739 -0.1590 -0.5395  0.5907
  336MPD2    C3 5094   4.597   2.471  15.841 -0.2340 -0.1258 -0.2122
  336MPD2    C4 5095   4.676   2.564  15.905  0.0614 -0.4217  0.5363
  336MPD2    C5 5096   4.653   2.695  15.876 -0.5715  1.1147  0.8427
  336MPD2     H 5097   4.453   2.438  15.685 -0.2273 -0.5737  0.7121
  336MPD2    H1 5098   0.001   2.539  15.988  0.9892 -0.3951 -0.1839
  336MPD2    H2 5099   4.581   2.843  15.749  2.8143 -0.1398 -1.1157
  336MPD2    H3 5100   4.690   2.771  15.944 -0.0619  1.2090  0.4584
  336MPD2     N 5101   4.611   2.336  15.883  0.4538  0.2262 -0.6159
  336MPD2    H5 5102   4.678   2.314  15.956  0.1364  0.4539 -0.2604
  336MPD2    N1 5103   4.436   2.694  15.589  0.1324 -0.3677  1.2237
  336MPD2    H7 5104   4.442   2.793  15.568  0.5310 -0.7649 -0.5540
  337TMC3    C1 5105   4.296   2.708  15.407 -1.2097  0.7843 -0.0500
  337TMC3    C2 5106   4.160   2.702  15.365 -1.2426 -0.1502  0.1993
  337TMC3    C3 5107   4.109   2.787  15.263 -0.1429 -0.5353  0.1910
  337TMC3    C4 5108   4.376   2.794  15.338 -0.6592 -0.5121 -0.1036
  337TMC3    C5 5109   4.325   2.880  15.252 -0.2170  0.0524  0.0983
  337TMC3    C6 5110   4.193   2.884  15.214 -0.6292 -0.0610  0.4103
  337TMC3     C 5111   4.355   2.617  15.506 -0.5898  0.2446  0.8358
  337TMC3     O 5112   4.309   2.507  15.517 -0.8077 -0.3093  0.6803
  337TMC3     H 5113   4.085   2.636  15.407 -0.4573 -0.5396  1.0055
  337TMC3    H1 5114   4.480   2.787  15.369 -1.4358 -0.5937  2.4980
  337TMC3    H2 5115   4.159   2.949  15.134 -0.1910  0.5505  0.7230
  337TMC3    C7 5116   4.414   2.983  15.189 -0.7021  0.0421  0.1182
  337TMC3    C8 5117   3.985   2.754  15.201  0.3603  0.1833 -0.6413
  337TMC3    O1 5118   4.358   3.055  15.110 -0.1537 -0.5878 -0.1680
  337TMC3    O2 5119   3.899   2.708  15.276 -0.2602  0.9484  0.1783
  338MPD2     C 5120   4.681   1.672   0.534 -0.7399  0.4892  0.0638
  338MPD2    C1 5121   4.598   1.722   0.439  0.3114  0.4341  0.2372
  338MPD2    C2 5122   4.478   1.767   0.478 -0.7067 -0.0500  0.1591
  338MPD2    C3 5123   4.431   1.760   0.609 -0.3109 -0.3671  0.4463
  338MPD2    C4 5124   4.515   1.695   0.703  0.2530 -0.1213  0.2470
  338MPD2    C5 5125   4.638   1.657   0.659 -0.0197  0.0633 -0.6428
  338MPD2     H 5126   4.414   1.806   0.400 -1.1268  0.2709  0.6654
  338MPD2    H1 5127   4.486   1.680   0.806  4.7674 -0.3721  1.4454
  338MPD2    H2 5128   0.039   1.632   0.509  0.9259  2.5466  3.2746
  338MPD2    H3 5129   4.700   1.601   0.728 -0.2192  2.4525  1.4684
  338MPD2     N 5130   4.301   1.801   0.637  0.4263 -0.0875  0.1482
  338MPD2    H5 5131   4.249   1.849   0.564  1.5629  0.7170 -0.1329
  338MPD2    N1 5132   4.651   1.735   0.309 -0.1007 -0.2225 -0.6069
  338MPD2    H7 5133   0.008   1.717   0.288  0.8461  1.7140  2.0175
  339TMC3    C1 5134   4.098   1.850   0.722 -0.4984  0.0033  0.3604
  339TMC3    C2 5135   4.026   1.884   0.837 -0.1736  0.6105  0.1052
  339TMC3    C3 5136   3.918   1.959   0.816 -0.8050 -0.0099  0.5224
  339TMC3    C4 5137   4.062   1.890   0.595 -0.5685  0.4770 -1.0623
  339TMC3    C5 5138   3.952   1.968   0.584 -0.3658 -0.0204  0.7206
  339TMC3    C6 5139   3.882   2.014   0.697 -0.1052  0.6266  0.0307
  339TMC3     C 5140   4.229   1.795   0.756 -0.3749 -0.5409  0.2947
  339TMC3     O 5141   4.251   1.764   0.873  0.1044  0.4414 -0.1548
  339TMC3     H 5142   4.036   1.852   0.940  0.0522 -0.7252 -0.3214
  339TMC3    H1 5143   4.101   1.866   0.497  0.3060 -2.7782  0.0849
  339TMC3    H2 5144   3.800   2.085   0.693 -0.6209  0.0807  1.0458
  339TMC3    C7 5145   3.940   2.050   0.462 -0.7947 -0.4001 -0.3783
  339TMC3    C8 5146   3.842   2.002   0.935  0.6365 -0.4508  0.1631
  339TMC3    O1 5147   4.035   2.065   0.387  0.3127  0.7266  0.6206
  339TMC3    O2 5148   3.799   2.115   0.932 -0.2626  0.0339 -0.5226
  340MPD2     C 5149   4.623   3.943   9.500  0.2239  0.1183 -0.4207
  340MPD2    C1 5150   4.644   3.833   9.568  0.0288 -0.1492 -0.8253
  340MPD2    C2 5151   4.687   3.852   9.702 -0.1515 -0.1148 -0.5990
  340MPD2    C3 5152   4.710   3.976   9.758 -0.6649 -0.3281 -0.3524
  340MPD2    C4 5153   4.672   4.087   9.682  0.2456 -0.9101 -0.1541
  340MPD2    C5 5154   4.636   4.071   9.551  0.4748 -0.7187  0.0352
  340MPD2     H 5155   4.719   3.764   9.757  0.6980 -1.0207 -2.5265
  340MPD2    H1 5156   4.673   4.192   9.711 -0.9975 -0.9442  0.0415
  340MPD2    H2 5157   4.600   3.933   9.395  0.4249  2.8569 -0.7270
  340MPD2    H3 5158   4.620   4.157   9.487  0.9165 -1.1814 -0.6986
  340MPD2     N 5159   0.037   3.984   9.892 -0.0391 -0.0165  0.1216
  340MPD2    H5 5160   0.067   3.895   9.931  0.6476 -0.0360 -0.4502
  340MPD2    N1 5161   4.632   3.703   9.504  1.2661 -0.0928  0.1208
  340MPD2    H7 5162   4.604   3.696   9.407  0.5404 -1.9925  0.4635
  341TMC3    C1 5163   4.644   3.475   9.485  0.1177 -0.1483  0.4827
  341TMC3    C2 5164   4.611   3.353   9.545  0.6660  0.4849 -0.4047
  341TMC3    C3 5165   4.651   3.238   9.487 -0.1922 -0.9234  0.0626
  341TMC3    C4 5166   4.696   3.478   9.357 -0.4653 -0.3664 -0.2110
  341TMC3    C5 5167   4.726   3.356   9.296 -0.0129 -0.7623 -0.9369
  341TMC3    C6 5168   4.698   3.239   9.358 -0.0800  0.0890  0.4667
  341TMC3     C 5169   4.638   3.587   9.572  0.4520 -0.4173 -0.0144
  341TMC3     O 5170   4.620   3.569   9.691 -0.0593  0.1157 -0.6242
  341TMC3     H 5171   4.574   3.353   9.647  1.7038  1.3926 -0.0251
  341TMC3    H1 5172   0.006   3.565   9.315 -0.6839 -0.6664 -1.0897
  341TMC3    H2 5173   4.734   3.148   9.313  1.7708  0.1699  1.7600
  341TMC3    C7 5174   0.101   3.358   9.196 -0.1096 -0.0841 -0.1081
  341TMC3    C8 5175   4.583   3.115   9.528 -0.6801 -0.0363 -0.0930
  341TMC3    O1 5176   0.182   3.449   9.189 -0.0292  0.6184  0.0300
  341TMC3    O2 5177   4.533   3.045   9.445  0.3108  0.0911  0.6065
  342MPD2     C 5178   2.700   2.979  17.478  0.1316  0.3561  0.7927
  342MPD2    C1 5179   2.789   3.007  17.372 -0.4453 -0.9183  0.3957
  342MPD2    C2 5180   2.821   3.138  17.346 -0.2674  0.3881 -0.5189
  342MPD2    C3 5181   2.768   3.239  17.423 -0.3583 -0.3978 -0.8760
  342MPD2    C4 5182   2.680   3.212  17.527  0.1170  0.6529 -0.1107
  342MPD2    C5 5183   2.648   3.082  17.552  0.0248  0.1084  0.0463
  342MPD2     H 5184   2.894   3.160  17.269  1.5303 -0.6416  0.9040
  342MPD2    H1 5185   2.643   3.286  17.597 -0.1587 -0.3546  0.8039
  342MPD2    H2 5186   2.688   2.877  17.514  1.3963  0.5476  1.7477
  342MPD2    H3 5187   2.581   3.068  17.635  0.8766 -0.0657  0.6990
  342MPD2     N 5188   2.784   3.374  17.390  0.7491  1.1463 -0.2668
  342MPD2    H5 5189   2.734   3.436  17.453 -0.3809 -1.9580  1.8546
  342MPD2    N1 5190   2.853   2.906  17.304  0.4074  1.1082  0.1470
  342MPD2    H7 5191   2.921   2.930  17.233 -1.9091 -0.5139 -2.5934
  343TMC3    C1 5192   2.914   2.689  17.224 -0.3485 -0.1347 -0.0782
  343TMC3    C2 5193   3.010   2.744  17.141 -0.2452 -0.0805  0.0636
  343TMC3    C3 5194   3.062   2.675  17.034 -0.0640 -0.1626 -0.2354
  343TMC3    C4 5195   2.873   2.564  17.202  0.6678  0.2732 -0.1269
  343TMC3    C5 5196   2.935   2.495  17.100  0.4544 -0.1720  0.6616
  343TMC3    C6 5197   3.028   2.544  17.012 -0.1371 -0.0143 -0.0102
  343TMC3     C 5198   2.847   2.768  17.326 -0.3700  0.8249  0.8977
  343TMC3     O 5199   2.780   2.715  17.412  0.1007 -0.1338  0.1709
  343TMC3     H 5200   3.051   2.843  17.159 -0.4395 -0.5468  3.0723
  343TMC3    H1 5201   2.791   2.520  17.258  0.0623 -0.4088 -1.5565
  343TMC3    H2 5202   3.050   2.483  16.926 -1.7124 -1.5457  0.6633
  343TMC3    C7 5203   2.892   2.359  17.081  0.8565 -0.1491 -0.4063
  343TMC3    C8 5204   3.181   2.728  16.966  0.1053 -0.0028 -0.3552
  343TMC3    O1 5205   2.899   2.309  16.965  0.1387  0.1989 -0.1622
  343TMC3    O2 5206   3.214   2.844  16.992  0.1075 -0.1335 -0.1112
  344MPD2     C 5207   3.949   1.671  10.761  0.3724  0.5967  0.0080
  344MPD2    C1 5208   3.815   1.672  10.738 -0.0428 -0.5142 -0.7676
  344MPD2    C2 5209   3.761   1.790  10.687 -0.0778 -0.1559 -0.0619
  344MPD2    C3 5210   3.838   1.903  10.658  0.5722  0.0014 -0.2789
  344MPD2    C4 5211   3.973   1.899  10.696 -0.2115  0.2510  0.5758
  344MPD2    C5 5212   4.024   1.784  10.747  0.2752  0.5148  0.1319
  344MPD2     H 5213   3.653   1.789  10.677 -0.3217  0.2764  2.4900
  344MPD2    H1 5214   4.046   1.976  10.675  1.6748 -1.7221 -0.1133
  344MPD2    H2 5215   4.004   1.584  10.795  1.3005  0.2464 -2.3441
  344MPD2    H3 5216   4.131   1.779  10.737  0.5454 -0.9986  3.8710
  344MPD2     N 5217   3.784   2.015  10.597 -0.4052  0.2049 -0.5848
  344MPD2    H5 5218   3.842   2.096  10.577  1.1660 -0.6564  0.5033
  344MPD2    N1 5219   3.731   1.564  10.770  0.7365  0.1680 -0.1215
  344MPD2    H7 5220   3.631   1.577  10.760  0.4389 -1.7834  0.2608
  345TMC3    C1 5221   3.655   2.160  10.497 -0.2580  0.4882 -0.8157
  345TMC3    C2 5222   3.756   2.242  10.547 -0.6880  0.0726  0.7748
  345TMC3    C3 5223   3.792   2.350  10.474 -0.4287 -0.2149 -0.7170
  345TMC3    C4 5224   3.611   2.181  10.371  0.7470  0.0453  0.2910
  345TMC3    C5 5225   3.650   2.283  10.294 -0.4886  0.5106 -0.0788
  345TMC3    C6 5226   3.748   2.363  10.346 -0.4407 -0.2169  0.9037
  345TMC3     C 5227   3.661   2.026  10.550  0.0858  0.7786  0.0489
  345TMC3     O 5228   3.577   1.942  10.513 -0.2299  0.2132 -0.2305
  345TMC3     H 5229   3.800   2.243  10.646 -0.7054  0.4235  0.7792
  345TMC3    H1 5230   3.539   2.105  10.341  0.4671 -0.0726  1.2508
  345TMC3    H2 5231   3.790   2.438  10.280 -1.7825  0.4394  0.8056
  345TMC3    C7 5232   3.556   2.330  10.202 -0.9639 -0.2822 -1.0151
  345TMC3    C8 5233   3.817   2.467  10.554 -0.5138  0.1358 -0.0475
  345TMC3    O1 5234   3.506   2.250  10.123  0.1328  0.0289  0.0890
  345TMC3    O2 5235   3.757   2.494  10.659 -0.6243  0.3288 -0.5288
  346MPD2     C 5236   3.738   3.812  13.819  0.4911 -0.3017  0.8858
  346MPD2    C1 5237   3.805   3.932  13.794  0.0871  0.3425  0.8644
  346MPD2    C2 5238   3.781   4.040  13.878 -0.3905  0.6636 -0.3812
  346MPD2    C3 5239   3.700   4.023  13.992 -1.1559  0.5259 -0.1699
  346MPD2    C4 5240   3.638   3.902  14.015  0.4208 -0.0778  0.5894
  346MPD2    C5 5241   3.663   3.796  13.931  0.5186  0.0608  0.6637
  346MPD2     H 5242   3.835   4.134  13.866  0.1302  0.0781 -2.6627
  346MPD2    H1 5243   3.562   3.893  14.092 -1.8026 -0.0572 -1.5842
  346MPD2    H2 5244   3.761   3.720  13.765 -1.0874 -0.0530 -0.1945
  346MPD2    H3 5245   3.610   3.701  13.933  0.0726  0.3136  0.9800
  346MPD2     N 5246   3.688   4.135  14.078  0.1114  0.1639  0.0900
  346MPD2    H5 5247   3.739   4.216  14.044 -0.5626 -0.1016 -1.5361
  346MPD2    N1 5248   3.913   3.953  13.703  0.1126  0.2440  0.0369
  346MPD2    H7 5249   3.952   4.046  13.694 -2.0521  1.0520 -0.9432
  347TMC3    C1 5250   3.664   4.266  14.272 -0.0704 -0.1075  0.2566
  347TMC3    C2 5251   3.788   4.317  14.244 -0.6020  0.3399 -0.7576
  347TMC3    C3 5252   3.876   4.364  14.342 -0.7020  0.5737  0.7782
  347TMC3    C4 5253   3.610   4.286  14.400 -0.0545  0.1775 -0.1430
  347TMC3    C5 5254   3.690   4.343  14.493 -0.1066  0.2589  0.3148
  347TMC3    C6 5255   3.820   4.386  14.471  0.2025  0.3020 -0.0798
  347TMC3     C 5256   3.622   4.147  14.202 -1.1457 -0.3867 -0.6425
  347TMC3     O 5257   3.528   4.081  14.245 -0.0755 -0.2729 -0.8761
  347TMC3     H 5258   3.835   4.300  14.148 -1.9945  0.5891 -1.4760
  347TMC3    H1 5259   3.521   4.228  14.423  0.0169  1.2891  2.8666
  347TMC3    H2 5260   3.884   4.409  14.555 -1.9070  0.1750  1.5502
  347TMC3    C7 5261   3.641   4.337  14.624 -0.7913 -0.2113  0.5840
  347TMC3    C8 5262   4.017   4.364  14.311  0.3897 -0.3788  0.1294
  347TMC3    O1 5263   3.572   4.242  14.654 -0.0405  0.1110 -0.2088
  347TMC3    O2 5264   4.046   4.323  14.198  0.0940 -0.2477 -0.1640
  348MPD2     C 5265   2.567   3.524  11.967  0.8092 -0.4948  0.9143
  348MPD2    C1 5266   2.497   3.454  11.874 -1.0855  0.5791 -0.8208
  348MPD2    C2 5267   2.482   3.518  11.754  0.0610  0.5053 -0.8104
  348MPD2    C3 5268   2.547   3.634  11.717  0.6112 -0.1610  0.1063
  348MPD2    C4 5269   2.620   3.695  11.812  0.4254  0.5248  0.9000
  348MPD2    C5 5270   2.631   3.639  11.937  0.4727 -0.3550 -0.5649
  348MPD2     H 5271   2.419   3.471  11.679 -0.8046 -2.4551  1.7536
  348MPD2    H1 5272   2.670   3.789  11.793  0.6249  0.2176 -0.1444
  348MPD2    H2 5273   2.583   3.497  12.070  2.1536  1.3116  1.1725
  348MPD2    H3 5274   2.670   3.705  12.013 -0.1595 -0.7517  0.1070
  348MPD2     N 5275   2.540   3.681  11.585 -0.1749 -0.1063 -0.2811
  348MPD2    H5 5276   2.483   3.623  11.525  0.3307  1.2259 -2.0504
  348MPD2    N1 5277   2.437   3.330  11.892  0.5974 -0.1137 -0.3677
  348MPD2    H7 5278   2.375   3.300  11.817 -0.3496  1.7133 -0.3125
  349TMC3    C1 5279   2.446   3.104  11.914  0.4917  0.1462 -0.0781
  349TMC3    C2 5280   2.526   2.993  11.955 -0.5285  0.4191 -0.7801
  349TMC3    C3 5281   2.549   2.899  11.860 -0.3492 -0.1283  0.6529
  349TMC3    C4 5282   2.416   3.117  11.780  0.4044  0.2947 -0.4064
  349TMC3    C5 5283   2.445   3.027  11.686 -0.4775 -0.1115 -0.3895
  349TMC3    C6 5284   2.519   2.918  11.726 -0.5418  0.2153 -0.8136
  349TMC3     C 5285   2.475   3.231  11.982 -0.1231 -0.1228  0.1062
  349TMC3     O 5286   2.555   3.223  12.072 -0.3477  0.0888 -0.3303
  349TMC3     H 5287   2.564   2.988  12.056 -3.5792  3.7389  0.5157
  349TMC3    H1 5288   2.347   3.191  11.741 -2.0861 -2.7285 -1.6701
  349TMC3    H2 5289   2.540   2.842  11.651  0.5192  1.2656 -1.5788
  349TMC3    C7 5290   2.431   3.055  11.540 -0.4408 -0.0279  0.3640
  349TMC3    C8 5291   2.615   2.779  11.912 -0.6974  0.2748 -0.0397
  349TMC3    O1 5292   2.405   2.957  11.466 -0.3849  0.4927  0.4763
  349TMC3    O2 5293   2.633   2.764  12.033  0.0491  0.4821  0.2473
  350MPD2     C 5294   1.508   1.464  10.293  0.5203 -0.3501  0.6213
  350MPD2    C1 5295   1.566   1.336  10.273  0.9441  0.2070 -0.1576
  350MPD2    C2 5296   1.702   1.320  10.284  0.6993  0.1681  0.6284
  350MPD2    C3 5297   1.788   1.428  10.292  0.7623  0.2931 -0.2580
  350MPD2    C4 5298   1.728   1.551  10.310  0.4568 -0.5246 -0.0480
  350MPD2    C5 5299   1.590   1.570  10.307 -0.4804  0.1616  0.2350
  350MPD2     H 5300   1.749   1.222  10.285  0.7401  0.1143 -3.9550
  350MPD2    H1 5301   1.788   1.641  10.300 -0.2268 -0.0287  0.3048
  350MPD2    H2 5302   1.400   1.473  10.297  0.6483  1.2286  0.5944
  350MPD2    H3 5303   1.543   1.668  10.315  0.6602  0.8261 -1.4028
  350MPD2     N 5304   1.929   1.415  10.300 -1.0876  0.2955 -0.0465
  350MPD2    H5 5305   1.962   1.319  10.299 -1.4073  0.1810  1.4154
  350MPD2    N1 5306   1.497   1.230  10.229  0.2583 -0.6000  0.5862
  350MPD2    H7 5307   1.544   1.144  10.205  1.2429  0.6962 -2.1606
  351TMC3    C1 5308   1.326   1.077  10.174 -0.3411  0.6504  0.1829
  351TMC3    C2 5309   1.414   0.984  10.113  0.4682  0.3412  0.4337
  351TMC3    C3 5310   1.362   0.862  10.082 -0.7831  0.3116 -0.1044
  351TMC3    C4 5311   1.201   1.037  10.205 -1.1449  0.1556 -0.0373
  351TMC3    C5 5312   1.151   0.916  10.170  0.5957  0.1483 -0.1144
  351TMC3    C6 5313   1.226   0.832  10.092  0.2424  0.2077  0.3158
  351TMC3     C 5314   1.361   1.212  10.219  0.3519  0.3744  0.2413
  351TMC3     O 5315   1.272   1.289  10.244  0.2374 -0.7581  0.3437
  351TMC3     H 5316   1.509   1.015  10.072 -0.7055  1.9687 -1.0609
  351TMC3    H1 5317   1.137   1.110  10.253 -0.8101 -1.1388  2.3743
  351TMC3    H2 5318   1.189   0.737  10.054 -3.1808  1.1728  1.3189
  351TMC3    C7 5319   1.050   0.864  10.259  0.5469 -0.4186 -0.8429
  351TMC3    C8 5320   1.444   0.757  10.025 -0.2312 -0.5041 -0.8596
  351TMC3    O1 5321   1.004   0.950  10.329  0.1269  0.3441 -0.3743
  351TMC3    O2 5322   1.402   0.686   9.935  0.1016 -0.4274 -0.4451
  352MPD2     C 5323   0.726   3.277   0.915  0.7050  0.1527 -0.2046
  352MPD2    C1 5324   0.664   3.313   0.801 -0.0907 -0.3574 -0.4563
  352MPD2    C2 5325   0.622   3.223   0.703 -0.1217  0.0807  0.3674
  352MPD2    C3 5326   0.647   3.086   0.721 -0.1634 -0.2995  0.4525
  352MPD2    C4 5327   0.717   3.052   0.838 -0.5283  0.1376  0.0754
  352MPD2    C5 5328   0.752   3.145   0.930  0.2586  0.3731  0.3112
  352MPD2     H 5329   0.566   3.259   0.618  2.7731 -1.1289 -2.0287
  352MPD2    H1 5330   0.751   2.952   0.858  2.1993  1.2132  0.8633
  352MPD2    H2 5331   0.731   3.333   1.008  1.6569  0.2224 -0.2954
  352MPD2    H3 5332   0.809   3.113   1.016  1.0201 -0.3055 -0.4527
  352MPD2     N 5333   0.612   2.982   0.633  0.2909 -0.3287  0.0745
  352MPD2    H5 5334   0.636   2.888   0.660  1.0593 -0.1362  0.0515
  352MPD2    N1 5335   0.627   3.455   0.794  0.9142 -1.0240 -0.0837
  352MPD2    H7 5336   0.658   3.509   0.874 -0.6076  0.4922 -0.5306
  353TMC3    C1 5337   0.484   2.882   0.465 -0.0233 -0.5712  0.5228
  353TMC3    C2 5338   0.558   2.776   0.439  0.1026  0.1278  0.5055
  353TMC3    C3 5339   0.505   2.654   0.402  0.7450  1.0223 -0.1084
  353TMC3    C4 5340   0.345   2.870   0.454  0.5992 -0.4272 -0.3480
  353TMC3    C5 5341   0.293   2.742   0.427 -0.0392 -0.3463  0.1114
  353TMC3    C6 5342   0.371   2.640   0.391 -0.7166  0.1103  0.2108
  353TMC3     C 5343   0.529   3.004   0.532  0.1508  0.5149  0.0770
  353TMC3     O 5344   0.471   3.106   0.498 -0.0021 -0.1753 -0.0191
  353TMC3     H 5345   0.663   2.789   0.462 -0.1302  2.3541  0.3079
  353TMC3    H1 5346   0.294   2.957   0.494  2.1556  0.4453 -0.2825
  353TMC3    H2 5347   0.333   2.545   0.355  0.0651  0.0354 -0.4108
  353TMC3    C7 5348   0.152   2.708   0.456 -0.4335  0.2690  0.2654
  353TMC3    C8 5349   0.593   2.544   0.412 -0.1673  0.2870  0.3471
  353TMC3    O1 5350   0.113   2.599   0.422  0.2454 -0.4732  0.1530
  353TMC3    O2 5351   0.713   2.569   0.398 -0.6214 -0.0213 -0.0199
  354TMC3    C1 5352   1.781   4.688  13.776 -0.2165 -0.1641 -0.4066
  354TMC3    C2 5353   1.750   0.071  13.724 -0.5197  0.7403  0.4956
  354TMC3    C3 5354   1.811   0.105  13.611 -0.2648  0.4425  0.7184
  354TMC3    C4 5355   1.883   4.605  13.730  0.2784  0.0466  0.1741
  354TMC3    C5 5356   1.937   4.642  13.613 -0.0892  0.2191 -0.0688
  354TMC3    C6 5357   1.906   0.021  13.555 -0.3811  0.2476 -0.8779
  354TMC3     C 5358   1.745   4.671  13.916 -0.6341  0.6552 -0.1840
  354TMC3     O 5359   1.628   4.700  13.945  0.1110 -0.2348  0.1614
  354TMC3     H 5360   1.673   0.126  13.777  0.4163  1.9434  0.6132
  354TMC3    H1 5361   1.888   4.502  13.762 -1.6190 -0.1455 -0.1385
  354TMC3    H2 5362   1.969   0.068  13.481 -2.3132  0.6773 -2.2532
  354TMC3    C7 5363   2.025   4.548  13.546 -0.7131 -0.3895 -0.5039
  354TMC3    C8 5364   1.781   0.228  13.546 -0.3326  0.5160  0.3308
  354TMC3    O1 5365   2.074   4.463  13.615 -0.4675  0.2023 -0.5189
  354TMC3    O2 5366   1.761   0.320  13.623  0.6905 -0.0590 -0.1479
  355MPD2     C 5367   1.725   0.309  11.898  0.4159  0.7411  0.6373
  355MPD2    C1 5368   1.805   0.396  11.825 -0.0757  0.4163  0.1227
  355MPD2    C2 5369   1.937   0.401  11.863 -0.5047 -0.3140 -0.4324
  355MPD2    C3 5370   1.986   0.317  11.958  0.1337  0.9234  0.6835
  355MPD2    C4 5371   1.903   0.243  12.040  0.1538 -0.2409  0.1142
  355MPD2    C5 5372   1.771   0.241  12.009  0.7443 -0.2154  0.8233
  355MPD2     H 5373   2.008   0.470  11.819 -0.3928  1.1937  2.1390
  355MPD2    H1 5374   1.937   0.190  12.128 -0.5321 -1.8594 -0.6025
  355MPD2    H2 5375   1.618   0.313  11.886  0.4241  2.5257  1.1397
  355MPD2    H3 5376   1.691   0.195  12.066  0.7287 -0.0140  0.9613
  355MPD2     N 5377   2.123   0.323  11.973 -0.1232 -0.0193  0.1131
  355MPD2    H5 5378   2.165   0.410  11.941 -1.3905  0.8799  0.9066
  355MPD2    N1 5379   1.761   0.473  11.719  0.1784  0.2416 -0.2325
  355MPD2    H7 5380   1.827   0.521  11.657  1.0965 -1.0302 -0.2273
  356TMC3    C1 5381   2.312   0.327  12.110 -0.8317  0.3884  1.1746
  356TMC3    C2 5382   2.386   0.390  12.016  0.0316 -0.5816 -0.4451
  356TMC3    C3 5383   2.426   0.521  12.035 -0.3695  0.3109  0.5239
  356TMC3    C4 5384   2.287   0.390  12.229 -0.8018  0.5742  0.3623
  356TMC3    C5 5385   2.330   0.519  12.245  0.3944  0.4435 -0.0545
  356TMC3    C6 5386   2.399   0.586  12.151 -0.3750  0.6933  0.8832
  356TMC3     C 5387   2.197   0.251  12.069 -0.0111  0.3263  0.1337
  356TMC3     O 5388   2.169   0.157  12.138 -0.0220 -0.3084  0.0355
  356TMC3     H 5389   2.413   0.342  11.923  0.5612  2.0138 -1.6346
  356TMC3    H1 5390   2.221   0.343  12.301 -1.1257  1.9621  0.9638
  356TMC3    H2 5391   2.406   0.693  12.166  0.7074  0.5752  1.2113
  356TMC3    C7 5392   2.256   0.601  12.338  0.1433 -0.5041  0.3000
  356TMC3    C8 5393   2.500   0.590  11.926  0.7161 -0.1143  0.3362
  356TMC3    O1 5394   2.141   0.566  12.354  0.5593  0.4020 -0.2653
  356TMC3    O2 5395   2.511   0.528  11.819 -0.0833  0.2330  0.2452
  357MPD2     C 5396   1.880   1.081   0.523 -0.4514  0.4883  0.0464
  357MPD2    C1 5397   1.884   1.035   0.654  0.3235 -0.1107 -0.1713
  357MPD2    C2 5398   1.782   1.064   0.747 -0.1875  0.2840  0.4808
  357MPD2    C3 5399   1.688   1.162   0.708 -0.2628  0.0543  0.5588
  357MPD2    C4 5400   1.696   1.219   0.581  0.5032  0.0166 -0.1634
  357MPD2    C5 5401   1.783   1.175   0.487 -0.3448 -0.0954  0.3048
  357MPD2     H 5402   1.786   1.023   0.847  1.1621 -2.1402 -0.5667
  357MPD2    H1 5403   1.622   1.294   0.556 -2.1817 -3.2202 -1.7496
  357MPD2    H2 5404   1.956   1.050   0.452  0.6355 -0.3421  1.5715
  357MPD2    H3 5405   1.767   1.215   0.387  3.1811  2.0009  0.5820
  357MPD2     N 5406   1.580   1.189   0.791  0.0614  0.9104  0.4909
  357MPD2    H5 5407   1.524   1.268   0.762 -0.5429  0.4078  0.2785
  357MPD2    N1 5408   1.975   0.930   0.677 -0.3641  0.1787  0.3751
  357MPD2    H7 5409   2.017   0.896   0.592 -2.5907 -0.1902 -0.5766
  358TMC3    C1 5410   2.090   0.760   0.777  1.0346 -0.5317  0.1481
  358TMC3    C2 5411   2.062   0.680   0.671  0.2589  0.1255 -0.2301
  358TMC3    C3 5412   2.089   0.545   0.679 -0.1214 -1.1339 -0.1344
  358TMC3    C4 5413   2.150   0.706   0.888  0.3108  0.0364  0.2139
  358TMC3    C5 5414   2.167   0.574   0.901 -0.1732  0.6293 -0.6870
  358TMC3    C6 5415   2.153   0.490   0.792  0.5103 -0.0562 -0.5601
  358TMC3     C 5416   2.009   0.877   0.799 -0.4994 -0.2686  0.0017
  358TMC3     O 5417   1.965   0.906   0.914  0.2109 -0.1653  0.0715
  358TMC3     H 5418   1.982   0.716   0.608 -0.3954 -1.0425 -0.0697
  358TMC3    H1 5419   2.171   0.779   0.965 -0.2452  0.1133  0.2908
  358TMC3    H2 5420   2.137   0.383   0.802 -0.0825  0.2484  1.8639
  358TMC3    C7 5421   2.264   0.544   1.005  0.0177  0.7529 -0.5962
  358TMC3    C8 5422   2.011   0.447   0.593  0.2877 -0.2802  0.3537
  358TMC3    O1 5423   2.291   0.637   1.082  0.1552  0.1741 -0.0310
  358TMC3    O2 5424   1.945   0.358   0.652 -0.0862  0.0325 -0.1125
  359MPD2     C 5425   2.811   4.460  12.480  1.2259  0.4283  0.3066
  359MPD2    C1 5426   2.690   4.457  12.422  0.0634 -0.1204 -0.1383
  359MPD2    C2 5427   2.577   4.434  12.499 -0.1844  0.4557  0.2183
  359MPD2    C3 5428   2.580   4.411  12.636  0.2421  0.7985  0.1107
  359MPD2    C4 5429   2.704   4.390  12.688 -0.1748 -0.0717  0.1422
  359MPD2    C5 5430   2.815   4.415  12.613 -0.5234  0.2006 -0.3704
  359MPD2     H 5431   2.483   4.447  12.447 -1.3863 -2.4816  1.6800
  359MPD2    H1 5432   2.708   4.370  12.795 -1.7407  1.2859  0.4521
  359MPD2    H2 5433   2.908   4.470  12.433  2.2199  1.0474  2.4835
  359MPD2    H3 5434   2.917   4.410  12.650 -0.2670  1.0554 -0.9844
  359MPD2     N 5435   2.468   4.390  12.722  0.5458 -0.0480 -0.5452
  359MPD2    H5 5436   2.487   4.343  12.810 -0.5362  1.4450  0.4933
  359MPD2    N1 5437   2.672   4.505  12.289  0.1332 -0.4800  0.2242
  359MPD2    H7 5438   2.578   4.499  12.250 -0.2171 -2.2973  1.3149
  360TMC3    C1 5439   2.744   4.542  12.070 -0.2193 -0.9101  0.1310
  360TMC3    C2 5440   2.857   4.547  11.992  0.2101  0.2242  0.1918
  360TMC3    C3 5441   2.839   4.521  11.858 -0.1157  1.2224  0.0493
  360TMC3    C4 5442   2.623   4.493  12.028  0.2997 -0.1556 -0.3133
  360TMC3    C5 5443   2.613   4.449  11.899  0.6926 -0.6276  0.4188
  360TMC3    C6 5444   2.721   4.466  11.813  0.4024 -0.3722 -0.4860
  360TMC3     C 5445   2.770   4.560  12.214  0.4449 -0.5619  0.0540
  360TMC3     O 5446   2.874   4.610  12.249  0.1861 -0.6477 -0.0152
  360TMC3     H 5447   2.943   4.595  12.037  0.3571  0.1857 -0.0465
  360TMC3    H1 5448   2.530   4.508  12.082 -0.3883 -0.8204 -1.3058
  360TMC3    H2 5449   2.705   4.434  11.710  4.9329 -1.6192 -0.7841
  360TMC3    C7 5450   2.499   4.364  11.856 -0.8734  0.2905 -0.3532
  360TMC3    C8 5451   2.950   4.517  11.773 -0.3674 -0.0783 -0.2609
  360TMC3    O1 5452   2.514   4.341  11.735  0.1060  0.2783  0.3537
  360TMC3    O2 5453   3.029   4.610  11.787 -0.4737  0.6171 -0.3990
  361MPD2     C 5454   3.962   3.558  16.304  0.0198 -0.3021  0.5532
  361MPD2    C1 5455   3.943   3.568  16.445  0.3108  0.0525 -0.2858
  361MPD2    C2 5456   4.027   3.491  16.523 -0.4932  0.4388 -0.3115
  361MPD2    C3 5457   4.126   3.401  16.472  0.2167 -0.0323  0.2889
  361MPD2    C4 5458   4.141   3.391  16.332  0.2427  0.1922  0.6911
  361MPD2    C5 5459   4.058   3.470  16.250  0.1300  0.1082 -0.4404
  361MPD2     H 5460   4.017   3.499  16.631 -1.4209 -0.5994 -0.3301
  361MPD2    H1 5461   4.216   3.325  16.288 -1.9858 -1.6431 -0.3484
  361MPD2    H2 5462   3.899   3.611  16.232  0.2087  1.1827  1.4856
  361MPD2    H3 5463   4.079   3.473  16.144 -0.2260  0.0478 -0.5117
  361MPD2     N 5464   4.215   3.335  16.556  0.1763 -0.3276  0.2937
  361MPD2    H5 5465   4.276   3.266  16.512  0.1295 -0.2679  0.1342
  361MPD2    N1 5466   3.850   3.659  16.507 -0.0100 -0.5641 -0.4512
  361MPD2    H7 5467   3.841   3.653  16.608 -0.1239 -1.7018 -0.5364
  362TMC3    C1 5468   3.730   3.841  16.542  0.4056 -0.3321 -0.3715
  362TMC3    C2 5469   3.632   3.775  16.621  0.4112 -0.2163 -0.3795
  362TMC3    C3 5470   3.521   3.848  16.660  0.3825 -0.2591 -0.2180
  362TMC3    C4 5471   3.714   3.967  16.495  0.2137 -0.1561  0.1192
  362TMC3    C5 5472   3.589   4.017  16.501 -0.4293 -0.0249 -0.1285
  362TMC3    C6 5473   3.489   3.959  16.578  0.1017 -0.3599 -0.2481
  362TMC3     C 5474   3.787   3.757  16.442  0.0956 -0.4537 -0.3639
  362TMC3     O 5475   3.803   3.806  16.328 -0.2936  0.1781  0.5753
  362TMC3     H 5476   3.653   3.676  16.659  0.1659 -1.0553 -2.3904
  362TMC3    H1 5477   3.794   4.012  16.437  0.3323 -0.4591  0.0505
  362TMC3    H2 5478   3.388   3.997  16.573 -0.0275 -0.9792 -2.4479
  362TMC3    C7 5479   3.549   4.090  16.382 -0.5034 -0.1078  0.3623
  362TMC3    C8 5480   3.415   3.777  16.729 -0.3434 -1.0000 -0.7816
  362TMC3    O1 5481   3.438   4.143  16.389  0.6461  0.3111  0.3203
  362TMC3    O2 5482   3.408   3.656  16.724 -0.6189 -0.5203 -0.0064
  363TMC3    C1 5483   1.827   0.728   9.318  0.2255  0.2565 -1.1960
  363TMC3    C2 5484   1.926   0.686   9.406  0.4296 -0.0050  0.6660
  363TMC3    C3 5485   1.938   0.762   9.520  0.5411 -0.6381  0.4250
  363TMC3    C4 5486   1.747   0.836   9.340 -0.3759 -0.1395  0.6388
  363TMC3    C5 5487   1.779   0.915   9.442 -0.6389  0.4675  0.3007
  363TMC3    C6 5488   1.879   0.884   9.535  0.9874 -0.5385 -0.6723
  363TMC3     C 5489   1.796   0.629   9.215  0.1982 -1.0537  0.0459
  363TMC3     O 5490   1.891   0.560   9.175 -0.3943 -0.0418  0.0292
  363TMC3     H 5491   1.986   0.599   9.384  0.2423 -0.2585  1.1844
  363TMC3    H1 5492   1.663   0.872   9.282  1.8452  1.4450 -1.5685
  363TMC3    H2 5493   1.888   0.949   9.621  0.5135 -0.5998 -0.5750
  363TMC3    C7 5494   1.702   1.040   9.464  0.7094  0.1808  0.4161
  363TMC3    C8 5495   2.040   0.733   9.620 -0.7124  0.0061  0.0109
  363TMC3    O1 5496   1.586   1.043   9.419 -0.1697  0.2493 -0.2431
  363TMC3    O2 5497   2.024   0.793   9.721  0.0138  0.0575  0.0930
  364MPD2     C 5498   0.933   0.281  10.833  0.6686 -0.2208 -0.2077
  364MPD2    C1 5499   1.043   0.221  10.772  0.3791  0.3661  0.7016
  364MPD2    C2 5500   1.045   0.077  10.770 -0.2506 -0.0314 -0.5532
  364MPD2    C3 5501   0.946   4.738  10.831  0.1401 -0.7184 -0.1644
  364MPD2    C4 5502   0.840   0.071  10.884  0.4862 -0.8447 -0.0899
  364MPD2    C5 5503   0.827   0.208  10.885  0.4712 -0.3034  0.1305
  364MPD2     H 5504   1.120   0.021  10.715  0.4359  0.8145 -0.4755
  364MPD2    H1 5505   0.765   0.006  10.927  0.7069  0.3982  2.2263
  364MPD2    H2 5506   0.936   0.389  10.845 -1.3764 -0.2967  0.9667
  364MPD2    H3 5507   0.743   0.259  10.931  1.1349  1.4418 -0.5733
  364MPD2     N 5508   0.955   4.599  10.848 -0.2184 -0.2477  0.2857
  364MPD2    H5 5509   0.875   4.555  10.893 -0.9149 -0.1776 -0.8669
  364MPD2    N1 5510   1.136   0.307  10.710  0.6582  0.0133  0.1253
  364MPD2    H7 5511   1.123   0.407  10.721 -0.7756 -0.1369 -0.2200
  365TMC3    C1 5512   1.331   0.374  10.570 -0.0649  0.5165 -0.2450
  365TMC3    C2 5513   1.452   0.322  10.540  0.0788 -0.0262  0.6052
  365TMC3    C3 5514   1.529   0.401  10.464  0.4530  0.6442  0.0208
  365TMC3    C4 5515   1.283   0.495  10.544  1.1757 -0.5430  0.0377
  365TMC3    C5 5516   1.358   0.563  10.457  0.0163  0.6093  0.1793
  365TMC3    C6 5517   1.480   0.517  10.416 -0.6589  0.6871 -0.1650
  365TMC3     C 5518   1.244   0.263  10.622 -0.9371 -0.5279  0.0811
  365TMC3     O 5519   1.291   0.148  10.607 -0.3866 -0.3799 -0.0062
  365TMC3     H 5520   1.485   0.223  10.567  1.1674 -0.2472 -1.5795
  365TMC3    H1 5521   1.182   0.532  10.552  0.8842 -1.1565 -0.9318
  365TMC3    H2 5522   1.538   0.571  10.342 -1.1414 -0.7101 -1.5898
  365TMC3    C7 5523   1.356   0.709  10.465 -0.2201 -0.3961 -0.4631
  365TMC3    C8 5524   1.631   0.341  10.385 -0.5146  0.8561 -0.6671
  365TMC3    O1 5525   1.436   0.771  10.401 -0.1895  0.1901 -0.0176
  365TMC3    O2 5526   1.729   0.406  10.361 -0.0018  0.3641 -0.3505
  366MPD2     C 5527   4.062   2.412  15.093  0.2863 -0.7663  0.2986
  366MPD2    C1 5528   4.178   2.344  15.114  0.4501 -0.6311 -0.4592
  366MPD2    C2 5529   4.172   2.208  15.153  0.0690  0.4695 -0.6915
  366MPD2    C3 5530   4.054   2.140  15.167 -0.1015 -0.1389 -0.3027
  366MPD2    C4 5531   3.940   2.214  15.154  0.1734  0.3601  0.2380
  366MPD2    C5 5532   3.944   2.346  15.117 -0.3242 -0.1247 -0.3825
  366MPD2     H 5533   4.268   2.158  15.163 -0.2303 -0.2219 -1.2542
  366MPD2    H1 5534   3.839   2.178  15.171 -0.6108  2.0527 -0.8035
  366MPD2    H2 5535   4.056   2.517  15.067 -2.9266 -0.6476  1.5688
  366MPD2    H3 5536   3.852   2.400  15.101 -0.8213 -1.1954 -1.1263
  366MPD2     N 5537   4.063   2.004  15.197  0.0903  0.1782  0.3658
  366MPD2    H5 5538   4.152   1.957  15.184  0.2606  0.5967  0.0108
  366MPD2    N1 5539   4.303   2.412  15.108 -0.0821  0.2445  0.6866
  366MPD2    H7 5540   4.382   2.353  15.132  1.0590  1.2140 -0.7374
  367TMC3    C1 5541   4.464   2.564  15.043 -1.0279  0.0957 -0.2341
  367TMC3    C2 5542   4.551   2.521  15.142 -0.1646  0.0158  0.2877
  367TMC3    C3 5543   4.684   2.496  15.103 -0.2875  0.0183  0.4035
  367TMC3    C4 5544   4.494   2.595  14.919 -0.5628 -0.1661  0.2632
  367TMC3    C5 5545   4.623   2.568  14.879 -0.5929 -0.1183  0.7236
  367TMC3    C6 5546   4.707   2.512  14.971  0.1003  0.3869 -0.5828
  367TMC3     C 5547   4.321   2.542  15.069 -1.0121  0.6777  0.8418
  367TMC3     O 5548   4.242   2.631  15.037 -0.4445 -0.0254 -0.2434
  367TMC3     H 5549   4.517   2.480  15.236  0.1862  2.1280  1.3507
  367TMC3    H1 5550   4.417   2.642  14.859  1.7250  1.0591 -1.7192
  367TMC3    H2 5551   0.065   2.488  14.931 -0.4469 -2.1862 -0.4156
  367TMC3    C7 5552   4.636   2.494  14.754  0.0134  0.5933 -0.2037
  367TMC3    C8 5553   0.029   2.411  15.175 -0.0660 -0.4657 -0.1213
  367TMC3    O1 5554   4.719   2.407  14.738 -0.1743  0.1293  0.4038
  367TMC3    O2 5555   0.078   2.311  15.114  0.2437  0.0354  0.5824
  368MPD2     C 5556   1.018   3.220  12.914 -0.1133 -0.7816 -0.7479
  368MPD2    C1 5557   1.011   3.361  12.909  0.1639 -1.0293 -0.1153
  368MPD2    C2 5558   1.098   3.436  12.825 -0.0972  0.6844 -0.3547
  368MPD2    C3 5559   1.205   3.371  12.763 -0.1750 -0.2213  0.2064
  368MPD2    C4 5560   1.213   3.232  12.774 -1.3732  0.5520  0.0352
  368MPD2    C5 5561   1.129   3.161  12.851  0.7425  0.3763 -0.0134
  368MPD2     H 5562   1.086   3.543  12.813 -3.0001  0.2888 -1.0255
  368MPD2    H1 5563   1.293   3.170  12.735 -2.9844 -0.2207 -2.0454
  368MPD2    H2 5564   0.961   3.158  12.982 -0.9181  1.1544  0.3276
  368MPD2    H3 5565   1.145   3.054  12.854  2.3325  0.6161  0.5333
  368MPD2     N 5566   1.298   3.439  12.682 -0.4184 -0.0494  0.2390
  368MPD2    H5 5567   1.372   3.384  12.638 -0.8824 -0.8925  0.5131
  368MPD2    N1 5568   0.909   3.430  12.980 -0.1423 -0.5117  0.2868
  368MPD2    H7 5569   0.847   3.369  13.032 -0.5584  0.0990  0.5077
  369TMC3    C1 5570   0.805   3.600  13.101  0.6166  0.4396  0.0997
  369TMC3    C2 5571   0.817   3.733  13.145 -0.0865 -0.3603 -0.1238
  369TMC3    C3 5572   0.716   3.799  13.210  0.7718 -0.7576  0.6227
  369TMC3    C4 5573   0.688   3.536  13.130 -0.0972 -0.6691 -0.0735
  369TMC3    C5 5574   0.581   3.606  13.178  0.0678 -0.7664 -0.0883
  369TMC3    C6 5575   0.594   3.740  13.212  0.2523 -0.1052 -0.2471
  369TMC3     C 5576   0.907   3.566  13.004  0.1190 -0.5014 -0.9694
  369TMC3     O 5577   0.978   3.658  12.978  0.0072 -0.3648 -0.9146
  369TMC3     H 5578   0.914   3.781  13.147  0.5212 -1.4319 -3.1870
  369TMC3    H1 5579   0.671   3.434  13.100  1.1241 -1.8565  3.2626
  369TMC3    H2 5580   0.506   3.795  13.241  0.9973  0.6293  0.6253
  369TMC3    C7 5581   0.453   3.551  13.191 -0.4383 -0.5247 -0.7086
  369TMC3    C8 5582   0.712   3.939  13.185 -0.2018 -0.3773 -0.8738
  369TMC3    O1 5583   0.386   3.601  13.286 -0.2390  0.2581  0.5459
  369TMC3    O2 5584   0.621   3.978  13.115  0.0162  0.7975  0.1664
  370TMC3    C1 5585   0.056   4.328  16.136 -0.8005 -0.6379  0.6122
  370TMC3    C2 5586   4.684   4.286  16.200 -0.0133  0.2484  0.4814
  370TMC3    C3 5587   4.634   4.160  16.172  0.2694  0.0355  0.1506
  370TMC3    C4 5588   0.105   4.264  16.032  0.2142 -0.2013 -0.2886
  370TMC3    C5 5589   0.027   4.162  15.980 -0.1254 -0.4540 -0.0681
  370TMC3    C6 5590   4.669   4.103  16.055 -0.1386  0.4402 -0.0330
  370TMC3     C 5591   0.151   4.407  16.208  0.3253 -0.5082  0.6971
  370TMC3     O 5592   0.130   4.422  16.330  0.1658 -0.6841  0.2245
  370TMC3     H 5593   4.657   4.347  16.285  1.9807  0.1492  1.1983
  370TMC3    H1 5594   0.204   4.284  15.991 -1.1489  1.4537 -2.8061
  370TMC3    H2 5595   4.621   4.011  16.024 -0.8306  0.4375  1.0289
  370TMC3    C7 5596   0.093   4.077  15.882  0.4438  0.0839  0.0539
  370TMC3    C8 5597   4.626   4.080  16.287 -0.1659 -0.6420 -0.7278
  370TMC3    O1 5598   0.212   4.090  15.861 -0.3297 -0.4567 -0.2795
  370TMC3    O2 5599   4.645   3.959  16.266  0.4767  0.3119  0.3251
  371TMC3    C1 5600   1.568   2.661  15.395  0.2667 -0.8321 -1.3755
  371TMC3    C2 5601   1.432   2.650  15.403 -0.2093 -0.3958  0.1118
  371TMC3    C3 5602   1.360   2.762  15.396  0.2835 -0.4258  0.1445
  371TMC3    C4 5603   1.631   2.778  15.356 -0.4816  0.1645 -0.1142
  371TMC3    C5 5604   1.553   2.888  15.345  0.6588  0.4404 -0.6769
  371TMC3    C6 5605   1.419   2.887  15.363 -0.4372 -0.1726 -0.0389
  371TMC3     C 5606   1.655   2.546  15.390 -0.3186  0.7079 -0.0798
  371TMC3     O 5607   1.768   2.558  15.344  0.0076 -0.7947 -0.6264
  371TMC3     H 5608   1.396   2.554  15.438  1.9514 -1.4899 -0.6620
  371TMC3    H1 5609   1.737   2.790  15.341 -0.2790  1.9580  2.5924
  371TMC3    H2 5610   1.355   2.974  15.345 -0.1313  0.4289  1.7695
  371TMC3    C7 5611   1.605   3.004  15.273  0.1619 -0.3935  0.4287
  371TMC3    C8 5612   1.223   2.749  15.395 -0.3565  0.8278  1.0393
  371TMC3    O1 5613   1.532   3.100  15.260 -0.2075  0.1675  0.8286
  371TMC3    O2 5614   1.181   2.653  15.336 -0.6971  0.3585 -0.0260
  372MPD2     C 5615   1.464   3.322  13.035 -0.1316 -0.8958 -0.5321
  372MPD2    C1 5616   1.475   3.187  13.059 -0.1658  0.1168 -0.1515
  372MPD2    C2 5617   1.384   3.130  13.144  0.0091 -1.1141  0.7347
  372MPD2    C3 5618   1.268   3.195  13.188 -0.0721  1.0407  0.0549
  372MPD2    C4 5619   1.244   3.326  13.148  0.0261  0.1527 -0.7686
  372MPD2    C5 5620   1.344   3.382  13.068  0.5159 -0.4628  0.5272
  372MPD2     H 5621   1.396   3.024  13.161  1.5810 -0.7487  1.8884
  372MPD2    H1 5622   1.157   3.385  13.174 -0.9296 -1.0600 -1.2141
  372MPD2    H2 5623   1.535   3.383  12.981  0.9395 -2.6043 -1.0198
  372MPD2    H3 5624   1.325   3.480  13.026  0.3695 -2.5797 -4.3105
  372MPD2     N 5625   1.174   3.127  13.267 -0.2964  0.2429 -0.6942
  372MPD2    H5 5626   1.178   3.027  13.283 -1.4605  0.3787  0.4490
  372MPD2    N1 5627   1.584   3.100  13.024  0.2166  0.4751 -0.3726
  372MPD2    H7 5628   1.611   3.026  13.088  0.6696  0.4399 -0.6051
  373TMC3    C1 5629   0.968   3.102  13.387 -0.0380 -0.2526 -0.1077
  373TMC3    C2 5630   0.895   3.142  13.495 -0.1633  0.3664 -0.8564
  373TMC3    C3 5631   0.795   3.064  13.539 -0.1410 -0.3970  0.1137
  373TMC3    C4 5632   0.949   2.972  13.330  0.2564 -0.4605 -0.4475
  373TMC3    C5 5633   0.855   2.896  13.394  0.0869 -0.4331  0.4463
  373TMC3    C6 5634   0.779   2.939  13.496  0.1295 -0.2361 -0.1407
  373TMC3     C 5635   1.065   3.192  13.333 -0.0489  0.3009  0.3004
  373TMC3     O 5636   1.041   3.305  13.359  0.1373  0.0397  0.0852
  373TMC3     H 5637   0.909   3.234  13.551  0.6047 -1.6648  2.2882
  373TMC3    H1 5638   1.006   2.932  13.247  1.0561  1.0477 -0.6077
  373TMC3    H2 5639   0.710   2.878  13.554  0.8106  1.6032  2.5953
  373TMC3    C7 5640   0.871   2.749  13.375 -0.0428 -0.0523 -0.8808
  373TMC3    C8 5641   0.759   3.078  13.677  0.3468  0.1678  0.3463
  373TMC3    O1 5642   0.984   2.712  13.347  0.2432 -0.0482  0.1822
  373TMC3    O2 5643   0.655   3.034  13.725  0.7229  0.0165 -0.2094
  374TMC3    C1 5644   1.399   3.441   9.663 -0.3498 -0.1395  1.5200
  374TMC3    C2 5645   1.421   3.558   9.738  0.2203  0.7848 -0.0765
  374TMC3    C3 5646   1.444   3.670   9.658  0.9255 -0.1141  0.3186
  374TMC3    C4 5647   1.381   3.437   9.529 -0.1663 -0.3439  0.6516
  374TMC3    C5 5648   1.411   3.554   9.456 -0.4964 -0.5974 -0.3518
  374TMC3    C6 5649   1.439   3.670   9.523 -0.4493 -0.2053  0.3451
  374TMC3     C 5650   1.366   3.321   9.735 -0.1042  0.6749  0.6154
  374TMC3     O 5651   1.351   3.216   9.667 -0.4826 -0.5802 -0.1533
  374TMC3     H 5652   1.400   3.566   9.844  0.8183  1.2928  0.0087
  374TMC3    H1 5653   1.334   3.348   9.488 -0.7079  0.3833 -0.3327
  374TMC3    H2 5654   1.474   3.758   9.470 -1.5221  0.2232  0.3479
  374TMC3    C7 5655   1.411   3.550   9.311 -0.0661 -0.0487 -0.0887
  374TMC3    C8 5656   1.513   3.786   9.716 -0.4664  0.3352 -0.4919
  374TMC3    O1 5657   1.403   3.654   9.251 -0.5645  0.3199 -0.0920
  374TMC3    O2 5658   1.508   3.886   9.645 -0.1891  0.0837  0.5468
  375MPD2     C 5659   1.569   4.000  17.200  0.5728 -0.0182  0.0136
  375MPD2    C1 5660   1.491   4.102  17.141  0.5297 -0.1744 -0.3267
  375MPD2    C2 5661   1.467   4.095  17.001 -0.0489  0.3633  0.3064
  375MPD2    C3 5662   1.529   3.995  16.932  0.0997 -0.2883  0.3131
  375MPD2    C4 5663   1.595   3.888  16.996 -0.3005  0.0912  0.2429
  375MPD2    C5 5664   1.617   3.895  17.130 -0.5357 -0.1528  0.1171
  375MPD2     H 5665   1.418   4.179  16.953  1.4763 -0.1495 -2.1607
  375MPD2    H1 5666   1.643   3.803  16.948  0.1236  0.5884 -0.2158
  375MPD2    H2 5667   1.603   4.007  17.302 -0.0140 -1.8048  0.3215
  375MPD2    H3 5668   1.678   3.817  17.175 -2.3740 -0.4276  2.1687
  375MPD2     N 5669   1.520   3.985  16.793  0.4602 -0.2402  0.2010
  375MPD2    H5 5670   1.580   3.910  16.758 -2.8779 -2.9564  0.3050
  375MPD2    N1 5671   1.432   4.208  17.211 -0.5023 -0.1278 -0.7009
  375MPD2    H7 5672   1.395   4.282  17.153 -2.0593 -0.9899 -0.8139
  376TMC3    C1 5673   1.478   4.032  16.564 -0.3195  0.1079 -0.0056
  376TMC3    C2 5674   1.598   3.970  16.526 -1.1620 -0.7232  0.1016
  376TMC3    C3 5675   1.620   3.951  16.386  0.6925  0.2371 -0.7990
  376TMC3    C4 5676   1.415   4.112  16.469  0.6450 -0.5933  0.7863
  376TMC3    C5 5677   1.456   4.111  16.340 -0.1387 -0.1052  0.0288
  376TMC3    C6 5678   1.555   4.027  16.295 -0.3312 -0.5510  0.0099
  376TMC3     C 5679   1.450   4.068  16.704  0.1570 -0.9118  0.0196
  376TMC3     O 5680   1.385   4.168  16.722  0.1028  0.2980  0.5820
  376TMC3     H 5681   1.669   3.929  16.598  1.5086  0.8294 -1.6286
  376TMC3    H1 5682   1.334   4.175  16.503 -0.3726  0.4064 -3.4101
  376TMC3    H2 5683   1.583   4.025  16.191 -0.2885 -0.3521  0.0170
  376TMC3    C7 5684   1.386   4.200  16.248 -0.6677 -0.3462 -0.2933
  376TMC3    C8 5685   1.760   3.947  16.356  0.0146 -0.1418  0.0055
  376TMC3    O1 5686   1.322   4.285  16.300 -0.0680  0.4507  0.4105
  376TMC3    O2 5687   1.791   4.039  16.281  0.0202 -0.2781 -0.8049
  377MPD2     C 5688   0.415   3.785  12.697  0.1280 -0.1058  0.1267
  377MPD2    C1 5689   0.304   3.719  12.660 -0.5304 -0.4586 -0.2935
  377MPD2    C2 5690   0.219   3.667  12.756  0.6883 -0.9596 -0.3255
  377MPD2    C3 5691   0.249   3.694  12.887 -0.9399  0.0309  0.1016
  377MPD2    C4 5692   0.362   3.764  12.924 -0.6185  0.6933  0.2619
  377MPD2    C5 5693   0.442   3.816  12.827 -0.2533 -0.3548 -0.2635
  377MPD2     H 5694   0.133   3.606  12.729  0.4151 -1.6795  2.2448
  377MPD2    H1 5695   0.385   3.792  13.026  1.9128 -0.7790  0.0888
  377MPD2    H2 5696   0.488   3.825  12.627  0.2620 -0.9449 -0.2077
  377MPD2    H3 5697   0.529   3.872  12.861 -2.8296  2.7636  1.2004
  377MPD2     N 5698   0.156   3.666  12.992 -0.8235  0.3137 -0.0816
  377MPD2    H5 5699   0.188   3.684  13.087 -2.1634 -0.4228  0.5048
  377MPD2    N1 5700   0.275   3.696  12.525 -0.4947  0.5541 -0.2635
  377MPD2    H7 5701   0.346   3.722  12.457 -0.8673 -1.2792 -1.3501
  378TMC3    C1 5702   0.056   3.605  12.117  0.3903  0.1171  0.1044
  378TMC3    C2 5703   0.050   3.634  12.251 -0.7991 -0.5087 -0.7092
  378TMC3    C3 5704   0.172   3.628  12.323  0.2134  0.3040 -0.4895
  378TMC3    C4 5705   0.173   3.568  12.056 -0.2605  0.6057  0.0523
  378TMC3    C5 5706   0.289   3.561  12.130  0.3544  0.5123 -0.4097
  378TMC3    C6 5707   0.290   3.586  12.270  0.0336 -0.2706 -0.0951
  378TMC3     C 5708   4.674   3.632  12.030 -0.5464  0.1513  0.0078
  378TMC3     O 5709   4.578   3.659  12.098  0.5227 -0.3801 -0.7352
  378TMC3     H 5710   4.701   3.672  12.300 -0.9821 -0.3684 -1.1563
  378TMC3    H1 5711   0.164   3.554  11.949  2.6351 -1.5381  0.0821
  378TMC3    H2 5712   0.388   3.600  12.313 -1.1072  1.4906  1.9224
  378TMC3    C7 5713   0.415   3.510  12.076  0.0005  0.4133 -0.7519
  378TMC3    C8 5714   0.162   3.639  12.468  0.0303 -0.1387 -0.1609
  378TMC3    O1 5715   0.515   3.495  12.148  0.4897  0.4592 -0.0760
  378TMC3    O2 5716   0.054   3.621  12.524  0.0393 -0.1346 -0.1625
  379MPD2     C 5717   0.894   1.976  15.698 -0.4046 -0.0463 -0.3237
  379MPD2    C1 5718   0.803   1.882  15.740  0.0824 -0.2786  0.1283
  379MPD2    C2 5719   0.828   1.817  15.860 -0.8383 -0.4076  0.1477
  379MPD2    C3 5720   0.941   1.846  15.923  0.3446  0.2264 -0.6132
  379MPD2    C4 5721   1.048   1.910  15.860  0.2838  0.2390  0.0043
  379MPD2    C5 5722   1.018   1.986  15.750  0.2035 -0.4505 -0.1803
  379MPD2     H 5723   0.757   1.748  15.904 -2.3507  0.1793 -1.3462
  379MPD2    H1 5724   1.143   1.918  15.912 -0.8456  1.3259  1.8966
  379MPD2    H2 5725   0.876   2.038  15.610 -1.1772  1.0532  0.6161
  379MPD2    H3 5726   1.092   2.036  15.688 -0.3021 -0.4987 -0.8165
  379MPD2     N 5727   0.964   1.792  16.054  0.1271 -0.7148 -0.4046
  379MPD2    H5 5728   1.045   1.835  16.097 -1.4059 -0.8279  2.5772
  379MPD2    N1 5729   0.684   1.861  15.661  0.3441  0.0653  0.1938
  379MPD2    H7 5730   0.669   1.933  15.592  1.1461  1.5962  1.6086
  380TMC3    C1 5731   0.515   1.741  15.573  0.0741 -0.4363 -0.7482
  380TMC3    C2 5732   0.561   1.753  15.448 -0.4733 -0.1008  0.0892
  380TMC3    C3 5733   0.470   1.782  15.345  0.1103 -0.1919 -0.6346
  380TMC3    C4 5734   0.381   1.756  15.602  0.3733  0.3470  0.9212
  380TMC3    C5 5735   0.293   1.801  15.507 -0.3031  0.0964 -0.1377
  380TMC3    C6 5736   0.339   1.814  15.378 -0.3140  0.5303 -0.8486
  380TMC3     C 5737   0.603   1.758  15.685  0.6342 -0.3133  0.0906
  380TMC3     O 5738   0.596   1.674  15.776  0.6553  0.4848  0.4171
  380TMC3     H 5739   0.665   1.749  15.419 -0.7351  0.3070 -0.8911
  380TMC3    H1 5740   0.346   1.726  15.700  0.7657 -2.1874  0.2867
  380TMC3    H2 5741   0.273   1.840  15.297 -0.5716  0.4196 -0.6720
  380TMC3    C7 5742   0.221   1.916  15.559 -0.0551 -0.2371 -0.1174
  380TMC3    C8 5743   0.517   1.799  15.207  0.3332 -0.5871  0.5875
  380TMC3    O1 5744   0.196   1.918  15.682 -0.2612 -0.2699  0.5832
  380TMC3    O2 5745   0.637   1.812  15.192 -0.0040 -0.3299 -0.2442
  381TMC3    C1 5746   4.610   3.465  16.024  0.0908 -0.4358  0.2364
  381TMC3    C2 5747   4.730   3.531  16.012 -0.3232  0.5341  0.0342
  381TMC3    C3 5748   0.028   3.608  16.118 -0.1716 -0.0270  0.1544
  381TMC3    C4 5749   4.533   3.478  16.140 -0.6019  1.2247 -0.7389
  381TMC3    C5 5750   4.571   3.566  16.237 -0.8344  0.2654  0.0920
  381TMC3    C6 5751   4.689   3.638  16.224  0.4397 -0.9075 -0.5105
  381TMC3     C 5752   4.568   3.412  15.889 -0.0223  0.0865  0.7181
  381TMC3     O 5753   4.657   3.364  15.821 -0.0029 -0.3324  0.2456
  381TMC3     H 5754   0.054   3.507  15.927  0.2287 -1.2698  0.9576
  381TMC3    H1 5755   4.453   3.407  16.159  0.4344 -0.0065 -0.9395
  381TMC3    H2 5756   4.727   3.676  16.318 -1.2765 -4.1091  1.4965
  381TMC3    C7 5757   4.574   3.505  16.372 -0.7424  0.6220 -0.1297
  381TMC3    C8 5758   0.152   3.681  16.097  0.5348  0.0182 -0.2181
  381TMC3    O1 5759   4.619   3.391  16.379  0.0364  0.4179 -0.0613
  381TMC3    O2 5760   0.237   3.622  16.031  0.0608 -0.5316  0.6632
  382MPD2     C 5761   4.171   1.366  16.669  0.8195  0.3724 -0.0164
  382MPD2    C1 5762   4.214   1.379  16.795 -0.1930 -0.8165 -0.4703
  382MPD2    C2 5763   4.234   1.269  16.872  0.0304 -0.0307  0.3224
  382MPD2    C3 5764   4.229   1.138  16.820  0.1259  0.9474 -0.2320
  382MPD2    C4 5765   4.195   1.133  16.686 -1.3458 -0.1154 -0.6641
  382MPD2    C5 5766   4.168   1.244  16.619 -0.2473  0.8564  0.2679
  382MPD2     H 5767   4.252   1.292  16.977  1.5450 -0.6516  0.2074
  382MPD2    H1 5768   4.179   1.039  16.634 -0.7555  0.0119 -1.0707
  382MPD2    H2 5769   4.141   1.442  16.599  0.1494 -0.3722 -0.5269
  382MPD2    H3 5770   4.142   1.218  16.517  2.2288  3.1551 -0.9464
  382MPD2     N 5771   4.256   1.024  16.894  0.4604  0.7098  0.3411
  382MPD2    H5 5772   4.240   0.934  16.850 -0.5464  0.4497  1.2173
  382MPD2    N1 5773   4.223   1.494  16.873 -0.1396 -0.1687 -0.7860
  382MPD2    H7 5774   4.257   1.486  16.968 -2.6442 -0.5955  0.0825
  383TMC3    C1 5775   4.303   0.894  17.081  0.1188 -0.3175  0.1449
  383TMC3    C2 5776   4.213   0.803  17.032  0.6305 -0.3013 -0.2446
  383TMC3    C3 5777   4.214   0.678  17.094  0.5958 -0.5617  0.0080
  383TMC3    C4 5778   4.374   0.881  17.194 -0.0777 -0.1179  0.2417
  383TMC3    C5 5779   4.375   0.757  17.254  1.3807 -0.5440 -0.1598
  383TMC3    C6 5780   4.310   0.652  17.190 -0.2657 -0.2155 -0.7556
  383TMC3     C 5781   4.304   1.024  17.021  0.0841  0.1266 -0.4202
  383TMC3     O 5782   4.368   1.112  17.073 -0.2685  0.3421 -0.1832
  383TMC3     H 5783   4.142   0.830  16.955  1.7464  0.8437 -0.8596
  383TMC3    H1 5784   4.442   0.961  17.223 -1.8839  1.0461  1.2658
  383TMC3    H2 5785   4.324   0.549  17.223  1.0245 -0.2145 -1.2950
  383TMC3    C7 5786   4.483   0.728  17.351 -0.2472 -0.0680 -0.5168
  383TMC3    C8 5787   4.102   0.592  17.061  0.1688  0.7876 -0.2309
  383TMC3    O1 5788   4.553   0.823  17.379 -0.2073  0.3268  0.0028
  383TMC3    O2 5789   4.038   0.618  16.954 -0.2631  0.4670 -0.1514
  384MPD2     C 5790   0.731   2.393  11.304 -0.4150  0.4611 -0.3168
  384MPD2    C1 5791   0.780   2.315  11.413  0.0995  0.2048 -0.1186
  384MPD2    C2 5792   0.919   2.291  11.416 -0.6551 -0.0108 -0.4021
  384MPD2    C3 5793   1.001   2.349  11.332 -0.3392  0.4600  0.2877
  384MPD2    C4 5794   0.952   2.442  11.242  0.3967  0.1747  0.8722
  384MPD2    C5 5795   0.819   2.466  11.231 -0.1204 -0.0518  0.6359
  384MPD2     H 5796   0.955   2.224  11.493  0.0906 -1.0249 -1.6311
  384MPD2    H1 5797   1.022   2.496  11.179 -1.4990  0.9635 -0.5534
  384MPD2    H2 5798   0.627   2.418  11.289 -0.9341 -0.6927  1.3402
  384MPD2    H3 5799   0.792   2.548  11.167  1.2304  0.5796  0.8795
  384MPD2     N 5800   1.142   2.334  11.347 -0.5357  0.7486 -0.3298
  384MPD2    H5 5801   1.202   2.394  11.291  1.9329 -0.3021  1.2097
  384MPD2    N1 5802   0.700   2.270  11.520 -0.3442  0.0043 -0.4973
  384MPD2    H7 5803   0.753   2.228  11.596 -0.7677  1.7845  0.8020
  385TMC3    C1 5804   1.335   2.198  11.407  0.4560 -0.3292 -0.1759
  385TMC3    C2 5805   1.380   2.067  11.411 -0.5266 -0.2026  0.8914
  385TMC3    C3 5806   1.477   2.042  11.501  0.1283  0.9527  0.5677
  385TMC3    C4 5807   1.387   2.287  11.497 -0.3243  0.1197  0.2067
  385TMC3    C5 5808   1.458   2.247  11.605  1.0056 -0.0430  0.3753
  385TMC3    C6 5809   1.518   2.126  11.598 -0.1281 -0.0943 -0.2560
  385TMC3     C 5810   1.192   2.208  11.396 -0.4958  0.9877 -0.1068
  385TMC3     O 5811   1.126   2.102  11.403  0.4008 -0.1448  0.0126
  385TMC3     H 5812   1.336   1.985  11.356  1.0528  0.2945 -1.1086
  385TMC3    H1 5813   1.353   2.389  11.504 -0.1013  0.4003 -3.0023
  385TMC3    H2 5814   1.587   2.087  11.673 -0.9750 -0.1553  0.4845
  385TMC3    C7 5815   1.368   2.257  11.716  0.1482  0.3231 -0.4159
  385TMC3    C8 5816   1.537   1.913  11.496  0.1544  0.0756  0.2841
  385TMC3    O1 5817   1.272   2.331  11.696 -0.1618 -0.3744  0.2973
  385TMC3    O2 5818   1.656   1.923  11.496  0.4154 -0.2776 -0.2424
  386TMC3    C1 5819   0.861   3.632  11.993  0.4550  0.0527  0.2398
  386TMC3    C2 5820   0.896   3.648  11.863  0.5569  1.1130 -0.1373
  386TMC3    C3 5821   0.807   3.722  11.786  0.2572  0.4467 -0.0826
  386TMC3    C4 5822   0.748   3.680  12.047 -0.8016  0.0282 -0.0830
  386TMC3    C5 5823   0.668   3.753  11.963  0.2155  0.7460 -0.5804
  386TMC3    C6 5824   0.689   3.771  11.830 -0.1846 -0.7714 -0.1968
  386TMC3     C 5825   0.953   3.584  12.087 -0.4542 -0.1750  0.4252
  386TMC3     O 5826   0.946   3.637  12.198  0.0315 -0.2149  0.4193
  386TMC3     H 5827   0.993   3.622  11.823 -0.3062 -2.3012  0.0153
  386TMC3    H1 5828   0.727   3.670  12.153 -0.2186 -0.3266 -0.0036
  386TMC3    H2 5829   0.623   3.824  11.762  0.4335 -1.5024 -1.3671
  386TMC3    C7 5830   0.590   3.852  12.033  0.2972  0.5889 -0.0531
  386TMC3    C8 5831   0.826   3.747  11.651  0.3965 -0.2042 -0.0303
  386TMC3    O1 5832   0.614   3.867  12.153 -0.3340 -0.3113 -0.0228
  386TMC3    O2 5833   0.781   3.854  11.603 -0.3961 -0.2644  0.0153
  387MPD2     C 5834   3.289   4.003   9.940 -0.7142 -0.4253 -0.0624
  387MPD2    C1 5835   3.319   3.961  10.069 -0.0108  0.2445 -0.3781
  387MPD2    C2 5836   3.289   3.832  10.103 -0.7609  0.3093  0.1049
  387MPD2    C3 5837   3.262   3.736  10.006 -0.0164  0.6225 -0.0557
  387MPD2    C4 5838   3.228   3.779   9.884 -0.2395 -0.8472  0.2619
  387MPD2    C5 5839   3.239   3.909   9.851  0.2046 -0.5455 -0.9590
  387MPD2     H 5840   3.315   3.803  10.205  1.1913 -0.0979 -0.5075
  387MPD2    H1 5841   3.205   3.708   9.805 -2.7917  0.7168 -0.4009
  387MPD2    H2 5842   3.321   4.102   9.909  4.1742 -2.1672 -0.6790
  387MPD2    H3 5843   3.210   3.936   9.751  0.4098 -0.6415 -1.0441
  387MPD2     N 5844   3.277   3.596  10.039  0.1773  0.2603  0.2582
  387MPD2    H5 5845   3.296   3.566  10.134 -1.5456 -0.7375  0.2925
  387MPD2    N1 5846   3.374   4.046  10.167  0.7362  0.5668 -0.5694
  387MPD2    H7 5847   3.360   4.024  10.265  2.4400  4.1701  0.4986
  388TMC3    C1 5848   3.521   4.206  10.265 -0.5712 -0.1475 -0.2831
  388TMC3    C2 5849   3.572   4.329  10.247  0.7961  0.4938  0.0825
  388TMC3    C3 5850   3.698   4.364  10.295 -0.7693  0.0897  0.1243
  388TMC3    C4 5851   3.595   4.113  10.325  0.0355  0.6340  0.0347
  388TMC3    C5 5852   3.717   4.143  10.365 -0.2779 -0.1311 -0.1326
  388TMC3    C6 5853   3.769   4.263  10.358  0.8591  0.6521 -0.2850
  388TMC3     C 5854   3.428   4.174  10.158  0.5485 -0.4279  0.0479
  388TMC3     O 5855   3.429   4.246  10.059 -1.0016  0.3112  0.2696
  388TMC3     H 5856   3.514   4.405  10.197 -0.4683 -0.4351  0.1272
  388TMC3    H1 5857   3.558   4.011  10.329  0.1572  0.6297  1.2380
  388TMC3    H2 5858   3.871   4.263  10.397  0.6032  1.1077  0.3831
  388TMC3    C7 5859   3.804   4.034  10.403 -0.0649  0.4514 -0.2611
  388TMC3    C8 5860   3.732   4.502  10.294  0.6331 -1.0659  0.3165
  388TMC3    O1 5861   3.882   4.046  10.496 -0.3387  0.1672  0.1479
  388TMC3    O2 5862   3.664   4.577  10.224  0.4465 -0.3398  0.4611
  389MPD2     C 5863   3.027   1.521  10.921 -0.5152 -1.0811 -0.8796
  389MPD2    C1 5864   2.891   1.530  10.924  0.6482  0.1844 -0.6224
  389MPD2    C2 5865   2.829   1.476  11.042 -0.4341  0.3378  0.2041
  389MPD2    C3 5866   2.903   1.434  11.152 -0.3357  0.3524 -0.7786
  389MPD2    C4 5867   3.049   1.453  11.146  0.0390  0.7070 -0.8414
  389MPD2    C5 5868   3.107   1.492  11.026  0.0499 -0.4899  0.3815
  389MPD2     H 5869   2.722   1.459  11.040 -0.6198  1.8675 -2.3520
  389MPD2    H1 5870   3.109   1.417  11.229 -0.5944  0.1615 -0.6200
  389MPD2    H2 5871   3.077   1.560  10.833 -0.9026  1.1100 -0.1311
  389MPD2    H3 5872   3.215   1.489  11.020  0.1554 -1.0825  2.6473
  389MPD2     N 5873   2.846   1.380  11.270 -0.0893 -0.3453 -0.1081
  389MPD2    H5 5874   2.913   1.353  11.341  0.0235 -1.4954 -0.6346
  389MPD2    N1 5875   2.829   1.594  10.816 -0.4877 -0.2833 -0.3641
  389MPD2    H7 5876   2.886   1.617  10.736 -1.8027 -1.2584 -1.5915
  390TMC3    C1 5877   2.678   1.308  11.421  0.0482 -0.0293 -0.2546
  390TMC3    C2 5878   2.579   1.221  11.446  0.1131 -0.1546  0.4377
  390TMC3    C3 5879   2.536   1.202  11.578  0.4842 -0.5689 -0.1260
  390TMC3    C4 5880   2.723   1.397  11.519 -0.2745  0.5894 -0.4683
  390TMC3    C5 5881   2.689   1.366  11.646  0.3692 -0.3196 -0.2104
  390TMC3    C6 5882   2.593   1.276  11.674 -0.1631  0.2345 -0.1853
  390TMC3     C 5883   2.721   1.326  11.283 -0.4847 -0.1353 -0.3754
  390TMC3     O 5884   2.633   1.318  11.196  0.0467 -0.1966 -0.1491
  390TMC3     H 5885   2.528   1.169  11.366 -0.9193  0.1430  0.9031
  390TMC3    H1 5886   2.793   1.475  11.491  1.1136 -0.5912 -0.2784
  390TMC3    H2 5887   2.593   1.241  11.776 -2.8596 -2.4292 -1.1011
  390TMC3    C7 5888   2.762   1.425  11.755  0.2244 -0.8133  0.4524
  390TMC3    C8 5889   2.413   1.138  11.595 -0.1296  0.1273  0.9127
  390TMC3    O1 5890   2.868   1.471  11.720 -0.5605 -0.4564  0.0085
  390TMC3    O2 5891   2.376   1.052  11.519 -0.4758 -0.6372  0.1023
  391MPD2     C 5892   2.192   3.417  11.066  0.1183  0.0734 -0.3334
  391MPD2    C1 5893   2.272   3.521  11.032  0.2128 -0.5617 -0.3016
  391MPD2    C2 5894   2.284   3.555  10.897 -0.5789  0.4906 -0.0181
  391MPD2    C3 5895   2.215   3.484  10.800  0.0703 -0.4035 -0.2070
  391MPD2    C4 5896   2.139   3.374  10.841  0.2251 -0.1838  0.1365
  391MPD2    C5 5897   2.136   3.337  10.973  0.4465  0.6666  0.4211
  391MPD2     H 5898   2.347   3.637  10.863  0.0975  0.1705  0.4627
  391MPD2    H1 5899   2.088   3.308  10.772  0.2608 -3.1079  2.9025
  391MPD2    H2 5900   2.184   3.394  11.172 -1.4621  1.0055 -0.2575
  391MPD2    H3 5901   2.079   3.250  11.004  0.6929 -0.1005 -1.3024
  391MPD2     N 5902   2.230   3.526  10.660  0.5471 -0.3375  0.5980
  391MPD2    H5 5903   2.292   3.606  10.655 -0.8007  0.6264 -0.8053
  391MPD2    N1 5904   2.333   3.595  11.135 -0.4168  0.2890 -0.2474
  391MPD2    H7 5905   2.320   3.568  11.233 -2.9076 -0.4969 -0.7854
  392TMC3    C1 5906   2.201   3.537  10.426  0.5094 -0.4716 -0.2281
  392TMC3    C2 5907   2.102   3.538  10.334  0.7513 -0.3327  0.3995
  392TMC3    C3 5908   2.114   3.630  10.232 -0.2786  0.2766  0.3443
  392TMC3    C4 5909   2.308   3.630  10.416  0.0976  0.9199 -0.0672
  392TMC3    C5 5910   2.324   3.709  10.310  0.0468 -0.0202  0.6329
  392TMC3    C6 5911   2.221   3.711  10.213 -0.5137 -0.1489  0.1457
  392TMC3     C 5912   2.166   3.473  10.551 -0.1391  0.3286  0.2282
  392TMC3     O 5913   2.079   3.384  10.544 -0.5700  0.3897 -0.3107
  392TMC3     H 5914   2.007   3.486  10.348  0.7683 -0.4371  0.1310
  392TMC3    H1 5915   2.392   3.619  10.485  0.6794  0.0330 -0.9161
  392TMC3    H2 5916   2.220   3.784  10.133 -0.3193  1.0343  1.2142
  392TMC3    C7 5917   2.424   3.813  10.308 -0.0155 -0.3494  0.0018
  392TMC3    C8 5918   1.995   3.655  10.150 -0.4433 -0.6524 -0.9848
  392TMC3    O1 5919   2.454   3.853  10.420  0.2793  0.0066 -0.4243
  392TMC3    O2 5920   1.902   3.580  10.167 -0.5792 -0.2781 -0.0999
  393TMC3    C1 5921   1.564   1.759  10.682  0.6932  0.5914  0.1781
  393TMC3    C2 5922   1.438   1.801  10.717 -0.1238 -0.6515 -0.1881
  393TMC3    C3 5923   1.339   1.708  10.715 -0.0793 -0.4441 -1.2209
  393TMC3    C4 5924   1.589   1.624  10.652 -0.0907 -0.0644 -0.6654
  393TMC3    C5 5925   1.485   1.538  10.657 -0.0779  0.2079  0.6469
  393TMC3    C6 5926   1.360   1.575  10.689 -0.1993  0.1982  1.0652
  393TMC3     C 5927   1.671   1.849  10.710 -0.2170  0.7098 -0.7445
  393TMC3     O 5928   1.680   1.894  10.820 -0.2551 -1.3751  0.0914
  393TMC3     H 5929   1.420   1.907  10.726 -0.6152 -0.7194 -0.3480
  393TMC3    H1 5930   1.693   1.592  10.642  0.2124  0.8600 -0.4410
  393TMC3    H2 5931   1.277   1.506  10.679  1.2243 -1.3383  0.0007
  393TMC3    C7 5932   1.508   1.394  10.660 -0.6554  0.3358  0.4875
  393TMC3    C8 5933   1.201   1.756  10.722 -0.3650 -0.1561  0.0006
  393TMC3    O1 5934   1.446   1.338  10.752 -0.2249  0.9859 -0.0805
  393TMC3    O2 5935   1.123   1.690  10.788  0.3762  0.5441  0.7647
  394TMC3    C1 5936   2.666   1.668  10.665  0.3184  0.0463 -0.2703
  394TMC3    C2 5937   2.545   1.640  10.616  0.0756 -0.5447  0.1738
  394TMC3    C3 5938   2.506   1.669  10.489  0.4269  0.3035  0.7905
  394TMC3    C4 5939   2.753   1.749  10.600  0.1543 -0.1113  0.7521
  394TMC3    C5 5940   2.714   1.779  10.470  0.4122 -0.2178  0.0439
  394TMC3    C6 5941   2.596   1.739  10.416 -0.0860  0.1457  0.0286
  394TMC3     C 5942   2.693   1.624  10.803 -0.2860 -0.0328  0.7832
  394TMC3     O 5943   2.599   1.608  10.879 -0.1443  0.3379  0.1593
  394TMC3     H 5944   2.490   1.565  10.672  2.7667 -2.0238  0.8702
  394TMC3    H1 5945   2.850   1.776  10.641  1.4340 -1.5349 -1.3674
  394TMC3    H2 5946   2.570   1.781  10.320  0.4455  1.5931  0.5089
  394TMC3    C7 5947   2.800   1.844  10.374  0.0738 -0.1878  0.7124
  394TMC3    C8 5948   2.472   1.542  10.419  1.0705  0.5391  0.0729
  394TMC3    O1 5949   2.752   1.893  10.276  0.2260  0.0912  0.0974
  394TMC3    O2 5950   2.487   1.436  10.480 -0.8493 -0.4547 -0.2190
  395TMC3    C1 5951   2.153   4.115  14.848 -0.7619 -0.6004  0.0596
  395TMC3    C2 5952   2.169   4.017  14.750 -0.2586  0.1619  0.3851
  395TMC3    C3 5953   2.284   4.041  14.670 -0.1479  0.3644  0.6270
  395TMC3    C4 5954   2.240   4.226  14.860 -0.4375 -0.2824  0.2898
  395TMC3    C5 5955   2.347   4.236  14.774  0.4890  0.3370 -0.0231
  395TMC3    C6 5956   2.379   4.136  14.685  0.0207  0.7013  0.0714
  395TMC3     C 5957   2.099   4.072  14.973  0.4602 -0.3922  0.0145
  395TMC3     O 5958   2.063   4.164  15.045  0.1168  0.6967 -0.0542
  395TMC3     H 5959   2.096   3.937  14.749  0.4637 -0.4877  0.2873
  395TMC3    H1 5960   2.222   4.294  14.943 -0.6144  0.8096 -0.6451
  395TMC3    H2 5961   2.457   4.149  14.610  0.1536  0.1642  0.1178
  395TMC3    C7 5962   2.455   4.330  14.813  0.4178  0.2234  0.4557
  395TMC3    C8 5963   2.314   3.931  14.585  0.9417  0.0857  0.3191
  395TMC3    O1 5964   2.432   4.437  14.870 -0.3460  0.4189  0.0225
  395TMC3    O2 5965   2.431   3.900  14.582 -0.3389  0.3562  0.4924
  396MPD2     C 5966   2.374   0.658  17.291  0.2639 -0.2279  0.4079
  396MPD2    C1 5967   2.509   0.685  17.302 -0.5591  0.4706  0.1311
  396MPD2    C2 5968   2.564   0.777  17.212  0.2817 -0.3961 -0.2615
  396MPD2    C3 5969   2.501   0.805  17.094  0.3246 -0.3197  0.7919
  396MPD2    C4 5970   2.365   0.775  17.082 -0.5273  0.9216  0.3621
  396MPD2    C5 5971   2.307   0.698  17.177  0.7096 -0.2519  0.0648
  396MPD2     H 5972   2.670   0.798  17.219  0.7583 -2.7778 -0.1216
  396MPD2    H1 5973   2.314   0.793  16.988 -0.0565  0.5208  0.0291
  396MPD2    H2 5974   2.327   0.591  17.362 -1.0794  1.2933  0.9635
  396MPD2    H3 5975   2.217   0.645  17.148 -0.9271  1.9914  1.0905
  396MPD2     N 5976   2.577   0.867  16.992  0.1224 -0.0410  0.6480
  396MPD2    H5 5977   2.677   0.868  17.007  0.0473  0.8675  1.0937
  396MPD2    N1 5978   2.582   0.616  17.400 -0.1664  0.0971  0.5109
  396MPD2    H7 5979   2.546   0.541  17.458  0.2479 -0.1307  0.4788
  397TMC3    C1 5980   2.781   0.514  17.491 -0.1650  0.1238 -0.0584
  397TMC3    C2 5981   2.915   0.519  17.478  0.2872 -0.1169 -0.0591
  397TMC3    C3 5982   2.989   0.429  17.408 -0.0451 -0.8320 -0.0544
  397TMC3    C4 5983   2.724   0.392  17.449  0.2926 -0.2897 -1.0192
  397TMC3    C5 5984   2.794   0.302  17.378  0.3325  0.3318  0.1301
  397TMC3    C6 5985   2.929   0.317  17.358  0.6587 -0.3944 -0.2375
  397TMC3     C 5986   2.718   0.631  17.426  0.0123 -0.0529  0.0919
  397TMC3     O 5987   2.789   0.728  17.394  0.0568  0.2386  0.1753
  397TMC3     H 5988   2.964   0.613  17.503  1.4558 -0.6051 -0.5325
  397TMC3    H1 5989   2.616   0.385  17.456  0.3210  2.7564  2.4001
  397TMC3    H2 5990   2.979   0.246  17.293  2.2867  0.6678 -0.1469
  397TMC3    C7 5991   2.738   0.184  17.329 -0.2778  0.4018 -0.2669
  397TMC3    C8 5992   3.088   0.489  17.322  0.7383 -0.2636  0.3390
  397TMC3    O1 5993   2.785   0.124  17.235  0.3055  0.3206 -0.6074
  397TMC3    O2 5994   3.160   0.567  17.382  0.0043  0.4522  0.2051
  398MPD2     C 5995   0.544   1.965   0.084 -0.7123  0.6168 -0.8612
  398MPD2    C1 5996   0.651   1.902   0.034 -0.0293 -0.0013 -0.2197
  398MPD2    C2 5997   0.763   1.978   0.005 -0.4667  0.0630 -0.2104
  398MPD2    C3 5998   0.776   2.114   0.019  0.2334 -0.4455  0.2302
  398MPD2    C4 5999   0.665   2.184   0.063 -0.3111 -0.0088  0.3426
  398MPD2    C5 6000   0.556   2.103   0.098 -0.1118 -0.2402  0.7515
  398MPD2     H 6001   0.846   1.934  17.709 -1.5572 -1.2848 -0.7987
  398MPD2    H1 6002   0.658   2.291   0.079 -1.1892 -0.2698  1.7130
  398MPD2    H2 6003   0.453   1.916   0.117  1.5439 -2.2109  1.1547
  398MPD2    H3 6004   0.468   2.147   0.143 -1.3259 -1.1061 -0.7643
  398MPD2     N 6005   0.898   2.176  17.734  0.0173 -0.5225  0.3665
  398MPD2    H5 6006   0.978   2.122  17.704 -1.0461 -1.4560 -0.7620
  398MPD2    N1 6007   0.650   1.767  17.747  0.1944 -0.6782 -0.3654
  398MPD2    H7 6008   0.733   1.728  17.703  0.9672  1.8209 -1.0978
  399TMC3    C1 6009   0.574   1.554  17.713 -0.1317 -0.4248 -0.4394
  399TMC3    C2 6010   0.681   1.489  17.756  0.3830  0.0240 -0.2376
  399TMC3    C3 6011   0.710   1.367  17.704  0.0715 -0.2192 -0.0214
  399TMC3    C4 6012   0.480   1.499  17.635 -0.5371 -1.0339  0.5245
  399TMC3    C5 6013   0.513   1.380  17.577 -0.2343  0.0248 -0.0749
  399TMC3    C6 6014   0.625   1.309  17.610 -0.0946 -0.1497  0.5961
  399TMC3     C 6015   0.546   1.679   0.010  0.9232 -0.6754 -0.4867
  399TMC3     O 6016   0.431   1.687   0.054  0.0566  0.1792  0.3279
  399TMC3     H 6017   0.743   1.541   0.071 -1.1754  2.9697 -1.0402
  399TMC3    H1 6018   0.392   1.563  17.628 -1.3831 -2.5616 -2.6120
  399TMC3    H2 6019   0.643   1.217  17.556  0.2973 -0.1385  0.7103
  399TMC3    C7 6020   0.416   1.333  17.478  0.2262  0.5151 -0.6402
  399TMC3    C8 6021   0.814   1.290   0.018 -0.0689 -0.3296 -0.2680
  399TMC3    O1 6022   0.366   1.226  17.486  0.4394  0.1466 -1.0390
  399TMC3    O2 6023   0.884   1.348   0.099 -0.7276  0.0327 -0.2512
  400TMC3    C1 6024   3.932   0.276  16.756  0.3633  0.3075  0.0183
  400TMC3    C2 6025   3.829   0.186  16.725  0.2508  0.6878  0.2219
  400TMC3    C3 6026   3.734   0.227  16.634  0.0204  0.1618  0.1733
  400TMC3    C4 6027   3.923   0.407  16.710  0.1363 -0.0087  0.5322
  400TMC3    C5 6028   3.812   0.446  16.641  0.1473  0.0571 -0.2990
  400TMC3    C6 6029   3.725   0.352  16.590 -0.3096 -0.2442  0.3382
  400TMC3     C 6030   4.046   0.235  16.840  0.2011 -0.2432  0.6111
  400TMC3     O 6031   4.028   0.132  16.905  0.5346 -0.4956 -0.2005
  400TMC3     H 6032   3.828   0.089  16.774  0.4128  1.2986  1.4449
  400TMC3    H1 6033   3.999   0.480  16.734  0.8662 -0.6493  0.1867
  400TMC3    H2 6034   3.638   0.391  16.536 -1.3386 -1.3513  1.2096
  400TMC3    C7 6035   3.797   0.588  16.602  0.4031 -0.7113  0.9725
  400TMC3    C8 6036   3.620   0.138  16.623 -0.3725  0.5073  0.0765
  400TMC3    O1 6037   3.704   0.612  16.522  0.4129  0.0147 -0.0801
  400TMC3    O2 6038   3.586   0.065  16.712  1.0610 -0.9396  0.5501
  401MPD2     C 6039   1.998   4.006   0.750  0.2023 -0.0558 -0.2525
  401MPD2    C1 6040   2.046   3.916   0.839 -0.5741  0.2173  0.1128
  401MPD2    C2 6041   1.989   3.792   0.848 -0.0027  0.2625 -0.8960
  401MPD2    C3 6042   1.880   3.759   0.773 -0.8910  0.3988 -0.0828
  401MPD2    C4 6043   1.837   3.847   0.673 -0.3380  0.2889 -0.2762
  401MPD2    C5 6044   1.897   3.967   0.666 -0.2575 -0.6633 -0.4634
  401MPD2     H 6045   2.036   3.716   0.910  0.1121  0.1697 -1.0953
  401MPD2    H1 6046   1.756   3.831   0.603 -1.6397 -1.0397  1.5452
  401MPD2    H2 6047   2.032   4.106   0.728 -3.4949  1.4166  0.6505
  401MPD2    H3 6048   1.859   4.041   0.598  1.5036  3.0936  2.6561
  401MPD2     N 6049   1.837   3.627   0.789  0.6229  0.5171 -0.2401
  401MPD2    H5 6050   1.888   3.575   0.860 -1.8907 -0.3167  0.9420
  401MPD2    N1 6051   2.167   3.930   0.911 -0.1734  0.1591  0.6281
  401MPD2    H7 6052   2.204   3.838   0.930  1.0254  0.5905  0.3646
  402TMC3    C1 6053   1.766   3.419   0.716  0.4885 -0.3814  0.2965
  402TMC3    C2 6054   1.805   3.380   0.845 -0.0236  0.5117 -0.3593
  402TMC3    C3 6055   1.813   3.243   0.864  0.2823 -0.0429  0.4808
  402TMC3    C4 6056   1.747   3.339   0.608 -0.5377  1.1324  0.1514
  402TMC3    C5 6057   1.772   3.208   0.625  0.0973  0.2479 -0.2486
  402TMC3    C6 6058   1.804   3.158   0.749 -0.5969  0.0229 -0.7037
  402TMC3     C 6059   1.770   3.561   0.691 -0.2883  0.4399 -0.6452
  402TMC3     O 6060   1.737   3.601   0.582 -0.2718  0.1406  0.5769
  402TMC3     H 6061   1.815   3.448   0.929 -1.8328  0.4845 -0.1022
  402TMC3    H1 6062   1.715   3.381   0.514 -0.8942  1.5972  0.4859
  402TMC3    H2 6063   1.819   3.051   0.755 -3.1464 -0.2766  0.3040
  402TMC3    C7 6064   1.828   3.142   0.516 -0.1340  0.0131 -0.4358
  402TMC3    C8 6065   1.919   3.190   0.949  0.5553  0.2456  1.1323
  402TMC3    O1 6066   1.789   3.188   0.407  0.3412 -0.1573  0.5488
  402TMC3    O2 6067   2.007   3.121   0.902  0.1320 -0.4619 -0.2409
  403MPD2     C 6068   1.019   1.159  13.094 -0.1072  0.2905  0.2432
  403MPD2    C1 6069   0.951   1.276  13.126 -0.9432 -0.3123  0.0899
  403MPD2    C2 6070   1.000   1.363  13.223  0.5485 -0.7509  0.7659
  403MPD2    C3 6071   1.118   1.328  13.292 -0.0018  0.1856  0.9905
  403MPD2    C4 6072   1.183   1.210  13.260 -0.3097 -0.7728  0.9339
  403MPD2    C5 6073   1.128   1.127  13.168  0.2066  1.1158  1.2091
  403MPD2     H 6074   0.956   1.460  13.240  0.0638 -0.9938  0.8838
  403MPD2    H1 6075   1.277   1.179  13.305  0.3171  4.5765  3.2337
  403MPD2    H2 6076   0.983   1.087  13.021 -3.0767  1.5933  0.4409
  403MPD2    H3 6077   1.183   1.035  13.151  0.6600  1.2084  2.1763
  403MPD2     N 6078   1.157   1.422  13.382  0.1890 -0.4950  0.7007
  403MPD2    H5 6079   1.104   1.508  13.393  1.5316  0.4914 -0.6573
  403MPD2    N1 6080   0.832   1.305  13.046  0.3019 -0.2360 -0.4652
  403MPD2    H7 6081   0.804   1.252  12.964  0.4394  0.6849 -1.1017
  404TMC3    C1 6082   0.625   1.385  12.987 -0.4633 -0.3228  0.0801
  404TMC3    C2 6083   0.495   1.395  13.027  0.1805  0.1093  0.7580
  404TMC3    C3 6084   0.391   1.345  12.948 -0.1912  0.3302  0.1593
  404TMC3    C4 6085   0.654   1.336  12.862  0.1694  0.0313  0.0660
  404TMC3    C5 6086   0.547   1.301  12.780 -0.1550 -0.2283 -0.6627
  404TMC3    C6 6087   0.419   1.308  12.818  0.2524  0.2062  0.1712
  404TMC3     C 6088   0.734   1.394  13.086 -0.1508 -1.1242 -0.7901
  404TMC3     O 6089   0.717   1.453  13.190  0.3209 -0.0113 -0.0393
  404TMC3     H 6090   0.480   1.425  13.130  0.5339 -0.0445  0.8546
  404TMC3    H1 6091   0.755   1.341  12.823  0.4148 -0.3591  0.6617
  404TMC3    H2 6092   0.339   1.316  12.745  0.3574  0.7000  0.1127
  404TMC3    C7 6093   0.588   1.259  12.644 -0.5194 -0.1303 -0.6445
  404TMC3    C8 6094   0.251   1.361  12.983  0.4844 -0.1476 -0.0546
  404TMC3    O1 6095   0.704   1.283  12.604 -0.3261  0.7033 -0.0387
  404TMC3    O2 6096   0.169   1.312  12.907 -0.0572 -0.2718 -0.5205
  405MPD2     C 6097   0.706   2.968  14.577  0.2297  0.3669  0.1842
  405MPD2    C1 6098   0.785   2.864  14.517 -0.0245 -0.1949 -0.3388
  405MPD2    C2 6099   0.782   2.837  14.379 -0.2842 -0.4490  0.2030
  405MPD2    C3 6100   0.681   2.905  14.307  1.0095 -0.7142  0.1030
  405MPD2    C4 6101   0.606   3.006  14.367  0.4572  0.0865 -0.0884
  405MPD2    C5 6102   0.612   3.032  14.495 -0.1250 -0.4697  0.3861
  405MPD2     H 6103   0.849   2.768  14.329 -0.3842 -1.1346  1.0040
  405MPD2    H1 6104   0.525   3.055  14.314 -1.4475 -2.3521  0.5691
  405MPD2    H2 6105   0.721   2.998  14.680 -0.9229 -0.1001  0.4874
  405MPD2    H3 6106   0.545   3.109  14.532 -0.0571 -1.2289  2.0993
  405MPD2     N 6107   0.670   2.867  14.174  0.4878 -0.4834  0.3402
  405MPD2    H5 6108   0.725   2.785  14.153 -0.7720 -1.8266  2.2447
  405MPD2    N1 6109   0.872   2.793  14.602 -0.5325 -0.4684 -0.0223
  405MPD2    H7 6110   0.881   2.812  14.701 -0.5564 -0.2887 -0.0545
  406TMC3    C1 6111   0.464   2.698  13.800  0.2609 -0.2490  0.1269
  406TMC3    C2 6112   0.525   2.572  13.820  0.0137  0.2958 -0.3168
  406TMC3    C3 6113   0.581   2.556  13.944 -0.9522  0.2328 -0.0782
  406TMC3    C4 6114   0.487   2.811  13.882  0.0049 -0.4632 -0.6136
  406TMC3    C5 6115   0.558   2.788  13.992  0.0312 -0.5982  0.0772
  406TMC3    C6 6116   0.599   2.657  14.028 -0.7125  0.8399  0.0213
  406TMC3     C 6117   0.368   2.722  13.696  0.7530 -0.5167 -0.0353
  406TMC3     O 6118   0.352   2.835  13.649 -0.0612  0.4622 -0.4492
  406TMC3     H 6119   0.498   2.488  13.758 -0.1277 -0.6960  1.0911
  406TMC3    H1 6120   0.442   2.907  13.861 -0.5586 -0.6697 -0.3255
  406TMC3    H2 6121   0.638   2.635  14.126 -1.7030  0.4483  0.3293
  406TMC3    C7 6122   0.559   2.889  14.093  0.7171 -0.5794 -0.4147
  406TMC3    C8 6123   0.664   2.433  13.959 -0.1505  0.4841 -0.2982
  406TMC3    O1 6124   0.456   2.947  14.122  0.4634  0.0891 -0.5622
  406TMC3    O2 6125   0.643   2.344  13.878  0.0661  0.4859  0.5505
  407MPD2     C 6126   2.849   3.260   9.827 -0.0576  0.0989  0.6628
  407MPD2    C1 6127   2.941   3.343   9.769 -0.0238  0.0398  0.4566
  407MPD2    C2 6128   2.951   3.471   9.825 -0.4259  0.6847 -0.4606
  407MPD2    C3 6129   2.876   3.513   9.928  0.2171 -0.0476  0.6751
  407MPD2    C4 6130   2.795   3.420   9.994  0.1837 -0.2348 -0.2282
  407MPD2    C5 6131   2.780   3.294   9.937  0.2566 -0.8382  0.6083
  407MPD2     H 6132   3.023   3.536   9.778  0.1945  1.0741  1.0607
  407MPD2    H1 6133   2.725   3.442  10.073  0.6018  0.2769 -0.0024
  407MPD2    H2 6134   2.833   3.155   9.806  1.7959 -0.4083  1.7461
  407MPD2    H3 6135   2.722   3.213   9.981 -0.2194  0.0833  1.6727
  407MPD2     N 6136   2.881   3.647   9.970  0.7059 -0.0074 -0.3029
  407MPD2    H5 6137   2.940   3.714   9.921  0.0076  0.6185 -0.2914
  407MPD2    N1 6138   3.021   3.315   9.663 -0.2225 -0.1501 -0.1408
  407MPD2    H7 6139   3.097   3.382   9.656 -0.1085 -0.4443 -1.8127
  408TMC3    C1 6140   3.139   3.208   9.486  0.1880  0.5094 -0.1479
  408TMC3    C2 6141   3.211   3.090   9.465  0.0465  0.6582 -0.0260
  408TMC3    C3 6142   3.342   3.094   9.433 -0.2121  0.4974  0.0286
  408TMC3    C4 6143   3.204   3.328   9.475  0.1150 -0.2933 -0.1083
  408TMC3    C5 6144   3.336   3.323   9.436 -0.2434 -0.0579 -0.2506
  408TMC3    C6 6145   3.409   3.212   9.411 -0.2812  0.1987 -0.2822
  408TMC3     C 6146   3.020   3.210   9.578  0.2700 -0.0456 -0.0323
  408TMC3     O 6147   2.936   3.122   9.569 -0.0899 -0.9123 -0.2257
  408TMC3     H 6148   3.165   2.992   9.467  0.0941  0.6060 -1.4786
  408TMC3    H1 6149   3.155   3.424   9.491 -2.5030 -1.4810 -1.1072
  408TMC3    H2 6150   3.514   3.222   9.387 -0.0041 -0.2840  0.7470
  408TMC3    C7 6151   3.386   3.457   9.403 -0.3669  0.6531  0.5026
  408TMC3    C8 6152   3.413   2.975   9.472  0.7676 -0.4240  0.4330
  408TMC3    O1 6153   3.302   3.543   9.376  0.0299 -0.0383  0.4940
  408TMC3    O2 6154   3.363   2.889   9.543 -0.1839 -0.3882  0.0323
  409MPD2     C 6155   2.729   4.707  16.897 -0.3878 -0.2191  0.8745
  409MPD2    C1 6156   2.844   4.673  16.965 -0.1283  0.1451 -0.3446
  409MPD2    C2 6157   2.962   0.011  16.952  0.2059 -0.1549  0.0708
  409MPD2    C3 6158   2.959   0.115  16.860 -0.1541  0.0450  0.3803
  409MPD2    C4 6159   2.842   0.150  16.802  0.3712  0.1803 -0.1815
  409MPD2    C5 6160   2.729   0.080  16.827 -0.1875  0.5203  0.2901
  409MPD2     H 6161   3.053   4.722  17.002  0.4493  0.9934  0.2959
  409MPD2    H1 6162   2.832   0.240  16.743  1.1809  0.3190 -0.1004
  409MPD2    H2 6163   2.636   4.653  16.906 -0.6527 -0.1104 -1.0925
  409MPD2    H3 6164   2.642   0.113  16.771  0.0934  0.9222  0.0826
  409MPD2     N 6165   3.065   0.197  16.814 -0.2052  0.4958  0.7784
  409MPD2    H5 6166   3.045   0.256  16.734  1.3427 -2.6014 -1.9064
  409MPD2    N1 6167   2.845   4.565  17.057  0.0161 -0.5378 -0.0095
  409MPD2    H7 6168   2.921   4.554  17.125  1.3820  0.4557 -1.3724
  410TMC3    C1 6169   3.276   0.303  16.835  0.2547  0.0252 -0.1780
  410TMC3    C2 6170   3.393   0.322  16.909  0.3904 -0.0303 -0.5797
  410TMC3    C3 6171   3.478   0.415  16.861 -0.0320 -0.2316  0.2069
  410TMC3    C4 6172   3.263   0.346  16.708 -0.5564  0.2420  0.2061
  410TMC3    C5 6173   3.355   0.432  16.662  0.7949  0.1759 -0.3249
  410TMC3    C6 6174   3.462   0.475  16.740  0.0909 -0.2365  0.1278
  410TMC3     C 6175   3.179   0.215  16.891 -0.2119  0.2060 -0.4686
  410TMC3     O 6176   3.201   0.166  16.998 -0.1819  0.3646  0.4284
  410TMC3     H 6177   3.422   0.259  16.992  0.6693 -0.6997 -1.1942
  410TMC3    H1 6178   3.172   0.327  16.653 -0.0269  1.1419 -0.9677
  410TMC3    H2 6179   3.528   0.554  16.709 -1.3172  0.5061 -0.9861
  410TMC3    C7 6180   3.345   0.481  16.527 -0.2314  0.5524  0.0679
  410TMC3    C8 6181   3.607   0.442  16.921 -0.0883 -0.2537  0.0242
  410TMC3    O1 6182   3.276   0.418  16.446 -0.5197 -0.0978  0.1504
  410TMC3    O2 6183   3.679   0.529  16.873  0.1897  0.3652 -0.2992
  411MPD2     C 6184   3.221   0.269  14.629  0.3039 -0.1628  1.0117
  411MPD2    C1 6185   3.098   0.315  14.673 -0.6238  0.4103  0.1508
  411MPD2    C2 6186   2.987   0.225  14.685  0.2599  0.0958 -0.0002
  411MPD2    C3 6187   3.009   0.093  14.648 -0.4522 -0.3929 -0.2887
  411MPD2    C4 6188   3.126   0.057  14.584 -0.4223 -0.0001 -0.4604
  411MPD2    C5 6189   3.235   0.143  14.584  0.0887 -0.4114  0.1399
  411MPD2     H 6190   2.893   0.266  14.719  0.7463  1.4988 -0.3446
  411MPD2    H1 6191   3.124   4.700  14.535 -0.2499  0.6007 -1.6629
  411MPD2    H2 6192   3.304   0.331  14.600 -0.0626  1.0990  2.6659
  411MPD2    H3 6193   3.328   0.115  14.536  0.2376  2.2287 -1.0811
  411MPD2     N 6194   2.897   0.008  14.648 -0.4414  0.5075  0.7419
  411MPD2    H5 6195   2.916   4.651  14.627  0.4301  0.8467 -0.0128
  411MPD2    N1 6196   3.093   0.451  14.717  0.4295 -0.4918  0.5175
  411MPD2    H7 6197   3.154   0.521  14.674 -0.2122 -0.0730  0.2836
  412TMC3    C1 6198   2.671   4.677  14.632 -0.6476 -0.3959 -0.0092
  412TMC3    C2 6199   2.540   4.705  14.671  0.2467 -0.0443 -0.1735
  412TMC3    C3 6200   2.438   4.649  14.599  1.3191 -0.4978  0.5022
  412TMC3    C4 6201   2.701   4.600  14.521 -0.3294  0.6935  0.2703
  412TMC3    C5 6202   2.594   4.538  14.456 -0.0829  0.6599 -0.1167
  412TMC3    C6 6203   2.459   4.564  14.497 -0.8583 -0.2028  0.5623
  412TMC3     C 6204   2.760   0.044  14.666  0.3856  0.0954  0.2045
  412TMC3     O 6205   2.711   0.154  14.695  0.3482 -0.0281 -0.3705
  412TMC3     H 6206   2.524   0.034  14.754  1.7773 -1.9474  1.6941
  412TMC3    H1 6207   2.795   4.615  14.469  0.2960 -1.9679  0.6349
  412TMC3    H2 6208   2.372   4.505  14.472  0.7378 -2.8670  1.2036
  412TMC3    C7 6209   2.591   4.512  14.314  0.1558  0.5806 -0.2917
  412TMC3    C8 6210   2.341   0.013  14.559  0.3250  0.0035  0.2282
  412TMC3    O1 6211   2.480   4.518  14.265  0.0793  0.0880  0.2037
  412TMC3    O2 6212   2.300   0.097  14.637 -0.4475 -0.7453  0.0456
  413MPD2     C 6213   0.004   3.945  14.933  0.4617 -0.4328  0.2397
  413MPD2    C1 6214   4.668   3.919  14.825  1.1860 -0.3466  0.1633
  413MPD2    C2 6215   4.695   3.802  14.756  0.1850  0.0030 -0.1368
  413MPD2    C3 6216   0.061   3.716  14.791  0.1296  1.3464  0.0569
  413MPD2    C4 6217   0.135   3.744  14.900  0.9083  0.3325 -0.3633
  413MPD2    C5 6218   0.106   3.856  14.976  0.2460 -0.0503  0.3921
  413MPD2     H 6219   4.632   3.778  14.671  0.9766 -0.0405 -0.7195
  413MPD2    H1 6220   0.224   3.683  14.916 -0.0204 -0.8809  0.1777
  413MPD2    H2 6221   4.723   4.031  14.995  0.8057 -1.8328  2.2925
  413MPD2    H3 6222   0.168   3.877  15.062 -1.0959  0.0924  1.3273
  413MPD2     N 6223   0.091   3.600  14.716 -0.2667 -0.6919  0.6395
  413MPD2    H5 6224   0.049   3.598  14.623 -0.4589 -0.2032  0.7165
  413MPD2    N1 6225   4.555   3.997  14.794  0.2989 -0.5548  0.1208
  413MPD2    H7 6226   4.525   4.049  14.876  1.9759  0.0039  0.3953
  414TMC3    C1 6227   0.171   3.391  14.646  0.1195  0.5159 -0.6661
  414TMC3    C2 6228   0.161   3.260  14.677  0.3004 -0.2492  0.2440
  414TMC3    C3 6229   0.199   3.169  14.583  0.4321 -0.4698  0.0775
  414TMC3    C4 6230   0.220   3.428  14.526  0.5206  0.3705 -0.3777
  414TMC3    C5 6231   0.235   3.338  14.426 -0.1856 -0.2272  0.1401
  414TMC3    C6 6232   0.220   3.208  14.450 -0.2169  0.0103 -0.4352
  414TMC3     C 6233   0.159   3.490  14.755  0.0160 -0.2077  0.2655
  414TMC3     O 6234   0.179   3.446  14.866 -0.3421  0.3092  0.3134
  414TMC3     H 6235   0.119   3.230  14.772  0.3714  0.0993  0.3871
  414TMC3    H1 6236   0.217   3.535  14.510  0.6023  0.3444 -0.5604
  414TMC3    H2 6237   0.261   3.142  14.374 -0.3584  0.3551 -0.8063
  414TMC3    C7 6238   0.346   3.366  14.337 -0.5980 -0.0958  0.7531
  414TMC3    C8 6239   0.280   3.062  14.631  0.3614  0.0689 -0.0184
  414TMC3    O1 6240   0.350   3.308  14.231 -0.0077 -0.5663  1.1264
  414TMC3    O2 6241   0.309   2.977  14.547  0.0964 -0.4686  0.0018
  415TMC3    C1 6242   0.663   0.933  10.225  0.3650 -0.4845  0.2534
  415TMC3    C2 6243   0.769   0.972  10.142  0.5119 -0.3110 -0.0641
  415TMC3    C3 6244   0.773   0.923  10.012  0.6875 -0.2048 -0.5644
  415TMC3    C4 6245   0.561   0.850  10.189 -0.1594  0.2034 -0.3927
  415TMC3    C5 6246   0.579   0.792  10.060 -0.0088 -0.0636 -0.6933
  415TMC3    C6 6247   0.677   0.832   9.969 -0.3899 -0.1930  0.2032
  415TMC3     C 6248   0.637   0.984  10.355 -0.0214 -0.0591 -0.5400
  415TMC3     O 6249   0.521   1.002  10.390 -0.1281 -0.2316 -0.2986
  415TMC3     H 6250   0.848   1.036  10.181 -0.3189  0.1086  0.9449
  415TMC3    H1 6251   0.502   0.813  10.271  0.8917 -4.0775 -1.5810
  415TMC3    H2 6252   0.692   0.789   9.870  1.0975 -2.3750  1.3791
  415TMC3    C7 6253   0.493   0.679  10.016 -0.0126  0.8600 -0.3711
  415TMC3    C8 6254   0.898   0.919   9.945 -0.1651 -0.2369  0.0610
  415TMC3    O1 6255   0.514   0.630   9.907 -0.5544  0.6024 -0.2973
  415TMC3    O2 6256   0.935   0.811   9.903  0.4880  0.4327 -0.4379
  416MPD2     C 6257   2.371   4.606  11.585 -0.1742 -0.6985 -0.1252
  416MPD2    C1 6258   2.266   4.551  11.526 -0.0154  0.2767  0.3884
  416MPD2    C2 6259   2.268   4.483  11.406  0.0021 -0.2469 -0.2808
  416MPD2    C3 6260   2.393   4.470  11.343  0.7611  0.7477 -0.2992
  416MPD2    C4 6261   2.504   4.539  11.397 -0.0520  0.0058 -0.0485
  416MPD2    C5 6262   2.490   4.595  11.521 -0.3152  0.2862  0.6863
  416MPD2     H 6263   2.179   4.463  11.349 -0.4385  1.2198 -0.1036
  416MPD2    H1 6264   2.602   4.534  11.351 -0.2869 -1.0465 -0.4318
  416MPD2    H2 6265   2.359   4.654  11.682  1.6030 -0.5670  0.0334
  416MPD2    H3 6266   2.577   4.620  11.581 -0.8495  1.9271  0.7703
  416MPD2     N 6267   2.411   4.412  11.215  0.2422 -0.6096  0.4903
  416MPD2    H5 6268   2.493   4.450  11.167 -1.2535  1.9414 -0.0449
  416MPD2    N1 6269   2.152   4.566  11.612  0.6048 -0.2078 -0.3717
  416MPD2    H7 6270   2.171   4.629  11.690 -2.0126 -0.8549  0.7746
  417TMC3    C1 6271   1.926   4.614  11.657  0.1532 -0.0382 -0.1452
  417TMC3    C2 6272   1.929   4.590  11.796 -0.4933 -0.5299  0.1052
  417TMC3    C3 6273   1.806   4.624  11.859 -0.1892 -0.8804 -0.2304
  417TMC3    C4 6274   1.830   4.680  11.597 -0.2809 -0.0659  0.6847
  417TMC3    C5 6275   1.717   4.709  11.666 -0.1801 -0.0315  0.3020
  417TMC3    C6 6276   1.697   4.673  11.793 -0.3181  0.0554  0.5372
  417TMC3     C 6277   2.024   4.571  11.560  0.3982  0.0727 -0.2366
  417TMC3     O 6278   1.994   4.536  11.448  0.6049  0.3859  0.7165
  417TMC3     H 6279   2.014   4.540  11.840  1.2773  2.2458 -0.1254
  417TMC3    H1 6280   1.836   4.702  11.491  0.5840  1.3581  1.0333
  417TMC3    H2 6281   1.598   4.678  11.836 -0.3095  1.5375  0.3875
  417TMC3    C7 6282   1.625   0.055  11.592 -0.1573 -0.1803 -0.4488
  417TMC3    C8 6283   1.791   4.626  11.999 -0.6386 -0.2262 -0.5001
  417TMC3    O1 6284   1.673   0.094  11.488  0.0892 -0.0331 -0.4043
  417TMC3    O2 6285   1.681   4.633  12.056 -0.2767  0.4008  0.3441
  418TMC3    C1 6286   1.271   2.228  17.666 -0.1188  0.8581 -0.4220
  418TMC3    C2 6287   1.159   2.306  17.653 -0.4921  0.3306  0.4921
  418TMC3    C3 6288   1.073   2.325   0.007 -0.7002  0.6622 -1.1095
  418TMC3    C4 6289   1.291   2.154   0.023  0.2323  0.0203  0.3540
  418TMC3    C5 6290   1.201   2.174   0.127 -0.4180 -0.2213 -0.0377
  418TMC3    C6 6291   1.104   2.264   0.121  1.4095 -0.7152  0.3392
  418TMC3     C 6292   1.320   2.183  17.539 -0.7378 -0.2217 -0.0834
  418TMC3     O 6293   1.302   2.254  17.437 -0.4124 -0.1152  0.4786
  418TMC3     H 6294   1.136   2.354  17.559 -0.3669 -1.6589 -0.5586
  418TMC3    H1 6295   1.363   2.074   0.039  1.0598  0.8490  0.8037
  418TMC3    H2 6296   1.049   2.287   0.212 -1.2848  0.9932 -1.7393
  418TMC3    C7 6297   1.182   2.061   0.218 -0.3001  0.1409  0.0593
  418TMC3    C8 6298   0.933   2.304  17.745 -0.4285 -0.8698  0.0545
  418TMC3    O1 6299   1.216   1.954   0.179  0.0417 -0.7248  0.5058
  418TMC3    O2 6300   0.862   2.404  17.744  0.2068 -0.2781  0.1749
  419MPD2     C 6301   4.494   4.222  12.433 -0.2214 -0.1039  0.7670
  419MPD2    C1 6302   4.527   4.349  12.397 -0.1357 -0.1473  0.7422
  419MPD2    C2 6303   4.579   4.434  12.491  0.9828 -0.3892  0.7601
  419MPD2    C3 6304   4.616   4.389  12.618  0.2037  0.6773 -0.8051
  419MPD2    C4 6305   4.577   4.265  12.654  0.1142 -0.6682 -0.7228
  419MPD2    C5 6306   4.515   4.188  12.561 -0.0993 -0.0594  0.0709
  419MPD2     H 6307   4.598   4.538  12.465  1.5146 -1.0260 -1.3699
  419MPD2    H1 6308   4.595   4.233  12.756 -0.5786  0.7181 -0.1665
  419MPD2    H2 6309   4.451   4.156  12.358 -1.9716  0.5112  1.2202
  419MPD2    H3 6310   4.491   4.087  12.592  1.5370  0.1020  1.8857
  419MPD2     N 6311   4.651   4.492  12.715  0.1836  0.2273  0.0413
  419MPD2    H5 6312   4.640   4.589  12.687 -0.5980  0.0395 -0.3048
  419MPD2    N1 6313   4.501   4.406  12.270  0.3519  0.0317  0.2351
  419MPD2    H7 6314   4.521   4.506  12.262 -0.9795  0.3043  0.3752
  420TMC3    C1 6315   4.650   4.604  12.921  0.0955 -0.4628  0.0953
  420TMC3    C2 6316   4.543   4.676  12.885 -0.1871 -0.8435  0.1906
  420TMC3    C3 6317   4.519   0.055  12.951 -0.3225  0.0419  0.8264
  420TMC3    C4 6318   4.740   4.644  13.029 -0.5689 -0.2195 -0.1615
  420TMC3    C5 6319   4.706   0.033  13.082  0.1109 -0.3322  0.5074
  420TMC3    C6 6320   4.599   0.109  13.044  0.3818 -0.4449  0.0041
  420TMC3     C 6321   4.672   4.479  12.850 -0.2754 -0.0784 -0.5663
  420TMC3     O 6322   4.706   4.380  12.909  0.2441  0.5248  0.4848
  420TMC3     H 6323   4.479   4.657  12.799 -0.2422  1.8308 -0.3446
  420TMC3    H1 6324   0.081   4.582  13.065  0.2784  0.4458 -0.9100
  420TMC3    H2 6325   4.582   0.210  13.081  2.9408  1.2674 -3.4812
  420TMC3    C7 6326   4.736   0.060  13.217  0.0168  0.2744 -0.0761
  420TMC3    C8 6327   4.399   0.129  12.940  0.2337  1.2681 -0.8217
  420TMC3    O1 6328   4.664   0.137  13.276 -0.0737 -0.4149  0.1272
  420TMC3    O2 6329   4.391   0.245  12.985 -0.8629 -0.2440  0.5813
  421TMC3    C1 6330   1.218   1.502  13.600 -0.4744  0.0001  0.3880
  421TMC3    C2 6331   1.111   1.592  13.595 -0.3161  0.3115  0.0314
  421TMC3    C3 6332   1.109   1.690  13.694  0.0571  0.0083  1.0178
  421TMC3    C4 6333   1.306   1.502  13.705 -0.2511  0.3410 -0.9626
  421TMC3    C5 6334   1.280   1.587  13.813  0.7823 -0.4752  0.5395
  421TMC3    C6 6335   1.198   1.694  13.798  0.7309  1.1027  0.9330
  421TMC3     C 6336   1.233   1.403  13.495 -0.0168  0.3911 -0.3118
  421TMC3     O 6337   1.313   1.314  13.516 -0.1949 -0.3032  0.2853
  421TMC3     H 6338   1.035   1.581  13.519 -0.4153 -2.4859  0.5498
  421TMC3    H1 6339   1.385   1.429  13.716 -0.8358  0.0848  1.5059
  421TMC3    H2 6340   1.199   1.777  13.868 -2.5509  0.8581  1.2848
  421TMC3    C7 6341   1.376   1.617  13.918 -0.7679 -0.2717 -0.5162
  421TMC3    C8 6342   1.039   1.812  13.667 -0.2054  0.2122 -0.2197
  421TMC3    O1 6343   1.417   1.732  13.923 -0.5581  0.5381  0.2796
  421TMC3    O2 6344   0.935   1.819  13.609 -0.1465 -0.1615  0.3961
  422TMC3    C1 6345   2.985   2.955  12.209  1.2427  0.2245  0.3257
  422TMC3    C2 6346   3.004   3.030  12.325  0.0328 -0.5985  0.1402
  422TMC3    C3 6347   2.960   2.968  12.443 -0.1092 -0.2767  0.2690
  422TMC3    C4 6348   2.919   2.831  12.204  0.7542  0.0555  0.0846
  422TMC3    C5 6349   2.868   2.789  12.322 -0.3824  0.4689 -0.2713
  422TMC3    C6 6350   2.894   2.849  12.439  0.3880  0.0090  0.1107
  422TMC3     C 6351   3.054   3.006  12.095 -0.3542 -0.1953 -0.5375
  422TMC3     O 6352   3.079   3.125  12.082  0.3291  0.2585 -0.1927
  422TMC3     H 6353   3.038   3.132  12.328  2.5561 -1.5164  3.0959
  422TMC3    H1 6354   2.891   2.782  12.112  0.7551  0.8999 -0.3543
  422TMC3    H2 6355   2.868   2.799  12.532 -0.9852 -0.6894 -0.6474
  422TMC3    C7 6356   2.810   2.653  12.327  0.8227 -0.3589 -0.4414
  422TMC3    C8 6357   3.009   3.021  12.566  0.2973  0.4313 -0.2707
  422TMC3    O1 6358   2.835   2.584  12.226  0.1027  0.6692 -0.8249
  422TMC3    O2 6359   3.035   3.141  12.558 -0.2032  0.1617  0.0229
  423MPD2     C 6360   0.316   4.020   0.285 -0.2988  0.3152 -0.7765
  423MPD2    C1 6361   0.262   3.896   0.314 -0.3232  0.0982 -0.2607
  423MPD2    C2 6362   0.209   3.831   0.204  0.4861 -0.2939  0.4763
  423MPD2    C3 6363   0.179   3.894   0.083  0.2656 -0.7464  0.6863
  423MPD2    C4 6364   0.225   4.021   0.063 -0.4630 -0.4930 -0.2988
  423MPD2    C5 6365   0.298   4.078   0.160 -0.2508  0.6015 -0.2489
  423MPD2     H 6366   0.179   3.728   0.221 -0.9319  0.2736  1.3291
  423MPD2    H1 6367   0.220   4.077  17.728  0.3247  2.2216  1.2995
  423MPD2    H2 6368   0.362   4.081   0.361  1.0188  2.7103 -3.4945
  423MPD2    H3 6369   0.346   4.173   0.140 -1.8463  1.2813 -0.8213
  423MPD2     N 6370   0.116   3.821  17.737  0.0312  0.0078 -0.3016
  423MPD2    H5 6371   0.102   3.879  17.654 -1.7477  0.2984  0.1837
  423MPD2    N1 6372   0.282   3.841   0.436 -0.5335  0.0996 -0.2399
  423MPD2    H7 6373   0.264   3.741   0.440  0.8131 -0.1798 -0.9215
  424TMC3    C1 6374   0.373   3.841   0.654  0.1030 -0.3003  0.5034
  424TMC3    C2 6375   0.453   3.734   0.630 -0.4617 -0.5566 -0.4064
  424TMC3    C3 6376   0.518   3.663   0.734 -0.8094  0.2002 -0.3119
  424TMC3    C4 6377   0.350   3.883   0.784 -0.1170  0.0790  0.4114
  424TMC3    C5 6378   0.407   3.805   0.879  0.2212  0.5220  0.4966
  424TMC3    C6 6379   0.496   3.702   0.860  0.5170 -0.2520 -0.2978
  424TMC3     C 6380   0.301   3.913   0.552 -0.3642  0.2092  0.6718
  424TMC3     O 6381   0.280   4.033   0.573 -0.2710  0.0706 -0.3951
  424TMC3     H 6382   0.476   3.702   0.529  0.0655 -0.3538 -0.3480
  424TMC3    H1 6383   0.277   3.958   0.811 -0.3118  0.5882 -1.4914
  424TMC3    H2 6384   0.526   3.638   0.943  0.6261 -1.0146 -0.9235
  424TMC3    C7 6385   0.346   3.810   1.011 -0.4081 -0.5950 -0.1697
  424TMC3    C8 6386   0.542   3.519   0.702  0.2651 -0.4543  0.2026
  424TMC3    O1 6387   0.422   3.806   1.107 -0.0416  0.0663  0.0005
  424TMC3    O2 6388   0.501   3.483   0.592 -0.0395  0.1514 -0.4138
  425MPD2     C 6389   3.620   3.778  17.011  0.4559  0.3881  0.0586
  425MPD2    C1 6390   3.589   3.646  17.047  0.3974 -0.2448 -0.9876
  425MPD2    C2 6391   3.472   3.619  17.117 -0.1674  0.0484 -0.1018
  425MPD2    C3 6392   3.390   3.721  17.166  0.0992  0.0096 -0.7198
  425MPD2    C4 6393   3.424   3.851  17.131  0.1205 -0.6628 -0.0262
  425MPD2    C5 6394   3.532   3.882  17.052  0.8322 -0.4752 -0.5040
  425MPD2     H 6395   3.436   3.519  17.141  0.3859 -0.2994 -0.7056
  425MPD2    H1 6396   3.365   3.938  17.156  1.9755  0.1740  1.4502
  425MPD2    H2 6397   3.703   3.798  16.945  1.4194  0.7031  1.3642
  425MPD2    H3 6398   3.533   3.983  17.013 -0.3168 -0.5757 -0.7691
  425MPD2     N 6399   3.280   3.689  17.249 -0.7485  0.6713 -0.1691
  425MPD2    H5 6400   3.253   3.592  17.261  0.0180  0.6488  1.3386
  425MPD2    N1 6401   3.667   3.541  16.990  0.2842 -0.0525  0.1127
  425MPD2    H7 6402   3.758   3.559  16.949 -0.6718 -0.2499 -2.0702
  426TMC3    C1 6403   3.756   3.330  16.941  0.1150 -0.5847  0.2383
  426TMC3    C2 6404   3.756   3.335  16.800 -0.5249 -0.0100  0.7036
  426TMC3    C3 6405   3.815   3.232  16.735 -0.0492 -0.2032 -0.2896
  426TMC3    C4 6406   3.791   3.218  17.010  0.3180  1.5041  0.4183
  426TMC3    C5 6407   3.827   3.110  16.935  0.2934  0.4963 -0.5651
  426TMC3    C6 6408   3.842   3.123  16.802  0.1873 -0.1205  0.1433
  426TMC3     C 6409   3.655   3.407  17.008 -0.2849 -0.2033 -0.4912
  426TMC3     O 6410   3.581   3.339  17.077 -0.1129 -0.1325 -0.5515
  426TMC3     H 6411   3.721   3.427  16.756 -2.8034 -0.6380  1.1976
  426TMC3    H1 6412   3.774   3.212  17.117 -0.3866 -1.2134  0.1509
  426TMC3    H2 6413   3.861   3.032  16.745  1.4258  0.1385  0.1347
  426TMC3    C7 6414   3.784   2.976  16.981 -0.3703  0.4056 -0.1770
  426TMC3    C8 6415   3.805   3.216  16.592 -0.2213 -0.5938 -0.4663
  426TMC3    O1 6416   3.835   2.874  16.940 -0.1212  0.5020  0.7700
  426TMC3    O2 6417   3.877   3.128  16.542  0.3667  0.5586 -0.0935
  427MPD2     C 6418   2.165   0.617  14.984  0.9535  0.2201 -0.3498
  427MPD2    C1 6419   2.131   0.600  15.113  0.3059  0.1448  0.1373
  427MPD2    C2 6420   2.012   0.661  15.165  0.1320  0.6562  0.6229
  427MPD2    C3 6421   1.924   0.739  15.086 -0.7646 -0.1152 -0.0138
  427MPD2    C4 6422   1.965   0.758  14.959 -0.0700 -0.3764  0.3605
  427MPD2    C5 6423   2.083   0.699  14.916  0.7506  0.3697  0.6758
  427MPD2     H 6424   1.984   0.664  15.270  2.5344 -1.7925  1.3080
  427MPD2    H1 6425   1.902   0.806  14.885  1.6228  1.3020  0.0105
  427MPD2    H2 6426   2.245   0.573  14.926  0.3750 -0.8165 -0.3745
  427MPD2    H3 6427   2.109   0.707  14.811 -1.4847 -0.0027  0.1001
  427MPD2     N 6428   1.802   0.803  15.121  0.0566 -0.2677  0.3727
  427MPD2    H5 6429   1.761   0.867  15.054  0.2266 -2.3521 -1.7210
  427MPD2    N1 6430   2.208   0.521  15.205  0.4341  0.0778 -0.0277
  427MPD2    H7 6431   2.179   0.522  15.302 -0.6629 -0.3104 -0.3510
  428TMC3    C1 6432   2.379   0.410  15.298  0.4234 -0.8905  0.0871
  428TMC3    C2 6433   2.296   0.323  15.365  0.2990  0.1324  0.4524
  428TMC3    C3 6434   2.349   0.224  15.446 -0.1620  0.3413 -0.0856
  428TMC3    C4 6435   2.514   0.397  15.311  0.3657  0.4847 -0.2200
  428TMC3    C5 6436   2.569   0.297  15.393  0.3392 -0.3885  0.0644
  428TMC3    C6 6437   2.489   0.210  15.456  0.5713  0.0525 -0.9410
  428TMC3     C 6438   2.331   0.470  15.176  0.6903  0.2870  0.4561
  428TMC3     O 6439   2.404   0.478  15.076 -0.0790 -0.1160  0.4296
  428TMC3     H 6440   2.193   0.316  15.332  0.5671  0.8039 -0.5093
  428TMC3    H1 6441   2.571   0.475  15.263  0.8034  0.0345 -0.4350
  428TMC3    H2 6442   2.534   0.144  15.530 -1.5799  2.7891  2.8240
  428TMC3    C7 6443   2.679   0.356  15.471 -0.9218 -0.0751 -0.0476
  428TMC3    C8 6444   2.268   0.123  15.505  0.0432  0.3099 -0.7056
  428TMC3    O1 6445   2.663   0.351  15.593  0.4322  0.0001 -0.5595
  428TMC3    O2 6446   2.311   0.009  15.508  0.4645 -0.3165  0.3068
  429MPD2     C 6447   3.427   0.850  17.697  0.5191  0.0611  0.3475
  429MPD2    C1 6448   3.489   0.785  17.592 -0.4563  0.6541  0.6864
  429MPD2    C2 6449   3.571   0.857  17.502  0.3150 -0.6121 -0.0954
  429MPD2    C3 6450   3.582   0.993  17.522  0.3514  0.4306 -0.4008
  429MPD2    C4 6451   3.521   1.059  17.631 -0.0547  0.0986 -0.4972
  429MPD2    C5 6452   3.449   0.986  17.716 -0.3913 -0.3797 -0.6778
  429MPD2     H 6453   3.621   0.819  17.413 -0.6070 -0.0002 -0.8779
  429MPD2    H1 6454   3.533   1.166  17.642  0.6513  0.1056 -1.3403
  429MPD2    H2 6455   3.361   0.800   0.009  0.3938 -0.4298 -0.1248
  429MPD2    H3 6456   3.386   1.030   0.035 -0.7335  0.7801 -1.6298
  429MPD2     N 6457   3.660   1.060  17.424  0.0637  0.0209 -0.0367
  429MPD2    H5 6458   3.702   0.995  17.359  1.1973 -0.0691  0.7950
  429MPD2    N1 6459   3.466   0.647  17.567 -0.1624  0.2930 -0.2044
  429MPD2    H7 6460   3.543   0.610  17.512  0.3734 -0.1728  0.8496
  430TMC3    C1 6461   3.772   1.228  17.312  1.0965 -0.1151  0.4532
  430TMC3    C2 6462   3.768   1.351  17.262  0.5576  0.1581 -0.1145
  430TMC3    C3 6463   3.858   1.381  17.157 -1.2507  0.3572 -0.1998
  430TMC3    C4 6464   3.855   1.137  17.273  0.0347  0.1262  0.3781
  430TMC3    C5 6465   3.931   1.156  17.161  0.0212 -0.2803 -0.4126
  430TMC3    C6 6466   3.943   1.284  17.105  0.3835  0.0659  0.3868
  430TMC3     C 6467   3.673   1.195  17.411 -0.1023  0.7037 -0.5560
  430TMC3     O 6468   3.603   1.282  17.453 -0.2269  0.3106  0.1657
  430TMC3     H 6469   3.693   1.422  17.294  0.5392 -0.5262  1.3693
  430TMC3    H1 6470   3.864   1.035  17.308  2.2593  0.5747  1.1198
  430TMC3    H2 6471   4.015   1.307  17.027  1.2256 -0.5170  0.9910
  430TMC3    C7 6472   3.931   1.052  17.058  0.0657 -0.4417  0.7267
  430TMC3    C8 6473   3.795   1.437  17.046 -0.1682  0.9092 -0.6334
  430TMC3    O1 6474   3.924   0.935  17.101  0.2186 -0.1570 -0.7343
  430TMC3    O2 6475   3.825   1.394  16.938 -0.0858 -0.0134  0.1933
  431MPD2     C 6476   4.334   0.403  12.410  0.1119  0.5585 -0.4541
  431MPD2    C1 6477   4.404   0.408  12.290 -0.6081 -0.1048  0.5005
  431MPD2    C2 6478   4.413   0.295  12.207 -0.0366 -0.4673 -0.5790
  431MPD2    C3 6479   4.360   0.176  12.248 -1.1294  0.3614 -0.2756
  431MPD2    C4 6480   4.285   0.171  12.363 -0.2814 -0.7628 -0.1157
  431MPD2    C5 6481   4.278   0.279  12.447 -0.1342 -0.3129  0.0941
  431MPD2     H 6482   4.476   0.311  12.121  0.2851 -1.5093 -0.5394
  431MPD2    H1 6483   4.240   0.077  12.391  1.7328 -0.9947  2.3634
  431MPD2    H2 6484   4.329   0.484  12.482 -0.3597 -0.8241  1.0874
  431MPD2    H3 6485   4.209   0.276  12.531  0.1489  0.2788  0.3462
  431MPD2     N 6486   4.375   0.059  12.174  0.3217  0.0007  0.4778
  431MPD2    H5 6487   4.343   4.711  12.212  0.1033 -1.3147 -2.7790
  431MPD2    N1 6488   4.468   0.521  12.241 -0.7651  0.4665  0.2435
  431MPD2    H7 6489   4.508   0.515  12.148 -1.8735 -0.9915 -0.1440
  432TMC3    C1 6490   4.459   4.662  12.007  0.0581 -0.0587 -0.7925
  432TMC3    C2 6491   4.563   4.646  11.918  0.1536  0.3472 -0.2316
  432TMC3    C3 6492   4.614   4.523  11.901 -0.0658 -0.5104  0.0363
  432TMC3    C4 6493   4.409   4.559  12.086 -0.3047 -0.3643 -0.1361
  432TMC3    C5 6494   4.465   4.436  12.054 -0.2582  0.0171 -0.3680
  432TMC3    C6 6495   4.568   4.418  11.966  0.2663 -0.4711  0.1605
  432TMC3     C 6496   4.437   0.054  12.051  0.0999 -0.2586  0.2901
  432TMC3     O 6497   4.461   0.147  11.975 -0.1596  0.3454 -0.3153
  432TMC3     H 6498   4.611   4.735  11.878 -0.3500 -0.0517 -1.7047
  432TMC3    H1 6499   4.324   4.575  12.151 -0.3205 -1.2829  0.0772
  432TMC3    H2 6500   4.612   4.319  11.967  1.0139 -0.1574 -1.8637
  432TMC3    C7 6501   4.467   4.337  12.155  0.1223  0.0711 -0.0275
  432TMC3    C8 6502   4.730   4.494  11.822  0.8226 -0.0871  0.8897
  432TMC3    O1 6503   4.453   4.218  12.132 -0.3780 -0.7808  0.0594
  432TMC3    O2 6504   4.726   4.387  11.763 -0.1153 -0.3278  0.4559
  433MPD2     C 6505   2.668   3.637  10.565  0.4008 -0.1493 -0.2354
  433MPD2    C1 6506   2.652   3.535  10.649 -0.3095  0.0281  0.0834
  433MPD2    C2 6507   2.681   3.563  10.780  0.9326 -0.2064 -0.4434
  433MPD2    C3 6508   2.732   3.685  10.824  0.6921  0.2609  0.4417
  433MPD2    C4 6509   2.752   3.785  10.727  0.0156  0.3293  0.4204
  433MPD2    C5 6510   2.706   3.761  10.598 -0.6290 -0.2504 -1.1295
  433MPD2     H 6511   2.668   3.484  10.854  0.0248  0.5786  0.2429
  433MPD2    H1 6512   2.775   3.888  10.755  1.1499  0.1227  0.2274
  433MPD2    H2 6513   2.630   3.628  10.464 -0.6949 -2.2482  0.3654
  433MPD2    H3 6514   2.695   3.839  10.523 -1.3083 -0.8765 -1.6807
  433MPD2     N 6515   2.775   3.707  10.955  0.5498 -0.1675  0.2584
  433MPD2    H5 6516   2.767   3.629  11.019 -0.1789  0.5007  0.9845
  433MPD2    N1 6517   2.615   3.408  10.616  0.0241 -0.5291 -0.8245
  433MPD2    H7 6518   2.605   3.351  10.699  1.3463 -0.2031 -0.4410
  434TMC3    C1 6519   2.649   3.219  10.479  0.4086  0.6949  0.4790
  434TMC3    C2 6520   2.728   3.182  10.584 -0.8741 -0.7448 -0.2994
  434TMC3    C3 6521   2.833   3.097  10.557 -0.6870 -0.3848 -0.2537
  434TMC3    C4 6522   2.672   3.178  10.351 -0.0843  0.0026  0.0201
  434TMC3    C5 6523   2.767   3.085  10.329  0.1999 -0.5969 -0.1510
  434TMC3    C6 6524   2.845   3.040  10.438  0.3310 -0.5007  0.2189
  434TMC3     C 6525   2.615   3.358  10.488  0.8704  0.5924  0.2286
  434TMC3     O 6526   2.642   3.410  10.384  0.0244  0.6603  0.1475
  434TMC3     H 6527   2.713   3.215  10.686 -2.5339  0.8465 -1.0550
  434TMC3    H1 6528   2.614   3.218  10.268 -0.8612  0.2322  0.6678
  434TMC3    H2 6529   2.928   2.975  10.415 -1.5768 -2.8454  0.0522
  434TMC3    C7 6530   2.728   2.991  10.234 -1.0259  0.4512 -0.0383
  434TMC3    C8 6531   2.879   3.017  10.670 -0.2765 -0.1304  0.4295
  434TMC3    O1 6532   2.628   3.011  10.170 -0.4032 -0.2460  0.5748
  434TMC3    O2 6533   2.803   3.021  10.765 -0.6922  0.2060 -0.0080
  435MPD2     C 6534   0.502   4.536  15.216  0.4554 -0.1452  0.6062
  435MPD2    C1 6535   0.424   4.491  15.319  0.0899  1.0010 -0.0198
  435MPD2    C2 6536   0.457   4.378  15.391  0.5457 -0.2109 -0.0491
  435MPD2    C3 6537   0.581   4.315  15.379  0.7613  0.1997 -0.2467
  435MPD2    C4 6538   0.661   4.362  15.276 -0.0080  0.1585 -0.4123
  435MPD2    C5 6539   0.619   4.463  15.190 -0.4115  0.3880  0.1620
  435MPD2     H 6540   0.388   4.331  15.459  0.1922 -0.0463 -0.2932
  435MPD2    H1 6541   0.753   4.322  15.236  0.3182  0.7484 -0.2569
  435MPD2    H2 6542   0.480   4.621  15.152  2.3537 -0.2107 -0.1301
  435MPD2    H3 6543   0.680   4.491  15.106  0.4500  0.3561  0.7733
  435MPD2     N 6544   0.615   4.217  15.475 -0.0056 -0.7616 -0.1216
  435MPD2    H5 6545   0.544   4.212  15.546 -0.1557  0.9389 -0.1574
  435MPD2    N1 6546   0.306   4.566  15.360 -0.3299 -0.2195  0.0956
  435MPD2    H7 6547   0.278   4.541  15.454  0.4787  1.0908  0.6810
  436TMC3    C1 6548   0.158   0.143  15.584 -0.3563  0.6568 -0.1618
  436TMC3    C2 6549   0.200   0.032  15.516  0.8929 -0.0371  0.2333
  436TMC3    C3 6550   0.191   0.036  15.379  0.8377  0.4369 -0.8707
  436TMC3    C4 6551   0.111   0.261  15.527 -0.1936  0.2255 -0.0691
  436TMC3    C5 6552   0.093   0.256  15.390  0.5463 -0.1583 -0.5860
  436TMC3    C6 6553   0.141   0.151  15.313  0.4683 -0.2214 -0.3385
  436TMC3     C 6554   0.204   0.133  15.721 -0.1475  0.1063  0.8812
  436TMC3     O 6555   0.299   0.063  15.749  0.3214  0.0244 -0.4075
  436TMC3     H 6556   0.228   4.681  15.567 -0.4704 -0.7861 -0.3556
  436TMC3    H1 6557   0.072   0.340  15.590 -2.3480 -1.8675  1.2418
  436TMC3    H2 6558   0.128   0.160  15.206 -0.7653  0.4216 -0.1439
  436TMC3    C7 6559   0.051   0.373  15.322  0.4869  0.2702 -0.6027
  436TMC3    C8 6560   0.261   4.677  15.296  0.1204 -1.2494  0.3236
  436TMC3    O1 6561   4.701   0.437  15.371  0.7063  0.4035  0.0928
  436TMC3    O2 6562   0.280   4.712  15.177 -0.7607 -0.0088  0.0575
  437TMC3    C1 6563   3.629   1.655  12.069 -0.2751 -0.1320 -0.0065
  437TMC3    C2 6564   3.511   1.668  12.002  0.3435 -0.1216  0.7417
  437TMC3    C3 6565   3.518   1.727  11.877  0.6821  0.0860  0.0086
  437TMC3    C4 6566   3.750   1.669  12.013 -0.0844  0.0382 -0.1805
  437TMC3    C5 6567   3.753   1.706  11.882 -0.0736 -0.4492  0.2724
  437TMC3    C6 6568   3.642   1.741  11.820 -0.6925 -0.1982 -0.3393
  437TMC3     C 6569   3.633   1.566  12.178  0.6057  0.2964  0.1977
  437TMC3     O 6570   3.711   1.474  12.180 -0.2657  0.3824  0.3250
  437TMC3     H 6571   3.418   1.627  12.041 -1.9673  3.6352 -0.7934
  437TMC3    H1 6572   3.838   1.647  12.073 -0.7406 -0.2345  0.6687
  437TMC3    H2 6573   3.656   1.762  11.714  0.1694  0.8320 -0.0263
  437TMC3    C7 6574   3.884   1.713  11.811  0.2114  0.2959 -0.0690
  437TMC3    C8 6575   3.395   1.719  11.796 -0.7027  0.1886 -0.6003
  437TMC3    O1 6576   3.885   1.755  11.697  0.1660  0.0242 -0.7560
  437TMC3    O2 6577   3.292   1.706  11.862  0.5635 -0.1651  0.2660
  438MPD2     C 6578   1.194   2.041  16.494  0.0261 -0.8646 -0.1888
  438MPD2    C1 6579   1.315   1.986  16.548  0.7373 -0.1548 -0.3442
  438MPD2    C2 6580   1.311   1.921  16.670  0.2281  0.6406  0.3466
  438MPD2    C3 6581   1.189   1.907  16.739 -0.3374  0.4913 -0.2822
  438MPD2    C4 6582   1.071   1.960  16.683 -0.4383 -0.1086  0.4998
  438MPD2    C5 6583   1.076   2.022  16.561 -0.9904 -0.7916  0.2865
  438MPD2     H 6584   1.395   1.865  16.710  1.1779  1.2135 -0.8702
  438MPD2    H1 6585   0.977   1.951  16.737 -0.3034 -2.0428  0.4068
  438MPD2    H2 6586   1.191   2.091  16.399 -0.7032 -0.3742  0.0932
  438MPD2    H3 6587   0.992   2.075  16.518  0.6157  0.9751 -0.6771
  438MPD2     N 6588   1.175   1.850  16.865 -0.2480 -0.1596  0.1077
  438MPD2    H5 6589   1.087   1.865  16.913 -0.8593 -0.4033 -0.9273
  438MPD2    N1 6590   1.433   1.981  16.473 -0.1130 -0.0551  0.4827
  438MPD2    H7 6591   1.506   1.923  16.513 -1.5778 -1.4818  1.0975
  439TMC3    C1 6592   1.600   2.026  16.314 -0.1543 -0.3665  0.1895
  439TMC3    C2 6593   1.624   2.057  16.183  0.5538  0.1784  0.2393
  439TMC3    C3 6594   1.760   2.044  16.145 -0.3406  1.3218  0.1696
  439TMC3    C4 6595   1.694   1.981  16.402  0.5362  0.0233  0.6580
  439TMC3    C5 6596   1.822   1.972  16.358  0.0974 -0.3610  0.8955
  439TMC3    C6 6597   1.857   2.004  16.230 -0.1811  0.7811  0.2605
  439TMC3     C 6598   1.454   2.042  16.356  0.1630 -0.1109  0.3753
  439TMC3     O 6599   1.380   2.101  16.282  0.6530 -0.1218  0.7917
  439TMC3     H 6600   1.548   2.102  16.119  0.2103  0.0317  0.5408
  439TMC3    H1 6601   1.669   1.968  16.507  0.0636 -0.1076  0.5283
  439TMC3    H2 6602   1.963   2.001  16.207 -0.2904 -2.7382  0.2092
  439TMC3    C7 6603   1.924   1.890  16.428  0.0808  0.3016 -0.4957
  439TMC3    C8 6604   1.767   1.997  16.003 -0.4163 -0.6367 -0.8511
  439TMC3    O1 6605   2.035   1.936  16.410 -0.0261  0.1308  0.4333
  439TMC3    O2 6606   1.676   2.035  15.927 -1.1115 -0.8647  0.4434
  440MPD2     C 6607   0.266   2.390  14.046 -0.1324 -0.3737 -0.1514
  440MPD2    C1 6608   0.286   2.484  14.144 -0.0676 -0.2763  0.4833
  440MPD2    C2 6609   0.373   2.450  14.245  1.0392  0.3625 -0.0878
  440MPD2    C3 6610   0.451   2.331  14.255  0.3807 -0.2958 -0.7414
  440MPD2    C4 6611   0.401   2.231  14.166 -0.8317  0.5240 -0.5470
  440MPD2    C5 6612   0.325   2.265  14.055 -0.2376 -1.2434 -0.4832
  440MPD2     H 6613   0.399   2.531  14.312 -0.7630  0.0607  0.9648
  440MPD2    H1 6614   0.445   2.132  14.164 -3.4748 -0.6784  0.8775
  440MPD2    H2 6615   0.208   2.401  13.955 -0.4928 -0.6545  0.0452
  440MPD2    H3 6616   0.322   2.191  13.975 -1.4525 -0.7940 -0.8571
  440MPD2     N 6617   0.562   2.298  14.346  0.8220 -0.0485 -0.6051
  440MPD2    H5 6618   0.593   2.204  14.365 -1.4347 -0.5523  0.5556
  440MPD2    N1 6619   0.218   2.609  14.148  0.1068 -0.7475  0.5360
  440MPD2    H7 6620   0.240   2.682  14.215  0.6376 -2.1667  1.8935
  441TMC3    C1 6621   0.676   2.367  14.547 -0.6112  0.2265  0.0727
  441TMC3    C2 6622   0.684   2.478  14.624  0.6692  0.1767  0.1297
  441TMC3    C3 6623   0.684   2.463  14.763  0.0354  0.2808  0.1602
  441TMC3    C4 6624   0.668   2.241  14.604  0.2454  0.2582 -0.5483
  441TMC3    C5 6625   0.685   2.228  14.743 -0.0876  0.0571 -0.6176
  441TMC3    C6 6626   0.690   2.336  14.825  0.4506  0.2485  0.4931
  441TMC3     C 6627   0.627   2.400  14.411  1.0556  0.1359 -1.2560
  441TMC3     O 6628   0.639   2.515  14.365  0.4541 -0.2267 -0.0836
  441TMC3     H 6629   0.668   2.573  14.574  0.9849  0.9421  1.4859
  441TMC3    H1 6630   0.675   2.160  14.532  0.8293  0.2184 -0.4425
  441TMC3    H2 6631   0.686   2.325  14.933 -2.6915 -0.6662  0.2624
  441TMC3    C7 6632   0.660   2.099  14.809  0.5380 -0.7421  0.2857
  441TMC3    C8 6633   0.670   2.583  14.846  1.3394  0.4098 -0.0128
  441TMC3    O1 6634   0.688   2.094  14.929 -0.5039 -0.0754  0.2599
  441TMC3    O2 6635   0.703   2.572  14.964  0.3624 -0.3557 -0.1390
  442MPD2     C 6636   3.398   3.102  16.204  0.5495  0.5570  0.3007
  442MPD2    C1 6637   3.294   3.016  16.253  0.2868  0.4897 -0.4461
  442MPD2    C2 6638   3.252   2.902  16.185 -0.3905 -0.2145 -0.0590
  442MPD2    C3 6639   3.314   2.874  16.061 -0.5500 -0.7518  0.2858
  442MPD2    C4 6640   3.411   2.957  16.012  0.4028 -1.0516  0.5627
  442MPD2    C5 6641   3.460   3.062  16.086  0.8467 -0.4509  0.0472
  442MPD2     H 6642   3.174   2.841  16.228  0.6953 -0.4456  1.5551
  442MPD2    H1 6643   3.458   2.927  15.919 -2.0473  0.0895 -1.0412
  442MPD2    H2 6644   3.440   3.192  16.248  0.9020  0.3808  0.3252
  442MPD2    H3 6645   3.536   3.127  16.042  2.2637 -0.2762  2.7835
  442MPD2     N 6646   3.282   2.762  15.984  0.1427 -0.6183 -0.1231
  442MPD2    H5 6647   3.351   2.744  15.912  0.3670 -0.5022  0.0651
  442MPD2    N1 6648   3.226   3.043  16.375 -0.0741 -0.4970 -0.3825
  442MPD2    H7 6649   3.141   2.993  16.400 -0.7333 -0.0680 -1.7757
  443TMC3    C1 6650   3.162   3.172  16.563  0.3190  0.4502  0.3538
  443TMC3    C2 6651   3.112   3.295  16.569 -0.0168  0.1363 -0.7907
  443TMC3    C3 6652   2.986   3.308  16.624 -0.6548  0.6345  0.0223
  443TMC3    C4 6653   3.107   3.066  16.624  0.4948  0.1344 -0.4565
  443TMC3    C5 6654   3.001   3.087  16.706  0.2097  0.4331 -0.9108
  443TMC3    C6 6655   2.940   3.203  16.706 -0.9204 -0.9016  0.2636
  443TMC3     C 6656   3.253   3.151  16.451  0.4761  0.8144 -0.1801
  443TMC3     O 6657   3.336   3.240  16.432 -0.1541  0.0251  0.6609
  443TMC3     H 6658   3.157   3.378  16.515  0.8571  0.7150  0.8471
  443TMC3    H1 6659   3.139   2.964  16.605  1.8228  0.2435  1.1827
  443TMC3    H2 6660   2.834   3.198  16.732 -0.8347 -0.8364  0.6236
  443TMC3    C7 6661   2.939   2.976  16.778 -0.2885 -0.7530 -0.4999
  443TMC3    C8 6662   2.887   3.343  16.518  0.5149 -0.3183  0.4702
  443TMC3    O1 6663   2.973   2.867  16.731 -0.3982 -0.2758  0.4683
  443TMC3    O2 6664   2.797   3.263  16.502  0.0662  0.4453 -0.8776
  444MPD2     C 6665   3.425   2.791  16.811  0.1928  0.2762  0.2762
  444MPD2    C1 6666   3.376   2.666  16.831 -0.3039 -0.3449  0.0995
  444MPD2    C2 6667   3.455   2.559  16.796  0.3288 -0.7501  0.7170
  444MPD2    C3 6668   3.587   2.575  16.756  0.4853 -0.3459 -0.4082
  444MPD2    C4 6669   3.634   2.702  16.734 -0.2665 -0.0319 -0.5167
  444MPD2    C5 6670   3.549   2.806  16.763  0.2669  0.2269 -0.3811
  444MPD2     H 6671   3.430   2.454  16.802 -2.8313 -0.0630 -0.1944
  444MPD2    H1 6672   3.738   2.719  16.707 -0.1524  1.6168  0.9832
  444MPD2    H2 6673   3.361   2.878  16.822 -0.4322  0.1078 -2.0864
  444MPD2    H3 6674   3.581   2.908  16.746  1.8553  0.1380  1.9756
  444MPD2     N 6675   3.657   2.457  16.732  0.1188 -0.2825  0.6051
  444MPD2    H5 6676   3.610   2.368  16.743 -0.3295 -0.3855 -2.1724
  444MPD2    N1 6677   3.253   2.639  16.884 -0.2069 -0.3421  0.2946
  444MPD2    H7 6678   3.223   2.542  16.879  0.7485 -0.6168 -0.0864
  445TMC3    C1 6679   3.826   2.313  16.666  0.8135  0.5923 -0.6268
  445TMC3    C2 6680   3.789   2.234  16.772  0.6245  0.2031  0.6135
  445TMC3    C3 6681   3.840   2.109  16.775 -0.5959  0.2934 -0.2052
  445TMC3    C4 6682   3.898   2.273  16.558  0.2268 -0.6461 -0.2143
  445TMC3    C5 6683   3.942   2.144  16.566  0.5533  0.1243 -0.4346
  445TMC3    C6 6684   3.930   2.066  16.681  0.0401  0.6448  0.0811
  445TMC3     C 6685   3.780   2.450  16.664 -0.0435  0.7719 -0.0897
  445TMC3     O 6686   3.848   2.536  16.604  0.2182  0.0066  0.0971
  445TMC3     H 6687   3.716   2.260  16.848 -0.0245  1.9513 -0.6172
  445TMC3    H1 6688   3.921   2.332  16.469  1.0448 -2.8764 -1.4757
  445TMC3    H2 6689   3.984   1.972  16.689 -0.9847  0.0257 -0.1694
  445TMC3    C7 6690   4.078   2.133  16.514  0.7375 -0.3762 -0.2635
  445TMC3    C8 6691   3.812   2.015  16.882 -0.2724  0.3281  0.1057
  445TMC3    O1 6692   4.091   2.178  16.398 -0.8199  0.3567  0.4802
  445TMC3    O2 6693   3.830   1.899  16.851  0.4398  0.0655  0.2816
  446MPD2     C 6694   2.586   2.716  11.199  0.2324  0.5922  0.6245
  446MPD2    C1 6695   2.605   2.731  11.060 -0.2532  0.4221 -0.1093
  446MPD2    C2 6696   2.638   2.853  11.015  0.2723  0.6939  0.1779
  446MPD2    C3 6697   2.673   2.954  11.107  0.5234  0.3539 -0.3799
  446MPD2    C4 6698   2.664   2.938  11.242 -0.3203  0.5699 -0.3611
  446MPD2    C5 6699   2.619   2.817  11.284  0.4076 -0.6826 -0.5319
  446MPD2     H 6700   2.639   2.880  10.910 -0.6041 -0.0762 -0.0311
  446MPD2    H1 6701   2.679   3.019  11.313 -0.2259 -0.4173  0.7548
  446MPD2    H2 6702   2.554   2.625  11.250  0.6787 -0.8253 -1.6056
  446MPD2    H3 6703   2.601   2.815  11.390  0.6681 -2.7363 -0.5212
  446MPD2     N 6704   2.760   3.061  11.057 -0.1374  0.0099 -0.4293
  446MPD2    H5 6705   2.761   3.068  10.956 -0.2641 -0.2114 -0.4448
  446MPD2    N1 6706   2.583   2.632  10.964  0.2562 -0.1399  0.7864
  446MPD2    H7 6707   2.574   2.663  10.868 -0.5126  0.7505  1.1438
  447TMC3    C1 6708   2.971   3.166  11.059  0.9105  0.0905  0.0175
  447TMC3    C2 6709   2.946   3.234  10.947 -0.1216 -0.0580  0.3076
  447TMC3    C3 6710   3.055   3.250  10.868  0.1377 -0.4553 -0.1012
  447TMC3    C4 6711   3.095   3.113  11.094  0.3369  0.2585 -1.1054
  447TMC3    C5 6712   3.196   3.131  11.011  0.0187  0.7266 -0.1044
  447TMC3    C6 6713   3.180   3.201  10.899  0.4685  0.1551 -0.0663
  447TMC3     C 6714   2.861   3.117  11.136  0.0347  0.3732  0.2594
  447TMC3     O 6715   2.891   3.096  11.253 -0.0160 -0.2255 -0.1016
  447TMC3     H 6716   2.849   3.262  10.906  0.9242 -0.1143 -2.2318
  447TMC3    H1 6717   3.095   3.033  11.168  0.4547  0.2679 -1.0950
  447TMC3    H2 6718   3.261   3.237  10.838  1.2770  1.4711  1.7751
  447TMC3    C7 6719   3.318   3.048  11.019 -0.4092  0.0391  0.4683
  447TMC3    C8 6720   3.053   3.363  10.777  0.1628 -0.5974 -0.0697
  447TMC3    O1 6721   3.393   3.066  10.926  0.4942 -0.0788  0.1682
  447TMC3    O2 6722   3.029   3.343  10.656  0.1233 -0.0819 -0.3133
  448TMC3    C1 6723   1.354   3.582  16.982  0.3496  0.5979 -0.2451
  448TMC3    C2 6724   1.356   3.475  16.892 -0.3559  0.2083 -0.5211
  448TMC3    C3 6725   1.471   3.399  16.882  0.0256  0.6205 -0.0930
  448TMC3    C4 6726   1.453   3.586  17.076 -0.6332 -0.1619 -0.3743
  448TMC3    C5 6727   1.564   3.504  17.068 -0.0575  0.1633 -0.4001
  448TMC3    C6 6728   1.587   3.419  16.961  0.0781  1.0578 -0.1817
  448TMC3     C 6729   1.224   3.657  16.991  0.0310  0.3359 -0.1510
  448TMC3     O 6730   1.123   3.621  16.930  0.7638 -0.2956 -0.7536
  448TMC3     H 6731   1.283   3.473  16.813 -0.6236  2.6824 -0.3277
  448TMC3    H1 6732   1.437   3.653  17.160  0.9342  0.0918 -0.2907
  448TMC3    H2 6733   1.669   3.349  16.959 -0.2775  0.6444 -0.5443
  448TMC3    C7 6734   1.640   3.504  17.197  1.0450 -0.8104 -0.8366
  448TMC3    C8 6735   1.488   3.303  16.774  0.1348  0.0991  0.5146
  448TMC3    O1 6736   1.610   3.583  17.285  0.5856  0.1361  0.2787
  448TMC3    O2 6737   1.607   3.280  16.755  0.3182  0.0696  0.2388
  449MPD2     C 6738   3.028   1.179  13.718 -0.0486 -0.0883 -0.8010
  449MPD2    C1 6739   2.897   1.217  13.683  0.6011  0.5547  0.3457
  449MPD2    C2 6740   2.811   1.127  13.624 -0.5573  0.3435  0.2830
  449MPD2    C3 6741   2.857   0.993  13.599 -0.1134  0.4047  0.1251
  449MPD2    C4 6742   2.988   0.958  13.635 -0.7636 -0.1573 -0.1311
  449MPD2    C5 6743   3.073   1.054  13.685 -1.0577  0.0858 -0.5604
  449MPD2     H 6744   2.710   1.164  13.606 -0.4119  0.8137  0.4339
  449MPD2    H1 6745   3.028   0.859  13.620  0.2419  0.5677 -2.2367
  449MPD2    H2 6746   3.101   1.248  13.760 -0.1480 -1.4487  1.6120
  449MPD2    H3 6747   3.175   1.029  13.712 -0.7033  0.8742 -1.1792
  449MPD2     N 6748   2.765   0.904  13.540 -0.1625  0.1483  0.8203
  449MPD2    H5 6749   2.667   0.931  13.534 -0.0540  0.6854  1.4893
  449MPD2    N1 6750   2.849   1.341  13.715  0.4063  0.0795 -0.5253
  449MPD2    H7 6751   2.748   1.353  13.708  0.3776 -0.0138 -0.2517
  450TMC3    C1 6752   2.843   1.562  13.691  0.6650 -0.4251  0.2149
  450TMC3    C2 6753   2.863   1.621  13.570 -0.3390  0.0635 -0.2381
  450TMC3    C3 6754   2.762   1.653  13.484 -0.0965  0.0351 -0.4294
  450TMC3    C4 6755   2.712   1.534  13.720  0.7027  0.1313  0.2130
  450TMC3    C5 6756   2.608   1.569  13.640 -0.8570  0.1955  0.4024
  450TMC3    C6 6757   2.628   1.633  13.516  0.0027  0.2772  0.0959
  450TMC3     C 6758   2.928   1.453  13.735 -0.8939  0.8006  0.1731
  450TMC3     O 6759   3.049   1.472  13.729 -0.6568  0.0652 -0.4956
  450TMC3     H 6760   2.966   1.632  13.537 -0.2797  0.9703  0.2505
  450TMC3    H1 6761   2.682   1.487  13.813 -2.0647 -1.9621 -1.7252
  450TMC3    H2 6762   2.563   1.659  13.434 -0.2678 -1.0976 -0.1231
  450TMC3    C7 6763   2.507   1.465  13.634  0.1532 -0.5382 -0.1670
  450TMC3    C8 6764   2.794   1.692  13.348  0.1460 -0.2587 -0.1083
  450TMC3    O1 6765   2.533   1.362  13.697  0.0583 -0.6614  0.1968
  450TMC3    O2 6766   2.704   1.754  13.290 -0.1642 -0.5955  0.0566
  451MPD2     C 6767   3.376   0.814   0.860  0.2289 -0.5532 -0.0128
  451MPD2    C1 6768   3.497   0.870   0.873 -0.0517  0.2404  0.1384
  451MPD2    C2 6769   3.603   0.797   0.816  0.4557  0.5697  0.0497
  451MPD2    C3 6770   3.577   0.680   0.742  0.3070 -1.1202 -0.1133
  451MPD2    C4 6771   3.447   0.630   0.741  0.8014 -0.1633  0.0623
  451MPD2    C5 6772   3.346   0.701   0.796  0.2166  0.1394  0.1255
  451MPD2     H 6773   3.705   0.832   0.812  1.0041 -1.0223  0.3744
  451MPD2    H1 6774   3.415   0.538   0.694 -0.4562  0.7053 -0.7879
  451MPD2    H2 6775   3.295   0.874   0.902  0.9235 -0.8227  1.6870
  451MPD2    H3 6776   3.243   0.668   0.785 -0.8245  3.2835  0.5431
  451MPD2     N 6777   3.673   0.610   0.662 -0.1913  0.7507 -0.0251
  451MPD2    H5 6778   3.648   0.517   0.629 -1.7978  1.3329 -0.4384
  451MPD2    N1 6779   3.529   0.988   0.947 -0.7250  0.3068 -0.1770
  451MPD2    H7 6780   3.452   1.042   0.984 -0.7361  0.5673 -0.5743
  452TMC3    C1 6781   3.859   0.587   0.524  0.2510 -0.8961  0.0603
  452TMC3    C2 6782   3.889   0.453   0.531 -0.2306  0.2946  0.1028
  452TMC3    C3 6783   3.963   0.403   0.434 -0.2452 -0.3112  0.0848
  452TMC3    C4 6784   3.917   0.668   0.429  0.2181 -0.1944 -0.0476
  452TMC3    C5 6785   3.993   0.610   0.333  0.6771 -0.8743  0.1278
  452TMC3    C6 6786   4.016   0.479   0.336  0.5659  0.9018 -0.1532
  452TMC3     C 6787   3.800   0.661   0.632 -0.2597  0.0064 -0.1391
  452TMC3     O 6788   3.847   0.774   0.648  0.2594 -0.8984  0.5215
  452TMC3     H 6789   3.848   0.400   0.616  0.1334  0.3016  0.2799
  452TMC3    H1 6790   3.902   0.776   0.424 -0.8415 -0.3613 -0.4330
  452TMC3    H2 6791   4.054   0.430   0.247  0.6414  3.1957 -1.3843
  452TMC3    C7 6792   4.084   0.691   0.266 -1.0231  0.3744  0.4530
  452TMC3    C8 6793   3.987   0.262   0.426 -0.6004  0.0400 -1.0215
  452TMC3    O1 6794   4.059   0.810   0.251 -0.5992 -0.0471  0.4833
  452TMC3    O2 6795   4.049   0.233   0.323  0.0596 -0.4179  0.5606
  453TMC3    C1 6796   0.104   2.314  11.799 -0.1863 -0.0802  0.4876
  453TMC3    C2 6797   0.082   2.188  11.737 -0.9470  0.1910  0.6867
  453TMC3    C3 6798   0.056   2.196  11.606  0.9116  0.5660  0.2458
  453TMC3    C4 6799   0.092   2.430  11.727 -0.8277  0.1181 -0.1250
  453TMC3    C5 6800   0.067   2.426  11.591  0.1051 -0.3458  0.0573
  453TMC3    C6 6801   0.056   2.310  11.532 -0.0929 -0.3212 -0.0857
  453TMC3     C 6802   0.213   2.318  11.885 -0.0813  0.4735 -0.1665
  453TMC3     O 6803   0.295   2.411  11.865 -0.4025  0.2616 -0.1649
  453TMC3     H 6804   0.081   2.093  11.790 -2.1300  0.1821  0.6496
  453TMC3    H1 6805   0.109   2.516  11.790  1.8391 -0.2383 -0.3586
  453TMC3    H2 6806   0.011   2.314  11.433  1.9881  0.5590 -1.0068
  453TMC3    C7 6807   0.151   2.509  11.508 -0.1793 -0.1608 -0.3347
  453TMC3    C8 6808   0.060   2.070  11.540 -0.2103  0.6569 -0.8201
  453TMC3    O1 6809   0.108   2.549  11.402  0.1225 -0.3989 -0.0383
  453TMC3    O2 6810   0.031   1.973  11.606 -0.1998 -0.0615 -0.2224
  454MPD2     C 6811   4.269   2.544  16.012 -0.4581  0.1945  0.6272
  454MPD2    C1 6812   4.233   2.563  15.880  0.6590 -0.6977  0.3742
  454MPD2    C2 6813   4.206   2.689  15.832  0.1517  0.2823 -0.0268
  454MPD2    C3 6814   4.229   2.798  15.912  0.0941  0.5254 -0.1802
  454MPD2    C4 6815   4.269   2.772  16.043 -0.2138  0.3174 -0.0247
  454MPD2    C5 6816   4.292   2.650  16.094 -0.2912 -0.4539  0.2825
  454MPD2     H 6817   4.169   2.698  15.730  2.0739  2.6032 -0.5070
  454MPD2    H1 6818   4.291   2.855  16.108 -0.8233  1.0775 -0.8004
  454MPD2    H2 6819   4.292   2.446  16.051  2.0205  0.0316 -1.2276
  454MPD2    H3 6820   4.337   2.627  16.190 -0.1457  1.2049  0.6038
  454MPD2     N 6821   4.179   2.928  15.874  0.6832 -0.4519 -0.1902
  454MPD2    H5 6822   4.153   2.988  15.952 -0.7008 -1.8001  0.3892
  454MPD2    N1 6823   4.193   2.457  15.797 -0.0866  0.3106 -0.2433
  454MPD2    H7 6824   4.170   2.480  15.701 -2.7821  0.0932  0.3323
  455TMC3    C1 6825   3.992   2.989  15.761  0.2760  0.2564 -0.5879
  455TMC3    C2 6826   3.953   3.047  15.879 -0.1896 -0.1017  0.7231
  455TMC3    C3 6827   3.852   2.994  15.949 -0.8044 -0.2854 -0.0815
  455TMC3    C4 6828   3.929   2.874  15.715  0.9786 -0.0721  0.4765
  455TMC3    C5 6829   3.834   2.818  15.796 -0.7704  0.5100 -0.9824
  455TMC3    C6 6830   3.788   2.881  15.906  0.6239 -0.5322 -0.4059
  455TMC3     C 6831   4.137   2.958  15.753  0.0398 -0.3606  0.2465
  455TMC3     O 6832   4.185   2.925  15.646 -0.3608  0.4074 -0.1136
  455TMC3     H 6833   4.006   3.135  15.913  1.3622 -0.1281 -1.5888
  455TMC3    H1 6834   3.973   2.823  15.630 -1.5227 -1.1089 -0.1762
  455TMC3    H2 6835   3.705   2.847  15.966  0.4509  2.0983  0.8381
  455TMC3    C7 6836   3.822   2.673  15.789  0.9036 -0.0956  0.0257
  455TMC3    C8 6837   3.812   3.056  16.076 -0.2473  0.2755 -0.3424
  455TMC3    O1 6838   3.813   2.629  15.675  0.2796 -0.0644 -0.1383
  455TMC3    O2 6839   3.787   2.982  16.167 -0.5551  0.7574  0.1635
  456MPD2     C 6840   1.921   2.332  15.774  0.5678 -0.4509  0.4953
  456MPD2    C1 6841   1.988   2.259  15.874  0.2176 -0.5996 -0.5909
  456MPD2    C2 6842   1.989   2.309  16.006  0.4325  0.2360 -0.7350
  456MPD2    C3 6843   1.903   2.410  16.046 -0.0348 -0.1766 -0.4217
  456MPD2    C4 6844   1.835   2.475  15.941 -0.2110  0.3351  0.6449
  456MPD2    C5 6845   1.842   2.433  15.817 -0.0836  0.0281 -0.4614
  456MPD2     H 6846   2.047   2.269  16.088  1.1289 -0.3908 -1.5350
  456MPD2    H1 6847   1.774   2.562  15.965 -2.4789 -1.0197 -0.2859
  456MPD2    H2 6848   1.926   2.303  15.670 -1.3558 -0.2497  0.3503
  456MPD2    H3 6849   1.782   2.479  15.740 -1.1486 -0.7888 -0.1282
  456MPD2     N 6850   1.899   2.454  16.184  0.4051  0.3785  0.3968
  456MPD2    H5 6851   1.975   2.421  16.241 -2.1191 -0.8103  3.0865
  456MPD2    N1 6852   2.060   2.153  15.830  0.0762  0.0305  0.0056
  456MPD2    H7 6853   2.040   2.120  15.736  0.8358 -0.0442 -0.1298
  457TMC3    C1 6854   1.829   2.592  16.369 -0.2371  0.3739 -0.4016
  457TMC3    C2 6855   1.771   2.715  16.394  0.2841  0.6908  0.2326
  457TMC3    C3 6856   1.788   2.772  16.519  0.4892  0.1972 -0.1204
  457TMC3    C4 6857   1.907   2.529  16.463 -0.3613  0.4699  0.5158
  457TMC3    C5 6858   1.929   2.596  16.579 -0.0771 -0.8244  0.3959
  457TMC3    C6 6859   1.870   2.714  16.616 -0.8625 -0.2302 -0.1305
  457TMC3     C 6860   1.794   2.532  16.239  0.1759  1.0174  0.3415
  457TMC3     O 6861   1.692   2.568  16.181 -0.0745  0.0092  0.6566
  457TMC3     H 6862   1.715   2.759  16.312  0.6589 -0.7213 -0.7996
  457TMC3    H1 6863   1.969   2.442  16.443  0.5815  1.4077 -0.6124
  457TMC3    H2 6864   1.870   2.743  16.720 -0.7399 -0.4040 -0.0828
  457TMC3    C7 6865   1.993   2.514  16.683 -0.6087  0.1931 -0.3703
  457TMC3    C8 6866   1.699   2.872  16.567 -0.9221 -0.8075 -0.0210
  457TMC3    O1 6867   1.984   2.393  16.671 -0.0298 -0.0447 -0.0305
  457TMC3    O2 6868   1.728   2.924  16.672 -0.2576 -0.3528  0.0466
  458MPD2     C 6869   4.401   1.696  11.817 -0.2638 -0.5479  1.0397
  458MPD2    C1 6870   4.357   1.660  11.943  0.0588  0.5280  0.7967
  458MPD2    C2 6871   4.221   1.643  11.958  0.5910 -0.1417  0.2793
  458MPD2    C3 6872   4.127   1.669  11.856  0.1082  0.7807  0.6485
  458MPD2    C4 6873   4.179   1.718  11.739  0.3255 -0.5299  0.4142
  458MPD2    C5 6874   4.310   1.721  11.718  0.6340 -0.9978  0.5296
  458MPD2     H 6875   4.185   1.615  12.057  0.2202 -1.3089 -0.1774
  458MPD2    H1 6876   4.107   1.756  11.667  0.1539  0.9872  1.3933
  458MPD2    H2 6877   4.507   1.715  11.806 -0.8456  0.8022 -2.1524
  458MPD2    H3 6878   4.336   1.751  11.617 -0.8463 -1.1987  0.0832
  458MPD2     N 6879   3.987   1.664  11.887 -0.0672 -0.0731  0.5124
  458MPD2    H5 6880   3.961   1.621  11.974  0.5987  0.1875  0.8446
  458MPD2    N1 6881   4.453   1.631  12.045  0.2113 -0.6861 -0.4027
  458MPD2    H7 6882   4.546   1.663  12.022  0.9894 -0.4129  3.1657
  459TMC3    C1 6883   4.567   1.542  12.235  0.0018 -0.4404  0.2751
  459TMC3    C2 6884   4.672   1.512  12.148 -0.8543  0.2318 -0.0327
  459TMC3    C3 6885   0.033   1.448  12.206 -0.1313  0.4462  0.3234
  459TMC3    C4 6886   4.570   1.519  12.364 -0.1923 -0.3114 -0.4315
  459TMC3    C5 6887   4.678   1.456  12.409  0.0551  0.4078 -0.8034
  459TMC3    C6 6888   0.041   1.409  12.332  0.2031  0.1075 -0.0045
  459TMC3     C 6889   4.436   1.580  12.172 -0.0872 -0.2519 -0.2874
  459TMC3     O 6890   4.335   1.558  12.239 -0.3492  0.4444 -0.1441
  459TMC3     H 6891   4.663   1.516  12.040 -0.7160  1.9326  0.0328
  459TMC3    H1 6892   4.486   1.553  12.423  0.8493 -3.4232  2.7839
  459TMC3    H2 6893   0.125   1.351  12.367 -0.7338 -1.1710  0.1315
  459TMC3    C7 6894   4.671   1.393  12.540  0.4254  0.7092 -1.0451
  459TMC3    C8 6895   0.152   1.419  12.132 -0.2915  0.1514  0.1888
  459TMC3    O1 6896   0.034   1.341  12.578 -0.2664  0.3558 -0.0844
  459TMC3    O2 6897   0.224   1.324  12.173 -0.2035  0.0260  0.3055
  460MPD2     C 6898   3.132   3.709  10.892 -0.4289 -0.0453  0.4147
  460MPD2    C1 6899   3.079   3.617  10.802  0.1922 -0.2335 -0.1067
  460MPD2    C2 6900   3.057   3.658  10.668  0.0937 -1.0084  0.4113
  460MPD2    C3 6901   3.069   3.789  10.639 -0.3262 -0.2733  0.2860
  460MPD2    C4 6902   3.114   3.880  10.734  0.2814  0.7995  0.1301
  460MPD2    C5 6903   3.144   3.842  10.861  0.6070 -0.1227 -0.4563
  460MPD2     H 6904   3.022   3.591  10.591 -0.1205 -0.3544 -0.0635
  460MPD2    H1 6905   3.142   3.981  10.709 -0.4748  0.7582 -0.8454
  460MPD2    H2 6906   3.159   3.665  10.987  1.8475  0.4718 -0.0101
  460MPD2    H3 6907   3.177   3.923  10.926  2.6563 -0.1786 -1.4001
  460MPD2     N 6908   3.021   3.823  10.508 -0.6106  0.1824 -0.1344
  460MPD2    H5 6909   2.995   3.747  10.446  2.4374 -1.5549  0.6829
  460MPD2    N1 6910   3.081   3.482  10.841 -0.1377  0.2120  0.1291
  460MPD2    H7 6911   3.106   3.474  10.939 -0.1226  1.9571  0.2731
  461TMC3    C1 6912   2.958   3.940  10.322 -0.2234  0.1568 -0.7701
  461TMC3    C2 6913   2.896   3.831  10.269  0.1312 -0.3034  0.7058
  461TMC3    C3 6914   2.884   3.821  10.132 -0.4130 -0.4264  0.5850
  461TMC3    C4 6915   3.010   4.043  10.242  0.2129  0.1198  0.2350
  461TMC3    C5 6916   2.985   4.027  10.107 -0.4342  0.1762  0.0914
  461TMC3    C6 6917   2.922   3.919  10.051  0.2667 -0.1019 -0.4592
  461TMC3     C 6918   2.996   3.948  10.458 -0.1680  0.5029  0.7470
  461TMC3     O 6919   2.981   4.056  10.512  0.7083 -0.0360 -0.5662
  461TMC3     H 6920   2.835   3.767  10.332 -0.0291 -3.1222 -2.3019
  461TMC3    H1 6921   3.073   4.124  10.276 -1.1553  1.3940 -0.2658
  461TMC3    H2 6922   2.892   3.919   9.947 -1.3244 -2.2170  0.0087
  461TMC3    C7 6923   3.001   4.140  10.012  0.8198  0.2481  0.0248
  461TMC3    C8 6924   2.828   3.694  10.090  0.6515  0.0849  0.3585
  461TMC3    O1 6925   2.935   4.132   9.907 -0.3927  0.1177  0.3655
  461TMC3    O2 6926   2.780   3.623  10.181  0.6156 -0.5666 -0.2610
  462TMC3    C1 6927   3.499   0.827   0.424  0.6608 -0.9021 -0.5475
  462TMC3    C2 6928   3.596   0.849   0.326 -0.4443 -0.3645 -0.0249
  462TMC3    C3 6929   3.639   0.744   0.254  0.8292 -0.3158 -0.3164
  462TMC3    C4 6930   3.434   0.711   0.427 -0.1021  0.1068  0.3935
  462TMC3    C5 6931   3.479   0.609   0.347 -0.4563 -0.1183 -0.2598
  462TMC3    C6 6932   3.590   0.612   0.271  0.3246  0.1823  0.9439
  462TMC3     C 6933   3.441   0.941   0.494  0.2880 -0.3325 -0.6003
  462TMC3     O 6934   3.322   0.932   0.520 -0.5313  0.0920 -0.4132
  462TMC3     H 6935   3.645   0.946   0.318 -1.5820  0.1357 -0.9528
  462TMC3    H1 6936   3.351   0.699   0.497 -1.1789  0.6021 -0.7938
  462TMC3    H2 6937   3.601   0.538   0.193  2.5475  2.4310 -0.8567
  462TMC3    C7 6938   3.395   0.506   0.316  0.4382 -0.5521  0.9503
  462TMC3    C8 6939   3.729   0.777   0.143  0.3484  0.0111 -0.6183
  462TMC3    O1 6940   3.442   0.400   0.272 -0.5866 -0.2223 -0.8514
  462TMC3    O2 6941   3.752   0.897   0.118  0.4296 -0.2784  0.1737
  463MPD2     C 6942   0.371   2.317   0.853  0.7170  1.0748  0.6499
  463MPD2    C1 6943   0.365   2.451   0.815  0.6959  0.1141  0.7760
  463MPD2    C2 6944   0.487   2.507   0.777  0.0954 -0.2916 -0.6426
  463MPD2    C3 6945   0.606   2.441   0.779 -0.0895 -0.2856  0.5609
  463MPD2    C4 6946   0.609   2.305   0.808 -0.6929  0.4189 -1.0247
  463MPD2    C5 6947   0.492   2.247   0.844 -0.3236  0.7381 -1.4383
  463MPD2     H 6948   0.487   2.612   0.750  2.0283 -0.6208 -1.8722
  463MPD2    H1 6949   0.702   2.250   0.816 -0.4782  0.7440 -1.2839
  463MPD2    H2 6950   0.280   2.268   0.885  0.9087  0.4042  0.1761
  463MPD2    H3 6951   0.484   2.140   0.859 -1.8056  1.2803  1.5842
  463MPD2     N 6952   0.735   2.499   0.753 -0.5795 -0.3890 -0.0370
  463MPD2    H5 6953   0.818   2.441   0.749 -0.5675 -0.5615  3.4240
  463MPD2    N1 6954   0.249   2.534   0.824  0.2802 -0.0189  0.2102
  463MPD2    H7 6955   0.253   2.632   0.797 -0.2656 -0.0084  0.1647
  464TMC3    C1 6956   0.029   2.589   0.839  0.7453 -0.1133  0.1760
  464TMC3    C2 6957   0.060   2.722   0.863  0.0351 -0.0242  0.2197
  464TMC3    C3 6958   4.706   2.819   0.872  0.2537  0.3466  0.0482
  464TMC3    C4 6959   4.640   2.558   0.815 -0.4753  0.6224 -0.2587
  464TMC3    C5 6960   4.546   2.653   0.840 -0.4332 -0.2867  0.3541
  464TMC3    C6 6961   4.575   2.791   0.851 -0.0232 -0.2344 -0.4514
  464TMC3     C 6962   0.128   2.486   0.855 -0.6276 -0.2670 -0.2473
  464TMC3     O 6963   0.079   2.372   0.867 -0.5642 -0.1156  0.5757
  464TMC3     H 6964   0.164   2.740   0.887 -0.1283 -0.0367  0.9514
  464TMC3    H1 6965   4.602   2.458   0.795 -0.9229  0.5270  1.0125
  464TMC3    H2 6966   4.497   2.858   0.886  1.8578  2.0762 -0.6377
  464TMC3    C7 6967   4.406   2.609   0.855 -0.1754 -0.0803 -0.0024
  464TMC3    C8 6968   4.729   2.949   0.943 -0.4509 -0.0155  0.6113
  464TMC3    O1 6969   4.389   2.504   0.909  0.5197  0.7442  0.3019
  464TMC3    O2 6970   4.629   3.020   0.943 -0.2581 -0.0156 -0.3762
  465MPD2     C 6971   0.871   2.226  16.817  0.2517  0.1537 -0.0835
  465MPD2    C1 6972   0.758   2.152  16.831  0.8455 -0.6370  0.8475
  465MPD2    C2 6973   0.647   2.185  16.762  0.1899 -0.9620 -0.0395
  465MPD2    C3 6974   0.644   2.292  16.674 -0.8736 -0.1230  0.7386
  465MPD2    C4 6975   0.751   2.378  16.688  0.1452  0.5276  1.0881
  465MPD2    C5 6976   0.863   2.346  16.752 -0.3030  0.1391 -0.4926
  465MPD2     H 6977   0.564   2.116  16.764 -0.4052 -0.1926  1.3887
  465MPD2    H1 6978   0.758   2.479  16.650 -1.1444 -0.2322 -1.1459
  465MPD2    H2 6979   0.964   2.196  16.863  0.2745 -1.2896 -1.0788
  465MPD2    H3 6980   0.942   2.420  16.743  0.1325 -0.3089 -0.3524
  465MPD2     N 6981   0.533   2.322  16.597  0.6080  0.1364  0.2787
  465MPD2    H5 6982   0.454   2.259  16.609 -0.2989  1.0659 -0.7651
  465MPD2    N1 6983   0.741   2.038  16.916  0.2099  0.5900  0.4073
  465MPD2    H7 6984   0.647   2.009  16.941  0.3197 -0.3689 -0.2994
  466TMC3    C1 6985   0.189   2.484  16.515 -0.2956 -0.0949  0.0371
  466TMC3    C2 6986   0.180   2.595  16.432 -0.0577  0.0402  0.0757
  466TMC3    C3 6987   0.283   2.607  16.345 -0.1289  0.6684 -0.3409
  466TMC3    C4 6988   0.297   2.396  16.511 -0.1039 -0.8395 -0.3577
  466TMC3    C5 6989   0.401   2.426  16.430 -0.1306 -0.0485  0.5961
  466TMC3    C6 6990   0.397   2.527  16.342 -0.3889 -0.1725 -0.0607
  466TMC3     C 6991   0.143   2.498  16.651 -0.4388  1.1355  0.1665
  466TMC3     O 6992   0.195   2.438  16.743 -0.7072  0.3244  0.3632
  466TMC3     H 6993   0.099   2.667  16.436 -0.3346 -0.2932  0.4634
  466TMC3    H1 6994   0.301   2.313  16.581  2.2993 -0.5097 -0.0989
  466TMC3    H2 6995   0.483   2.551  16.281  0.3833 -1.6925  0.4419
  466TMC3    C7 6996   0.534   2.406  16.491  0.3209  0.1207  0.5247
  466TMC3    C8 6997   0.308   2.731  16.270 -0.2973 -0.2948  0.0424
  466TMC3    O1 6998   0.625   2.470  16.444  0.0801 -0.7872  0.2135
  466TMC3    O2 6999   0.364   2.724  16.160  0.1010 -0.5423 -0.5928
  467TMC3    C1 7000   1.981   0.823  13.671  0.5222 -0.3544  0.1694
  467TMC3    C2 7001   1.960   0.948  13.624  0.4273 -0.7551 -0.3166
  467TMC3    C3 7002   1.841   1.006  13.650 -0.1950  0.2496  0.5179
  467TMC3    C4 7003   1.898   0.760  13.753  0.1229  0.6662 -0.1082
  467TMC3    C5 7004   1.771   0.808  13.765 -0.3083  0.7322  0.6427
  467TMC3    C6 7005   1.735   0.938  13.715 -0.1298 -0.0490  0.8459
  467TMC3     C 7006   2.123   0.813  13.699 -0.2681  0.5878 -0.0611
  467TMC3     O 7007   2.179   0.916  13.733  0.6042  0.7472 -0.5304
  467TMC3     H 7008   2.030   0.983  13.549  1.3413 -3.2445 -0.6142
  467TMC3    H1 7009   1.937   0.677  13.811 -0.0658  1.3862  1.0436
  467TMC3    H2 7010   1.643   0.987  13.743 -0.5428 -1.0841  1.3399
  467TMC3    C7 7011   1.682   0.718  13.834 -0.4306  0.7037 -0.8601
  467TMC3    C8 7012   1.827   1.140  13.602 -0.3064 -0.2153 -0.2871
  467TMC3    O1 7013   1.725   0.610  13.866  0.5046  0.1964  0.1296
  467TMC3    O2 7014   1.877   1.166  13.490  0.0866 -0.7220  0.0519
  468MPD2     C 7015   0.419   3.915  10.534 -0.5628  1.1005 -0.2127
  468MPD2    C1 7016   0.530   3.852  10.582  0.4617  0.6065 -0.0640
  468MPD2    C2 7017   0.533   3.713  10.570 -0.0544 -0.1297  0.0497
  468MPD2    C3 7018   0.431   3.646  10.503 -0.0275 -0.1848 -0.1928
  468MPD2    C4 7019   0.317   3.714  10.471 -0.9340  0.0999 -1.4810
  468MPD2    C5 7020   0.317   3.849  10.485 -0.3956 -0.0154  0.1730
  468MPD2     H 7021   0.617   3.656  10.608  0.4739  0.7967  0.2738
  468MPD2    H1 7022   0.232   3.665  10.426 -2.0771 -0.5694  1.4187
  468MPD2    H2 7023   0.404   4.021  10.516 -1.9248  0.7441 -1.2549
  468MPD2    H3 7024   0.229   3.906  10.456 -0.5720 -0.3926 -0.0432
  468MPD2     N 7025   0.428   3.506  10.484 -0.5796 -0.1936 -0.1205
  468MPD2    H5 7026   0.346   3.456  10.449  0.2830 -0.9070 -1.1096
  468MPD2    N1 7027   0.649   3.925  10.637  0.0057 -0.1001  0.0209
  468MPD2    H7 7028   0.720   3.865  10.678  0.0835  0.9486  1.4131
  469TMC3    C1 7029   0.755   4.091  10.760 -0.1994  0.0097 -0.4058
  469TMC3    C2 7030   0.825   3.984  10.808 -0.4757  0.9000 -0.6417
  469TMC3    C3 7031   0.853   3.999  10.943  0.5614  0.5743  0.0735
  469TMC3    C4 7032   0.732   4.208  10.834 -0.1502  0.1286  0.7122
  469TMC3    C5 7033   0.774   4.217  10.964 -0.3526  0.2395 -0.5105
  469TMC3    C6 7034   0.833   4.110  11.023  0.2617 -0.0446  0.4712
  469TMC3     C 7035   0.657   4.067  10.661 -0.5337 -0.6732 -0.5806
  469TMC3     O 7036   0.559   4.142  10.655  0.2604 -0.2067 -0.3709
  469TMC3     H 7037   0.860   3.896  10.755  2.6673  0.7869  1.6468
  469TMC3    H1 7038   0.674   4.289  10.790  2.7429  2.0364  0.4520
  469TMC3    H2 7039   0.887   4.117  11.117  0.0002 -1.6659  0.7408
  469TMC3    C7 7040   0.752   4.340  11.039  0.8431  1.3926 -0.1235
  469TMC3    C8 7041   0.914   3.887  11.004  0.6998 -0.3337 -0.2636
  469TMC3    O1 7042   0.754   4.443  10.971 -0.0745  0.5096  0.4135
  469TMC3    O2 7043   0.959   3.808  10.925  0.2873 -0.3128 -0.4028
  470TMC3    C1 7044   2.919   0.262   0.515  0.4376  0.2149  0.3591
  470TMC3    C2 7045   2.891   0.395   0.505  0.2508  0.1077  0.2333
  470TMC3    C3 7046   2.991   0.478   0.538  0.2901 -0.8980  0.2520
  470TMC3    C4 7047   3.039   0.212   0.573 -0.1679  0.2649  0.1091
  470TMC3    C5 7048   3.123   0.308   0.623 -0.1756 -0.2292 -0.2325
  470TMC3    C6 7049   3.102   0.440   0.602 -0.1715 -0.4620  0.1416
  470TMC3     C 7050   2.816   0.167   0.463 -0.2047 -0.1684  0.8632
  470TMC3     O 7051   2.727   0.208   0.390  0.0413 -0.6753 -0.0506
  470TMC3     H 7052   2.803   0.419   0.446 -1.2827 -1.5206  1.8388
  470TMC3    H1 7053   3.059   0.106   0.581 -1.1865  0.1993  1.9384
  470TMC3    H2 7054   3.167   0.509   0.654  1.5428 -0.7025 -1.6824
  470TMC3    C7 7055   3.248   0.259   0.690  0.0564 -0.1065 -0.4351
  470TMC3    C8 7056   2.961   0.619   0.553 -0.3516  0.1581  1.2784
  470TMC3    O1 7057   3.357   0.307   0.657 -0.3875  0.3444  0.1105
  470TMC3    O2 7058   3.026   0.693   0.629  0.2316 -0.1888 -0.3970
  471MPD2     C 7059   3.494   1.716  16.763 -0.1529  0.1938  0.1994
  471MPD2    C1 7060   3.535   1.590  16.747 -0.0657  0.1571 -0.0052
  471MPD2    C2 7061   3.606   1.530  16.855  0.3665 -0.9455  0.0516
  471MPD2    C3 7062   3.638   1.599  16.968  0.0419 -0.9565  0.2136
  471MPD2    C4 7063   3.594   1.727  16.975 -0.5231  0.1828 -0.2397
  471MPD2    C5 7064   3.516   1.787  16.878  0.4904  0.9187  0.2811
  471MPD2     H 7065   3.625   1.424  16.845 -1.2646 -1.4032  1.8534
  471MPD2    H1 7066   3.627   1.781  17.063 -0.6612 -2.9395  1.7426
  471MPD2    H2 7067   3.437   1.768  16.687 -2.2346 -0.4653  1.3099
  471MPD2    H3 7068   3.494   1.893  16.885 -2.6863  0.5192 -3.4084
  471MPD2     N 7069   3.711   1.540  17.071  0.4444 -0.1222  0.0723
  471MPD2    H5 7070   3.719   1.592  17.157  0.0311  0.6164 -0.3289
  471MPD2    N1 7071   3.514   1.510  16.630  0.0783 -0.2514 -0.3736
  471MPD2    H7 7072   3.569   1.425  16.629  0.4698  0.0106 -1.2065
  472TMC3    C1 7073   3.465   1.436  16.412  0.0194  0.1662  0.3729
  472TMC3    C2 7074   3.399   1.461  16.296 -0.2235 -0.3820 -0.1320
  472TMC3    C3 7075   3.436   1.393  16.188 -0.0846 -1.1908 -0.1215
  472TMC3    C4 7076   3.521   1.320  16.438 -0.3081  0.7055 -0.8684
  472TMC3    C5 7077   3.522   1.233  16.339 -0.0851 -0.2357 -0.5606
  472TMC3    C6 7078   3.502   1.273  16.211  0.0654 -0.3834 -0.1269
  472TMC3     C 7079   3.446   1.541  16.515 -0.2543  0.0986 -0.1844
  472TMC3     O 7080   3.367   1.631  16.486 -1.1590 -0.0365  0.4099
  472TMC3     H 7081   3.333   1.546  16.285 -1.4820 -1.3024  0.3618
  472TMC3    H1 7082   3.554   1.294  16.539  0.0962  0.1438 -1.1437
  472TMC3    H2 7083   3.523   1.211  16.124  2.3347  0.2411 -0.0246
  472TMC3    C7 7084   3.513   1.098  16.375 -0.0318 -0.2669  0.3295
  472TMC3    C8 7085   3.317   1.377  16.098  0.2578 -0.2494 -0.1483
  472TMC3    O1 7086   3.477   1.078  16.489 -0.2528 -0.1243  0.6110
  472TMC3    O2 7087   3.310   1.421  15.984  0.3689  0.0455 -0.1076
  473MPD2     C 7088   3.252   3.295  14.196 -0.1424  0.8064  0.0072
  473MPD2    C1 7089   3.363   3.341  14.122 -0.3542 -0.5832  0.7001
  473MPD2    C2 7090   3.436   3.445  14.174 -0.4556  0.1678 -0.3432
  473MPD2    C3 7091   3.399   3.484  14.307  0.2894 -0.4875 -0.0524
  473MPD2    C4 7092   3.296   3.429  14.378  0.0969 -0.4476 -0.8267
  473MPD2    C5 7093   3.230   3.325  14.327 -0.0565 -0.1165  0.9424
  473MPD2     H 7094   3.530   3.478  14.130  0.2038 -2.0009 -0.5847
  473MPD2    H1 7095   3.266   3.460  14.478 -0.1192  0.3061 -1.1252
  473MPD2    H2 7096   3.201   3.206  14.159  0.3976  0.7693 -0.6507
  473MPD2    H3 7097   3.155   3.272  14.384 -1.7786 -0.4914 -1.6179
  473MPD2     N 7098   3.475   3.574  14.387  0.2423  0.2711  0.1988
  473MPD2    H5 7099   3.439   3.596  14.479  0.6890 -3.1759  1.2060
  473MPD2    N1 7100   3.400   3.295  13.994  0.4461 -0.4432  0.2100
  473MPD2    H7 7101   3.461   3.352  13.936  0.1883 -1.7058 -1.3179
  474TMC3    C1 7102   3.598   3.774  14.441  0.2997  0.8023 -0.1701
  474TMC3    C2 7103   3.489   3.798  14.522 -0.5085  0.2641  0.1565
  474TMC3    C3 7104   3.495   3.874  14.628  0.0544  0.3562  0.2532
  474TMC3    C4 7105   3.712   3.843  14.454 -0.4528 -0.1443 -0.2488
  474TMC3    C5 7106   3.722   3.917  14.563  0.6569 -0.3289 -0.5863
  474TMC3    C6 7107   3.611   3.942  14.649  0.2709 -0.1017  0.4681
  474TMC3     C 7108   3.579   3.656  14.348 -0.0237  0.0573 -0.9071
  474TMC3     O 7109   3.652   3.644  14.251  0.0814  0.0958 -0.1116
  474TMC3     H 7110   3.388   3.764  14.502 -0.2902 -1.8598  2.6462
  474TMC3    H1 7111   3.799   3.818  14.394  0.5373  2.3828  0.1404
  474TMC3    H2 7112   3.608   4.022  14.722  1.4282 -1.7178  2.2953
  474TMC3    C7 7113   3.832   4.006  14.559 -0.8347  0.2084 -0.7235
  474TMC3    C8 7114   3.369   3.926  14.669  0.3743 -0.0103  0.4169
  474TMC3    O1 7115   3.880   4.035  14.449 -0.1450  0.2920  0.3435
  474TMC3    O2 7116   3.287   3.844  14.710 -0.3790 -0.1753  0.0685
  475MPD2     C 7117   1.830   0.995  10.670  0.3131 -0.1159 -0.0419
  475MPD2    C1 7118   1.889   1.091  10.589  0.5684 -0.0648 -0.2973
  475MPD2    C2 7119   1.811   1.197  10.557  0.3008 -0.4080 -0.3433
  475MPD2    C3 7120   1.685   1.220  10.616  0.3016  0.1921  0.2397
  475MPD2    C4 7121   1.627   1.124  10.698 -0.3201  0.0378  0.2100
  475MPD2    C5 7122   1.700   1.007  10.717  0.4087 -0.1133 -0.5321
  475MPD2     H 7123   1.860   1.279  10.505 -3.9113  1.5483 -1.2201
  475MPD2    H1 7124   1.524   1.133  10.732 -0.6656  0.9559 -1.0797
  475MPD2    H2 7125   1.885   0.908  10.704  2.5303  1.4751  0.4402
  475MPD2    H3 7126   1.650   0.923  10.762 -1.1543  0.4970 -1.1407
  475MPD2     N 7127   1.630   1.353  10.609  0.6006 -0.5999 -0.0197
  475MPD2    H5 7128   1.681   1.419  10.551 -0.5887 -0.6244 -1.0758
  475MPD2    N1 7129   2.025   1.085  10.565  0.2653  0.0091  0.5335
  475MPD2    H7 7130   2.077   1.016  10.618 -0.6149  0.8088  2.4259
  476TMC3    C1 7131   2.174   1.233  10.467  0.0234 -0.4778  0.6707
  476TMC3    C2 7132   2.166   1.317  10.361  0.2955  0.0548  0.5800
  476TMC3    C3 7133   2.150   1.454  10.375 -0.6429  0.1274  1.0966
  476TMC3    C4 7134   2.189   1.280  10.602 -0.1436 -0.5001 -0.0913
  476TMC3    C5 7135   2.193   1.421  10.610 -0.2418  0.2815  0.1647
  476TMC3    C6 7136   2.169   1.507  10.502  0.0641 -0.5314  0.4272
  476TMC3     C 7137   2.074   1.140  10.448  0.4463 -0.1842  0.3379
  476TMC3     O 7138   2.008   1.154  10.346  0.1968 -0.1873  0.1096
  476TMC3     H 7139   2.176   1.280  10.259  1.4990 -1.2794  1.1779
  476TMC3    H1 7140   2.212   1.215  10.685 -1.0450 -0.0591  0.4994
  476TMC3    H2 7141   2.169   1.615  10.513 -0.4328 -0.5790  0.8702
  476TMC3    C7 7142   2.113   1.473  10.727  0.1176 -0.0308 -0.0718
  476TMC3    C8 7143   2.022   1.513  10.332  0.2958 -0.4547  0.6459
  476TMC3    O1 7144   2.120   1.590  10.754 -0.1843 -0.2626 -0.2398
  476TMC3    O2 7145   2.012   1.634  10.345 -0.3932 -0.2428 -0.1103
  477MPD2     C 7146   3.303   2.415  11.298 -0.3939 -0.1427 -0.3809
  477MPD2    C1 7147   3.262   2.422  11.427 -0.4353 -0.2330  0.3149
  477MPD2    C2 7148   3.356   2.418  11.531  0.0350  0.6489 -0.1408
  477MPD2    C3 7149   3.490   2.421  11.496  0.3249 -0.4058 -0.8197
  477MPD2    C4 7150   3.524   2.397  11.361 -0.7192  0.2631  0.4258
  477MPD2    C5 7151   3.432   2.399  11.264  0.1368  0.6101 -0.0974
  477MPD2     H 7152   3.331   2.433  11.635 -1.7888  0.9324 -0.6146
  477MPD2    H1 7153   3.627   2.373  11.337 -0.8205 -0.7762  1.0462
  477MPD2    H2 7154   3.224   2.414  11.223 -1.6303 -3.0942  0.9565
  477MPD2    H3 7155   3.461   2.384  11.160 -1.4778 -0.6724 -0.3611
  477MPD2     N 7156   3.588   2.434  11.595  0.1381 -0.0466 -0.8998
  477MPD2    H5 7157   3.560   2.438  11.692  1.4257  0.1186 -0.5392
  477MPD2    N1 7158   3.126   2.442  11.439  0.2605 -0.6307 -0.4810
  477MPD2    H7 7159   3.078   2.457  11.351  0.9479 -0.4658 -0.8274
  478TMC3    C1 7160   2.936   2.532  11.511  0.5923 -0.0180 -0.0279
  478TMC3    C2 7161   2.922   2.642  11.588 -0.4731  0.0153  0.0424
  478TMC3    C3 7162   2.907   2.764  11.522 -0.5373 -0.1512 -0.3478
  478TMC3    C4 7163   2.922   2.538  11.374  0.2173  1.2258 -0.4726
  478TMC3    C5 7164   2.912   2.658  11.313 -0.8023 -0.1401 -0.1596
  478TMC3    C6 7165   2.909   2.771  11.383  0.6768  0.4301 -0.4664
  478TMC3     C 7166   3.061   2.468  11.549 -0.3165  0.3682  0.4883
  478TMC3     O 7167   3.094   2.468  11.665  0.1914 -0.0698  0.2608
  478TMC3     H 7168   2.938   2.642  11.695 -2.0056 -0.2005  0.2664
  478TMC3    H1 7169   2.903   2.447  11.319  0.9185  0.6572  0.2341
  478TMC3    H2 7170   2.910   2.863  11.326  0.2559 -0.6711 -2.2604
  478TMC3    C7 7171   2.993   2.660  11.193  0.7430  0.5389 -0.0535
  478TMC3    C8 7172   2.880   2.885  11.608  0.7003  0.3828  0.3638
  478TMC3    O1 7173   3.053   2.557  11.172  0.5238 -0.2712  0.6969
  478TMC3    O2 7174   2.858   2.856  11.725  0.0924  0.2437  0.6171
  479MPD2     C 7175   2.956   0.581  15.357 -0.7272 -0.2427  0.1677
  479MPD2    C1 7176   2.870   0.517  15.447 -0.7296 -0.2791 -0.1068
  479MPD2    C2 7177   2.885   0.539  15.588  0.4431  0.0064  0.2237
  479MPD2    C3 7178   2.980   0.633  15.625 -0.8339  0.6433 -0.3218
  479MPD2    C4 7179   3.063   0.701  15.536  0.4154 -0.5459 -0.5565
  479MPD2    C5 7180   3.051   0.675  15.401  0.0014  0.8892  0.3824
  479MPD2     H 7181   2.821   0.482  15.654  0.3845 -0.7160 -0.4560
  479MPD2    H1 7182   3.138   0.766  15.579 -0.4229 -0.0485  0.1780
  479MPD2    H2 7183   2.935   0.556  15.253  2.5308  0.4988 -0.6666
  479MPD2    H3 7184   3.108   0.734  15.330  0.9081  0.8253  1.0684
  479MPD2     N 7185   3.004   0.657  15.763 -0.1972  0.2934  0.0056
  479MPD2    H5 7186   3.090   0.707  15.782 -0.2922 -0.7455  3.1494
  479MPD2    N1 7187   2.774   0.429  15.394 -0.5814  0.5920 -0.0120
  479MPD2    H7 7188   2.769   0.422  15.293  0.5259 -0.8489  0.0360
  480TMC3    C1 7189   2.610   0.447  15.903  0.0617 -0.6895 -0.0078
  480TMC3    C2 7190   2.523   0.516  15.818  0.2617  0.0118 -0.3262
  480TMC3    C3 7191   2.571   0.624  15.751 -0.0508  0.7515 -0.5957
  480TMC3    C4 7192   2.743   0.487  15.929  0.1020  0.3572 -0.0878
  480TMC3    C5 7193   2.779   0.595  15.858  0.5395  0.0752 -0.4599
  480TMC3    C6 7194   2.696   0.668  15.774 -0.4088 -0.0407  0.7182
  480TMC3     C 7195   2.562   0.319  15.959 -0.5184  0.5783  0.3185
  480TMC3     O 7196   2.645   0.261  16.034 -0.3988  0.2546  0.2911
  480TMC3     H 7197   2.415   0.507  15.817  0.1651  1.0119  0.5985
  480TMC3    H1 7198   2.812   0.439  15.997  0.4173  1.0105  0.0565
  480TMC3    H2 7199   2.737   0.755  15.724  2.2275 -2.6754 -1.6869
  480TMC3    C7 7200   2.918   0.641  15.876  0.2420  0.1237 -0.3326
  480TMC3    C8 7201   2.483   0.681  15.643 -0.1835 -0.2939  0.7017
  480TMC3    O1 7202   2.951   0.642  15.995  0.1626 -0.3469  0.7020
  480TMC3    O2 7203   2.362   0.659  15.641  0.9788 -0.0061  0.3964
  481MPD2     C 7204   4.637   0.308  14.413  0.4661 -0.3904  0.7503
  481MPD2    C1 7205   4.511   0.266  14.379  0.3251 -0.2239 -0.7279
  481MPD2    C2 7206   4.404   0.303  14.457  0.5488  0.0653  0.0981
  481MPD2    C3 7207   4.420   0.377  14.573 -0.2896  0.4149 -0.4220
  481MPD2    C4 7208   4.551   0.434  14.593  0.1777  0.4186  0.2281
  481MPD2    C5 7209   4.653   0.405  14.511  0.3090 -0.0661  0.5333
  481MPD2     H 7210   4.305   0.268  14.433  0.8075 -0.0256 -0.8310
  481MPD2    H1 7211   4.564   0.513  14.665  2.4186 -0.3863  0.7020
  481MPD2    H2 7212   4.723   0.274  14.357  1.5994 -0.9665  2.8470
  481MPD2    H3 7213   0.008   0.446  14.542 -0.3871  1.0049  1.2575
  481MPD2     N 7214   4.316   0.418  14.658 -0.5188  0.2947  0.3269
  481MPD2    H5 7215   4.349   0.497  14.713 -2.3253  0.6871  0.8456
  481MPD2    N1 7216   4.496   0.190  14.265 -0.0796 -0.0611  0.3239
  481MPD2    H7 7217   4.583   0.168  14.216 -0.7780  0.4651 -1.1669
  482TMC3    C1 7218   4.409   0.032  14.102  0.1498  0.2954 -0.2696
  482TMC3    C2 7219   4.297   0.007  14.029  0.3771  0.3079 -0.3325
  482TMC3    C3 7220   4.317   4.731  13.893 -0.2238 -0.1717 -0.4132
  482TMC3    C4 7221   4.537   0.021  14.048 -0.3994 -0.0979 -0.2465
  482TMC3    C5 7222   4.551   4.732  13.914 -0.2760  0.2329 -0.8992
  482TMC3    C6 7223   4.441   4.711  13.840  0.2254 -1.2092  0.7214
  482TMC3     C 7224   4.386   0.123  14.218 -0.5019  0.1697 -0.0540
  482TMC3     O 7225   4.271   0.137  14.254 -0.4424 -0.1400  0.0579
  482TMC3     H 7226   4.199   0.032  14.067  1.0450 -1.0767  2.3075
  482TMC3    H1 7227   4.624   0.043  14.108 -0.7824 -1.2146  0.7313
  482TMC3    H2 7228   4.442   4.674  13.738  1.0071 -0.9930  0.6485
  482TMC3    C7 7229   4.686   4.701  13.862 -0.6044 -0.4283  0.0825
  482TMC3    C8 7230   4.230   4.652  13.820  0.0973  0.1888  0.5070
  482TMC3    O1 7231   0.033   4.675  13.941  0.1007  0.6517  0.2412
  482TMC3    O2 7232   4.177   4.558  13.875 -0.7563  0.1497 -0.0897
  483TMC3    C1 7233   2.387   4.008   0.951  0.0174 -0.2229  0.2107
  483TMC3    C2 7234   2.475   4.117   0.939  0.0031  0.3695  0.2268
  483TMC3    C3 7235   2.609   4.100   0.972 -0.6587  0.4375 -1.0661
  483TMC3    C4 7236   2.427   3.891   1.019  0.4719 -0.2078  0.5102
  483TMC3    C5 7237   2.565   3.885   1.054 -0.0475  0.2668 -0.0570
  483TMC3    C6 7238   2.657   3.984   1.031 -0.1169  0.3665 -0.3390
  483TMC3     C 7239   2.246   4.037   0.917 -0.5688 -1.2867  0.1931
  483TMC3     O 7240   2.219   4.151   0.888 -0.7108  0.0058 -0.2914
  483TMC3     H 7241   2.439   4.206   0.888 -0.1348  0.7755  1.0315
  483TMC3    H1 7242   2.358   3.819   1.059 -0.3545  0.4559  0.2781
  483TMC3    H2 7243   2.760   3.963   1.055  0.5783  3.1659 -0.7967
  483TMC3    C7 7244   2.615   3.758   1.083  0.2374 -0.2978 -0.6824
  483TMC3    C8 7245   2.700   4.217   0.957  0.1861 -0.0287 -0.0024
  483TMC3    O1 7246   2.735   3.751   1.106 -0.3513  0.3266  0.0619
  483TMC3    O2 7247   2.650   4.316   0.914  0.0506 -0.4169 -0.3130
  484MPD2     C 7248   0.395   1.422  11.965 -0.0960  0.0465 -0.1978
  484MPD2    C1 7249   0.302   1.520  11.966 -0.1756  0.1213 -0.8522
  484MPD2    C2 7250   0.334   1.627  11.889 -0.0796  0.9739 -0.3971
  484MPD2    C3 7251   0.456   1.646  11.834  0.0123  0.3624  0.5786
  484MPD2    C4 7252   0.554   1.556  11.857  1.0761  0.1338  0.4360
  484MPD2    C5 7253   0.526   1.440  11.920 -0.1179 -0.2329 -0.2545
  484MPD2     H 7254   0.254   1.700  11.879  0.3932  1.8619  2.1123
  484MPD2    H1 7255   0.647   1.582  11.808  2.0691 -3.8527  0.2363
  484MPD2    H2 7256   0.377   1.325  12.012 -0.8652  0.7045  0.8668
  484MPD2    H3 7257   0.610   1.375  11.940  0.1735  0.0460 -0.5733
  484MPD2     N 7258   0.500   1.772  11.774  0.4381  0.1863  0.0558
  484MPD2    H5 7259   0.595   1.775  11.738 -0.1415  0.4175 -1.4947
  484MPD2    N1 7260   0.174   1.513  12.032 -0.2614 -0.6704  0.6357
  484MPD2    H7 7261   0.104   1.585  12.020 -0.4894 -0.9931  0.0212
  485TMC3    C1 7262   0.518   1.996  11.733 -0.3414  0.1524  0.0020
  485TMC3    C2 7263   0.636   2.005  11.799  0.1861  0.6902 -0.2254
  485TMC3    C3 7264   0.696   2.125  11.810  0.7048  0.1557  0.4846
  485TMC3    C4 7265   0.466   2.108  11.680 -0.4465  0.2689  0.8508
  485TMC3    C5 7266   0.533   2.228  11.675  0.3672  0.6011  0.3856
  485TMC3    C6 7267   0.640   2.235  11.756 -0.0386 -0.3971  0.4004
  485TMC3     C 7268   0.431   1.885  11.771 -0.5310  0.1484  0.2045
  485TMC3     O 7269   0.310   1.906  11.785 -0.4146 -0.4680  0.2785
  485TMC3     H 7270   0.670   1.917  11.852 -1.3724  0.8306  1.0109
  485TMC3    H1 7271   0.369   2.094  11.634 -1.2369 -0.3355  2.7093
  485TMC3    H2 7272   0.678   2.335  11.769 -3.6260  0.8536  1.2801
  485TMC3    C7 7273   0.563   2.273  11.536  0.7429  0.4678 -0.4961
  485TMC3    C8 7274   0.836   2.122  11.809 -0.1311 -0.1354  0.1662
  485TMC3    O1 7275   0.475   2.276  11.454 -0.2273 -0.0190 -0.3188
  485TMC3    O2 7276   0.884   2.204  11.733 -0.1006 -0.5635 -0.4284
  486MPD2     C 7277   1.983   0.313  12.813 -0.2424  0.3769  0.0126
  486MPD2    C1 7278   2.069   0.278  12.708  0.3534 -0.6219  0.0886
  486MPD2    C2 7279   2.033   0.321  12.577  0.8946 -0.1226 -0.0236
  486MPD2    C3 7280   1.910   0.388  12.547  0.0847  0.2012 -0.1508
  486MPD2    C4 7281   1.837   0.416  12.659  0.0653 -0.1102  0.3903
  486MPD2    C5 7282   1.870   0.381  12.788  0.2343  0.0093 -0.6878
  486MPD2     H 7283   2.100   0.293  12.496  0.8665 -1.5126  0.4298
  486MPD2    H1 7284   1.742   0.462  12.636  0.2433 -0.3110 -0.7541
  486MPD2    H2 7285   2.002   0.278  12.914 -0.1246 -2.2163 -0.9109
  486MPD2    H3 7286   1.798   0.389  12.868  0.0215  4.1882 -1.3021
  486MPD2     N 7287   1.881   0.440  12.422 -0.5923 -0.0987  0.6343
  486MPD2    H5 7288   1.964   0.443  12.363 -0.4513 -0.3654  0.8183
  486MPD2    N1 7289   2.192   0.218  12.744  0.1592  0.5403  0.0017
  486MPD2    H7 7290   2.204   0.178  12.836 -0.3260 -3.5590 -1.7405
  487TMC3    C1 7291   2.413   0.161  12.721  0.9158  0.8670 -0.9533
  487TMC3    C2 7292   2.398   0.062  12.816 -0.7967  1.1030 -0.4319
  487TMC3    C3 7293   2.499   0.047  12.904 -0.2244  0.0475 -0.0145
  487TMC3    C4 7294   2.521   0.243  12.714 -0.0786  0.5142  0.7715
  487TMC3    C5 7295   2.614   0.238  12.814  0.4748  0.5207 -0.4212
  487TMC3    C6 7296   2.618   0.123  12.887 -0.9215  0.1062  0.1049
  487TMC3     C 7297   2.290   0.212  12.657  0.6330 -0.2599  0.2375
  487TMC3     O 7298   2.317   0.265  12.550 -0.3467  0.8829 -0.0762
  487TMC3     H 7299   2.313   4.735  12.807 -0.9969  1.8147 -3.6578
  487TMC3    H1 7300   2.531   0.320  12.639  1.5655 -0.1802  0.2772
  487TMC3    H2 7301   2.707   0.106  12.947 -0.9533  0.0094  0.1246
  487TMC3    C7 7302   2.603   0.361  12.895  0.6918  0.6996  0.4897
  487TMC3    C8 7303   2.498   4.686  13.012  0.1005 -0.5983 -0.4013
  487TMC3    O1 7304   2.566   0.462  12.836  0.3873 -0.1079  0.7307
  487TMC3    O2 7305   2.607   4.631  13.034 -0.5434  0.2987 -0.0165
  488MPD2     C 7306   2.552   2.392  16.002  0.2761  0.6229  0.2382
  488MPD2    C1 7307   2.646   2.454  16.079  0.2009  0.1259  0.2131
  488MPD2    C2 7308   2.674   2.414  16.212  0.2413 -0.0317 -0.8590
  488MPD2    C3 7309   2.604   2.315  16.272  0.0616  0.1259  0.3003
  488MPD2    C4 7310   2.506   2.247  16.189  0.4687 -1.0056 -0.9513
  488MPD2    C5 7311   2.479   2.286  16.058  0.3475  0.0962 -0.2676
  488MPD2     H 7312   2.749   2.471  16.264 -0.4021  1.8058 -1.9558
  488MPD2    H1 7313   2.447   2.160  16.218 -1.0508  1.3457  3.0144
  488MPD2    H2 7314   2.518   2.436  15.909  1.1390  0.6386 -0.0666
  488MPD2    H3 7315   2.393   2.241  16.010  0.9715  1.1629 -2.4037
  488MPD2     N 7316   2.637   2.284  16.408 -0.0202  0.6347 -0.8304
  488MPD2    H5 7317   2.722   2.328  16.442 -0.1052 -0.5808  0.9582
  488MPD2    N1 7318   2.716   2.566  16.035  0.0287 -0.1749  0.2621
  488MPD2    H7 7319   2.754   2.617  16.114 -0.5679  0.0768  0.3855
  489TMC3    C1 7320   2.591   2.209  16.631  0.2967 -0.6113  0.1069
  489TMC3    C2 7321   2.661   2.317  16.665 -0.0196  0.6141 -0.3572
  489TMC3    C3 7322   2.636   2.365  16.794  0.8057 -0.3665 -0.0063
  489TMC3    C4 7323   2.496   2.147  16.704 -0.3531  0.4530 -0.1513
  489TMC3    C5 7324   2.459   2.207  16.824 -0.0002  0.1150 -0.0763
  489TMC3    C6 7325   2.525   2.321  16.867 -0.3065 -0.3569  0.2198
  489TMC3     C 7326   2.564   2.201  16.491  0.7627  0.1561 -0.3158
  489TMC3     O 7327   2.479   2.119  16.460 -0.2618 -1.0093 -0.2938
  489TMC3     H 7328   2.757   2.344  16.623  1.4499 -2.7539  0.8259
  489TMC3    H1 7329   2.453   2.057  16.662 -2.0749  0.1338  2.2885
  489TMC3    H2 7330   2.515   2.354  16.970  1.1533  0.2905  0.1582
  489TMC3    C7 7331   2.415   2.128  16.934 -0.1774  0.1804 -0.7436
  489TMC3    C8 7332   2.677   2.508  16.814 -0.2114 -0.2336 -0.0060
  489TMC3    O1 7333   2.431   2.162  17.051 -0.0485  0.1323  0.1437
  489TMC3    O2 7334   2.723   2.558  16.711 -0.3449  0.0171  0.5117
  490MPD2     C 7335   3.272   2.119  17.218 -0.3242 -0.7831  0.5705
  490MPD2    C1 7336   3.336   2.084  17.339  0.3144  0.5518  0.0863
  490MPD2    C2 7337   3.351   2.171  17.439  0.1246 -0.5443 -0.0990
  490MPD2    C3 7338   3.303   2.300  17.418  0.5542  0.2020 -0.6246
  490MPD2    C4 7339   3.234   2.341  17.302  0.4015  0.4545  0.1710
  490MPD2    C5 7340   3.206   2.245  17.213 -0.1891 -0.3016  0.2643
  490MPD2     H 7341   3.417   2.148  17.523 -0.5796 -0.7290  0.3999
  490MPD2    H1 7342   3.192   2.438  17.278 -0.3925  0.2636  0.7948
  490MPD2    H2 7343   3.246   2.058  17.133  0.7344  0.9251 -0.9674
  490MPD2    H3 7344   3.162   2.270  17.118  2.1321  1.2625 -0.4082
  490MPD2     N 7345   3.337   2.403  17.508 -0.1368  0.1151  0.0935
  490MPD2    H5 7346   3.316   2.493  17.466 -1.2614 -1.0279 -1.8198
  490MPD2    N1 7347   3.376   1.953  17.371  0.2183 -0.0210 -0.1473
  490MPD2    H7 7348   3.423   1.938  17.460  1.7748 -1.8892 -1.2680
  491TMC3    C1 7349   3.423   1.730  17.340 -0.6245  0.5869 -0.2645
  491TMC3    C2 7350   3.391   1.713  17.473 -0.7122  0.6607 -0.0426
  491TMC3    C3 7351   3.376   1.589  17.527 -0.0165 -0.8933 -0.3435
  491TMC3    C4 7352   3.423   1.619  17.263 -0.4183 -0.5940 -0.3319
  491TMC3    C5 7353   3.408   1.490  17.320 -0.2218  0.1244 -0.7002
  491TMC3    C6 7354   3.372   1.475  17.452  0.6426 -0.3805 -0.4667
  491TMC3     C 7355   3.377   1.851  17.276  0.6802 -0.0235 -0.1971
  491TMC3     O 7356   3.325   1.837  17.168 -0.4986  0.0257 -0.2087
  491TMC3     H 7357   3.394   1.797  17.541 -2.1727  0.1878  0.6007
  491TMC3    H1 7358   3.441   1.627  17.156 -0.7743 -3.2999 -0.6156
  491TMC3    H2 7359   3.372   1.378  17.500 -0.5244  0.3334  1.0109
  491TMC3    C7 7360   3.365   1.385  17.228  0.4296  0.8013 -0.2835
  491TMC3    C8 7361   3.297   1.601  17.647  0.2102 -0.4905 -0.5443
  491TMC3    O1 7362   3.358   1.407  17.107  0.2352 -0.0665  0.3200
  491TMC3    O2 7363   3.204   1.678  17.643  0.3118 -0.5071 -0.1881
  492MPD2     C 7364   3.982   1.128  11.347  0.7730  0.4300 -0.1898
  492MPD2    C1 7365   3.850   1.120  11.329 -0.5264  1.0697 -0.4995
  492MPD2    C2 7366   3.758   1.096  11.429  0.1222 -0.2599 -0.2824
  492MPD2    C3 7367   3.817   1.086  11.554 -0.0393  0.2421  0.3541
  492MPD2    C4 7368   3.946   1.098  11.569  0.2131 -0.7233  0.5496
  492MPD2    C5 7369   4.035   1.115  11.468  0.2612  0.6265  0.6931
  492MPD2     H 7370   3.651   1.104  11.414 -0.0505  1.1369  1.6722
  492MPD2    H1 7371   3.991   1.087  11.667  0.7386 -1.4266  0.2335
  492MPD2    H2 7372   4.050   1.161  11.269  2.5105  1.2349  1.6566
  492MPD2    H3 7373   4.142   1.124  11.487  0.5039  2.8357 -1.8165
  492MPD2     N 7374   3.737   1.073  11.672  0.0174  0.4201  0.6247
  492MPD2    H5 7375   3.794   1.093  11.754  0.9948 -1.2627  0.3388
  492MPD2    N1 7376   3.803   1.132  11.196 -0.0102  0.4535  0.3444
  492MPD2    H7 7377   3.871   1.177  11.134 -0.4373 -0.7170 -0.9875
  493TMC3    C1 7378   3.643   1.174  11.029  1.2126  0.2352 -0.2184
  493TMC3    C2 7379   3.712   1.289  10.991  0.4086 -0.1153  0.7640
  493TMC3    C3 7380   3.668   1.366  10.885  0.0472  0.3375  0.3120
  493TMC3    C4 7381   3.525   1.144  10.976  0.1288 -0.0445  0.1658
  493TMC3    C5 7382   3.478   1.225  10.877 -0.8916 -0.1325 -0.1612
  493TMC3    C6 7383   3.551   1.328  10.818  0.1102  0.1942 -0.2718
  493TMC3     C 7384   3.682   1.102  11.149 -0.7902 -0.7492 -0.2050
  493TMC3     O 7385   3.611   1.013  11.195  0.2517  0.1225 -0.1551
  493TMC3     H 7386   3.795   1.321  11.052  1.3450  0.1818 -0.6692
  493TMC3    H1 7387   3.477   1.051  11.003 -1.2214  0.4288 -0.6182
  493TMC3    H2 7388   3.517   1.381  10.730 -0.8776  1.7757  1.0796
  493TMC3    C7 7389   3.338   1.209  10.834  0.3676  0.3845 -0.9762
  493TMC3    C8 7390   3.774   1.446  10.825 -0.2949 -0.2281 -0.4149
  493TMC3    O1 7391   3.297   1.241  10.721 -0.3477  0.0696  0.0399
  493TMC3    O2 7392   3.888   1.411  10.852  0.8694 -0.6146  0.6726
  494TMC3    C1 7393   4.149   3.419   0.445  0.2245 -0.4295  0.4448
  494TMC3    C2 7394   4.143   3.287   0.422 -0.7870 -0.3296 -0.3329
  494TMC3    C3 7395   4.083   3.246   0.306 -0.0189 -0.2282 -0.8648
  494TMC3    C4 7396   4.082   3.504   0.361 -0.1176  0.0646  0.2392
  494TMC3    C5 7397   4.023   3.459   0.250 -0.7866  0.3545 -0.5917
  494TMC3    C6 7398   4.036   3.327   0.213 -0.3260 -0.6049 -0.6791
  494TMC3     C 7399   4.158   3.457   0.587 -0.0906  0.4296 -0.2130
  494TMC3     O 7400   4.243   3.393   0.642 -0.4751  0.5212  0.0902
  494TMC3     H 7401   4.184   3.210   0.486  1.2237 -0.8503 -2.2478
  494TMC3    H1 7402   4.088   3.607   0.392  1.5913 -0.6953  2.4912
  494TMC3    H2 7403   3.995   3.291   0.119 -0.8780 -1.4030 -0.1363
  494TMC3    C7 7404   4.024   3.547   0.138  0.3700 -0.6470 -0.8535
  494TMC3    C8 7405   4.053   3.107   0.309  0.1019  0.2337  0.3257
  494TMC3    O1 7406   4.053   3.492   0.034  0.0541 -0.9202  0.6784
  494TMC3    O2 7407   4.148   3.026   0.322  0.8007  0.3060 -0.1218
  495TMC3    C1 7408   2.965   0.618  14.817  0.3156  0.5865 -0.6305
  495TMC3    C2 7409   2.915   0.663  14.700 -0.6979 -0.1183 -0.2111
  495TMC3    C3 7410   2.823   0.760  14.709  0.7668  0.3409  0.1481
  495TMC3    C4 7411   2.929   0.671  14.938  0.5174 -0.0448 -0.6919
  495TMC3    C5 7412   2.841   0.773  14.937 -0.1384  0.0728 -0.1096
  495TMC3    C6 7413   2.773   0.812  14.821 -0.0534 -0.3380  1.2133
  495TMC3     C 7414   3.008   0.482  14.822  0.7355 -0.1239  0.2092
  495TMC3     O 7415   2.956   0.405  14.904 -0.0001 -0.1453  0.3232
  495TMC3     H 7416   2.926   0.613  14.604  1.4392  0.9547 -0.5205
  495TMC3    H1 7417   2.962   0.626  15.031  1.5289  0.5134 -0.7776
  495TMC3    H2 7418   2.699   0.892  14.821  0.5305  0.2167 -1.2428
  495TMC3    C7 7419   2.788   0.797  15.073  0.5154  0.2662 -0.4705
  495TMC3    C8 7420   2.721   0.735  14.611  0.6862  0.4482  0.9821
  495TMC3    O1 7421   2.865   0.798  15.167 -0.3032  0.2302  0.2600
  495TMC3    O2 7422   2.655   0.825  14.564  0.2071  0.0283  0.1254
  496MPD2     C 7423   0.226   0.989  15.100  0.1426 -0.1051 -0.5682
  496MPD2    C1 7424   0.293   1.000  15.223  0.1608  0.2522  0.0156
  496MPD2    C2 7425   0.225   1.026  15.336  0.2950 -1.0007  0.2707
  496MPD2    C3 7426   0.087   1.032  15.337 -0.3649  0.2861  0.1025
  496MPD2    C4 7427   0.024   1.016  15.215  0.3489  0.2912  0.0011
  496MPD2    C5 7428   0.088   0.999  15.103 -0.6947  0.1357  0.0867
  496MPD2     H 7429   0.280   1.032  15.429  2.7372  1.4609 -1.3169
  496MPD2    H1 7430   4.656   1.012  15.211  0.4392 -0.5261 -1.5864
  496MPD2    H2 7431   0.276   0.983  15.005  2.0110 -0.1136  0.4243
  496MPD2    H3 7432   0.024   0.994  15.016  1.2985  2.7821 -1.5040
  496MPD2     N 7433   0.001   1.052  15.454  0.7506 -0.2545 -0.1914
  496MPD2    H5 7434   4.640   1.044  15.446  0.6156 -0.9625  2.3697
  496MPD2    N1 7435   0.430   0.978  15.212  0.1657  0.3813 -0.7020
  496MPD2    H7 7436   0.465   0.980  15.117 -0.7889  1.6412 -1.0211
  497TMC3    C1 7437   4.695   1.085  15.682 -0.8397 -0.2645 -0.5315
  497TMC3    C2 7438   4.562   1.101  15.652 -0.0421  0.1570 -0.2252
  497TMC3    C3 7439   4.475   1.076  15.748 -0.7834  0.4156 -0.0541
  497TMC3    C4 7440   4.737   1.045  15.806 -0.8502 -0.2807  0.1278
  497TMC3    C5 7441   4.643   1.040  15.906  0.2898 -0.0637 -0.0152
  497TMC3    C6 7442   4.514   1.042  15.875  0.5129  0.3639  0.1400
  497TMC3     C 7443   0.058   1.086  15.577 -0.1732 -0.1904  0.4009
  497TMC3     O 7444   0.172   1.088  15.615  0.0220 -0.2875  0.0537
  497TMC3     H 7445   4.526   1.128  15.553 -1.4332 -0.2621  0.1675
  497TMC3    H1 7446   0.103   1.036  15.823 -1.0321 -2.1033  0.3110
  497TMC3    H2 7447   4.445   1.028  15.957  0.8030  0.1514  0.3479
  497TMC3    C7 7448   4.685   0.968  16.023 -0.3215  0.7296 -0.2810
  497TMC3    C8 7449   4.333   1.089  15.728 -0.3910  0.0093 -0.3638
  497TMC3    O1 7450   4.617   0.870  16.052 -0.1404  0.6417  0.1804
  497TMC3    O2 7451   4.274   1.143  15.824 -0.1011  0.0969 -0.0600
  498MPD2     C 7452   1.314   1.150   9.763  0.1133 -0.9916 -0.2683
  498MPD2    C1 7453   1.249   1.238   9.838  0.4728 -0.5015  0.0646
  498MPD2    C2 7454   1.124   1.200   9.889 -0.0524 -0.3493  0.5997
  498MPD2    C3 7455   1.072   1.076   9.862 -0.7501 -0.1261  0.0726
  498MPD2    C4 7456   1.155   0.981   9.799  0.6488 -0.3386  0.2548
  498MPD2    C5 7457   1.274   1.022   9.750  0.1862 -0.1387  0.1155
  498MPD2     H 7458   1.070   1.261   9.961  2.2165 -0.1116  2.1075
  498MPD2    H1 7459   1.118   0.879   9.791  0.9162 -0.1937 -2.6098
  498MPD2    H2 7460   1.418   1.163   9.735  0.2025 -1.5941 -0.2168
  498MPD2    H3 7461   1.336   0.954   9.692  0.4575  1.0874 -1.0162
  498MPD2     N 7462   0.951   1.044   9.923 -0.3988  0.1005 -0.1376
  498MPD2    H5 7463   0.902   1.118   9.973  0.9709  0.0941  1.2341
  498MPD2    N1 7464   1.300   1.367   9.870  0.4784 -0.1807 -1.0242
  498MPD2    H7 7465   1.233   1.442   9.879  1.8828  0.5287  3.1396
  499TMC3    C1 7466   1.468   1.537   9.867  0.4722 -0.2462  0.9257
  499TMC3    C2 7467   1.592   1.573   9.909  0.0475 -0.2796 -0.7574
  499TMC3    C3 7468   1.626   1.705   9.917  0.2112 -0.3555 -0.3913
  499TMC3    C4 7469   1.370   1.629   9.825 -0.2191  0.3240 -0.1894
  499TMC3    C5 7470   1.412   1.761   9.831  0.1472 -0.4616  0.2484
  499TMC3    C6 7471   1.533   1.803   9.877 -0.0916  0.1725  0.0828
  499TMC3     C 7472   1.438   1.396   9.862 -0.1672  0.4931  0.1046
  499TMC3     O 7473   1.533   1.323   9.860  0.3375 -0.1492  0.0944
  499TMC3     H 7474   1.664   1.499   9.941  0.1575  0.1093 -0.0988
  499TMC3    H1 7475   1.281   1.597   9.771  0.9924 -0.0340 -1.9753
  499TMC3    H2 7476   1.561   1.907   9.870 -0.1511 -0.0179 -2.7437
  499TMC3    C7 7477   1.335   1.866   9.766 -0.1185  0.2356 -0.2841
  499TMC3    C8 7478   1.760   1.732   9.944  0.0465  0.2490 -0.0822
  499TMC3    O1 7479   1.392   1.969   9.740  0.6889  0.3951  0.1054
  499TMC3    O2 7480   1.828   1.661  10.014  0.3728  0.4418 -0.8118
  500MPD2     C 7481   2.342   1.968  10.707 -0.6417 -0.5191 -0.0283
  500MPD2    C1 7482   2.394   2.034  10.596  0.4114 -0.2788  0.2424
  500MPD2    C2 7483   2.306   2.074  10.501  0.0283 -0.0039  0.2707
  500MPD2    C3 7484   2.168   2.059  10.506  0.5413 -0.2529 -0.2657
  500MPD2    C4 7485   2.122   1.993  10.620 -0.2113 -0.0774 -0.2703
  500MPD2    C5 7486   2.205   1.943  10.717 -0.7090  0.3010 -0.4077
  500MPD2     H 7487   2.348   2.121  10.413  2.3434 -0.2683  1.2513
  500MPD2    H1 7488   2.019   1.962  10.635 -0.5164  2.1698  2.2650
  500MPD2    H2 7489   2.400   1.936  10.793 -1.5790 -1.8882  0.0897
  500MPD2    H3 7490   2.161   1.880  10.793 -2.0849  1.1104 -0.5384
  500MPD2     N 7491   2.072   2.109  10.413  0.7362  0.0128  0.6516
  500MPD2    H5 7492   1.973   2.105  10.438 -0.1843  1.6601 -2.7343
  500MPD2    N1 7493   2.534   2.064  10.587 -0.0422 -0.0872  0.4400
  500MPD2    H7 7494   2.556   2.125  10.509  1.4906 -0.3385  0.6827
  501TMC3    C1 7495   2.756   2.115  10.651 -0.3751 -0.0872  0.0382
  501TMC3    C2 7496   2.761   2.206  10.547  0.2143 -0.0159  0.3080
  501TMC3    C3 7497   2.874   2.279  10.528  0.1018 -0.9525 -0.0432
  501TMC3    C4 7498   2.868   2.087  10.729  0.4571 -0.2285  0.6373
  501TMC3    C5 7499   2.986   2.148  10.693  0.4205 -0.5441 -0.0778
  501TMC3    C6 7500   2.986   2.257  10.604 -0.7712 -0.0612  0.0054
  501TMC3     C 7501   2.635   2.037  10.686 -0.1981 -0.6232 -0.0462
  501TMC3     O 7502   2.632   1.970  10.790  0.0642 -0.2667  0.1341
  501TMC3     H 7503   2.666   2.244  10.512  0.0317 -0.2235  0.5810
  501TMC3    H1 7504   2.868   2.003  10.797  0.7638  0.6899  1.7646
  501TMC3    H2 7505   3.074   2.317  10.581 -1.3069 -0.1461 -2.3008
  501TMC3    C7 7506   3.107   2.116  10.772 -0.8877 -0.8017  0.2571
  501TMC3    C8 7507   2.872   2.397  10.453  0.3983 -0.6153  0.0198
  501TMC3    O1 7508   3.108   2.015  10.841  0.0559 -0.0520  0.2339
  501TMC3    O2 7509   2.948   2.489  10.488 -0.1211  0.3792 -0.2697
  502TMC3    C1 7510   2.570   1.563  14.820  0.7768  0.2323 -0.5764
  502TMC3    C2 7511   2.581   1.685  14.761  1.0062 -0.0805 -0.0565
  502TMC3    C3 7512   2.469   1.723  14.701  0.1818 -0.0228 -0.2737
  502TMC3    C4 7513   2.453   1.496  14.843  0.2018  0.1941  0.2421
  502TMC3    C5 7514   2.332   1.562  14.817 -0.3589 -0.8854  0.2647
  502TMC3    C6 7515   2.346   1.671  14.733  0.7431  0.3424 -0.2649
  502TMC3     C 7516   2.676   1.531  14.919 -0.3602  0.2187 -0.0349
  502TMC3     O 7517   2.790   1.555  14.883 -0.2425 -0.1631  0.8164
  502TMC3     H 7518   2.670   1.746  14.748  0.8256  0.3928  1.0027
  502TMC3    H1 7519   2.439   1.393  14.871 -0.3915  0.3714  0.6106
  502TMC3    H2 7520   2.262   1.730  14.700  1.3091  1.4505  0.2936
  502TMC3    C7 7521   2.257   1.559  14.933  0.8338  0.0536 -0.7369
  502TMC3    C8 7522   2.477   1.845  14.624  0.0648 -0.4091  0.3762
  502TMC3    O1 7523   2.316   1.502  15.026  0.6513 -0.5951  0.0720
  502TMC3    O2 7524   2.544   1.938  14.664  0.8039  0.6902 -0.0616
  503MPD2     C 7525   4.565   2.743  16.344  0.3042  0.1231  0.2398
  503MPD2    C1 7526   4.485   2.698  16.452  0.3173  0.0946  0.4472
  503MPD2    C2 7527   4.485   2.561  16.487 -0.4527  0.4045 -0.6696
  503MPD2    C3 7528   4.579   2.482  16.427  0.0656 -0.2213 -0.4055
  503MPD2    C4 7529   4.646   2.520  16.317  0.1271  0.5193 -0.1464
  503MPD2    C5 7530   4.637   2.650  16.271 -0.0717  0.6005 -0.3446
  503MPD2     H 7531   4.431   2.528  16.575 -0.4892 -1.6058 -1.4464
  503MPD2    H1 7532   4.720   2.453  16.273 -1.8275 -0.3557 -2.1207
  503MPD2    H2 7533   4.555   2.846  16.314  2.3036 -0.2447 -1.6854
  503MPD2    H3 7534   4.695   2.686  16.187  0.0130  0.0914 -0.5018
  503MPD2     N 7535   4.591   2.362  16.487 -0.0874  0.4246  0.3354
  503MPD2    H5 7536   4.539   2.348  16.573  0.5537 -0.7542  0.5318
  503MPD2    N1 7537   4.410   2.789  16.529  0.0532  0.1943 -0.0770
  503MPD2    H7 7538   4.338   2.742  16.584 -1.5730  2.3757 -0.3385
  504TMC3    C1 7539   4.701   2.168  16.565  0.2536  0.2047 -0.3802
  504TMC3    C2 7540   4.617   2.171  16.674 -0.2291 -0.3751 -0.2323
  504TMC3    C3 7541   4.653   2.122  16.800 -0.0794 -0.4884  0.0900
  504TMC3    C4 7542   0.080   2.099  16.566 -0.5101  0.2986 -0.7481
  504TMC3    C5 7543   0.113   2.039  16.681  0.5902 -0.4618  0.9785
  504TMC3    C6 7544   0.041   2.057  16.803 -0.2992 -0.2597 -0.2410
  504TMC3     C 7545   4.678   2.255  16.456 -0.4471 -0.3261  1.0670
  504TMC3     O 7546   0.012   2.253  16.360 -0.5841  0.1889  0.3532
  504TMC3     H 7547   4.515   2.204  16.664 -0.3955 -0.3755  1.4385
  504TMC3    H1 7548   0.141   2.096  16.476  0.3455  1.6238 -0.2103
  504TMC3    H2 7549   0.089   2.008  16.887 -1.3794 -1.1436 -0.1444
  504TMC3    C7 7550   0.256   2.009  16.684  0.6981 -0.0729  0.4949
  504TMC3    C8 7551   4.572   2.139  16.910  0.2936 -0.1652  0.2962
  504TMC3    O1 7552   0.336   2.064  16.614  0.2499  0.1068 -0.0074
  504TMC3    O2 7553   4.459   2.188  16.889 -0.5311  0.7179 -0.1750
  505MPD2     C 7554   4.501   0.977  10.434 -0.2622  0.7666  0.3327
  505MPD2    C1 7555   4.480   0.897  10.546  0.1331 -0.3057 -0.2584
  505MPD2    C2 7556   4.529   0.930  10.667  0.3106 -1.0157 -0.2507
  505MPD2    C3 7557   4.603   1.043  10.679  0.1299 -0.0121  0.1506
  505MPD2    C4 7558   4.613   1.131  10.572 -0.1509 -0.3148  0.1617
  505MPD2    C5 7559   4.574   1.087  10.453 -0.9371  0.6592  0.2403
  505MPD2     H 7560   4.532   0.857  10.746 -0.8011 -0.7516  0.0359
  505MPD2    H1 7561   4.666   1.224  10.588  0.3322 -0.8045  1.3786
  505MPD2    H2 7562   4.473   0.962  10.330  3.1452 -1.5090 -0.2438
  505MPD2    H3 7563   4.567   1.162  10.375 -0.4957  0.0481 -0.3838
  505MPD2     N 7564   4.673   1.087  10.798  0.5441  0.0504  0.6269
  505MPD2    H5 7565   4.711   1.181  10.797  0.9984 -0.1432 -0.4752
  505MPD2    N1 7566   4.421   0.773  10.519 -0.8487  0.4920 -0.1907
  505MPD2    H7 7567   4.408   0.759  10.419 -2.2510 -1.1287  0.2173
  506TMC3    C1 7568   4.396   0.539  10.532  0.2997  0.1192  0.2371
  506TMC3    C2 7569   4.479   0.513  10.422  0.5136 -0.1240 -0.0506
  506TMC3    C3 7570   4.544   0.392  10.421 -0.7080 -0.0143 -0.0073
  506TMC3    C4 7571   4.371   0.445  10.632 -0.3136 -0.2499 -0.5782
  506TMC3    C5 7572   4.443   0.328  10.626  0.6107 -0.5884  0.2961
  506TMC3    C6 7573   4.526   0.301  10.521  0.2862 -0.1208 -0.0794
  506TMC3     C 7574   4.425   0.663  10.603 -0.4963  0.2757 -0.2775
  506TMC3     O 7575   4.414   0.652  10.723 -0.1379 -0.4106 -0.1594
  506TMC3     H 7576   4.511   0.594  10.358 -1.7862  0.3910 -0.5317
  506TMC3    H1 7577   4.305   0.462  10.717 -1.1660 -0.6874 -1.1497
  506TMC3    H2 7578   4.583   0.209  10.519  0.2824 -0.1723  2.0732
  506TMC3    C7 7579   4.512   0.297  10.749 -0.5094 -1.1354  0.1241
  506TMC3    C8 7580   4.630   0.351  10.306  0.2881 -0.1113  0.0692
  506TMC3    O1 7581   4.568   0.192  10.763 -0.6888 -0.1834  0.1825
  506TMC3    O2 7582   4.641   0.233  10.285 -0.6182  0.4538 -0.0448
  507TMC3    C1 7583   1.033   2.460  14.816  0.3646 -0.3823  0.3459
  507TMC3    C2 7584   1.100   2.373  14.736 -0.0261 -0.4385  0.5577
  507TMC3    C3 7585   1.157   2.424  14.625 -0.0923 -1.2937 -0.7598
  507TMC3    C4 7586   1.005   2.591  14.786 -0.3614 -0.1906  0.3993
  507TMC3    C5 7587   1.055   2.638  14.667 -0.4186 -0.1756 -0.3607
  507TMC3    C6 7588   1.147   2.557  14.595  0.1481 -0.0837  0.6614
  507TMC3     C 7589   1.023   2.417  14.951 -0.0045  0.3494  0.1196
  507TMC3     O 7590   1.037   2.508  15.036 -0.3272 -0.4764  0.0986
  507TMC3     H 7591   1.129   2.275  14.772  0.7448 -0.4953 -0.2385
  507TMC3    H1 7592   0.943   2.650  14.853 -2.0815  0.2134 -1.5209
  507TMC3    H2 7593   1.206   2.592  14.512  0.2369 -2.1623 -0.1413
  507TMC3    C7 7594   0.972   2.704  14.561  0.4941  0.1193 -0.6801
  507TMC3    C8 7595   1.132   2.330  14.516 -0.3667  0.3468 -0.2589
  507TMC3    O1 7596   0.990   2.654  14.447 -0.5105 -0.5283 -0.3709
  507TMC3    O2 7597   1.172   2.215  14.525 -0.1289 -0.2089 -0.2979
  508MPD2     C 7598   1.377   4.192  15.878 -0.4212 -0.3299 -0.1733
  508MPD2    C1 7599   1.341   4.234  16.003 -0.3186  0.8903  0.1649
  508MPD2    C2 7600   1.261   4.355  16.019 -0.2157 -0.3177 -0.1426
  508MPD2    C3 7601   1.207   4.421  15.903  0.0897  0.4148 -0.2463
  508MPD2    C4 7602   1.255   4.375  15.784  0.3499  0.8070 -0.7707
  508MPD2    C5 7603   1.346   4.275  15.776 -1.5038 -0.3130 -0.4290
  508MPD2     H 7604   1.244   4.397  16.118  1.6248 -0.8179  0.3742
  508MPD2    H1 7605   1.236   4.433  15.695 -1.2691 -1.1471 -1.6742
  508MPD2    H2 7606   1.450   4.112  15.866 -1.6838 -1.6846  1.1786
  508MPD2    H3 7607   1.402   4.250  15.686  2.1543 -1.4495  2.1404
  508MPD2     N 7608   1.131   4.539  15.925  0.7742  0.6932 -1.0533
  508MPD2    H5 7609   1.085   4.546  16.015 -1.4322 -0.0112 -2.1381
  508MPD2    N1 7610   1.393   4.164  16.115  0.3753  0.0811  0.4193
  508MPD2    H7 7611   1.441   4.079  16.087  3.2097  1.6040  0.5830
  509TMC3    C1 7612   1.014   0.205  15.759 -0.9272 -0.1681  0.0502
  509TMC3    C2 7613   1.120   0.259  15.835  0.0086  0.1775  0.5017
  509TMC3    C3 7614   1.166   0.177  15.934  0.5611 -0.3079 -0.6925
  509TMC3    C4 7615   0.983   0.070  15.765 -0.1870  0.1175  0.5749
  509TMC3    C5 7616   1.026   4.739  15.874  0.0360  0.3793 -0.0218
  509TMC3    C6 7617   1.104   0.060  15.971  0.8838 -0.5333  0.3010
  509TMC3     C 7618   0.937   0.290  15.666  0.5155 -0.1438 -0.0291
  509TMC3     O 7619   0.830   0.245  15.625  0.1269  0.2619  0.1854
  509TMC3     H 7620   1.166   0.356  15.816 -0.3176  0.5445  1.5397
  509TMC3    H1 7621   0.928   0.029  15.682 -0.0197  2.1763 -0.5297
  509TMC3    H2 7622   1.152   0.005  16.051  2.4428  0.0560 -0.2256
  509TMC3    C7 7623   1.078   4.618  15.824 -0.4931  0.1626 -0.6912
  509TMC3    C8 7624   1.308   0.175  15.950 -0.0734 -0.6509  0.6522
  509TMC3    O1 7625   1.116   4.618  15.708 -0.2588  0.4245  0.0250
  509TMC3    O2 7626   1.360   0.065  15.956 -0.2556 -0.1763  0.3025
  510MPD2     C 7627   3.807   1.349  14.221  0.3715  0.6171  0.3023
  510MPD2    C1 7628   3.926   1.324  14.289 -0.2633  0.6681  0.3235
  510MPD2    C2 7629   4.045   1.305  14.217  0.4426  0.0784 -0.4097
  510MPD2    C3 7630   4.042   1.314  14.079  0.5670  1.1652 -0.8421
  510MPD2    C4 7631   3.926   1.345  14.015  0.1097  0.4451  0.2224
  510MPD2    C5 7632   3.808   1.356  14.088 -0.2960  0.6549  0.0238
  510MPD2     H 7633   4.135   1.306  14.278 -1.2591  0.8847  2.0931
  510MPD2    H1 7634   3.919   1.346  13.907  1.2053  1.1503  0.1550
  510MPD2    H2 7635   3.711   1.364  14.270  0.1156  0.2199 -0.0770
  510MPD2    H3 7636   3.716   1.372  14.033 -0.5013 -4.6297 -1.1811
  510MPD2     N 7637   4.169   1.308  14.005 -0.5867 -1.1608 -0.1968
  510MPD2    H5 7638   4.248   1.276  14.060 -0.1633 -2.5659 -1.6334
  510MPD2    N1 7639   3.933   1.304  14.427 -0.4208  0.3077 -0.4413
  510MPD2    H7 7640   4.019   1.263  14.462 -0.8543 -0.3504 -0.1393
  511TMC3    C1 7641   3.865   1.268  14.643  0.0426  0.1180  0.1239
  511TMC3    C2 7642   3.781   1.309  14.749 -0.0720  0.3834 -0.2812
  511TMC3    C3 7643   3.753   1.227  14.852  0.3746  0.0542 -0.3408
  511TMC3    C4 7644   3.912   1.145  14.647  0.3982 -0.8191  0.2031
  511TMC3    C5 7645   3.885   1.060  14.757 -0.1606 -0.5385 -0.2514
  511TMC3    C6 7646   3.805   1.104  14.863 -0.6695  0.4292 -0.0957
  511TMC3     C 7647   3.829   1.320  14.518  0.2503  0.0821  0.1681
  511TMC3     O 7648   3.714   1.360  14.512  0.5904  0.0663  0.3230
  511TMC3     H 7649   3.741   1.409  14.740 -1.9704 -0.3725 -0.3908
  511TMC3    H1 7650   3.957   1.102  14.558 -0.8023 -1.0438 -0.2920
  511TMC3    H2 7651   3.777   1.041  14.947 -1.8725  1.4326  0.2690
  511TMC3    C7 7652   3.921   0.921  14.737  0.2766 -0.1415  0.0996
  511TMC3    C8 7653   3.743   1.305  14.977  0.0562  0.2539  0.3144
  511TMC3    O1 7654   3.984   0.888  14.636 -0.3944  0.4774  0.5142
  511TMC3    O2 7655   3.680   1.414  14.979 -0.5343  0.3094  0.7900
  512TMC3    C1 7656   3.210   0.023  12.945  0.2196 -0.0239 -0.1740
  512TMC3    C2 7657   3.308   0.022  13.041 -0.3472 -0.5167 -0.3921
  512TMC3    C3 7658   3.373   4.642  13.060 -0.0821 -0.1474 -0.7987
  512TMC3    C4 7659   3.192   4.660  12.864  0.4704 -0.8273 -0.6647
  512TMC3    C5 7660   3.260   4.546  12.877 -0.4237 -0.1031  0.0876
  512TMC3    C6 7661   3.356   4.536  12.975 -0.4619  0.1184 -0.0586
  512TMC3     C 7662   3.111   0.127  12.935  0.3761  0.0646  0.1881
  512TMC3     O 7663   3.017   0.109  12.855 -0.8452  0.3704 -0.2195
  512TMC3     H 7664   3.303   0.103  13.113  1.1922 -0.5473 -0.2512
  512TMC3    H1 7665   3.106   4.659  12.799 -0.0943  1.9950  0.0249
  512TMC3    H2 7666   3.413   4.447  12.998  0.0190  0.7363  1.1300
  512TMC3    C7 7667   3.207   4.427  12.809 -0.9629  0.1208 -0.6297
  512TMC3    C8 7668   3.474   4.643  13.163  0.4119 -0.2780 -0.9306
  512TMC3    O1 7669   3.111   4.443  12.734 -0.1643 -0.1137 -0.4978
  512TMC3    O2 7670   3.526   4.531  13.188 -0.0086  0.3472  0.2024
  513MPD2     C 7671   0.380   0.699  13.472 -0.3555 -0.1523  0.0872
  513MPD2    C1 7672   0.492   0.704  13.384 -0.3534  0.0180 -0.4403
  513MPD2    C2 7673   0.598   0.773  13.439  0.4924  0.2404  0.4255
  513MPD2    C3 7674   0.610   0.817  13.565  0.4846  0.1106  0.4533
  513MPD2    C4 7675   0.499   0.809  13.641  0.0878 -0.3651 -0.7555
  513MPD2    C5 7676   0.387   0.764  13.593 -0.4127 -0.0600  0.3801
  513MPD2     H 7677   0.676   0.799  13.368 -0.3342  0.9198 -0.2255
  513MPD2    H1 7678   0.497   0.843  13.743 -0.5825 -0.8515 -0.6064
  513MPD2    H2 7679   0.289   0.649  13.441  0.0187 -1.1207  0.5480
  513MPD2    H3 7680   0.312   0.749  13.670 -0.0298 -2.0972  0.3650
  513MPD2     N 7681   0.735   0.857  13.614  0.2299  0.3219  0.2606
  513MPD2    H5 7682   0.810   0.853  13.545 -0.6149  0.0651 -0.6501
  513MPD2    N1 7683   0.493   0.642  13.255 -0.2079 -0.1868  0.7972
  513MPD2    H7 7684   0.406   0.599  13.225 -0.4060 -1.1306  2.7306
  514TMC3    C1 7685   0.597   0.548  13.062 -0.1502  0.3153  0.5061
  514TMC3    C2 7686   0.493   0.583  12.978 -0.3160  0.6227 -0.0163
  514TMC3    C3 7687   0.519   0.574  12.847 -0.4533 -0.2269 -0.3379
  514TMC3    C4 7688   0.718   0.507  13.013  0.7284 -0.0719 -0.4952
  514TMC3    C5 7689   0.748   0.535  12.882 -0.6421 -0.7412  0.1053
  514TMC3    C6 7690   0.649   0.553  12.795 -1.1077 -0.3181 -0.2327
  514TMC3     C 7691   0.614   0.617  13.185  0.6663  0.5239  0.3025
  514TMC3     O 7692   0.725   0.640  13.220  0.1029  0.2329 -0.4006
  514TMC3     H 7693   0.400   0.625  13.013 -0.1589  1.0980 -0.1589
  514TMC3    H1 7694   0.797   0.477  13.080  1.2333  1.0362 -0.6028
  514TMC3    H2 7695   0.679   0.571  12.692 -1.6196  0.1722 -0.2909
  514TMC3    C7 7696   0.875   0.606  12.874 -0.1964 -0.4925 -0.1521
  514TMC3    C8 7697   0.403   0.580  12.756  0.3805  0.3806  0.4156
  514TMC3    O1 7698   0.938   0.606  12.766  0.1518 -0.1704 -0.1726
  514TMC3    O2 7699   0.292   0.596  12.803  0.1482  0.4900  0.2307
  515MPD2     C 7700   3.635   1.855  14.527 -0.1490  0.2359 -0.0507
  515MPD2    C1 7701   3.575   1.902  14.412 -0.1302  0.0955 -0.1966
  515MPD2    C2 7702   3.624   2.017  14.349  0.1670 -0.3780  0.1217
  515MPD2    C3 7703   3.736   2.075  14.402  0.4009  0.5751  0.3046
  515MPD2    C4 7704   3.804   2.015  14.507 -0.2070  0.1632 -0.0817
  515MPD2    C5 7705   3.747   1.917  14.576  0.6650  0.3058 -0.3760
  515MPD2     H 7706   3.577   2.062  14.262 -0.7138 -0.2564  0.6584
  515MPD2    H1 7707   3.900   2.054  14.539 -0.3132 -1.3700  2.0728
  515MPD2    H2 7708   3.599   1.767  14.579 -1.5943  1.5932  1.2609
  515MPD2    H3 7709   3.786   1.880  14.670  0.6278  1.7687  0.2130
  515MPD2     N 7710   3.790   2.204  14.362  0.0890  0.0152 -0.3504
  515MPD2    H5 7711   3.867   2.242  14.416 -0.1169  1.4390 -1.0536
  515MPD2    N1 7712   3.451   1.848  14.364 -0.1569  0.0884 -0.2826
  515MPD2    H7 7713   3.413   1.889  14.279 -1.4313 -1.0658 -0.2638
  516TMC3    C1 7714   3.258   1.701  14.367  0.6719  0.0299 -1.0096
  516TMC3    C2 7715   3.223   1.721  14.232  0.3741 -0.2824  0.9707
  516TMC3    C3 7716   3.104   1.662  14.189  0.2882 -0.5935 -0.3334
  516TMC3    C4 7717   3.197   1.616  14.445 -0.4478  0.7745 -0.4996
  516TMC3    C5 7718   3.085   1.550  14.397 -0.1487  0.3915 -0.4738
  516TMC3    C6 7719   3.034   1.584  14.275  0.8092  0.1313 -0.2717
  516TMC3     C 7720   3.387   1.738  14.418  0.0846  0.0581 -0.5471
  516TMC3     O 7721   3.439   1.654  14.493  0.0449  0.3101 -0.7059
  516TMC3     H 7722   3.286   1.778  14.164  1.5814 -1.9776  0.6683
  516TMC3    H1 7723   3.223   1.603  14.550  0.6529  3.9557 -0.3768
  516TMC3    H2 7724   2.946   1.536  14.233  0.0681  0.8101  0.4899
  516TMC3    C7 7725   3.010   1.468  14.492 -0.2370  0.1370 -0.6630
  516TMC3    C8 7726   3.041   1.702  14.064 -0.1130  0.1400 -0.4571
  516TMC3    O1 7727   3.045   1.473  14.609 -0.6920 -0.2638  0.1161
  516TMC3    O2 7728   2.921   1.693  14.051 -0.1689  0.0543 -0.7335
  517MPD2     C 7729   2.619   4.148  17.457 -0.4504  0.5428 -0.1779
  517MPD2    C1 7730   2.727   4.096  17.524  1.2046  0.2761 -0.1752
  517MPD2    C2 7731   2.770   4.175  17.626 -0.1434 -0.3331  0.0935
  517MPD2    C3 7732   2.718   4.296  17.664 -0.2305 -0.8564 -0.3512
  517MPD2    C4 7733   2.622   4.347  17.579 -0.8326  0.8254  0.3757
  517MPD2    C5 7734   2.573   4.277  17.477 -0.1055  0.3183  0.0497
  517MPD2     H 7735   2.847   4.131  17.688 -2.1156 -1.6988  1.6181
  517MPD2    H1 7736   2.576   4.445  17.587 -1.7895  0.2425  1.8968
  517MPD2    H2 7737   2.582   4.092  17.372  0.8305 -1.5277  0.6344
  517MPD2    H3 7738   2.476   4.307  17.437 -1.1267  0.2380  2.4660
  517MPD2     N 7739   2.753   4.369   0.021 -0.0491  0.2298 -0.6249
  517MPD2    H5 7740   2.714   4.462   0.031  0.6508  0.2203  2.2125
  517MPD2    N1 7741   2.796   3.973  17.502 -0.2668  0.0537  0.2505
  517MPD2    H7 7742   2.890   3.958  17.538 -0.0568 -0.1137 -0.3613
  518TMC3    C1 7743   2.842   3.760  17.408 -0.3240 -0.0941  0.2692
  518TMC3    C2 7744   2.794   3.645  17.360  0.2581 -0.2920  0.1798
  518TMC3    C3 7745   2.881   3.566  17.291  0.3683 -0.0208 -0.4940
  518TMC3    C4 7746   2.982   3.790  17.413 -0.7918  0.5080 -0.2250
  518TMC3    C5 7747   3.061   3.712  17.336 -0.1678 -0.4037  0.2507
  518TMC3    C6 7748   3.011   3.602  17.265 -0.0443  0.9112  0.8090
  518TMC3     C 7749   2.744   3.871  17.427  0.5322  0.0181  0.7896
  518TMC3     O 7750   2.632   3.854  17.374 -0.0469 -0.5526  0.1462
  518TMC3     H 7751   2.689   3.618  17.364 -0.0148  0.7120 -0.3071
  518TMC3    H1 7752   3.024   3.875  17.465  1.2140  0.0679 -1.1165
  518TMC3    H2 7753   3.078   3.532  17.217 -1.4256  0.1609 -0.0311
  518TMC3    C7 7754   3.192   3.771  17.303 -0.1336 -0.1362  0.1277
  518TMC3    C8 7755   2.863   3.427  17.290  0.7051 -0.6390 -0.4925
  518TMC3    O1 7756   3.206   3.890  17.332 -0.6013  0.1712 -0.0490
  518TMC3    O2 7757   2.927   3.373  17.199  0.4971  0.1257  0.3599
  519MPD2     C 7758   4.394   1.649  14.013 -0.3000 -0.4969 -0.3616
  519MPD2    C1 7759   4.389   1.717  13.895 -0.1708  0.5741 -0.6370
  519MPD2    C2 7760   4.504   1.730  13.822 -0.5697 -0.1321  0.6245
  519MPD2    C3 7761   4.617   1.667  13.866 -0.2869  0.5544 -1.2262
  519MPD2    C4 7762   4.620   1.598  13.986 -0.3539  0.0546  0.6841
  519MPD2    C5 7763   4.508   1.590  14.063  0.2812  0.9269 -0.4405
  519MPD2     H 7764   4.498   1.798  13.738  0.3895 -0.4779  0.2804
  519MPD2    H1 7765   4.714   1.557  14.021  0.0070  0.5261  0.2725
  519MPD2    H2 7766   4.306   1.631  14.074  0.8112  0.1537  1.4379
  519MPD2    H3 7767   4.515   1.521  14.147 -0.4677 -0.3072 -1.3904
  519MPD2     N 7768   4.735   1.668  13.785  0.1235 -0.0405  1.4970
  519MPD2    H5 7769   0.083   1.637  13.825 -0.7491 -0.3272  3.2342
  519MPD2    N1 7770   4.263   1.756  13.848 -0.1625 -0.5911 -0.4882
  519MPD2    H7 7771   4.181   1.720  13.895  2.1935 -1.7496  2.6814
  520TMC3    C1 7772   0.133   1.711  13.594 -0.1780 -0.2878  0.0128
  520TMC3    C2 7773   0.146   1.714  13.457  0.0383 -0.4516  0.3388
  520TMC3    C3 7774   0.268   1.735  13.396 -0.2999 -0.3361  0.2706
  520TMC3    C4 7775   0.247   1.701  13.671 -0.5482  0.0997 -0.1785
  520TMC3    C5 7776   0.366   1.698  13.604 -0.0617  0.2466  0.3326
  520TMC3    C6 7777   0.380   1.718  13.465  0.1000 -0.3477 -0.0526
  520TMC3     C 7778   0.001   1.723  13.657  0.5395  0.0051 -0.1858
  520TMC3     O 7779   4.663   1.785  13.583  0.6545 -0.1808 -0.1018
  520TMC3     H 7780   0.054   1.703  13.402  0.4942  1.5377 -0.8237
  520TMC3    H1 7781   0.251   1.688  13.778  0.9353 -1.3295 -0.4049
  520TMC3    H2 7782   0.476   1.720  13.415  0.2259  2.4490  0.2788
  520TMC3    C7 7783   0.482   1.659  13.684  0.3323  0.2482  0.8721
  520TMC3    C8 7784   0.280   1.743  13.259 -0.2800 -0.1093  0.5757
  520TMC3    O1 7785   0.486   1.680  13.809 -1.0210  0.6527 -0.5261
  520TMC3    O2 7786   0.390   1.730  13.212 -0.6776 -0.1796  0.4921
  521MPD2     C 7787   0.725   4.600   0.153 -0.2817  0.0903 -0.1604
  521MPD2    C1 7788   0.683   4.585   0.020  0.5530  0.8686  0.0266
  521MPD2    C2 7789   0.775   4.561  17.678  0.1845 -0.3246 -0.0107
  521MPD2    C3 7790   0.909   4.544  17.718 -0.2681 -0.1881 -0.2610
  521MPD2    C4 7791   0.952   4.546   0.093  0.2242 -0.4115  0.1734
  521MPD2    C5 7792   0.857   4.579   0.185  0.4410 -0.5597  0.1391
  521MPD2     H 7793   0.744   4.556  17.574  1.8292 -0.8911 -0.4775
  521MPD2    H1 7794   1.053   4.526   0.127 -0.6746 -1.3633  2.2923
  521MPD2    H2 7795   0.655   4.625   0.232 -0.1986 -1.4759  0.4168
  521MPD2    H3 7796   0.886   4.597   0.288  3.3279 -0.5808 -0.6835
  521MPD2     N 7797   1.001   4.504  17.618  0.3193  0.3522 -0.5938
  521MPD2    H5 7798   0.975   4.514  17.521  0.3344  2.8369 -0.3479
  521MPD2    N1 7799   0.547   4.604   0.006  0.3070  0.0577  0.7807
  521MPD2    H7 7800   0.494   4.588   0.091 -0.4033  1.8722  0.6688
  522TMC3    C1 7801   1.204   4.451  17.508  0.0014 -0.6494  0.2998
  522TMC3    C2 7802   1.276   4.337  17.494 -0.3760 -0.5198 -0.2295
  522TMC3    C3 7803   1.360   4.343  17.393 -1.0754  0.3156  0.3708
  522TMC3    C4 7804   1.208   4.559  17.427 -0.1260  0.6610 -0.1764
  522TMC3    C5 7805   1.307   4.566  17.339  0.6284 -0.1961  0.0592
  522TMC3    C6 7806   1.392   4.455  17.323 -0.4837 -0.2960  0.3853
  522TMC3     C 7807   1.135   4.472  17.636  0.0477  0.0545  0.2190
  522TMC3     O 7808   1.192   4.428  17.735 -0.0818  0.4274 -0.3825
  522TMC3     H 7809   1.250   4.245  17.545 -1.5319  0.7907  1.5587
  522TMC3    H1 7810   1.157   4.651  17.454  0.8298  0.8164  1.0862
  522TMC3    H2 7811   1.473   4.463  17.252 -0.1141  0.6426  0.9187
  522TMC3    C7 7812   1.341   4.684  17.273  0.3700 -0.1633 -0.3128
  522TMC3    C8 7813   1.423   4.219  17.352 -0.1207  0.1122 -0.8147
  522TMC3    O1 7814   1.452   4.692  17.221 -0.5337 -0.0501  0.3234
  522TMC3    O2 7815   1.436   4.128  17.433 -0.3158 -0.1585 -0.0364
  523MPD2     C 7816   3.172   4.459  10.081  0.0690  0.0067 -0.3459
  523MPD2    C1 7817   3.083   4.380  10.008  0.6639  0.0960 -0.3437
  523MPD2    C2 7818   3.005   4.432   9.906  0.1473 -0.1529 -0.8507
  523MPD2    C3 7819   3.015   4.571   9.883  0.3149  0.6791  0.9408
  523MPD2    C4 7820   3.094   4.653   9.967 -0.1293 -0.5197 -0.1206
  523MPD2    C5 7821   3.179   4.594  10.065  0.3595 -0.4475  0.1681
  523MPD2     H 7822   2.942   4.373   9.841 -1.4172 -1.3250  1.7822
  523MPD2    H1 7823   3.098   0.021   9.953 -0.6098 -0.5159 -0.2151
  523MPD2    H2 7824   3.233   4.421  10.162  1.1940 -1.0672 -1.6956
  523MPD2    H3 7825   3.236   4.667  10.123  1.4910 -0.6251 -0.7252
  523MPD2     N 7826   2.934   4.646   9.791  0.3542 -0.1272 -0.2652
  523MPD2    H5 7827   2.918   0.005   9.809  2.2378  0.4545 -1.8104
  523MPD2    N1 7828   3.078   4.245  10.059 -0.0302 -0.3304 -0.4832
  523MPD2    H7 7829   3.138   4.229  10.139  0.6929  1.6247 -0.6298
  524TMC3    C1 7830   2.771   4.678   9.622  0.1628  0.1630 -0.5302
  524TMC3    C2 7831   2.754   4.667   9.492 -0.5205  0.3595 -0.6325
  524TMC3    C3 7832   2.651   4.738   9.436  1.1239  0.6354  0.4661
  524TMC3    C4 7833   2.719   0.040   9.699  0.9397  0.3877 -0.6645
  524TMC3    C5 7834   2.624   0.117   9.637  0.4565  0.3915 -0.0496
  524TMC3    C6 7835   2.584   0.092   9.506 -0.0345 -0.2852 -0.1552
  524TMC3     C 7836   2.864   4.584   9.688 -0.1344 -0.9108 -0.0356
  524TMC3     O 7837   2.876   4.471   9.641 -1.1258  0.4167 -0.1277
  524TMC3     H 7838   2.791   4.580   9.438  1.3529 -0.5083  2.0453
  524TMC3    H1 7839   2.727   0.036   9.807  0.3541  1.0164 -0.6037
  524TMC3    H2 7840   2.521   0.153   9.443  1.1503  1.2580  0.1624
  524TMC3    C7 7841   2.540   0.201   9.719 -0.1610 -0.2877 -0.0400
  524TMC3    C8 7842   2.570   4.677   9.330 -0.0292 -0.1530  0.2076
  524TMC3    O1 7843   2.556   0.201   9.839  0.4948  0.6562  0.2435
  524TMC3    O2 7844   2.452   4.684   9.348  0.1812  0.3174  0.7536
  525MPD2     C 7845   1.266   1.701  14.267  0.3116 -0.3487 -0.0481
  525MPD2    C1 7846   1.382   1.724  14.343  0.4440 -0.0128 -0.2744
  525MPD2    C2 7847   1.456   1.840  14.316 -0.1493 -0.5063  0.3066
  525MPD2    C3 7848   1.406   1.931  14.224  0.2328  0.7639 -0.6748
  525MPD2    C4 7849   1.289   1.903  14.154 -0.0307  0.0080  0.1398
  525MPD2    C5 7850   1.220   1.790  14.179 -0.7301 -0.4358  0.3003
  525MPD2     H 7851   1.544   1.865  14.375 -0.6809 -0.0286  0.8955
  525MPD2    H1 7852   1.259   1.967  14.072 -2.5925  1.6430  2.3558
  525MPD2    H2 7853   1.202   1.616  14.285 -1.8076  1.6190  1.7612
  525MPD2    H3 7854   1.130   1.770  14.120  0.2714 -1.6670 -0.8184
  525MPD2     N 7855   1.461   2.058  14.192 -0.0240  0.0375 -0.0256
  525MPD2    H5 7856   1.407   2.126  14.140 -0.2345  1.1247  1.5915
  525MPD2    N1 7857   1.436   1.636  14.442  0.3762 -0.0607 -0.2470
  525MPD2    H7 7858   1.533   1.645  14.473  0.7135  0.4042 -1.4208
  526TMC3    C1 7859   1.437   1.473  14.611 -0.0453  0.6241  0.9957
  526TMC3    C2 7860   1.369   1.432  14.719 -0.0003  0.6195  0.3270
  526TMC3    C3 7861   1.442   1.380  14.819 -0.0742 -0.4170  0.7519
  526TMC3    C4 7862   1.572   1.453  14.598  0.2249 -0.1893  0.3389
  526TMC3    C5 7863   1.641   1.409  14.701  0.1126  0.8651 -0.0787
  526TMC3    C6 7864   1.583   1.379  14.826 -0.0837  0.2963  0.2461
  526TMC3     C 7865   1.363   1.550  14.517  0.3260 -0.0610 -0.7269
  526TMC3     O 7866   1.238   1.545  14.512  0.1206 -0.3940 -0.0299
  526TMC3     H 7867   1.263   1.454  14.715 -0.0658  0.4909  1.2609
  526TMC3    H1 7868   1.616   1.476  14.501 -1.7637  0.0859 -0.5175
  526TMC3    H2 7869   1.651   1.349  14.904  0.4877  2.4039  0.5476
  526TMC3    C7 7870   1.788   1.409  14.690 -0.5603 -0.2616 -0.0373
  526TMC3    C8 7871   1.388   1.379  14.950  0.0982 -0.2596  0.2005
  526TMC3    O1 7872   1.862   1.448  14.776  0.0981 -0.1896  0.2153
  526TMC3    O2 7873   1.461   1.396  15.045  0.3805 -0.8459 -0.0569
  527MPD2     C 7874   4.688   3.934   1.306 -0.5255 -0.5096  0.4003
  527MPD2    C1 7875   4.638   3.917   1.188  0.3678  0.0162 -0.2751
  527MPD2    C2 7876   4.728   3.873   1.091  0.2891  0.1613  0.0751
  527MPD2    C3 7877   0.125   3.861   1.109 -0.7369 -0.3985  0.1742
  527MPD2    C4 7878   0.176   3.896   1.227  0.0608 -0.3478 -0.9321
  527MPD2    C5 7879   0.087   3.921   1.324  0.2744 -0.1863  0.5605
  527MPD2     H 7880   4.685   3.841   0.997  0.8995 -0.6527  0.0745
  527MPD2    H1 7881   0.276   3.870   1.260  0.2075 -0.0494 -1.1340
  527MPD2    H2 7882   4.635   3.964   1.395  0.8999  0.4284  0.9318
  527MPD2    H3 7883   0.122   3.946   1.423  0.7770  1.3505  0.0025
  527MPD2     N 7884   0.206   3.819   1.001  0.4765  0.4377  0.2904
  527MPD2    H5 7885   0.167   3.801   0.909  0.1176 -1.5442  0.8358
  527MPD2    N1 7886   4.502   3.937   1.156  0.1259 -0.1240 -0.3246
  527MPD2    H7 7887   4.470   3.921   1.061 -1.9881 -4.5686  1.1804
  528TMC3    C1 7888   4.278   3.973   1.185 -0.4813  0.0791  0.2136
  528TMC3    C2 7889   4.257   3.930   1.052 -0.3098  0.3698  0.7397
  528TMC3    C3 7890   4.144   3.972   0.993 -0.3327  0.4406 -0.3242
  528TMC3    C4 7891   4.199   4.067   1.245  0.1575  0.6497  0.4631
  528TMC3    C5 7892   4.091   4.116   1.174  0.2813  0.0627  0.3004
  528TMC3    C6 7893   4.060   4.068   1.048 -0.0808 -0.2507  0.7303
  528TMC3     C 7894   4.405   3.959   1.248  0.2157 -0.4103 -0.2834
  528TMC3     O 7895   4.411   3.986   1.366  0.6647 -0.6282 -0.1576
  528TMC3     H 7896   4.324   3.853   1.016 -1.3838  0.3910 -1.2888
  528TMC3    H1 7897   4.208   4.102   1.347  0.5398 -0.5897  0.8569
  528TMC3    H2 7898   3.969   4.093   0.996  0.7706  1.3627  0.0311
  528TMC3    C7 7899   4.021   4.230   1.225 -0.0045 -0.2466 -0.6400
  528TMC3    C8 7900   4.127   3.971   0.850 -0.0666  0.1827  0.6252
  528TMC3    O1 7901   4.041   4.251   1.343  0.0096  0.5367 -0.9819
  528TMC3    O2 7902   4.030   4.023   0.798  0.0360  0.1814  0.6599
  529MPD2     C 7903   1.642   2.088  17.714  0.1310 -0.3775 -0.8535
  529MPD2    C1 7904   1.676   2.196   0.044 -0.5143 -0.1338  0.3065
  529MPD2    C2 7905   1.743   2.309   0.001  0.4287  0.0358  0.2243
  529MPD2    C3 7906   1.786   2.302  17.626 -0.4982  0.0142 -0.2921
  529MPD2    C4 7907   1.768   2.190  17.548 -0.0086 -0.2487  0.4278
  529MPD2    C5 7908   1.695   2.088  17.592 -0.2122 -0.0430 -1.0060
  529MPD2     H 7909   1.758   2.389   0.072  0.3834  1.7002 -1.6459
  529MPD2    H1 7910   1.794   2.196  17.443 -1.0232  1.8220  0.2890
  529MPD2    H2 7911   1.605   1.992  17.747 -1.6486  1.7752  3.5303
  529MPD2    H3 7912   1.672   2.006  17.525 -0.5704 -0.3554 -0.4946
  529MPD2     N 7913   1.851   2.412  17.563  0.0329 -0.1209 -0.9407
  529MPD2    H5 7914   1.865   2.411  17.462 -0.1277  0.1356 -0.9649
  529MPD2    N1 7915   1.638   2.194   0.177 -0.2388 -0.0583 -1.0599
  529MPD2    H7 7916   1.674   2.277   0.224  0.3648 -0.7747 -0.2413
  530TMC3    C1 7917   1.554   2.121   0.391  0.1272  0.0196  0.2378
  530TMC3    C2 7918   1.528   2.244   0.449 -0.2964  0.1535  0.0585
  530TMC3    C3 7919   1.481   2.254   0.572  0.1748 -0.7036 -0.3429
  530TMC3    C4 7920   1.529   2.010   0.467  0.1807  0.4268  0.3577
  530TMC3    C5 7921   1.491   2.021   0.601  0.4331  0.0818 -0.6393
  530TMC3    C6 7922   1.460   2.145   0.652 -0.0634 -0.3936  0.1456
  530TMC3     C 7923   1.569   2.099   0.246 -0.5317  0.0868 -0.0093
  530TMC3     O 7924   1.529   1.988   0.205 -0.0706 -0.4761  0.0699
  530TMC3     H 7925   1.548   2.330   0.386 -1.2191 -1.4075 -2.3819
  530TMC3    H1 7926   1.555   1.916   0.419 -0.0128 -0.2560  1.6005
  530TMC3    H2 7927   1.436   2.167   0.755 -1.0323 -1.2959  0.1087
  530TMC3    C7 7928   1.464   1.904   0.680 -0.0664 -0.1823 -0.1783
  530TMC3    C8 7929   1.515   2.380   0.631  0.1560 -0.5932 -0.4066
  530TMC3    O1 7930   1.404   1.922   0.787 -0.3588  0.9549  0.4576
  530TMC3    O2 7931   1.500   2.474   0.559  0.1512  0.0319  0.0155
  531MPD2     C 7932   1.257   0.699  13.185  0.3322 -0.0829 -0.6482
  531MPD2    C1 7933   1.140   0.739  13.248 -0.6299  0.6704  0.1953
  531MPD2    C2 7934   1.024   0.734  13.173  0.7974  0.6982 -0.3836
  531MPD2    C3 7935   1.022   0.699  13.044  0.2914  0.4090 -0.2747
  531MPD2    C4 7936   1.139   0.656  12.982  0.0190  0.0481  0.0734
  531MPD2    C5 7937   1.252   0.657  13.053  0.2995  0.7083 -0.1040
  531MPD2     H 7938   0.929   0.767  13.214  0.1638 -1.2944 -0.2216
  531MPD2    H1 7939   1.142   0.610  12.884  1.8331 -1.8949  1.0324
  531MPD2    H2 7940   1.350   0.696  13.241  0.4057  0.3798 -0.7442
  531MPD2    H3 7941   1.339   0.611  13.007 -0.1033  1.3383 -1.4913
  531MPD2     N 7942   0.902   0.666  12.992  1.3942  0.9429  0.1003
  531MPD2    H5 7943   0.823   0.669  13.055  0.4581  3.3879 -1.1736
  531MPD2    N1 7944   1.143   0.761  13.384  0.3848  0.1635  0.0925
  531MPD2    H7 7945   1.231   0.742  13.431  0.7208  0.6940 -0.3217
  532TMC3    C1 7946   1.068   0.833  13.596  0.2745 -0.4289  0.0084
  532TMC3    C2 7947   0.969   0.913  13.647  0.3029  0.3790  0.8405
  532TMC3    C3 7948   0.912   0.875  13.757 -0.7339 -0.1931  0.7266
  532TMC3    C4 7949   1.098   0.711  13.654 -0.1152 -0.4344  0.0359
  532TMC3    C5 7950   1.031   0.674  13.771  0.1386 -0.4554  0.4722
  532TMC3    C6 7951   0.936   0.760  13.824  0.5004 -0.1160  0.0242
  532TMC3     C 7952   1.051   0.828  13.455 -0.5464 -0.1507 -0.3155
  532TMC3     O 7953   0.947   0.881  13.410  0.0848 -0.7107 -0.3675
  532TMC3     H 7954   0.943   1.015  13.621  1.5385  0.3080 -0.6640
  532TMC3    H1 7955   1.170   0.639  13.617 -1.7930 -0.7336 -2.6429
  532TMC3    H2 7956   0.867   0.718  13.895 -0.8747  1.4909 -0.3737
  532TMC3    C7 7957   1.001   0.536  13.801 -0.2070  0.5040  0.0722
  532TMC3    C8 7958   0.770   0.884  13.741  0.7056  0.0358  0.5901
  532TMC3    O1 7959   0.945   0.497  13.901 -0.2261 -0.3875 -0.0923
  532TMC3    O2 7960   0.704   0.886  13.838 -0.4162 -0.5548 -0.8048
  533TMC3    C1 7961   1.570   2.248  14.242 -0.5005 -0.1818 -0.1328
  533TMC3    C2 7962   1.699   2.296  14.228  0.2653 -0.1424  0.1587
  533TMC3    C3 7963   1.731   2.393  14.317  0.6140  0.6788 -0.1063
  533TMC3    C4 7964   1.484   2.295  14.341  0.1799  0.1385  0.0143
  533TMC3    C5 7965   1.529   2.394  14.434 -0.0770  0.0308 -0.5404
  533TMC3    C6 7966   1.654   2.446  14.418  0.4734 -0.1361  0.8792
  533TMC3     C 7967   1.575   2.109  14.245 -0.7048  0.7327  0.6439
  533TMC3     O 7968   1.669   2.056  14.311  0.0025  0.4775 -0.6225
  533TMC3     H 7969   1.769   2.259  14.154 -1.9348 -0.8054 -1.5841
  533TMC3    H1 7970   1.399   2.233  14.367 -2.0159  2.2092 -2.2403
  533TMC3    H2 7971   1.690   2.521  14.488 -1.8970  3.3395 -1.6639
  533TMC3    C7 7972   1.483   2.357  14.568 -0.2317  0.1287  0.1459
  533TMC3    C8 7973   1.856   2.463  14.313  0.1286 -0.6277 -0.4915
  533TMC3    O1 7974   1.465   2.235  14.586  0.3043 -0.2125  0.2030
  533TMC3    O2 7975   1.958   2.389  14.309  0.0257  0.1814 -0.5662
  534MPD2     C 7976   4.124   2.590   0.867  0.3749  0.4222  0.1479
  534MPD2    C1 7977   4.182   2.706   0.826 -0.1116 -0.9038  0.1152
  534MPD2    C2 7978   4.108   2.823   0.805 -0.0762 -0.1691  0.0238
  534MPD2    C3 7979   3.971   2.828   0.830  0.6578  0.1383  0.1283
  534MPD2    C4 7980   3.917   2.714   0.883  0.3102  1.0288 -0.4912
  534MPD2    C5 7981   3.995   2.603   0.900  0.6730 -0.1928 -0.1054
  534MPD2     H 7982   4.158   2.918   0.793 -0.6031  0.0450 -0.4691
  534MPD2    H1 7983   3.815   2.701   0.919  0.2026 -1.4530 -1.6958
  534MPD2    H2 7984   4.172   2.496   0.892  0.9113  0.8962  0.8794
  534MPD2    H3 7985   3.948   2.511   0.934 -0.0056  0.5037  0.8412
  534MPD2     N 7986   3.881   2.924   0.800  0.3511 -0.1706 -0.4411
  534MPD2    H5 7987   3.785   2.902   0.823  0.2152  2.1086  1.1241
  534MPD2    N1 7988   4.324   2.714   0.824  0.2662 -0.0005 -0.0692
  534MPD2    H7 7989   4.364   2.800   0.789  0.3971 -0.1242 -0.2269
  535TMC3    C1 7990   3.772   3.109   0.721  0.6425  0.3101  0.3004
  535TMC3    C2 7991   3.652   3.060   0.775  0.8687  0.4488 -0.3523
  535TMC3    C3 7992   3.532   3.115   0.732 -0.0871 -0.8886  0.4246
  535TMC3    C4 7993   3.768   3.215   0.633 -1.1164 -0.0118 -0.8267
  535TMC3    C5 7994   3.649   3.264   0.597 -0.1387  0.4146  0.7803
  535TMC3    C6 7995   3.528   3.222   0.639 -0.0218 -0.0625  0.0117
  535TMC3     C 7996   3.901   3.036   0.733  0.0579  0.0524 -0.1465
  535TMC3     O 7997   4.001   3.097   0.714 -0.2031  0.1193  0.1833
  535TMC3     H 7998   3.648   2.981   0.850  1.5732  1.1003  0.3686
  535TMC3    H1 7999   3.856   3.250   0.580 -0.4302 -1.8939 -0.9560
  535TMC3    H2 8000   3.433   3.266   0.611 -0.3544  0.9275  2.7144
  535TMC3    C7 8001   3.655   3.351   0.482 -0.7782 -0.7760  0.3384
  535TMC3    C8 8002   3.416   3.108   0.821  0.8802  0.6247  0.6063
  535TMC3    O1 8003   3.760   3.355   0.420 -0.0914 -0.3085 -0.0689
  535TMC3    O2 8004   3.306   3.085   0.775  0.1472 -0.2496  0.0715
  536MPD2     C 8005   2.947   1.394  16.320  0.1919 -0.3873 -0.5088
  536MPD2    C1 8006   2.841   1.304  16.343 -0.5553 -0.1422 -0.4462
  536MPD2    C2 8007   2.754   1.282  16.235 -0.0772  0.4552  0.3070
  536MPD2    C3 8008   2.763   1.361  16.123  0.7649  0.0409  0.5453
  536MPD2    C4 8009   2.873   1.448  16.097  1.0971  0.2717  0.2427
  536MPD2    C5 8010   2.964   1.461  16.199 -0.2408  0.3375 -0.0366
  536MPD2     H 8011   2.680   1.202  16.240 -0.9399  1.2128 -0.3775
  536MPD2    H1 8012   2.895   1.497  16.002 -0.1822  0.5524  0.0893
  536MPD2    H2 8013   3.030   1.404  16.389  0.5108  2.9760 -1.3887
  536MPD2    H3 8014   3.049   1.527  16.190  1.9563 -2.4420  0.4018
  536MPD2     N 8015   2.666   1.357  16.021 -0.2632 -0.3033 -0.5801
  536MPD2    H5 8016   2.695   1.414  15.943 -0.4766 -1.7998 -1.7510
  536MPD2    N1 8017   2.841   1.228  16.464  0.0881 -0.3171 -0.1874
  536MPD2    H7 8018   2.925   1.229  16.520  0.5527 -0.7756 -0.8626
  537TMC3    C1 8019   2.748   1.088  16.636  0.0918  0.4863 -0.1125
  537TMC3    C2 8020   2.865   1.108  16.703  0.1197 -0.4122  0.0463
  537TMC3    C3 8021   2.867   1.072  16.838 -0.1386  0.2227  0.5788
  537TMC3    C4 8022   2.636   1.038  16.701  0.1505 -0.0068 -0.8348
  537TMC3    C5 8023   2.638   1.006  16.831  0.5226  0.9063  0.0992
  537TMC3    C6 8024   2.756   1.015  16.900 -0.4673  0.1179 -0.4425
  537TMC3     C 8025   2.732   1.149  16.503  0.3597  0.5652 -0.4065
  537TMC3     O 8026   2.630   1.118  16.443  0.7908  0.1050  0.0069
  537TMC3     H 8027   2.947   1.157  16.653  1.4177 -0.8152  1.7864
  537TMC3    H1 8028   2.543   1.038  16.647  0.0701  1.3383 -0.7065
  537TMC3    H2 8029   2.748   1.026  17.008  0.7363  1.1171 -0.4520
  537TMC3    C7 8030   2.528   0.936  16.884  0.1030  0.1543 -0.0112
  537TMC3    C8 8031   2.975   1.119  16.927  0.3925  0.3567 -0.1364
  537TMC3    O1 8032   2.414   0.952  16.850  0.2023  0.6572 -0.1979
  537TMC3    O2 8033   3.049   1.212  16.892 -0.3163  0.1763  0.2295
  538TMC3    C1 8034   3.598   3.872  10.962  0.2875  0.7671 -0.2244
  538TMC3    C2 8035   3.733   3.856  10.978 -0.1042  0.0842 -0.1594
  538TMC3    C3 8036   3.810   3.931  10.896  0.8364 -0.3849  0.0897
  538TMC3    C4 8037   3.546   3.936  10.851  0.2518 -0.2418  0.8380
  538TMC3    C5 8038   3.628   4.016  10.783 -0.2431 -0.8124 -0.4039
  538TMC3    C6 8039   3.758   4.025  10.807  0.0873  0.5264 -0.7455
  538TMC3     C 8040   3.502   3.823  11.060 -0.3693  0.0117  0.5878
  538TMC3     O 8041   3.386   3.806  11.035  0.7288 -0.5184 -0.3184
  538TMC3     H 8042   3.778   3.791  11.052  0.8733 -0.0632 -0.8847
  538TMC3    H1 8043   3.441   3.962  10.838  0.6304  0.3748 -1.0173
  538TMC3    H2 8044   3.824   4.087  10.748  1.7523 -0.1031  0.4346
  538TMC3    C7 8045   3.564   4.113  10.693 -1.1847  0.2490  0.6016
  538TMC3    C8 8046   3.951   3.910  10.901 -0.3001  0.4704  0.7844
  538TMC3    O1 8047   3.451   4.081  10.652 -0.5856  0.1246  0.3388
  538TMC3    O2 8048   4.003   3.865  11.000 -0.4038  0.2885 -0.1308
  539MPD2     C 8049   2.833   3.145  11.745  0.4716 -0.1690 -1.4114
  539MPD2    C1 8050   2.862   3.138  11.610  0.4342  0.0204 -0.1704
  539MPD2    C2 8051   2.871   3.251  11.530  0.9272  1.0761 -0.1939
  539MPD2    C3 8052   2.869   3.375  11.586 -0.5572 -0.1347 -0.5949
  539MPD2    C4 8053   2.838   3.383  11.716  0.7438  0.5354 -0.3479
  539MPD2    C5 8054   2.816   3.273  11.794 -0.4729  0.4055 -0.1665
  539MPD2     H 8055   2.892   3.239  11.425  1.0817 -0.3712 -0.0070
  539MPD2    H1 8056   2.832   3.477  11.770 -0.6803 -0.7359  1.6835
  539MPD2    H2 8057   2.825   3.062  11.815  0.3757  0.3855 -0.7561
  539MPD2    H3 8058   2.798   3.285  11.900 -1.9742  1.0724 -0.4905
  539MPD2     N 8059   2.885   3.496  11.513  0.2520  0.1445 -0.0252
  539MPD2    H5 8060   2.908   3.580  11.564 -3.1015 -0.0494  1.8022
  539MPD2    N1 8061   2.885   3.014  11.542 -0.6088 -0.4293  0.7317
  539MPD2    H7 8062   2.907   3.015  11.443  1.1495 -0.8363  1.1235
  540TMC3    C1 8063   2.915   3.644  11.329  0.3160  0.2022 -0.1792
  540TMC3    C2 8064   2.880   3.665  11.198 -0.2956 -0.0255  0.2736
  540TMC3    C3 8065   2.877   3.796  11.147 -0.3861  0.4829  0.5099
  540TMC3    C4 8066   2.968   3.744  11.406  0.5624 -0.6762  0.1074
  540TMC3    C5 8067   2.990   3.862  11.346  0.2114  0.0412  0.1113
  540TMC3    C6 8068   2.926   3.897  11.230  0.1948  0.7749 -0.1185
  540TMC3     C 8069   2.898   3.508  11.379 -0.2470  0.1532  0.1352
  540TMC3     O 8070   2.879   3.422  11.295  0.0328  0.3164  0.2999
  540TMC3     H 8071   2.837   3.580  11.146  0.7078  0.0998 -0.7493
  540TMC3    H1 8072   3.013   3.717  11.500 -1.5740  0.4289  1.4446
  540TMC3    H2 8073   2.921   3.996  11.187 -0.1112  0.1782 -1.4400
  540TMC3    C7 8074   3.034   3.972  11.429 -0.1453  0.4858 -0.1602
  540TMC3    C8 8075   2.825   3.825  11.014  0.0179 -1.1620  0.2723
  540TMC3    O1 8076   2.990   3.959  11.542 -0.1794  0.9014  0.0442
  540TMC3    O2 8077   2.827   3.941  10.973 -0.4138 -0.0951 -0.2976
  541MPD2     C 8078   1.680   0.435  13.374  0.3359  0.5189  0.0026
  541MPD2    C1 8079   1.723   0.315  13.324  0.1215  0.0151  0.6847
  541MPD2    C2 8080   1.701   0.281  13.186 -0.2986 -0.2526 -0.0864
  541MPD2    C3 8081   1.639   0.364  13.098  0.3860 -0.7774 -0.5732
  541MPD2    C4 8082   1.612   0.492  13.151 -0.7391  0.0333 -0.5535
  541MPD2    C5 8083   1.636   0.531  13.283 -0.3786 -0.3823 -0.0740
  541MPD2     H 8084   1.747   0.193  13.143  0.1798 -0.2688  0.4590
  541MPD2    H1 8085   1.575   0.568  13.083  1.5528  2.0608  0.4631
  541MPD2    H2 8086   1.682   0.467  13.478  0.0237  0.3090  0.0749
  541MPD2    H3 8087   1.614   0.629  13.324  0.4404 -0.7805  1.3376
  541MPD2     N 8088   1.587   0.337  12.969 -0.2710  0.0575 -0.1477
  541MPD2    H5 8089   1.545   0.409  12.912 -1.9505 -0.2331  0.7286
  541MPD2    N1 8090   1.768   0.208  13.410 -0.8495 -0.3818 -0.1829
  541MPD2    H7 8091   1.793   0.120  13.365  1.5611 -0.4819  1.3396
  542TMC3    C1 8092   1.507   0.210  12.791 -0.1154 -0.2397  0.7490
  542TMC3    C2 8093   1.571   0.135  12.691  0.1575 -0.0626  0.9606
  542TMC3    C3 8094   1.554   0.180  12.562  0.7168 -0.1723  0.1752
  542TMC3    C4 8095   1.430   0.315  12.754  0.1759  0.0094 -0.4198
  542TMC3    C5 8096   1.403   0.347  12.622 -0.3517  0.4740 -0.4594
  542TMC3    C6 8097   1.466   0.281  12.524 -0.0179 -0.1764  0.3265
  542TMC3     C 8098   1.578   0.207  12.915  0.1438  0.1785  0.0255
  542TMC3     O 8099   1.646   0.113  12.929  0.3992 -0.2107  0.0972
  542TMC3     H 8100   1.637   0.051  12.710 -0.0377 -0.6941 -1.0927
  542TMC3    H1 8101   1.377   0.369  12.832  1.9790 -1.1913  1.6378
  542TMC3    H2 8102   1.444   0.309  12.422 -1.5755  0.3004  0.7932
  542TMC3    C7 8103   1.365   0.486  12.618 -0.1244 -0.2837  0.1934
  542TMC3    C8 8104   1.644   0.130  12.454  0.2652 -0.0727  0.0940
  542TMC3    O1 8105   1.367   0.559  12.719 -0.5306 -0.0972 -0.4460
  542TMC3    O2 8106   1.604   0.150  12.339 -0.2343  0.3827  0.0234
  543TMC3    C1 8107   1.231   1.737  17.068 -0.6037  0.1721 -0.1320
  543TMC3    C2 8108   1.242   1.607  17.107 -0.0126 -0.1334 -0.6960
  543TMC3    C3 8109   1.197   1.575  17.229 -0.0212 -0.5257  0.3992
  543TMC3    C4 8110   1.174   1.836  17.143 -0.4160  0.2316 -0.2754
  543TMC3    C5 8111   1.124   1.798  17.262  0.2656 -0.1784 -0.1412
  543TMC3    C6 8112   1.122   1.669  17.300 -0.5513 -0.3485 -0.3297
  543TMC3     C 8113   1.269   1.771  16.929 -0.9153 -0.2123 -0.9707
  543TMC3     O 8114   1.354   1.693  16.890 -0.1151 -0.1580 -0.2743
  543TMC3     H 8115   1.266   1.532  17.033  1.3440  0.9452 -1.3432
  543TMC3    H1 8116   1.181   1.941  17.117 -0.5456  0.0609 -0.9909
  543TMC3    H2 8117   1.083   1.641  17.397  0.2129 -1.9962 -0.5020
  543TMC3    C7 8118   1.044   1.892  17.341 -0.4851  0.3659 -0.2302
  543TMC3    C8 8119   1.221   1.441  17.277  0.9020  0.0778 -0.3383
  543TMC3    O1 8120   0.992   1.839  17.436 -0.5014 -0.2795  0.3819
  543TMC3    O2 8121   1.287   1.367  17.205 -0.1258 -0.1732  0.0204
  544MPD2     C 8122   1.177   1.066  17.623 -0.5671 -1.2313  1.0177
  544MPD2    C1 8123   1.208   1.065  17.488 -0.2445  0.4899  0.0990
  544MPD2    C2 8124   1.219   1.181  17.416 -0.8514 -0.5384  0.1261
  544MPD2    C3 8125   1.201   1.302  17.483 -0.7082  0.6466  0.0500
  544MPD2    C4 8126   1.179   1.308  17.622  1.0509  0.0448 -1.0421
  544MPD2    C5 8127   1.161   1.188  17.685  0.2268  0.1680  0.4355
  544MPD2     H 8128   1.228   1.176  17.308  0.2281 -0.1148  0.1938
  544MPD2    H1 8129   1.153   1.399  17.675  0.5111  0.7332 -2.5086
  544MPD2    H2 8130   1.166   0.973  17.678 -0.1081 -1.4748  0.7025
  544MPD2    H3 8131   1.145   1.187   0.035  1.3828 -0.0431  0.6066
  544MPD2     N 8132   1.191   1.424  17.411 -0.3002 -0.3150  0.0309
  544MPD2    H5 8133   1.170   1.503  17.473 -0.3467 -0.1308 -0.2180
  544MPD2    N1 8134   1.221   0.938  17.433  0.2989 -0.7530  0.3437
  544MPD2    H7 8135   1.217   0.856  17.493 -2.3520 -1.4554 -0.8005
  545TMC3    C1 8136   1.257   0.770  17.291  0.1621  1.2924  0.6460
  545TMC3    C2 8137   1.377   0.721  17.246 -0.2705  0.7877 -0.2446
  545TMC3    C3 8138   1.401   0.597  17.266 -0.5436 -0.1514  0.1045
  545TMC3    C4 8139   1.171   0.691  17.356 -0.6992 -0.2127 -0.3308
  545TMC3    C5 8140   1.195   0.556  17.367 -0.6532 -0.0496 -0.0162
  545TMC3    C6 8141   1.315   0.512  17.330  0.0433 -0.2683 -0.0680
  545TMC3     C 8142   1.257   0.910  17.306 -0.0372 -0.2970  0.0963
  545TMC3     O 8143   1.282   0.986  17.217  0.4510 -0.9941 -0.0171
  545TMC3     H 8144   1.455   0.788  17.213  0.1319  0.7494  0.6303
  545TMC3    H1 8145   1.090   0.735  17.413 -0.9142 -2.2757  0.9390
  545TMC3    H2 8146   1.348   0.410  17.349  0.0537  0.0805  1.7488
  545TMC3    C7 8147   1.109   0.478  17.452 -0.0257  0.5349 -0.4718
  545TMC3    C8 8148   1.517   0.532  17.211 -0.0227 -0.3488  0.2460
  545TMC3    O1 8149   0.992   0.519  17.461 -0.2935  0.2900 -0.5804
  545TMC3    O2 8150   1.568   0.434  17.262  0.0872 -0.2036 -0.0233
  546MPD2     C 8151   2.710   1.916  17.275  0.1602 -0.7844 -0.1243
  546MPD2    C1 8152   2.738   1.948  17.148 -0.0782  0.2844  0.8730
  546MPD2    C2 8153   2.791   2.075  17.115 -0.3559  0.0292 -0.2387
  546MPD2    C3 8154   2.819   2.166  17.218 -0.8316  0.7463 -0.0324
  546MPD2    C4 8155   2.778   2.133  17.354  0.0576 -0.4252  1.0810
  546MPD2    C5 8156   2.715   2.013  17.372 -0.4948 -0.1930  0.1628
  546MPD2     H 8157   2.821   2.096  17.013 -2.5500 -2.1478 -1.3326
  546MPD2    H1 8158   2.784   2.203  17.435 -0.0596 -0.8359  1.4442
  546MPD2    H2 8159   2.675   1.818  17.304 -0.7894  0.1043  1.7193
  546MPD2    H3 8160   2.700   1.980  17.474 -1.6449 -1.0589 -0.2836
  546MPD2     N 8161   2.866   2.298  17.203  0.1357 -0.0890  0.8768
  546MPD2    H5 8162   2.881   2.354  17.287  2.3897 -2.5294  2.0875
  546MPD2    N1 8163   2.715   1.843  17.057  0.5209 -0.5713 -0.1810
  546MPD2    H7 8164   2.672   1.756  17.086 -0.8007  0.9273  2.3454
  547TMC3    C1 8165   2.670   1.733  16.854  0.1606  0.0474 -1.0085
  547TMC3    C2 8166   2.578   1.756  16.760  0.2458  0.0214  1.2365
  547TMC3    C3 8167   2.499   1.650  16.725 -0.1629  0.3666 -0.0515
  547TMC3    C4 8168   2.687   1.610  16.913  0.5235 -0.3740  0.2262
  547TMC3    C5 8169   2.617   1.500  16.863  0.7943  0.2294  0.6372
  547TMC3    C6 8170   2.520   1.522  16.771 -0.6910 -0.2525  0.6476
  547TMC3     C 8171   2.727   1.856  16.921 -1.0559 -0.0158 -0.6627
  547TMC3     O 8172   2.734   1.959  16.854  0.1475 -0.1634 -0.1863
  547TMC3     H 8173   2.557   1.858  16.729 -2.1162 -1.5038 -2.1354
  547TMC3    H1 8174   2.737   1.598  17.008  0.4570  0.1964  0.3307
  547TMC3    H2 8175   2.482   1.434  16.721 -2.8363  0.9201  0.2232
  547TMC3    C7 8176   2.578   1.395  16.960 -0.4035 -0.0832 -0.5371
  547TMC3    C8 8177   2.377   1.687  16.652 -0.1547  1.1234 -0.2112
  547TMC3    O1 8178   2.461   1.352  16.945 -0.1415  0.3350  0.1095
  547TMC3    O2 8179   2.356   1.803  16.617  0.4214  0.2478  0.0576
  548MPD2     C 8180   2.169   1.861  12.717  0.9813 -0.5350 -0.7620
  548MPD2    C1 8181   2.119   1.735  12.716 -1.1195 -0.2104 -0.3996
  548MPD2    C2 8182   2.205   1.631  12.755 -0.0316 -0.7604  0.4114
  548MPD2    C3 8183   2.341   1.652  12.789  1.0606 -0.4320  0.9820
  548MPD2    C4 8184   2.379   1.779  12.799 -0.5173 -0.1223 -1.0447
  548MPD2    C5 8185   2.296   1.881  12.768  0.4248 -0.2067  0.6263
  548MPD2     H 8186   2.173   1.528  12.742  1.5270 -1.1244 -0.5308
  548MPD2    H1 8187   2.482   1.806  12.820 -0.5500 -1.7120  1.1950
  548MPD2    H2 8188   2.114   1.949  12.687 -2.4356 -1.7101  2.0203
  548MPD2    H3 8189   2.333   1.983  12.768 -2.4768  0.8517 -0.1073
  548MPD2     N 8190   2.422   1.538  12.824 -0.6013  0.2205 -0.6448
  548MPD2    H5 8191   2.382   1.447  12.844  0.4360 -0.4703 -1.7435
  548MPD2    N1 8192   1.983   1.718  12.683  0.3734 -0.0405 -0.0750
  548MPD2    H7 8193   1.936   1.801  12.649 -0.1484 -0.3808 -0.1903
  549TMC3    C1 8194   1.797   1.587  12.600 -0.8201 -0.7672  0.4869
  549TMC3    C2 8195   1.726   1.705  12.579  0.1228 -0.4295  0.4760
  549TMC3    C3 8196   1.621   1.704  12.495 -0.0098 -0.8441  0.8291
  549TMC3    C4 8197   1.766   1.474  12.539  0.0485  0.3128 -0.2827
  549TMC3    C5 8198   1.657   1.477  12.459 -0.2682  0.0969  0.5238
  549TMC3    C6 8199   1.587   1.588  12.435  0.1672  0.2241  0.8908
  549TMC3     C 8200   1.918   1.591  12.684  0.0452 -1.1193  0.4727
  549TMC3     O 8201   1.964   1.482  12.720  0.6589  0.0767  0.0442
  549TMC3     H 8202   1.747   1.791  12.642  0.4998 -0.1081 -0.0888
  549TMC3    H1 8203   1.832   1.388  12.538  1.4637  1.4103 -2.3178
  549TMC3    H2 8204   1.495   1.584  12.378  0.9759  0.1260 -0.4325
  549TMC3    C7 8205   1.626   1.360  12.385 -0.3948 -0.0701  0.4873
  549TMC3    C8 8206   1.545   1.825  12.464  0.2440 -0.2680  0.1747
  549TMC3    O1 8207   1.683   1.257  12.429  0.4580  0.2673 -0.4116
  549TMC3    O2 8208   1.433   1.799  12.422 -0.1415 -0.2775  0.3174
  550TMC3    C1 8209   1.308   4.437  12.203 -0.8382 -0.3011 -0.4872
  550TMC3    C2 8210   1.247   4.467  12.316 -0.0922  0.3513 -0.3367
  550TMC3    C3 8211   1.283   4.589  12.372  0.0295  0.7283  0.5109
  550TMC3    C4 8212   1.398   4.517  12.140 -0.5068 -1.0405  0.7938
  550TMC3    C5 8213   1.431   4.635  12.192  0.3499 -0.3392 -0.1480
  550TMC3    C6 8214   1.378   4.668  12.315  0.0499 -0.1409  0.0249
  550TMC3     C 8215   1.220   4.381  12.109 -0.0452  0.2661  0.0625
  550TMC3     O 8216   1.163   4.276  12.136  0.0195  0.0016 -0.0686
  550TMC3     H 8217   1.169   4.400  12.351 -1.5205  1.7878 -0.7882
  550TMC3    H1 8218   1.449   4.496  12.047  0.6121  0.5143  1.0763
  550TMC3    H2 8219   1.387   0.031  12.349 -1.1946  0.0626 -0.2410
  550TMC3    C7 8220   1.409   4.737  12.088  0.4960  0.3446  0.5775
  550TMC3    C8 8221   1.178   4.684  12.420 -0.1148 -0.4114  0.2335
  550TMC3    O1 8222   1.354   4.705  11.989  0.0788  0.0119 -0.0770
  550TMC3    O2 8223   1.116   0.001  12.328  0.4086  0.3014 -1.1317
  551TMC3    C1 8224   3.518   3.057  12.930  0.3311 -0.0126 -0.0730
  551TMC3    C2 8225   3.594   3.159  12.877 -0.3020 -0.5178 -0.2579
  551TMC3    C3 8226   3.671   3.231  12.971  0.1550  0.2016 -0.5371
  551TMC3    C4 8227   3.509   3.033  13.067  0.6762 -0.0574  0.0639
  551TMC3    C5 8228   3.568   3.119  13.155 -0.3657  0.7307 -0.4639
  551TMC3    C6 8229   3.656   3.217  13.105  0.0196 -0.3684  0.2778
  551TMC3     C 8230   3.448   2.973  12.843  0.5720  0.1139 -0.6560
  551TMC3     O 8231   3.426   2.859  12.881 -0.1831 -0.2114 -0.2110
  551TMC3     H 8232   3.610   3.168  12.770  0.3344  0.0656 -0.1154
  551TMC3    H1 8233   3.445   2.949  13.093 -0.3323  0.5665 -0.4187
  551TMC3    H2 8234   3.727   3.261  13.174 -0.3420  0.7568 -0.0756
  551TMC3    C7 8235   3.595   3.092  13.294 -0.0950  0.9179  0.7824
  551TMC3    C8 8236   3.734   3.355  12.927 -0.1135  0.3981  0.4319
  551TMC3    O1 8237   3.665   3.169  13.359 -0.5559 -0.1724 -0.4473
  551TMC3    O2 8238   3.701   3.388  12.815 -0.0547  0.0899 -1.1440
  552MPD2     C 8239   0.475   0.728  14.269  0.4581  0.3115  0.5114
  552MPD2    C1 8240   0.589   0.663  14.211 -0.0479  0.0734 -0.4881
  552MPD2    C2 8241   0.708   0.674  14.275  0.5812 -0.3134 -0.5891
  552MPD2    C3 8242   0.723   0.737  14.401 -0.1005  0.1944 -0.0597
  552MPD2    C4 8243   0.607   0.790  14.459  0.0406  0.0965  0.3443
  552MPD2    C5 8244   0.489   0.790  14.387  0.0571  0.3353 -0.3891
  552MPD2     H 8245   0.792   0.617  14.236 -0.2849  0.6555 -3.8519
  552MPD2    H1 8246   0.614   0.826  14.561  0.5833  3.9636 -1.0620
  552MPD2    H2 8247   0.381   0.731  14.216  0.1218 -0.2074  1.0806
  552MPD2    H3 8248   0.402   0.841  14.427 -1.0469 -0.7572 -1.3592
  552MPD2     N 8249   0.843   0.740  14.474  0.5442  0.5291  0.3623
  552MPD2    H5 8250   0.837   0.779  14.568  1.2891 -1.5067  1.2608
  552MPD2    N1 8251   0.576   0.586  14.093 -0.1735  0.5038  0.9237
  552MPD2    H7 8252   0.664   0.542  14.067 -1.3121 -1.2693  0.0406
  553TMC3    C1 8253   0.469   0.440  13.942 -0.0853  0.0410  0.1191
  553TMC3    C2 8254   0.385   0.434  13.838  0.3721 -0.3738  0.0904
  553TMC3    C3 8255   0.379   0.323  13.757  0.9044  0.3554 -0.4431
  553TMC3    C4 8256   0.547   0.336  13.975 -0.6455  0.4099 -0.3057
  553TMC3    C5 8257   0.542   0.223  13.896  0.0051  0.1289  0.3814
  553TMC3    C6 8258   0.450   0.213  13.792 -0.4219  0.2294  0.3290
  553TMC3     C 8259   0.452   0.552  14.031  0.1498  0.1947  0.1865
  553TMC3     O 8260   0.342   0.602  14.039 -0.0651  0.1517 -0.8946
  553TMC3     H 8261   0.316   0.513  13.813  0.7683 -0.2673 -0.6698
  553TMC3    H1 8262   0.578   0.332  14.079 -2.3795  0.3355  0.2159
  553TMC3    H2 8263   0.445   0.117  13.742 -0.0809  0.6181 -0.4443
  553TMC3    C7 8264   0.596   0.093  13.944 -0.6862 -0.1146 -0.0215
  553TMC3    C8 8265   0.311   0.337  13.630 -0.1563  0.6383 -0.4437
  553TMC3    O1 8266   0.558   4.725  13.903 -0.0467 -0.5172  0.6132
  553TMC3    O2 8267   0.220   0.414  13.620  0.7534  1.0311 -0.6942
  554TMC3    C1 8268   2.556   3.810  11.396 -0.0012  0.3474 -0.0398
  554TMC3    C2 8269   2.479   3.723  11.328  0.5604  0.6199  0.3594
  554TMC3    C3 8270   2.412   3.789  11.231  0.2941  1.2289  0.6024
  554TMC3    C4 8271   2.588   3.936  11.356  0.1516 -0.6798  0.8544
  554TMC3    C5 8272   2.517   3.993  11.263  0.6371  0.1162  0.4907
  554TMC3    C6 8273   2.419   3.924  11.203  0.3414  0.2821 -0.5618
  554TMC3     C 8274   2.604   3.784  11.529 -0.1875 -0.1897  0.3279
  554TMC3     O 8275   2.684   3.858  11.581  0.2924 -0.0323  0.3231
  554TMC3     H 8276   2.471   3.616  11.348  0.0020  0.1571 -2.3104
  554TMC3    H1 8277   2.649   4.001  11.418  0.5144  0.0813 -0.3061
  554TMC3    H2 8278   2.359   3.968  11.124  0.3117  0.6754 -0.3200
  554TMC3    C7 8279   2.579   4.100  11.182 -0.1771 -1.0153  1.1613
  554TMC3    C8 8280   2.397   3.715  11.112  0.1868  0.1983 -0.0031
  554TMC3    O1 8281   2.526   4.109  11.070 -0.1476 -1.1113 -0.3691
  554TMC3    O2 8282   2.434   3.767  11.010 -0.4117 -0.1269  0.3130
  555TMC3    C1 8283   1.779   3.870  14.832 -0.1424 -0.3529  0.3811
  555TMC3    C2 8284   1.728   3.911  14.950  0.1017 -0.2119 -0.2733
  555TMC3    C3 8285   1.726   3.829  15.055 -0.9870 -0.3146  0.0602
  555TMC3    C4 8286   1.827   3.740  14.823 -0.1796  0.4716  0.3356
  555TMC3    C5 8287   1.811   3.654  14.930  0.1960  0.2785 -0.0336
  555TMC3    C6 8288   1.760   3.700  15.051 -0.0652 -0.4767 -0.4795
  555TMC3     C 8289   1.782   3.965  14.726  0.1970  0.1986  0.2722
  555TMC3     O 8290   1.868   3.948  14.644 -0.6065  0.1801 -0.2290
  555TMC3     H 8291   1.713   4.016  14.972 -0.3457 -0.6629  1.5824
  555TMC3    H1 8292   1.872   3.704  14.731  0.6450 -2.1707  1.8057
  555TMC3    H2 8293   1.750   3.643  15.142 -0.5389  0.9069  0.3284
  555TMC3    C7 8294   1.852   3.517  14.908 -0.0920 -0.6995 -0.6776
  555TMC3    C8 8295   1.684   3.898  15.180 -0.0301  0.5500 -0.6423
  555TMC3    O1 8296   1.927   3.489  14.816  0.0079  0.4732 -0.0078
  555TMC3    O2 8297   1.643   4.013  15.168  0.3957  0.1283 -0.2921
  556MPD2     C 8298   4.361   4.719  10.691 -0.5123 -0.2238  0.1691
  556MPD2    C1 8299   4.429   4.614  10.751  0.0607  0.9872  0.2392
  556MPD2    C2 8300   4.477   4.515  10.661  0.2354  0.0576  0.6649
  556MPD2    C3 8301   4.461   4.523  10.523 -0.4502 -0.0867  0.1678
  556MPD2    C4 8302   4.397   4.632  10.472 -0.1924  0.3608  0.4557
  556MPD2    C5 8303   4.344   4.720  10.556  0.6962 -0.1203 -0.5308
  556MPD2     H 8304   4.529   4.425  10.690 -2.1997 -0.9222  2.0304
  556MPD2    H1 8305   4.382   4.635  10.365 -1.7833  1.6322  0.7138
  556MPD2    H2 8306   4.316   0.057  10.751  1.8558  2.2018 -1.2481
  556MPD2    H3 8307   4.291   0.071  10.529 -0.9267 -0.7671  0.4791
  556MPD2     N 8308   4.492   4.406  10.447  0.3894 -0.5364  0.2824
  556MPD2    H5 8309   4.509   4.316  10.491 -1.4568 -1.7301 -1.4240
  556MPD2    N1 8310   4.440   4.589  10.890  0.0023 -0.1224  0.1427
  556MPD2    H7 8311   4.507   4.517  10.916 -1.0093 -1.0084  0.2540
  557TMC3    C1 8312   4.516   4.257  10.264 -0.1621 -0.4376 -0.1926
  557TMC3    C2 8313   4.499   4.242  10.132  0.7835  0.7557  0.0485
  557TMC3    C3 8314   4.430   4.131  10.085 -0.7032 -0.1328 -0.0469
  557TMC3    C4 8315   4.494   4.157  10.355 -0.6799  0.3007 -0.4138
  557TMC3    C5 8316   4.436   4.047  10.303 -0.0358  0.1273 -0.0878
  557TMC3    C6 8317   4.391   4.033  10.173 -0.6368  0.1089 -0.1917
  557TMC3     C 8318   4.498   4.396  10.317 -0.2752  0.3335 -0.2165
  557TMC3     O 8319   4.478   4.479  10.229  0.3934  0.3689 -0.1823
  557TMC3     H 8320   4.524   4.325  10.066 -2.3745  2.6777  1.3095
  557TMC3    H1 8321   4.501   4.161  10.463 -1.6696  0.8532 -0.3730
  557TMC3    H2 8322   4.343   3.944  10.134  0.0620 -0.2737 -0.1828
  557TMC3    C7 8323   4.364   3.964  10.399  0.5275  0.1654 -0.9554
  557TMC3    C8 8324   4.374   4.133   9.951  0.3348  0.2087  0.6975
  557TMC3    O1 8325   4.252   3.934  10.360 -0.3150 -0.2957  0.2676
  557TMC3    O2 8326   4.393   4.241   9.895  0.1705 -0.0976  0.3650
  558TMC3    C1 8327   1.982   2.224  10.233 -0.1785  0.1955  0.5478
  558TMC3    C2 8328   1.871   2.243  10.303 -1.0037 -0.2305 -0.2331
  558TMC3    C3 8329   1.788   2.344  10.259 -0.7134 -0.0909 -0.2543
  558TMC3    C4 8330   2.004   2.294  10.116  0.4719  0.8912  0.3965
  558TMC3    C5 8331   1.920   2.388  10.070 -0.1147 -0.3402  0.2247
  558TMC3    C6 8332   1.811   2.419  10.146  0.3643  0.7408 -0.2683
  558TMC3     C 8333   2.104   2.167  10.292 -0.1980 -0.6282  0.2497
  558TMC3     O 8334   2.217   2.178  10.240  0.2061 -0.5230  0.1606
  558TMC3     H 8335   1.830   2.172  10.375  2.2332 -2.2166 -0.3484
  558TMC3    H1 8336   2.094   2.271  10.059  0.9625  2.8213  0.3846
  558TMC3    H2 8337   1.751   2.507  10.125 -1.1503  0.3110  2.2936
  558TMC3    C7 8338   1.917   2.410   9.928  0.0934  0.5803  0.5695
  558TMC3    C8 8339   1.647   2.351  10.312 -0.1385 -0.6781  0.2985
  558TMC3    O1 8340   2.030   2.421   9.876 -0.0352  0.8744  0.2871
  558TMC3    O2 8341   1.562   2.383  10.230 -0.0112 -0.3766  0.1900
  559MPD2     C 8342   2.014   2.656  10.262  0.7218 -1.1485 -0.0980
  559MPD2    C1 8343   1.945   2.621  10.375  0.5089  0.2063 -0.4111
  559MPD2    C2 8344   2.011   2.543  10.463  0.1122  0.3733  0.3328
  559MPD2    C3 8345   2.147   2.509  10.453 -0.1421  0.1746  0.2498
  559MPD2    C4 8346   2.210   2.548  10.339 -0.6214 -0.4548 -0.4966
  559MPD2    C5 8347   2.143   2.628  10.252 -0.3356 -0.5393 -0.6713
  559MPD2     H 8348   1.951   2.498  10.541  1.5770 -0.3145  1.0598
  559MPD2    H1 8349   2.310   2.517  10.314  0.5308  0.9942  2.3434
  559MPD2    H2 8350   1.970   2.723  10.189  1.7517 -1.1164 -0.6917
  559MPD2    H3 8351   2.182   2.655  10.154 -2.2826  0.0773 -1.2956
  559MPD2     N 8352   2.214   2.443  10.561  0.1300 -0.0713 -0.2334
  559MPD2    H5 8353   2.155   2.407  10.635  1.2180  0.4688  0.9072
  559MPD2    N1 8354   1.803   2.655  10.382  0.3373  0.7029 -0.2728
  559MPD2    H7 8355   1.758   2.700  10.304 -1.4961  1.6591  1.3374
  560TMC3    C1 8356   2.388   2.388  10.706  0.1195 -0.1161  0.6951
  560TMC3    C2 8357   2.299   2.306  10.762  0.2551  0.6006 -0.5777
  560TMC3    C3 8358   2.320   2.281  10.888 -0.7402  0.3562 -0.6646
  560TMC3    C4 8359   2.482   2.464  10.775 -0.4866 -0.2093 -0.5313
  560TMC3    C5 8360   2.487   2.446  10.907 -0.1417 -1.4288 -0.2703
  560TMC3    C6 8361   2.415   2.339  10.958 -0.1808 -0.0481 -0.3839
  560TMC3     C 8362   2.352   2.442  10.574  0.0431 -0.5617 -0.6452
  560TMC3     O 8363   2.443   2.491  10.508  0.1392 -0.3300 -0.1470
  560TMC3     H 8364   2.223   2.245  10.713  1.7232 -0.3835 -1.6483
  560TMC3    H1 8365   2.545   2.532  10.720 -0.3965  0.5612  0.5242
  560TMC3    H2 8366   2.422   2.325  11.066  0.9406  1.5629 -0.2500
  560TMC3    C7 8367   2.574   2.508  11.003  0.0628  0.0945 -0.2902
  560TMC3    C8 8368   2.218   2.203  10.966 -0.2610  0.2205 -0.4129
  560TMC3    O1 8369   2.600   2.447  11.108  0.6074  0.1905  0.0619
  560TMC3    O2 8370   2.107   2.194  10.915  0.0828 -0.1300  0.3235
  561TMC3    C1 8371   4.719   2.365  10.886 -0.0990  0.1678  0.0536
  561TMC3    C2 8372   4.665   2.298  10.994 -0.4871  0.6251  0.0918
  561TMC3    C3 8373   4.569   2.361  11.069 -0.5284  0.1082  1.2115
  561TMC3    C4 8374   4.689   2.494  10.856  0.3349  0.4799  0.5052
  561TMC3    C5 8375   4.597   2.551  10.936 -0.3085  0.3091  0.1174
  561TMC3    C6 8376   4.536   2.489  11.043 -0.0223 -0.0116 -0.7508
  561TMC3     C 8377   0.052   2.278  10.795 -0.6128  0.2009 -0.8713
  561TMC3     O 8378   0.032   2.158  10.799 -0.2555 -0.1187 -0.1628
  561TMC3     H 8379   4.689   2.195  11.018  1.4832  1.5455  2.0900
  561TMC3    H1 8380   4.734   2.546  10.772 -0.7431 -0.5759 -0.7311
  561TMC3    H2 8381   4.463   2.545  11.102  0.5278  0.6515 -0.6949
  561TMC3    C7 8382   4.592   2.700  10.947  0.3718 -0.3160 -0.2915
  561TMC3    C8 8383   4.574   2.317  11.208  0.1378 -0.0461  0.5384
  561TMC3    O1 8384   4.496   2.755  10.995 -0.0360  0.3405 -0.1333
  561TMC3    O2 8385   4.666   2.241  11.228  0.3173 -0.6326  0.2118
  562TMC3    C1 8386   1.073   4.015  16.055  0.3564 -0.2584  0.1670
  562TMC3    C2 8387   0.977   4.113  16.060 -0.2862 -0.1367 -0.2463
  562TMC3    C3 8388   0.956   4.169  15.940 -0.2780  0.5340 -0.1586
  562TMC3    C4 8389   1.142   3.970  15.943 -0.3652 -1.4064 -0.0300
  562TMC3    C5 8390   1.098   4.024  15.825 -0.5718  0.5012 -0.1440
  562TMC3    C6 8391   0.999   4.120  15.818 -0.0161 -0.4017 -0.1700
  562TMC3     C 8392   1.114   3.944  16.180  0.1278 -0.4902 -0.5281
  562TMC3     O 8393   1.191   3.849  16.171 -0.7979  0.1635 -0.2818
  562TMC3     H 8394   0.924   4.128  16.153  0.5451  0.4029  0.1415
  562TMC3    H1 8395   1.202   3.881  15.946 -1.3871 -2.0710  0.4953
  562TMC3    H2 8396   0.971   4.159  15.720  0.9514  1.8762  0.4581
  562TMC3    C7 8397   1.147   3.981  15.690  0.2566  0.0502  1.0011
  562TMC3    C8 8398   0.832   4.249  15.936 -0.2277 -0.0982 -0.4688
  562TMC3    O1 8399   1.139   4.068  15.610  0.0849  0.5875  0.0139
  562TMC3    O2 8400   0.736   4.216  16.001  0.0811  0.5178 -0.2786
  563MPD2     C 8401   4.131   0.672  15.616  0.2099  1.0712  0.6035
  563MPD2    C1 8402   4.133   0.723  15.745 -0.2052  0.6827  0.7065
  563MPD2    C2 8403   4.249   0.708  15.816  0.1234  0.2211 -0.1969
  563MPD2    C3 8404   4.367   0.652  15.767  0.1901 -0.3202 -0.5145
  563MPD2    C4 8405   4.359   0.607  15.640 -0.2939 -0.0790 -0.0975
  563MPD2    C5 8406   4.241   0.598  15.574 -0.8595 -0.1071 -0.4746
  563MPD2     H 8407   4.247   0.742  15.920 -1.1329  2.3494 -0.9089
  563MPD2    H1 8408   4.447   0.571  15.589  0.1874  2.1142 -0.8228
  563MPD2    H2 8409   4.044   0.680  15.552 -0.1025 -1.0256  0.7476
  563MPD2    H3 8410   4.239   0.554  15.475 -0.9681  1.4231 -1.1462
  563MPD2     N 8411   4.488   0.649  15.846  0.0805 -0.3187  0.0593
  563MPD2    H5 8412   4.486   0.688  15.940 -0.1423  2.0845 -0.9426
  563MPD2    N1 8413   4.015   0.768  15.809  0.4652 -0.9029 -0.0063
  563MPD2    H7 8414   3.934   0.750  15.751 -1.1635  0.7762  1.7848
  564TMC3    C1 8415   3.893   0.783  16.008  0.7184  0.0615 -0.1913
  564TMC3    C2 8416   3.770   0.763  15.948 -0.5384 -1.0832  0.3491
  564TMC3    C3 8417   3.670   0.702  16.021  0.0062 -0.6902 -0.8082
  564TMC3    C4 8418   3.916   0.772  16.141 -0.8630  0.0450  0.5538
  564TMC3    C5 8419   3.820   0.705  16.203  0.1145 -0.5200  0.1515
  564TMC3    C6 8420   3.693   0.682  16.156 -0.5425  0.5925 -0.1579
  564TMC3     C 8421   4.003   0.840  15.932 -0.0733  0.8674  0.2271
  564TMC3     O 8422   4.093   0.907  15.984 -0.0898  0.2232  0.1456
  564TMC3     H 8423   3.769   0.782  15.842  1.0600 -1.2354  0.3056
  564TMC3    H1 8424   4.010   0.797  16.190 -1.5394 -0.0446  1.9032
  564TMC3    H2 8425   3.614   0.653  16.224  1.2535 -1.5670  1.0270
  564TMC3    C7 8426   3.871   0.591  16.274 -0.7140 -0.0947 -0.5624
  564TMC3    C8 8427   3.591   0.596  15.958 -0.5607 -0.1881  0.0732
  564TMC3    O1 8428   3.989   0.604  16.300  0.1176 -0.1109 -0.2796
  564TMC3    O2 8429   3.575   0.503  16.035  0.3266  0.5540 -0.1076
  565TMC3    C1 8430   3.652   1.303  10.143  0.0892  0.3982  0.0178
  565TMC3    C2 8431   3.759   1.320  10.231 -0.2491  0.2689 -0.2075
  565TMC3    C3 8432   3.808   1.210  10.297  0.6797  1.2021 -0.1383
  565TMC3    C4 8433   3.609   1.178  10.117  0.5775 -0.8626 -0.3173
  565TMC3    C5 8434   3.659   1.074  10.181 -0.4169  0.3115 -0.5832
  565TMC3    C6 8435   3.769   1.085  10.266 -0.5033  0.1574  0.3050
  565TMC3     C 8436   3.598   1.416  10.066 -0.3136 -0.0563  0.0417
  565TMC3     O 8437   3.676   1.509  10.049  0.1483  0.2662 -0.7634
  565TMC3     H 8438   3.787   1.422  10.255  1.7792 -0.4428  0.4135
  565TMC3    H1 8439   3.527   1.156  10.048 -0.0052  0.2833  0.0258
  565TMC3    H2 8440   3.838   1.005  10.293 -2.6229 -2.5157 -2.1756
  565TMC3    C7 8441   3.607   0.938  10.167 -0.1742 -0.3802  0.0172
  565TMC3    C8 8442   3.914   1.216  10.397 -0.4639 -0.3998 -0.8513
  565TMC3    O1 8443   3.538   0.918  10.067 -0.5854 -0.1333  0.2519
  565TMC3    O2 8444   3.956   1.115  10.448  0.4575 -0.4732 -0.0754
  566MPD2     C 8445   1.022   3.080  14.132 -0.1707  0.5845  0.2251
  566MPD2    C1 8446   1.100   3.060  14.023 -0.0722  0.3257 -0.1552
  566MPD2    C2 8447   1.050   3.059  13.892 -0.1555  0.3544 -0.6260
  566MPD2    C3 8448   0.917   3.078  13.875  0.2954 -0.0693 -0.3502
  566MPD2    C4 8449   0.830   3.089  13.983  0.1742  0.3340  0.3392
  566MPD2    C5 8450   0.888   3.089  14.109 -0.5527  0.6854 -0.4233
  566MPD2     H 8451   1.108   3.037  13.802  0.9127 -1.7880  0.5848
  566MPD2    H1 8452   0.722   3.091  13.976  0.2771  0.9193 -1.0467
  566MPD2    H2 8453   1.062   3.085  14.233  0.1491 -1.4042  0.1862
  566MPD2    H3 8454   0.832   3.097  14.202 -1.0352 -2.5053 -0.4506
  566MPD2     N 8455   0.887   3.085  13.734 -0.3854  0.0187 -0.0210
  566MPD2    H5 8456   0.972   3.079  13.679  1.9753 -1.2163  3.7284
  566MPD2    N1 8457   1.232   3.016  14.053  0.4647  0.4715 -1.0324
  566MPD2    H7 8458   1.269   3.035  14.145  1.0423  0.4592 -1.2621
  567TMC3    C1 8459   1.461   2.964  13.991 -0.3894 -0.3521 -0.2589
  567TMC3    C2 8460   1.540   2.937  13.883 -0.6898  0.5166 -0.0031
  567TMC3    C3 8461   1.669   2.967  13.896  0.2515  0.0457  0.2808
  567TMC3    C4 8462   1.512   3.018  14.102 -0.2796  0.1946  0.2286
  567TMC3    C5 8463   1.646   3.046  14.108 -0.0912 -0.1501  1.0917
  567TMC3    C6 8464   1.723   3.036  13.999  0.2214  0.1129 -0.1250
  567TMC3     C 8465   1.321   2.971  13.953 -0.7515 -0.1200 -0.3394
  567TMC3     O 8466   1.291   2.923  13.844 -0.7620  0.5216 -0.2291
  567TMC3     H 8467   1.508   2.867  13.807  2.9420  2.2096 -3.0992
  567TMC3    H1 8468   1.453   3.025  14.193 -0.0762 -1.8399  0.5268
  567TMC3    H2 8469   1.826   3.070  13.996 -0.4816  2.0342 -2.6762
  567TMC3    C7 8470   1.699   3.127  14.215 -0.4752  0.2765 -0.2953
  567TMC3    C8 8471   1.731   2.976  13.765  0.2198  0.4054  0.4060
  567TMC3    O1 8472   1.824   3.144  14.215  0.5904 -0.2314  0.1236
  567TMC3    O2 8473   1.657   3.002  13.671 -0.2571  0.0649  0.2863
  568MPD2     C 8474   3.702   4.039  16.050 -0.4653  0.3760 -0.3024
  568MPD2    C1 8475   3.622   4.104  16.144  0.8689 -0.7046  0.5706
  568MPD2    C2 8476   3.534   4.198  16.102 -0.5269 -0.7936 -0.2794
  568MPD2    C3 8477   3.533   4.249  15.973 -0.0233 -0.5088 -0.3362
  568MPD2    C4 8478   3.625   4.191  15.887 -0.1237  0.0426 -0.2478
  568MPD2    C5 8479   3.703   4.084  15.923 -0.0500  0.3275 -0.1621
  568MPD2     H 8480   3.457   4.235  16.170 -0.5163  1.4240 -1.4784
  568MPD2    H1 8481   3.647   4.228  15.787  1.0522  1.3541  0.5049
  568MPD2    H2 8482   3.773   3.962  16.079 -0.8396  0.7228  1.5360
  568MPD2    H3 8483   3.765   4.040  15.845 -1.4245 -0.8041 -0.6200
  568MPD2     N 8484   3.443   4.347  15.938  0.1485 -0.5624 -0.3686
  568MPD2    H5 8485   3.370   4.380  16.000  0.8284 -0.0023  0.1454
  568MPD2    N1 8486   3.631   4.056  16.277 -0.1157  0.2201 -0.6608
  568MPD2    H7 8487   3.692   3.975  16.289 -0.1499  0.3115  0.1855
  569TMC3    C1 8488   3.322   4.485  15.803 -0.3217  0.6089  0.1132
  569TMC3    C2 8489   3.238   4.501  15.919  0.4009  0.9743  0.0650
  569TMC3    C3 8490   3.201   4.624  15.956  0.3477 -0.2337  0.2016
  569TMC3    C4 8491   3.335   4.585  15.715  0.0930  0.3457 -0.1929
  569TMC3    C5 8492   3.299   4.707  15.759  0.1004 -0.2302 -0.2453
  569TMC3    C6 8493   3.238   4.731  15.882  0.4645 -0.2634  0.3624
  569TMC3     C 8494   3.444   4.413  15.817  0.7818 -0.0161 -0.0848
  569TMC3     O 8495   3.534   4.425  15.735  0.1236  0.1849  0.4316
  569TMC3     H 8496   3.200   4.410  15.963 -0.0195  1.4544  0.6802
  569TMC3    H1 8497   3.384   4.565  15.620  0.2897  0.2122 -0.0613
  569TMC3    H2 8498   3.205   0.089  15.915  1.7999  0.6334 -0.9480
  569TMC3    C7 8499   3.311   0.080  15.669 -0.2287 -0.7872 -0.9432
  569TMC3    C8 8500   3.186   4.644  16.097  0.3691  0.1360  0.0598
  569TMC3    O1 8501   3.272   0.073  15.552  0.3669  0.1027  0.0597
  569TMC3    O2 8502   3.155   4.544  16.160 -0.5230  0.1223 -0.0079
  570TMC3    C1 8503   2.789   2.742  15.907  1.1833 -0.8474  0.0802
  570TMC3    C2 8504   2.874   2.743  15.798 -0.0694 -0.0050 -0.3475
  570TMC3    C3 8505   2.954   2.849  15.793  0.5442  0.0159  0.2224
  570TMC3    C4 8506   2.774   2.843  16.002  0.0335 -0.6467 -0.6679
  570TMC3    C5 8507   2.858   2.950  15.985  0.2149  0.5678 -0.3546
  570TMC3    C6 8508   2.949   2.952  15.885  0.5377  0.0845 -0.1052
  570TMC3     C 8509   2.714   2.619  15.911  0.9588 -0.3478  0.6286
  570TMC3     O 8510   2.659   2.579  15.810 -0.0674  0.3977 -0.0300
  570TMC3     H 8511   2.876   2.660  15.728 -0.3615 -0.4645  0.1878
  570TMC3    H1 8512   2.720   2.826  16.095  1.1738 -0.2988  0.0612
  570TMC3    H2 8513   3.016   3.035  15.868 -2.6968  1.7805 -4.5822
  570TMC3    C7 8514   2.854   3.059  16.081 -0.8361  0.5262 -0.1341
  570TMC3    C8 8515   3.084   2.837  15.726 -0.2264 -0.2420 -0.1175
  570TMC3    O1 8516   2.814   3.035  16.190  0.5768  0.2067 -0.2323
  570TMC3    O2 8517   3.166   2.928  15.762 -0.3525 -0.1726 -0.2133
  571MPD2     C 8518   0.088   4.211   1.044 -0.1064  0.3233 -0.0519
  571MPD2    C1 8519   4.738   4.296   0.982 -0.2836 -0.0820 -0.6799
  571MPD2    C2 8520   0.038   4.357   0.864 -0.0693 -0.3485 -0.7327
  571MPD2    C3 8521   0.161   4.319   0.802  0.5756  0.4692 -0.0405
  571MPD2    C4 8522   0.247   4.228   0.858 -0.5299 -0.9539 -0.4523
  571MPD2    C5 8523   0.211   4.187   0.984 -0.1033  0.3102  0.4067
  571MPD2     H 8524   4.703   4.416   0.812  0.7105  0.4682 -0.9152
  571MPD2    H1 8525   0.345   4.209   0.817  0.2688  1.6450  0.2601
  571MPD2    H2 8526   0.059   4.158   1.133 -0.4287  1.2224  0.3811
  571MPD2    H3 8527   0.277   4.112   1.025 -0.8706 -0.5687  0.0321
  571MPD2     N 8528   0.195   4.374   0.681 -0.2373 -0.0336 -0.4287
  571MPD2    H5 8529   0.282   4.333   0.646 -2.0234 -3.2710 -1.0407
  571MPD2    N1 8530   4.622   4.311   1.061 -0.1589  0.3882  0.0806
  571MPD2    H7 8531   4.614   4.268   1.153  0.6849  0.0079 -0.0235
  572TMC3    C1 8532   0.223   4.564   0.543  0.3423 -0.3324 -1.1072
  572TMC3    C2 8533   0.360   4.553   0.561 -0.6832  0.0760  0.6612
  572TMC3    C3 8534   0.445   4.650   0.501 -0.7374  0.2862  0.0518
  572TMC3    C4 8535   0.168   4.651   0.453 -0.3293 -0.3191  0.0137
  572TMC3    C5 8536   0.261   4.739   0.389  0.3653  0.0049  0.8013
  572TMC3    C6 8537   0.393   0.003   0.412  0.4841  0.2394 -0.1432
  572TMC3     C 8538   0.128   4.477   0.616 -0.3584  0.4129 -0.1748
  572TMC3     O 8539   0.010   4.494   0.615 -0.6660  0.2422 -0.0461
  572TMC3     H 8540   0.409   4.508   0.647  3.0800 -1.1085 -2.0599
  572TMC3    H1 8541   0.060   4.654   0.440 -0.0576  0.8762 -2.0330
  572TMC3    H2 8542   0.462   0.064   0.355 -0.0206  0.2606 -0.7261
  572TMC3    C7 8543   0.227   0.040   0.252 -0.1762  0.6649 -0.0004
  572TMC3    C8 8544   0.589   4.642   0.508  0.2123  0.1043  0.7143
  572TMC3    O1 8545   0.318   0.056   0.174  1.4038  0.2054 -0.2689
  572TMC3    O2 8546   0.643   0.005   0.466  0.0569 -0.5946 -0.0758
  573MPD2     C 8547   1.931   0.518   0.243  0.4751 -0.4294 -0.1602
  573MPD2    C1 8548   1.940   0.453   0.360  0.5259 -0.2738 -0.0047
  573MPD2    C2 8549   1.879   0.324   0.367  0.2862  0.1737 -0.5649
  573MPD2    C3 8550   1.808   0.271   0.255 -0.6907 -0.2139 -0.0857
  573MPD2    C4 8551   1.803   0.349   0.141  0.2039  0.3214  0.6158
  573MPD2    C5 8552   1.871   0.467   0.138 -0.5743 -0.2547  0.0527
  573MPD2     H 8553   1.890   0.270   0.460  1.9877  1.3245 -0.0947
  573MPD2    H1 8554   1.769   0.315   0.043  1.8858  1.0691 -0.2136
  573MPD2    H2 8555   1.968   0.619   0.234  0.1308  0.0169  3.1553
  573MPD2    H3 8556   1.882   0.527   0.048 -0.9739  0.9724  0.8285
  573MPD2     N 8557   1.733   0.152   0.247 -0.1479  0.3843  0.3495
  573MPD2    H5 8558   1.670   0.142   0.168 -0.6856  0.4400  0.7735
  573MPD2    N1 8559   2.004   0.505   0.470  0.0700  0.2319  0.6743
  573MPD2    H7 8560   2.059   0.590   0.459 -2.0696  1.6037  0.7093
  574TMC3    C1 8561   1.600   4.720   0.334  0.3709 -0.1474 -0.2024
  574TMC3    C2 8562   1.494   0.004   0.246 -0.2798  0.2995  0.3032
  574TMC3    C3 8563   1.385   4.652   0.236  0.1277  0.1051  0.6490
  574TMC3    C4 8564   1.591   4.608   0.416 -0.0453 -0.2182 -0.4537
  574TMC3    C5 8565   1.486   4.519   0.396 -0.0682  0.5827 -0.4362
  574TMC3    C6 8566   1.377   4.541   0.313 -1.0819 -0.1714 -0.2161
  574TMC3     C 8567   1.717   0.061   0.348  0.3886  0.5842  0.3397
  574TMC3     O 8568   1.775   0.058   0.460  0.2436  0.1187 -0.3782
  574TMC3     H 8569   1.485   0.102   0.202  0.8703 -0.5220 -1.8130
  574TMC3    H1 8570   1.677   4.587   0.478  0.3509  0.1164 -0.8864
  574TMC3    H2 8571   1.295   4.471   0.302 -0.3468 -1.3107  1.5085
  574TMC3    C7 8572   1.474   4.410   0.488 -0.0791 -0.2563  0.9130
  574TMC3    C8 8573   1.263   4.709   0.195 -0.2296 -0.2473  0.9772
  574TMC3    O1 8574   1.511   4.428   0.603 -0.0388  0.2898  0.0625
  574TMC3    O2 8575   1.172   4.681   0.270 -0.0037  0.0669  0.3242
  575TMC3    C1 8576   4.383   1.053  11.115 -0.0015 -0.5326  0.1933
  575TMC3    C2 8577   4.373   0.913  11.119 -0.0169 -0.6878  0.4287
  575TMC3    C3 8578   4.326   0.850  11.013  0.2815  0.1417  0.3479
  575TMC3    C4 8579   4.312   1.128  11.016 -0.4795 -0.4012 -0.4727
  575TMC3    C5 8580   4.260   1.053  10.916  0.6163  0.7041  0.7145
  575TMC3    C6 8581   4.274   0.916  10.909  0.1473 -0.6508 -1.0121
  575TMC3     C 8582   4.430   1.113  11.236 -0.3630 -0.0891  0.5566
  575TMC3     O 8583   4.503   1.039  11.305  0.0981 -0.3734  0.7787
  575TMC3     H 8584   4.422   0.856  11.198  0.7328 -0.3914  0.1707
  575TMC3    H1 8585   4.323   1.236  11.011 -1.2228 -0.2975  0.2051
  575TMC3    H2 8586   4.245   0.860  10.821 -1.4528  1.2168 -1.6766
  575TMC3    C7 8587   4.235   1.118  10.785 -0.3604 -0.2764 -0.6986
  575TMC3    C8 8588   4.302   0.706  11.003  0.0141 -0.5786  0.2020
  575TMC3    O1 8589   4.180   1.044  10.703 -0.0728 -0.4931 -0.2826
  575TMC3    O2 8590   4.221   0.665  10.923  0.3874  0.9788  0.2064
  576MPD2     C 8591   3.670   2.654  12.283 -0.1505  0.2630  0.2950
  576MPD2    C1 8592   3.758   2.712  12.196 -0.8468 -0.3610  0.1416
  576MPD2    C2 8593   3.789   2.849  12.209 -0.3527  0.1781  0.2636
  576MPD2    C3 8594   3.728   2.926  12.305 -0.4827  0.0628  0.2313
  576MPD2    C4 8595   3.642   2.870  12.397  0.9518  0.1477  0.0694
  576MPD2    C5 8596   3.619   2.731  12.385 -0.2408  1.2589  0.5418
  576MPD2     H 8597   3.873   2.888  12.152 -0.1847 -1.4175 -0.5869
  576MPD2    H1 8598   3.594   2.926  12.476 -0.2924 -1.3092  0.3555
  576MPD2    H2 8599   3.644   2.549  12.282  0.9927 -0.0179  1.0075
  576MPD2    H3 8600   3.556   2.677  12.455 -0.3638  0.0743 -0.4732
  576MPD2     N 8601   3.767   3.066  12.303 -0.0915 -0.6111  0.1745
  576MPD2    H5 8602   3.824   3.095  12.224 -1.4342  0.6901 -0.3365
  576MPD2    N1 8603   3.810   2.636  12.090  0.5423  0.0076  0.3078
  576MPD2    H7 8604   3.878   2.677  12.027  1.8356 -0.2678  1.5048
  577TMC3    C1 8605   3.819   2.483  11.922  0.2790  0.4291 -0.5296
  577TMC3    C2 8606   3.953   2.520  11.908 -0.4149  0.1281 -0.2974
  577TMC3    C3 8607   4.011   2.503  11.784  0.5939  0.0232  0.8038
  577TMC3    C4 8608   3.740   2.444  11.815  1.0347 -0.2500  0.0041
  577TMC3    C5 8609   3.802   2.443  11.687  0.5463 -0.6163 -0.2038
  577TMC3    C6 8610   3.932   2.484  11.672 -0.0537 -0.2592  0.6209
  577TMC3     C 8611   3.748   2.528  12.040  0.1209  0.1819 -0.2715
  577TMC3     O 8612   3.641   2.478  12.068 -0.4075  0.1786 -0.4497
  577TMC3     H 8613   4.017   2.529  11.995  2.3539  1.4738 -2.4710
  577TMC3    H1 8614   3.641   2.404  11.833  0.3655  1.6586  0.6533
  577TMC3    H2 8615   3.975   2.455  11.576 -0.6260 -2.1304  0.9384
  577TMC3    C7 8616   3.723   2.443  11.572  0.2127  0.0066 -0.0499
  577TMC3    C8 8617   4.143   2.442  11.784 -0.7998  0.3304 -0.3244
  577TMC3    O1 8618   3.785   2.450  11.466  0.1877 -0.2558  0.0533
  577TMC3    O2 8619   4.174   2.381  11.886 -0.1428 -0.5882  0.4320
  578MPD2     C 8620   1.963   3.228   1.307  0.4905  0.0059 -0.7471
  578MPD2    C1 8621   1.999   3.201   1.176  0.2727  0.3083  0.9047
  578MPD2    C2 8622   2.133   3.155   1.159  0.8135  0.0816  0.6694
  578MPD2    C3 8623   2.220   3.137   1.267  0.2656  0.3972 -0.1003
  578MPD2    C4 8624   2.172   3.165   1.391  0.4093 -0.1294  1.6426
  578MPD2    C5 8625   2.045   3.197   1.415 -0.0692 -0.7337  0.3280
  578MPD2     H 8626   2.171   3.136   1.060  1.0658  0.1458  0.7518
  578MPD2    H1 8627   2.242   3.170   1.473  3.6363  0.5797 -1.1450
  578MPD2    H2 8628   1.870   3.278   1.330  1.5901  0.9709  1.5993
  578MPD2    H3 8629   2.006   3.219   1.513  1.2801  0.8515  0.5145
  578MPD2     N 8630   2.350   3.091   1.236  0.0963  0.1853  0.1216
  578MPD2    H5 8631   2.370   3.067   1.139  2.1177 -0.3388  0.6689
  578MPD2    N1 8632   1.913   3.242   1.076  0.2442 -0.1467 -0.7773
  578MPD2    H7 8633   1.826   3.290   1.097  0.9151  1.0332 -0.7369
  579TMC3    C1 8634   2.577   3.055   1.253 -0.4855 -0.1388  0.2547
  579TMC3    C2 8635   2.696   3.129   1.260 -0.2379  0.1562 -0.7306
  579TMC3    C3 8636   2.809   3.070   1.209  1.0302 -0.8423  0.1437
  579TMC3    C4 8637   2.567   2.945   1.172  0.7775  0.7946 -0.7648
  579TMC3    C5 8638   2.682   2.889   1.131 -0.5462 -0.3763  0.0998
  579TMC3    C6 8639   2.807   2.941   1.160 -0.8337 -0.2266  0.9660
  579TMC3     C 8640   2.459   3.114   1.315 -0.9372  0.1333 -0.4005
  579TMC3     O 8641   2.473   3.195   1.409  0.3512 -0.6228 -0.3239
  579TMC3     H 8642   2.701   3.217   1.323  1.7625  0.3204 -1.1103
  579TMC3    H1 8643   2.471   2.895   1.166  1.0679 -0.2302  3.0044
  579TMC3    H2 8644   2.891   2.876   1.135 -0.2182  0.3315  1.5722
  579TMC3    C7 8645   2.682   2.756   1.068 -0.3005 -0.4064  0.5455
  579TMC3    C8 8646   2.932   3.121   1.255 -1.1766  0.2190 -0.3626
  579TMC3    O1 8647   2.786   2.693   1.064  0.1155  0.1146 -0.4801
  579TMC3    O2 8648   2.943   3.183   1.360  0.1850  0.6979  0.3445
  580TMC3    C1 8649   2.152   1.579  12.381  0.5551 -0.3120 -0.5554
  580TMC3    C2 8650   2.287   1.609  12.389 -0.6595  0.0162 -0.2983
  580TMC3    C3 8651   2.369   1.507  12.421  0.0015  1.1602 -0.3021
  580TMC3    C4 8652   2.109   1.455  12.409 -0.5298 -0.7080 -0.3014
  580TMC3    C5 8653   2.189   1.349  12.443 -0.1519 -0.2497 -0.3164
  580TMC3    C6 8654   2.322   1.380  12.453 -0.1330 -0.1519  0.6107
  580TMC3     C 8655   2.064   1.668  12.314  0.5521  0.0492  0.1485
  580TMC3     O 8656   1.944   1.640  12.321 -0.4440 -0.2454 -0.2897
  580TMC3     H 8657   2.323   1.711  12.378 -1.8504  0.6797  1.9271
  580TMC3    H1 8658   2.003   1.432  12.397  0.0370 -3.1541 -0.6978
  580TMC3    H2 8659   2.386   1.297  12.480 -0.8507 -1.0396 -0.4544
  580TMC3    C7 8660   2.159   1.226  12.376  0.0887  0.2753 -0.2496
  580TMC3    C8 8661   2.474   1.484  12.328  0.6342  0.0838  0.0048
  580TMC3    O1 8662   2.040   1.203  12.382  0.2416 -0.0562  0.3479
  580TMC3    O2 8663   2.496   1.370  12.288 -0.5545 -0.1197  0.4586
  581MPD2     C 8664   4.209   1.507  14.591 -0.0925  0.0234 -0.1773
  581MPD2    C1 8665   4.095   1.564  14.643  0.3762  0.4520 -0.0790
  581MPD2    C2 8666   4.016   1.640  14.552  0.2804  0.3789 -0.2220
  581MPD2    C3 8667   4.055   1.651  14.419  0.6623  0.2711 -0.3712
  581MPD2    C4 8668   4.174   1.601  14.378 -0.3266  0.7742 -0.1870
  581MPD2    C5 8669   4.240   1.525  14.463  0.7992  0.3004  0.4582
  581MPD2     H 8670   3.928   1.691  14.590  0.3159  0.0726  0.2725
  581MPD2    H1 8671   4.211   1.622  14.278  1.3781  1.3540  0.5671
  581MPD2    H2 8672   4.278   1.441  14.643  0.7414  0.3590 -0.8661
  581MPD2    H3 8673   4.338   1.493  14.429  0.4805  0.8459 -0.9716
  581MPD2     N 8674   3.969   1.730  14.333 -0.7673  0.6145 -0.1543
  581MPD2    H5 8675   3.870   1.729  14.359 -0.9127 -0.5827 -0.7609
  581MPD2    N1 8676   4.063   1.551  14.786 -0.6653  0.4243  0.1348
  581MPD2    H7 8677   4.141   1.518  14.841 -2.0286 -0.3460  1.5990
  582TMC3    C1 8678   3.995   1.638  14.991  0.0131 -0.2639  0.6974
  582TMC3    C2 8679   4.109   1.579  15.044 -0.1321  0.0211  0.0584
  582TMC3    C3 8680   4.163   1.638  15.155 -0.5784  0.7673  0.2138
  582TMC3    C4 8681   3.930   1.741  15.053 -0.2696  0.3157 -1.1486
  582TMC3    C5 8682   3.986   1.792  15.162  0.4698 -0.6277 -0.1693
  582TMC3    C6 8683   4.105   1.746  15.217 -0.5004  0.2903  0.3621
  582TMC3     C 8684   3.959   1.611  14.852 -0.5148  0.0417  0.1350
  582TMC3     O 8685   3.860   1.663  14.808 -0.4972 -0.3695 -0.0379
  582TMC3     H 8686   4.153   1.485  15.015  0.9422  0.6777 -0.4472
  582TMC3    H1 8687   3.838   1.792  15.026 -0.1725  1.0105 -0.1987
  582TMC3    H2 8688   4.128   1.776  15.319  0.6613 -0.7805  0.4066
  582TMC3    C7 8689   3.951   1.920  15.212  0.3255 -0.2407 -0.0889
  582TMC3    C8 8690   4.275   1.568  15.221  0.3102  0.5910  0.2611
  582TMC3    O1 8691   3.836   1.955  15.218  1.0065  0.1665 -0.3469
  582TMC3    O2 8692   4.289   1.447  15.200 -0.4391 -0.3836 -0.3549
  583MPD2     C 8693   4.554   3.425  16.657 -0.5573  0.1471  0.7080
  583MPD2    C1 8694   4.513   3.540  16.606  0.1687  0.0068  0.1411
  583MPD2    C2 8695   4.458   3.628  16.699  0.0714  0.3365  0.7101
  583MPD2    C3 8696   4.449   3.596  16.833 -0.1630 -0.8950  0.4351
  583MPD2    C4 8697   4.490   3.471  16.876 -1.1082 -0.9447  0.4483
  583MPD2    C5 8698   4.550   3.391  16.790  0.1308  0.1255 -0.0100
  583MPD2     H 8699   4.425   3.724  16.660  0.1066  0.5204  1.1315
  583MPD2    H1 8700   4.477   3.435  16.977 -1.8569 -2.2429 -0.1205
  583MPD2    H2 8701   4.610   3.354  16.596 -2.0058  1.0777 -1.6794
  583MPD2    H3 8702   4.583   3.291  16.816  1.2400  0.7997  1.1087
  583MPD2     N 8703   4.396   3.691  16.923 -0.1048 -0.3463  0.1645
  583MPD2    H5 8704   4.356   3.775  16.882  0.7557  0.2942  0.6506
  583MPD2    N1 8705   4.514   3.578  16.470 -0.0842 -0.5347  0.1471
  583MPD2    H7 8706   4.478   3.668  16.440  0.5214 -1.0627 -2.1468
  584TMC3    C1 8707   4.318   3.780  17.132  0.1821 -0.4632 -0.2306
  584TMC3    C2 8708   4.292   3.905  17.076  0.1010 -0.6708 -0.5125
  584TMC3    C3 8709   4.246   4.010  17.155 -1.0376  0.2601 -0.2688
  584TMC3    C4 8710   4.265   3.767  17.252  0.4304  0.3783 -0.3990
  584TMC3    C5 8711   4.222   3.868  17.328  0.0203 -0.4139  0.6550
  584TMC3    C6 8712   4.216   3.993  17.286 -0.1337 -0.7047  0.1561
  584TMC3     C 8713   4.371   3.669  17.060  0.1631 -0.0606  0.2692
  584TMC3     O 8714   4.391   3.576  17.134  0.0009 -0.3547 -0.2448
  584TMC3     H 8715   4.336   3.924  16.979  0.7023  0.8746  0.0471
  584TMC3    H1 8716   4.280   3.676  17.309  1.8143  0.8292 -0.0489
  584TMC3    H2 8717   4.189   4.074  17.353  2.1769  0.4219 -0.2972
  584TMC3    C7 8718   4.192   3.849  17.473  0.3577  0.3182  0.1352
  584TMC3    C8 8719   4.292   4.141  17.113 -0.2819 -0.0733  0.4484
  584TMC3    O1 8720   4.271   3.775  17.525 -0.3674 -0.3494 -0.1980
  584TMC3    O2 8721   4.291   4.165  16.991  0.3578 -0.1032  0.1505
  585MPD2     C 8722   3.408   3.244   0.094  0.0311  0.1409  0.7897
  585MPD2    C1 8723   3.450   3.233  17.721 -0.0091 -0.1807  0.4965
  585MPD2    C2 8724   3.503   3.111  17.676  0.0373 -0.1290 -0.5245
  585MPD2    C3 8725   3.500   2.998  17.754  0.5409  0.8173  0.0417
  585MPD2    C4 8726   3.448   3.006   0.117  0.0629  0.4135  0.5458
  585MPD2    C5 8727   3.406   3.126   0.169  0.3346  0.3763 -0.3679
  585MPD2     H 8728   3.534   3.093  17.574  1.1884 -0.7517 -0.0668
  585MPD2    H1 8729   3.442   2.920   0.183 -0.2136  0.1634  0.1939
  585MPD2    H2 8730   3.354   3.328   0.138 -0.0243  1.6240 -2.0882
  585MPD2    H3 8731   3.370   3.125   0.271 -1.4019 -0.0753 -0.9863
  585MPD2     N 8732   3.529   2.867  17.704  0.5309  0.3643  0.2991
  585MPD2    H5 8733   3.518   2.788   0.009  2.1230 -0.6351 -0.6664
  585MPD2    N1 8734   3.451   3.357  17.658  0.0754 -0.5764 -0.9250
  585MPD2    H7 8735   3.392   3.422  17.709 -1.2007 -0.9095 -1.9570
  586TMC3    C1 8736   3.605   2.697  17.559  0.4631 -0.1822 -1.0339
  586TMC3    C2 8737   3.698   2.646  17.475  0.3161  0.4446  0.0746
  586TMC3    C3 8738   3.712   2.507  17.485 -0.4773 -0.1872  0.2847
  586TMC3    C4 8739   3.515   2.620  17.628  0.9485  0.1229 -0.0014
  586TMC3    C5 8740   3.534   2.484  17.630 -0.2869  0.6539  0.1871
  586TMC3    C6 8741   3.645   2.429  17.578 -0.1111  0.3332 -0.0948
  586TMC3     C 8742   3.601   2.840  17.583 -0.8229  0.2580 -0.2894
  586TMC3     O 8743   3.675   2.908  17.516 -0.6798  0.2996  0.2925
  586TMC3     H 8744   3.761   2.705  17.410 -0.8875  1.4028 -0.2086
  586TMC3    H1 8745   3.429   2.656  17.682  0.2849 -0.0710 -0.9267
  586TMC3    H2 8746   3.664   2.324  17.594 -0.8943  0.5854  2.5557
  586TMC3    C7 8747   3.418   2.393  17.625 -0.3622  0.3301  0.7332
  586TMC3    C8 8748   3.814   2.437  17.412  0.0859  0.1162 -0.2024
  586TMC3    O1 8749   3.436   2.293  17.697  0.2594  0.0030  0.1687
  586TMC3    O2 8750   3.864   2.338  17.466 -0.5679 -1.1087 -0.1340
  587TMC3    C1 8751   1.799   1.004  16.488 -0.0905  0.1465  0.1472
  587TMC3    C2 8752   1.764   1.132  16.440  0.1740 -0.5637  0.0455
  587TMC3    C3 8753   1.868   1.202  16.390  0.2542 -0.3079 -0.2538
  587TMC3    C4 8754   1.925   0.958  16.485 -0.3490 -0.0650  0.0479
  587TMC3    C5 8755   2.022   1.029  16.426 -0.0854  1.2928 -0.2760
  587TMC3    C6 8756   1.997   1.158  16.386 -0.0388 -0.2359 -0.3977
  587TMC3     C 8757   1.698   0.910  16.536  0.4749 -0.2176  0.2100
  587TMC3     O 8758   1.734   0.796  16.556  0.1170  0.2891  0.1935
  587TMC3     H 8759   1.663   1.163  16.417  0.5448  0.7026  0.1569
  587TMC3    H1 8760   1.955   0.872  16.544  0.9685  0.9971  0.9190
  587TMC3    H2 8761   2.079   1.220  16.351  0.1265 -0.4601 -0.4050
  587TMC3    C7 8762   2.162   0.981  16.426 -0.1921 -0.5900  0.4407
  587TMC3    C8 8763   1.843   1.329  16.325  0.9896  0.1851 -0.7342
  587TMC3    O1 8764   2.257   1.062  16.430 -0.3520 -0.4800 -0.4848
  587TMC3    O2 8765   1.923   1.367  16.236  0.4375 -0.3546 -0.5616
  588TMC3    C1 8766   3.339   3.369  10.029  0.1462 -0.2392  0.0203
  588TMC3    C2 8767   3.337   3.243   9.970 -0.2011 -0.1850 -0.2714
  588TMC3    C3 8768   3.434   3.148  10.002 -0.1082  0.5902  0.0183
  588TMC3    C4 8769   3.443   3.396  10.117 -0.4159  0.7168 -0.4896
  588TMC3    C5 8770   3.535   3.297  10.154 -0.2984  0.5083 -0.2306
  588TMC3    C6 8771   3.531   3.174  10.099 -0.0389 -0.9396 -0.1305
  588TMC3     C 8772   3.278   3.482   9.962  0.8742 -0.1471 -0.3152
  588TMC3     O 8773   3.253   3.461   9.843  0.2622 -0.5961  0.1935
  588TMC3     H 8774   3.251   3.215   9.911 -0.1157 -0.8725 -0.0734
  588TMC3    H1 8775   3.454   3.488  10.173 -0.8843  0.1337  0.5525
  588TMC3    H2 8776   3.612   3.103  10.118  1.2236 -0.2520 -2.9477
  588TMC3    C7 8777   3.642   3.336  10.239  0.0313  0.4859  0.8396
  588TMC3    C8 8778   3.419   3.010   9.950 -0.5370  0.1972  0.4008
  588TMC3    O1 8779   3.708   3.257  10.308  0.2971 -0.3116 -0.7825
  588TMC3    O2 8780   3.343   2.999   9.856 -0.0455  0.7556 -0.1896
  589TMC3    C1 8781   2.482   1.370   0.812 -0.3310 -0.2006 -0.3055
  589TMC3    C2 8782   2.497   1.379   0.945  0.4629  0.8811  0.0798
  589TMC3    C3 8783   2.592   1.297   0.998 -0.2379  0.1555 -0.6248
  589TMC3    C4 8784   2.549   1.280   0.733  0.1798  0.5389 -0.1179
  589TMC3    C5 8785   2.630   1.193   0.798  0.0533  0.3171  0.0597
  589TMC3    C6 8786   2.649   1.196   0.931 -0.1464 -0.5620  0.4426
  589TMC3     C 8787   2.408   1.481   0.749 -0.6224  0.8529  0.1699
  589TMC3     O 8788   2.412   1.479   0.627  0.6104 -0.2897 -0.1013
  589TMC3     H 8789   2.449   1.447   1.014 -0.9219  0.5504 -0.5577
  589TMC3    H1 8790   2.504   1.271   0.635 -1.7575  2.8271  0.5403
  589TMC3    H2 8791   2.717   1.125   0.977  1.8047 -0.8845 -2.8990
  589TMC3    C7 8792   2.707   1.087   0.731  0.1753 -0.1041  0.0386
  589TMC3    C8 8793   2.670   1.346   1.106  0.2407  0.3854 -0.3010
  589TMC3    O1 8794   2.774   1.009   0.799  0.0382  0.2921  0.1301
  589TMC3    O2 8795   2.621   1.429   1.179 -0.3624 -0.3439 -0.0961
  590MPD2     C 8796   2.008   3.705  16.485  0.3761  0.6179  0.3909
  590MPD2    C1 8797   1.961   3.823  16.433 -0.2003 -0.2720 -0.5365
  590MPD2    C2 8798   2.050   3.921  16.392 -0.1708 -0.4842  0.2098
  590MPD2    C3 8799   2.182   3.911  16.407  1.0120 -0.3263  0.4294
  590MPD2    C4 8800   2.227   3.791  16.460  0.9378  0.4430 -0.8885
  590MPD2    C5 8801   2.148   3.689  16.500  0.2528  0.4873  0.3077
  590MPD2     H 8802   2.014   4.008  16.338 -2.2706  0.2430  2.7617
  590MPD2    H1 8803   2.332   3.766  16.473  1.0217  0.2357 -1.8911
  590MPD2    H2 8804   1.941   3.624  16.513  0.4343  0.6740  0.6857
  590MPD2    H3 8805   2.202   3.603  16.537  0.0228 -0.9191 -2.6582
  590MPD2     N 8806   2.264   4.017  16.357  0.0780  0.2071  0.1404
  590MPD2    H5 8807   2.210   4.091  16.312  2.6640  0.6005 -2.2977
  590MPD2    N1 8808   1.819   3.837  16.408 -0.6991 -0.1246  0.8924
  590MPD2    H7 8809   1.758   3.762  16.440  0.3320  0.1502  3.5422
  591TMC3    C1 8810   2.454   4.138  16.281 -0.1983  0.3298 -0.2299
  591TMC3    C2 8811   2.585   4.134  16.239  0.0548  0.0999  0.3105
  591TMC3    C3 8812   2.639   4.247  16.184  0.1032 -0.6108 -1.2294
  591TMC3    C4 8813   2.373   4.249  16.250 -0.2394 -0.1367 -0.0882
  591TMC3    C5 8814   2.427   4.359  16.189 -0.2361  0.2183  0.5449
  591TMC3    C6 8815   2.565   4.364  16.166 -0.2224  0.5624 -0.5461
  591TMC3     C 8816   2.401   4.021  16.344 -0.0412  0.7795  0.3298
  591TMC3     O 8817   2.480   3.933  16.379 -0.0377 -0.3683  0.0896
  591TMC3     H 8818   2.652   4.052  16.257  0.2516  0.2967  0.4788
  591TMC3    H1 8819   2.268   4.257  16.278 -0.6187 -2.5659 -0.8387
  591TMC3    H2 8820   2.614   4.450  16.121 -0.8095  0.9434 -0.4639
  591TMC3    C7 8821   2.339   4.452  16.126  0.4435  0.1220 -0.2616
  591TMC3    C8 8822   2.748   4.220  16.094 -0.7608  1.0886 -0.6994
  591TMC3    O1 8823   2.256   4.395  16.055  0.0108  0.1518  0.2595
  591TMC3    O2 8824   2.816   4.122  16.118 -0.4359 -0.3872 -0.7884
  592MPD2     C 8825   2.735   0.949  11.668 -0.0446 -0.0124 -0.7601
  592MPD2    C1 8826   2.756   0.977  11.802  0.1037 -0.7260  0.7982
  592MPD2    C2 8827   2.703   0.890  11.895 -0.2313  0.6893 -1.1410
  592MPD2    C3 8828   2.614   0.793  11.854 -0.0292 -0.1798 -0.4579
  592MPD2    C4 8829   2.581   0.778  11.719 -0.2694  0.2810 -0.0642
  592MPD2    C5 8830   2.647   0.852  11.626 -0.0340  0.6158  0.5249
  592MPD2     H 8831   2.729   0.906  11.999  0.0634 -0.7082 -1.0017
  592MPD2    H1 8832   2.502   0.711  11.687  1.5967 -1.0126 -1.9892
  592MPD2    H2 8833   2.791   1.007  11.595  1.2769  2.2256  2.0342
  592MPD2    H3 8834   2.623   0.834  11.521 -0.3264  1.1542  0.4975
  592MPD2     N 8835   2.572   0.702  11.956  0.2379 -0.0710 -0.3025
  592MPD2    H5 8836   2.585   0.721  12.055 -1.0700 -0.5312 -0.0378
  592MPD2    N1 8837   2.848   1.084  11.830  0.2491  0.2067 -0.1156
  592MPD2    H7 8838   2.895   1.121  11.748  1.6805 -0.5870  0.3609
  593TMC3    C1 8839   2.974   1.234  11.957  0.6533  0.4397  0.1106
  593TMC3    C2 8840   2.990   1.322  12.059 -0.3993  0.1026 -0.7999
  593TMC3    C3 8841   3.079   1.423  12.047 -0.0465  0.3112  0.5868
  593TMC3    C4 8842   3.070   1.239  11.852  0.2200 -0.0980 -0.4258
  593TMC3    C5 8843   3.159   1.330  11.849  0.1363 -0.6043  0.2580
  593TMC3    C6 8844   3.163   1.432  11.937  0.2298  0.2207  0.2767
  593TMC3     C 8845   2.876   1.127  11.958 -0.4058  0.3962  0.6218
  593TMC3     O 8846   2.820   1.099  12.062 -0.4694  0.5031  0.1362
  593TMC3     H 8847   2.920   1.315  12.141  1.9753 -2.1732  1.0556
  593TMC3    H1 8848   3.057   1.172  11.767 -2.9512 -0.8700  0.6620
  593TMC3    H2 8849   3.250   1.496  11.935  0.1474  0.3610  1.4285
  593TMC3    C7 8850   3.273   1.325  11.756 -0.2205  0.2063  0.6548
  593TMC3    C8 8851   3.078   1.526  12.149 -1.2089  0.4276 -0.2867
  593TMC3    O1 8852   3.262   1.295  11.641 -0.2914  0.2013 -0.2933
  593TMC3    O2 8853   3.026   1.493  12.257 -0.0644  0.5561  0.0512
  594MPD2     C 8854   1.565   0.416  14.312  0.7480  0.0578 -0.0692
  594MPD2    C1 8855   1.555   0.557  14.332 -0.3056  0.4893  0.5814
  594MPD2    C2 8856   1.659   0.639  14.284 -0.3686  0.1451 -0.1249
  594MPD2    C3 8857   1.767   0.586  14.205 -0.7776 -0.1943 -0.6891
  594MPD2    C4 8858   1.763   0.448  14.183 -0.2182 -0.3950  0.1733
  594MPD2    C5 8859   1.665   0.364  14.240  0.7288 -0.3161  0.0467
  594MPD2     H 8860   1.653   0.743  14.315 -1.0004  0.0439  0.1001
  594MPD2    H1 8861   1.842   0.402  14.126 -0.1258 -1.4069  1.1265
  594MPD2    H2 8862   1.485   0.352  14.349  1.1541 -0.1236  0.4890
  594MPD2    H3 8863   1.666   0.257  14.225 -2.9770 -0.5501  1.4934
  594MPD2     N 8864   1.868   0.672  14.155  0.3815  0.2311 -0.4087
  594MPD2    H5 8865   1.869   0.768  14.187 -0.3965 -0.1755  0.8536
  594MPD2    N1 8866   1.453   0.610  14.410 -0.3279 -0.1467  0.1023
  594MPD2    H7 8867   1.408   0.547  14.476 -1.6103 -2.2332 -2.7611
  595TMC3    C1 8868   2.282   0.804  14.071  0.2342  1.0941  0.7207
  595TMC3    C2 8869   2.189   0.706  14.052 -0.3102 -1.3465  0.9482
  595TMC3    C3 8870   2.061   0.742  14.046  0.0851  1.0788 -0.2341
  595TMC3    C4 8871   2.248   0.937  14.100 -0.2680 -0.1341  0.0126
  595TMC3    C5 8872   2.110   0.966  14.089 -0.5295 -0.7234  0.5403
  595TMC3    C6 8873   2.019   0.870  14.053 -0.4942 -0.0256  0.5428
  595TMC3     C 8874   2.396   0.762  14.157 -0.6950 -0.3046  0.1216
  595TMC3     O 8875   2.488   0.838  14.193 -0.1885  0.0006  0.1583
  595TMC3     H 8876   2.223   0.613  14.008  0.6512 -1.4563  1.9322
  595TMC3    H1 8877   2.323   1.001  14.145 -0.3116 -0.2793  0.2914
  595TMC3    H2 8878   1.913   0.893  14.058 -0.0909  1.8793  0.0861
  595TMC3    C7 8879   2.055   1.079  14.165 -0.5994 -0.4000 -0.0219
  595TMC3    C8 8880   1.973   0.634  14.078 -0.2745  0.2521  0.5110
  595TMC3    O1 8881   1.936   1.095  14.161 -0.2409  0.2157 -0.1125
  595TMC3    O2 8882   2.014   0.525  14.036 -0.0636 -0.4210  0.2053
  596MPD2     C 8883   0.613   3.240  16.401 -0.0911 -0.1302  0.1972
  596MPD2    C1 8884   0.628   3.367  16.357 -0.2260 -0.1443  0.3160
  596MPD2    C2 8885   0.661   3.390  16.224 -0.1454 -0.4904  0.2117
  596MPD2    C3 8886   0.671   3.293  16.131 -0.9031 -1.1250 -0.5485
  596MPD2    C4 8887   0.652   3.168  16.175  0.8753 -0.7632  0.3554
  596MPD2    C5 8888   0.637   3.140  16.309 -0.2640 -0.2360  0.1238
  596MPD2     H 8889   0.672   3.494  16.196 -1.1531 -0.1120  1.2538
  596MPD2    H1 8890   0.653   3.089  16.100  0.9454 -0.0651 -0.3783
  596MPD2    H2 8891   0.583   3.210  16.501 -0.3709  0.8986  0.4149
  596MPD2    H3 8892   0.635   3.036  16.341  0.0317  0.0002  0.9065
  596MPD2     N 8893   0.698   3.314  15.991 -0.6572  0.5820  0.3747
  596MPD2    H5 8894   0.696   3.232  15.930 -0.5294 -1.1197  2.6534
  596MPD2    N1 8895   0.609   3.489  16.438  0.8348  0.2281  0.3806
  596MPD2    H7 8896   0.627   3.579  16.393  1.3117  0.2071  0.5243
  597TMC3    C1 8897   0.560   3.630  16.608  0.0196 -0.0180 -0.0499
  597TMC3    C2 8898   0.616   3.733  16.541 -0.4170  0.2283 -0.8418
  597TMC3    C3 8899   0.618   3.857  16.594 -0.3574 -0.7089 -0.3170
  597TMC3    C4 8900   0.495   3.649  16.724  0.0509  0.7968  0.2673
  597TMC3    C5 8901   0.476   3.779  16.766  0.6731 -0.3770  0.1079
  597TMC3    C6 8902   0.549   3.884  16.706  0.1338  0.0641  0.0998
  597TMC3     C 8903   0.574   3.492  16.567 -0.9227  0.1848 -0.5574
  597TMC3     O 8904   0.544   3.397  16.639  0.1568 -0.2491 -0.3640
  597TMC3     H 8905   0.684   3.716  16.458  0.3289 -0.0541 -0.1715
  597TMC3    H1 8906   0.454   3.560  16.771 -0.4416 -0.0095 -1.7309
  597TMC3    H2 8907   0.542   3.983  16.750 -0.0375 -1.0283  2.5512
  597TMC3    C7 8908   0.382   3.804  16.869 -0.6901 -0.4878 -0.2466
  597TMC3    C8 8909   0.677   3.962  16.512  0.7245  0.2166 -0.3159
  597TMC3    O1 8910   0.364   3.708  16.939 -0.7238 -0.4271 -0.4262
  597TMC3    O2 8911   0.688   3.941  16.394 -0.5478  0.0770 -0.0170
  598TMC3    C1 8912   3.655   0.254  15.415  0.8449  0.9642  0.8552
  598TMC3    C2 8913   3.584   0.139  15.428  0.4092  0.0707  0.4769
  598TMC3    C3 8914   3.536   0.084  15.312 -0.0749  0.5284 -0.3795
  598TMC3    C4 8915   3.671   0.317  15.298  0.0458  0.0363 -0.5840
  598TMC3    C5 8916   3.620   0.257  15.188 -0.5286 -0.2491  0.2766
  598TMC3    C6 8917   3.552   0.146  15.185  0.6673  0.5754 -0.2045
  598TMC3     C 8918   3.717   0.311  15.535 -0.2744  0.1178  0.5781
  598TMC3     O 8919   3.776   0.418  15.518  0.3731  0.5195 -0.7587
  598TMC3     H 8920   3.574   0.089  15.524 -3.3697  1.5292  0.8681
  598TMC3    H1 8921   3.729   0.407  15.281  2.1030 -0.7004  2.5079
  598TMC3    H2 8922   3.519   0.105  15.090 -1.0173  1.5109 -0.0110
  598TMC3    C7 8923   3.664   0.299  15.056  0.0752  0.0759 -0.1187
  598TMC3    C8 8924   3.474   4.695  15.328 -0.0250  0.0764 -1.0485
  598TMC3    O1 8925   3.688   0.211  14.974 -0.4071 -0.1869 -0.5147
  598TMC3    O2 8926   3.501   4.624  15.424  0.6777 -0.4436 -0.1108
  599MPD2     C 8927   3.564   2.145  15.290 -0.5715  0.0695 -0.6150
  599MPD2    C1 8928   3.619   2.205  15.401  0.0640  0.0739  0.2269
  599MPD2    C2 8929   3.537   2.274  15.494  0.2642  0.2705  0.4884
  599MPD2    C3 8930   3.399   2.272  15.469  0.3357  0.3504 -0.4877
  599MPD2    C4 8931   3.345   2.215  15.355 -0.4858  0.7373 -0.4520
  599MPD2    C5 8932   3.434   2.155  15.273  0.0142  0.0382  0.4607
  599MPD2     H 8933   3.579   2.323  15.581  0.3419 -0.0336  0.6255
  599MPD2    H1 8934   3.241   2.222  15.326 -1.0050 -1.9798  0.7419
  599MPD2    H2 8935   3.626   2.089  15.221 -0.2799 -0.3925  0.0245
  599MPD2    H3 8936   3.395   2.088  15.196  0.0339 -0.0174  0.4995
  599MPD2     N 8937   3.300   2.333  15.559  0.6918  0.2585 -0.0715
  599MPD2    H5 8938   3.203   2.325  15.530  0.7852  1.2326 -0.6813
  599MPD2    N1 8939   3.757   2.181  15.428 -0.4387 -0.5352 -0.4256
  599MPD2    H7 8940   3.811   2.119  15.368 -0.9542 -1.3769 -0.0229
  600TMC3    C1 8941   3.221   2.440  15.740 -0.9459  0.6980 -0.7115
  600TMC3    C2 8942   3.144   2.334  15.778  0.1201 -0.0420  0.4195
  600TMC3    C3 8943   3.061   2.354  15.884  0.1770  1.0009 -0.0550
  600TMC3    C4 8944   3.234   2.556  15.812  0.1854 -0.1469  0.0558
  600TMC3    C5 8945   3.154   2.566  15.919 -0.1444 -0.0050 -0.2045
  600TMC3    C6 8946   3.072   2.463  15.964 -0.3362  0.0730 -0.3870
  600TMC3     C 8947   3.335   2.420  15.662 -1.0389  0.1117  0.2421
  600TMC3     O 8948   3.437   2.472  15.704 -0.2131 -0.2982  0.3443
  600TMC3     H 8949   3.151   2.239  15.726 -1.9856  0.3675 -0.6269
  600TMC3    H1 8950   3.297   2.633  15.768  0.2000 -0.9288 -1.2870
  600TMC3    H2 8951   3.011   2.462  16.054 -0.6729  1.0051 -0.6087
  600TMC3    C7 8952   3.182   2.672  16.014 -0.4146 -1.1622 -0.0217
  600TMC3    C8 8953   3.034   2.224  15.956 -0.3294 -0.1152  0.1033
  600TMC3    O1 8954   3.095   2.681  16.100 -0.0570 -0.2717  0.4588
  600TMC3    O2 8955   3.121   2.168  16.022 -0.1469 -0.1517 -0.1263
  601MPD2     C 8956   4.623   0.070  17.633 -0.1636  0.6754 -0.4328
  601MPD2    C1 8957   0.008   0.120  17.642 -1.2344  0.6865 -0.5862
  601MPD2    C2 8958   0.081   0.102   0.001 -0.0604  0.5015 -0.0140
  601MPD2    C3 8959   0.019   0.058   0.117  0.2087  0.2319 -0.1478
  601MPD2    C4 8960   4.626   0.046   0.114 -0.3212  0.2215 -0.4053
  601MPD2    C5 8961   4.560   0.041  17.750  0.1952  0.4339  0.0447
  601MPD2     H 8962   0.187   0.125  17.756 -0.4797  2.7080  1.9535
  601MPD2    H1 8963   4.568   0.040   0.205 -1.7809 -1.7028 -1.4602
  601MPD2    H2 8964   4.559   0.059  17.547  0.7770  1.0323 -1.1761
  601MPD2    H3 8965   4.454   0.023  17.739  0.3629 -0.9952  0.7099
  601MPD2     N 8966   0.089   0.039   0.242  0.0024 -0.3754  0.3672
  601MPD2    H5 8967   0.030   0.031   0.324 -1.6402  0.8483 -0.6855
  601MPD2    N1 8968   0.071   0.180  17.525  0.3231 -0.4052  0.1161
  601MPD2    H7 8969   0.156   0.231  17.548 -0.3301 -0.8579  3.6021
  602TMC3    C1 8970   0.095   0.315  17.325  0.5248  0.4193 -0.2215
  602TMC3    C2 8971   0.231   0.317  17.333 -0.1826  0.1668  0.5791
  602TMC3    C3 8972   0.290   0.434  17.285 -0.3091 -0.2206 -0.1815
  602TMC3    C4 8973   0.023   0.406  17.265  0.6290  0.2927 -0.2124
  602TMC3    C5 8974   0.088   0.515  17.218 -0.2019  1.1730  0.0705
  602TMC3    C6 8975   0.221   0.531  17.228  0.5508  0.9992  1.0310
  602TMC3     C 8976   0.010   0.216  17.408  0.1176  0.3947 -0.3900
  602TMC3     O 8977   4.634   0.201  17.371 -0.3048  0.1177  0.3252
  602TMC3     H 8978   0.291   0.233  17.366 -1.0817 -1.0519 -0.8706
  602TMC3    H1 8979   4.654   0.409  17.263  0.6986  2.6034  0.0085
  602TMC3    H2 8980   0.271   0.618  17.187 -1.1691  0.1720 -2.7501
  602TMC3    C7 8981   0.019   0.628  17.157  0.2081  0.4874 -0.0118
  602TMC3    C8 8982   0.438   0.453  17.292 -0.2987 -0.1091 -0.4250
  602TMC3    O1 8983   4.655   0.618  17.095  0.1503  0.4863 -0.5202
  602TMC3    O2 8984   0.510   0.353  17.268 -0.1459  0.8533  0.7446
  603TMC3    C1 8985   3.973   0.443  11.104 -0.1623 -0.8348 -1.1056
  603TMC3    C2 8986   4.018   0.438  11.232 -1.0020 -0.0405 -0.2879
  603TMC3    C3 8987   4.025   0.554  11.304 -0.9507 -0.5612 -0.3259
  603TMC3    C4 8988   3.935   0.562  11.047  0.7901 -0.3751 -0.2194
  603TMC3    C5 8989   3.944   0.682  11.124  0.6491 -0.3529 -0.3360
  603TMC3    C6 8990   3.992   0.677  11.254 -0.7782  0.5281 -0.3071
  603TMC3     C 8991   3.938   0.322  11.032  0.0567  0.3814 -0.0857
  603TMC3     O 8992   3.866   0.333  10.935  0.3566  0.1013  0.3271
  603TMC3     H 8993   4.057   0.344  11.267  0.4957  0.0309 -1.7750
  603TMC3    H1 8994   3.893   0.565  10.947 -2.6225 -0.9513  1.1892
  603TMC3    H2 8995   4.026   0.773  11.291  0.4549  0.1908 -0.5356
  603TMC3    C7 8996   3.940   0.809  11.064 -0.6357  0.2093 -0.3908
  603TMC3    C8 8997   4.059   0.538  11.441  0.4087  0.7907  0.1084
  603TMC3    O1 8998   4.008   0.897  11.109 -0.3313 -0.6050  0.0269
  603TMC3    O2 8999   4.111   0.432  11.469  0.2185 -0.3900 -0.0420
  604MPD2     C 9000   0.195   0.209  16.222 -0.1374  0.2346  0.8849
  604MPD2    C1 9001   0.065   0.200  16.178  0.1049  0.1601 -0.9448
  604MPD2    C2 9002   0.040   0.195  16.037 -0.2859 -0.0413  0.0967
  604MPD2    C3 9003   0.145   0.199  15.953 -0.1278 -0.8889 -0.2386
  604MPD2    C4 9004   0.269   0.226  16.004  1.0754  0.0233 -0.0231
  604MPD2    C5 9005   0.298   0.228  16.137  0.1484  0.9102 -0.0253
  604MPD2     H 9006   4.685   0.171  15.992  1.8926 -1.8283 -3.5956
  604MPD2    H1 9007   0.351   0.258  15.941  0.8122  0.0030 -0.3779
  604MPD2    H2 9008   0.217   0.218  16.328 -1.3846  0.7979  1.0934
  604MPD2    H3 9009   0.392   0.259  16.183  1.5447 -2.0240 -0.8678
  604MPD2     N 9010   0.118   0.189  15.812  0.4195  0.0631 -0.3887
  604MPD2    H5 9011   0.025   0.191  15.771 -0.4260 -1.8871  1.4020
  604MPD2    N1 9012   4.710   0.187  16.283  0.1010  0.0262 -0.7262
  604MPD2    H7 9013   0.007   0.145  16.367 -0.6984  2.6654  0.9436
  605TMC3    C1 9014   4.507   0.168  16.403  0.0240 -0.0326 -0.1810
  605TMC3    C2 9015   4.575   0.144  16.519 -0.7037  0.5630  1.2831
  605TMC3    C3 9016   4.503   0.137  16.635 -0.7323  1.1686  0.0374
  605TMC3    C4 9017   4.370   0.150  16.397 -0.0375 -0.3181  0.6293
  605TMC3    C5 9018   4.302   0.115  16.505 -1.0010 -0.1754  1.0279
  605TMC3    C6 9019   4.370   0.116  16.625  0.0988  0.3640 -0.3159
  605TMC3     C 9020   4.572   0.206  16.274 -0.0561 -0.1074  0.2986
  605TMC3     O 9021   4.499   0.225  16.176 -0.1397 -0.1604  0.5402
  605TMC3     H 9022   4.683   0.144  16.529 -1.0598 -2.3193  4.7899
  605TMC3    H1 9023   4.309   0.177  16.311  1.0478 -1.1004 -0.3899
  605TMC3    H2 9024   4.311   0.082  16.709  2.5567  0.8413  1.5943
  605TMC3    C7 9025   4.187   0.198  16.506  0.1244  0.4088 -0.3375
  605TMC3    C8 9026   4.581   0.082  16.741 -0.3946  0.4012  0.8272
  605TMC3    O1 9027   4.205   0.316  16.520 -0.4329 -0.3361 -0.0064
  605TMC3    O2 9028   4.552   4.710  16.790 -0.6660  0.2482 -0.0658
  606TMC3    C1 9029   1.096   3.096  16.963  0.4011 -0.4382 -0.2419
  606TMC3    C2 9030   1.229   3.051  16.953 -0.8592  0.3206 -0.0473
  606TMC3    C3 9031   1.249   2.927  16.903  0.0052  0.2437  0.7431
  606TMC3    C4 9032   0.991   3.022  16.921  0.1897 -0.0330  0.1181
  606TMC3    C5 9033   1.020   2.896  16.880  1.2271 -0.2990  0.0543
  606TMC3    C6 9034   1.147   2.844  16.859 -0.1091  0.4410  1.1034
  606TMC3     C 9035   1.064   3.193  17.068 -0.5247  0.3327  0.0827
  606TMC3     O 9036   0.944   3.206  17.083 -0.3656 -0.3907 -0.4501
  606TMC3     H 9037   1.314   3.114  16.973 -1.5261  0.3544  2.6820
  606TMC3    H1 9038   0.888   3.055  16.921  0.1645 -0.1099 -0.6998
  606TMC3    H2 9039   1.171   2.740  16.842 -3.4977 -0.4903  1.9604
  606TMC3    C7 9040   0.913   2.797  16.864 -0.0103 -0.1757  0.0669
  606TMC3    C8 9041   1.383   2.873  16.934  0.3491  0.0576 -0.2238
  606TMC3    O1 9042   0.930   2.705  16.786 -0.2031 -0.1367 -0.0567
  606TMC3    O2 9043   1.442   2.920  17.027 -0.2891  0.1522 -0.2862
  607MPD2     C 9044   2.987   0.772  12.022 -0.0712 -0.2545 -0.0571
  607MPD2    C1 9045   3.088   0.812  12.105  0.3567  0.8675  0.1270
  607MPD2    C2 9046   3.095   0.751  12.228 -0.0512  0.6230 -0.1207
  607MPD2    C3 9047   3.004   0.655  12.265 -0.0488  0.0979  0.3875
  607MPD2    C4 9048   2.913   0.606  12.179 -0.2036 -0.1632  0.7177
  607MPD2    C5 9049   2.901   0.674  12.065  0.7041 -0.0066 -0.4217
  607MPD2     H 9050   3.173   0.757  12.303  0.7763 -0.7232 -0.8726
  607MPD2    H1 9051   2.853   0.519  12.203 -0.1010 -0.8671 -1.5409
  607MPD2    H2 9052   2.969   0.819  11.926 -1.6601 -2.8046 -1.0286
  607MPD2    H3 9053   2.824   0.642  11.996  1.3517 -1.2629 -0.5680
  607MPD2     N 9054   3.026   0.608  12.395  0.1151  0.3779 -0.1700
  607MPD2    H5 9055   3.100   0.651  12.449 -0.7648  0.3519  1.0520
  607MPD2    N1 9056   3.192   0.903  12.068 -0.2787  0.1563  0.0840
  607MPD2    H7 9057   3.264   0.915  12.138 -0.5204  0.6255  0.2516
  608TMC3    C1 9058   3.347   1.022  11.935  0.0883  0.2985 -0.9486
  608TMC3    C2 9059   3.425   1.023  12.047  0.2210 -0.5198  0.0137
  608TMC3    C3 9060   3.560   1.024  12.038  0.5622  0.4056 -0.2896
  608TMC3    C4 9061   3.397   1.022  11.811 -0.3211 -0.5704  0.1488
  608TMC3    C5 9062   3.536   1.026  11.802  0.5435  0.4809 -0.5963
  608TMC3    C6 9063   3.613   1.008  11.914  0.4013  0.5798  0.0639
  608TMC3     C 9064   3.217   0.952  11.945 -0.2457 -1.0015 -0.0785
  608TMC3     O 9065   3.152   0.953  11.846 -0.0797 -0.0882  0.1516
  608TMC3     H 9066   3.380   1.041  12.145 -1.0248 -0.5161 -0.5604
  608TMC3    H1 9067   3.333   1.002  11.725  1.3112  0.0218 -1.2018
  608TMC3    H2 9068   3.720   0.991  11.906  0.0903 -1.4978  0.2272
  608TMC3    C7 9069   3.605   1.032  11.671  0.2335  0.1716  0.1182
  608TMC3    C8 9070   3.632   0.951  12.143  0.0529 -0.1123 -0.4691
  608TMC3    O1 9071   3.531   1.005  11.574 -0.1219  0.4563  0.2546
  608TMC3    O2 9072   3.748   0.932  12.113 -0.0450  0.1773 -0.4041
  609TMC3    C1 9073   1.623   0.057   9.553  0.2014 -0.5113  0.2840
  609TMC3    C2 9074   1.494   0.038   9.506 -0.4620  0.4406  0.3323
  609TMC3    C3 9075   1.477   4.684   9.412 -0.8654 -0.9503  0.0194
  609TMC3    C4 9076   1.731   4.724   9.511  0.3230 -0.1574  0.0177
  609TMC3    C5 9077   1.702   4.627   9.415  0.5510  0.8245 -0.5075
  609TMC3    C6 9078   1.574   4.602   9.366 -1.0368  0.2007  0.0662
  609TMC3     C 9079   1.636   0.118   9.680  0.2474 -0.8952 -1.3289
  609TMC3     O 9080   1.746   0.148   9.725  0.7552  0.2302 -0.1127
  609TMC3     H 9081   1.423   0.111   9.543  0.5306  0.6855  1.8114
  609TMC3    H1 9082   1.830   0.015   9.543 -1.2035  2.0893  2.5327
  609TMC3    H2 9083   1.562   4.549   9.272  2.0312  0.9307 -0.7544
  609TMC3    C7 9084   1.821   4.547   9.371  0.8467  0.7582  0.8772
  609TMC3    C8 9085   1.338   4.676   9.371 -0.1975 -0.1938  0.3329
  609TMC3    O1 9086   1.932   4.585   9.410  0.2316  0.2381 -0.9297
  609TMC3    O2 9087   1.277   0.040   9.395  0.1156 -0.3396 -0.1620
  610TMC3    C1 9088   3.860   0.773  12.730 -0.3866 -0.0663 -0.5117
  610TMC3    C2 9089   3.918   0.853  12.634  0.7401 -0.0084 -0.3219
  610TMC3    C3 9090   4.032   0.805  12.569  0.1235  0.3146  0.1846
  610TMC3    C4 9091   3.905   0.654  12.768 -0.3455  0.3767 -1.2872
  610TMC3    C5 9092   4.022   0.618  12.708 -0.8014  0.5709 -0.2765
  610TMC3    C6 9093   4.085   0.691  12.614  0.4349 -0.5292 -0.0805
  610TMC3     C 9094   3.750   0.825  12.815  0.3345 -0.5022 -0.7780
  610TMC3     O 9095   3.750   0.784  12.931 -0.7523  0.3184  0.0825
  610TMC3     H 9096   3.881   0.953  12.616  0.1047  0.1831  2.1268
  610TMC3    H1 9097   3.872   0.615  12.864  2.8546  2.0955  0.5272
  610TMC3    H2 9098   4.180   0.648  12.584  1.1019  0.6930  0.2906
  610TMC3    C7 9099   4.084   0.488  12.729  0.8455 -0.5480 -0.1809
  610TMC3    C8 9100   4.098   0.884  12.474 -0.1778 -0.5762  0.1970
  610TMC3    O1 9101   4.207   0.482  12.719 -0.1040  0.4419 -0.5261
  610TMC3    O2 9102   4.039   0.981  12.433 -0.4223  0.2537 -0.1699
  611MPD2     C 9103   2.765   0.587  10.782 -1.0538  0.5078  0.2629
  611MPD2    C1 9104   2.762   0.582  10.646 -0.3506 -0.2419 -0.1379
  611MPD2    C2 9105   2.888   0.608  10.582 -0.6210  0.3645 -0.8368
  611MPD2    C3 9106   2.996   0.653  10.653  0.3766  0.5377  0.1438
  611MPD2    C4 9107   2.988   0.660  10.789  0.3721 -0.2302 -0.0202
  611MPD2    C5 9108   2.875   0.626  10.852  0.3056  0.0254 -0.5312
  611MPD2     H 9109   2.884   0.622  10.475 -0.6999  1.0903 -0.7352
  611MPD2    H1 9110   3.072   0.690  10.851 -0.0719 -1.3121  1.0950
  611MPD2    H2 9111   2.673   0.585  10.838 -0.4458  0.7858  1.2587
  611MPD2    H3 9112   2.882   0.631  10.960  1.3456 -3.2405 -0.4676
  611MPD2     N 9113   3.109   0.703  10.592  0.0525  0.2325 -1.1820
  611MPD2    H5 9114   3.177   0.748  10.651 -0.1651 -2.3557  1.0471
  611MPD2    N1 9115   2.627   0.561  10.589  0.2666 -0.4633  0.0003
  611MPD2    H7 9116   2.559   0.520  10.653 -0.4776  1.7904  0.6390
  612TMC3    C1 9117   3.224   0.830  10.431  0.0027 -0.7311 -0.2065
  612TMC3    C2 9118   3.300   0.887  10.528 -0.0472 -0.0881  0.0041
  612TMC3    C3 9119   3.348   1.015  10.500 -0.1327  0.1972 -0.5832
  612TMC3    C4 9120   3.194   0.886  10.308 -0.1800 -0.7892  0.1517
  612TMC3    C5 9121   3.252   1.012  10.294 -0.3532 -0.0441  0.4981
  612TMC3    C6 9122   3.317   1.083  10.389 -0.4180 -0.3657 -0.3471
  612TMC3     C 9123   3.128   0.720  10.458  0.1779 -0.5200 -0.2889
  612TMC3     O 9124   3.075   0.678  10.357 -0.4900 -0.3917 -0.1779
  612TMC3     H 9125   3.319   0.821  10.612 -1.4771 -1.0293 -0.4087
  612TMC3    H1 9126   3.183   0.822  10.221 -0.4451 -1.3139  0.5700
  612TMC3    H2 9127   3.346   1.183  10.362 -1.2152  0.6108  2.4106
  612TMC3    C7 9128   3.228   1.090  10.173  0.1238  0.4845  0.4951
  612TMC3    C8 9129   3.483   1.049  10.546  0.5321  0.2343  0.5619
  612TMC3    O1 9130   3.307   1.182  10.145 -0.3493 -1.0462 -0.1181
  612TMC3    O2 9131   3.546   1.143  10.489 -0.1189  0.6679 -0.7167
  613MPD2     C 9132   1.897   3.059  16.144 -0.2955 -0.0207  0.1436
  613MPD2    C1 9133   1.835   3.170  16.096  0.7910  0.1604  0.3851
  613MPD2    C2 9134   1.771   3.160  15.980 -0.0798 -0.0748 -1.3787
  613MPD2    C3 9135   1.758   3.039  15.917 -0.2542  0.2131 -0.7065
  613MPD2    C4 9136   1.819   2.926  15.968 -0.6894 -0.5516 -0.0050
  613MPD2    C5 9137   1.880   2.936  16.083 -0.1202  0.3539  0.3046
  613MPD2     H 9138   1.734   3.250  15.931 -2.0231  0.0817  0.3937
  613MPD2    H1 9139   1.815   2.827  15.923  0.1406 -0.9073  0.7123
  613MPD2    H2 9140   1.961   3.057  16.231 -0.3263 -1.6393  0.1433
  613MPD2    H3 9141   1.933   2.847  16.115 -1.0107 -0.7091 -1.1158
  613MPD2     N 9142   1.699   3.023  15.787  0.4085  0.4084  0.1890
  613MPD2    H5 9143   1.708   2.930  15.747 -1.5780  1.6513 -3.1338
  613MPD2    N1 9144   1.863   3.300  16.154  0.2839 -0.4211 -0.3212
  613MPD2    H7 9145   1.941   3.296  16.218 -0.1388  1.2709  0.3018
  614TMC3    C1 9146   1.871   3.534  16.149 -0.3224 -0.7381 -0.7511
  614TMC3    C2 9147   2.002   3.502  16.114 -0.2191 -0.2531  0.1364
  614TMC3    C3 9148   2.066   3.566  16.011 -0.6145  0.2923 -0.7856
  614TMC3    C4 9149   1.809   3.638  16.090 -0.8815 -0.2653 -0.4253
  614TMC3    C5 9150   1.865   3.698  15.977 -0.2036  0.3086 -0.5933
  614TMC3    C6 9151   1.996   3.663  15.942 -0.1819 -0.1839 -0.1243
  614TMC3     C 9152   1.792   3.417  16.124  0.5676  0.0986 -0.6344
  614TMC3     O 9153   1.683   3.429  16.070  0.1932  0.9026  0.6529
  614TMC3     H 9154   2.045   3.428  16.180 -1.5148 -1.6561 -0.5757
  614TMC3    H1 9155   1.707   3.658  16.121 -0.5850  1.1600 -0.3359
  614TMC3    H2 9156   2.039   3.711  15.854  3.0726 -0.5715  1.2439
  614TMC3    C7 9157   1.781   3.795  15.906  0.2382  0.2746  0.9314
  614TMC3    C8 9158   2.138   3.484  15.919  0.1454 -0.0473 -0.7548
  614TMC3    O1 9159   1.714   3.867  15.972  0.0803 -0.8385 -0.0057
  614TMC3    O2 9160   2.162   3.524  15.806  0.2261  0.3704  0.1067
  615MPD2     C 9161   1.419   0.204  16.398  0.5393  0.1860  0.3929
  615MPD2    C1 9162   1.501   0.264  16.305  0.5330 -0.2552 -0.7317
  615MPD2    C2 9163   1.475   0.392  16.263  0.1855  0.1709  0.5314
  615MPD2    C3 9164   1.368   0.463  16.305  0.3431  0.1505 -0.4494
  615MPD2    C4 9165   1.278   0.400  16.392 -1.0378  0.0065  0.2524
  615MPD2    C5 9166   1.306   0.272  16.436 -0.3150 -0.7068 -0.5644
  615MPD2     H 9167   1.548   0.435  16.196 -0.2532  1.2656  0.7604
  615MPD2    H1 9168   1.192   0.448  16.438 -0.0437 -0.2307  2.3363
  615MPD2    H2 9169   1.438   0.111  16.449  1.9982 -0.1648 -0.8126
  615MPD2    H3 9170   1.234   0.231  16.507 -0.4618  0.1845 -0.1981
  615MPD2     N 9171   1.334   0.595  16.262  0.2041 -0.5400 -0.1906
  615MPD2    H5 9172   1.245   0.640  16.281 -0.0326 -0.5750 -1.1885
  615MPD2    N1 9173   1.614   0.209  16.257  0.1245 -0.5262  0.1338
  615MPD2    H7 9174   1.670   0.270  16.198 -1.4560  0.0065 -0.8457
  616TMC3    C1 9175   1.815   0.090  16.274  0.5833  0.7346  0.3768
  616TMC3    C2 9176   1.873   0.213  16.243  0.4241  0.1820 -0.2444
  616TMC3    C3 9177   2.009   0.209  16.219  0.7635  0.1074  1.0005
  616TMC3    C4 9178   1.880   4.714  16.285 -0.1458  0.9169 -0.7568
  616TMC3    C5 9179   2.015   4.724  16.276  0.8969 -0.3558 -0.4634
  616TMC3    C6 9180   2.084   0.095  16.233 -0.0075 -0.0341 -0.2157
  616TMC3     C 9181   1.670   0.095  16.302  0.1411 -0.5783 -0.3118
  616TMC3     O 9182   1.618   4.735  16.345 -0.1963  0.3945  0.2912
  616TMC3     H 9183   1.819   0.307  16.251 -0.1945 -0.1160 -0.9949
  616TMC3    H1 9184   1.830   4.628  16.328  1.5696 -0.4684 -1.5528
  616TMC3    H2 9185   2.190   0.086  16.211 -0.6662 -3.4753 -1.8917
  616TMC3    C7 9186   2.091   4.634  16.362 -0.8624  0.4448 -0.7759
  616TMC3    C8 9187   2.056   0.340  16.176 -0.4069  0.4790  0.3745
  616TMC3    O1 9188   2.182   4.692  16.418  0.3757  0.6432 -0.2553
  616TMC3    O2 9189   1.977   0.430  16.150  0.0076 -0.5091  0.2558
  617MPD2     C 9190   3.965   3.039  12.703 -0.4144 -0.1387 -0.5723
  617MPD2    C1 9191   3.994   3.054  12.838 -0.0615 -0.8611  0.7566
  617MPD2    C2 9192   3.925   2.967  12.925 -0.7128 -0.2614  0.0780
  617MPD2    C3 9193   3.842   2.864  12.876 -0.3997  0.1812  0.2048
  617MPD2    C4 9194   3.828   2.855  12.744  0.0819 -1.0573 -0.8233
  617MPD2    C5 9195   3.883   2.942  12.660  0.2204  0.3978  0.2562
  617MPD2     H 9196   3.945   2.984  13.030  0.7046  0.3311 -0.2913
  617MPD2    H1 9197   3.767   2.776  12.703 -0.3892 -1.4380  0.6038
  617MPD2    H2 9198   4.012   3.098  12.626 -0.0376  0.9925  0.5138
  617MPD2    H3 9199   3.864   2.937  12.554  1.6950  1.3422 -0.0443
  617MPD2     N 9200   3.760   2.770  12.943 -0.1000  0.2339 -0.1515
  617MPD2    H5 9201   3.708   2.705  12.884  0.9679 -0.2300 -0.5800
  617MPD2    N1 9202   4.093   3.150  12.867 -0.0265  0.4858 -0.9628
  617MPD2    H7 9203   4.136   3.190  12.784 -0.6095  1.5193 -0.7736
  618TMC3    C1 9204   4.283   3.224  12.987 -0.2274  0.0671  0.2652
  618TMC3    C2 9205   4.340   3.147  13.085  0.2682 -0.2492  0.2886
  618TMC3    C3 9206   4.434   3.049  13.044 -0.1010 -0.3646 -0.3337
  618TMC3    C4 9207   4.331   3.218  12.859 -0.1149 -0.2781 -0.1718
  618TMC3    C5 9208   4.425   3.128  12.821 -0.3089  0.3000 -1.4343
  618TMC3    C6 9209   4.482   3.043  12.913  0.4007 -0.3900 -0.2910
  618TMC3     C 9210   4.143   3.187  12.991  0.5349 -0.6125  0.1815
  618TMC3     O 9211   4.092   3.187  13.098  0.3140 -0.8025 -0.7577
  618TMC3     H 9212   4.300   3.148  13.185  0.1983  0.7095  0.2531
  618TMC3    H1 9213   4.296   3.284  12.781 -0.9451 -1.7523 -1.0502
  618TMC3    H2 9214   4.537   2.957  12.875  0.0370 -0.5118 -0.5479
  618TMC3    C7 9215   4.396   3.071  12.693 -0.5754  0.8450 -1.0033
  618TMC3    C8 9216   4.409   2.917  13.090  0.5529  0.3611  0.8473
  618TMC3    O1 9217   4.294   3.105  12.635 -0.2283  0.2408 -0.5006
  618TMC3    O2 9218   4.290   2.886  13.105  0.0359 -0.1214 -0.6772
  619MPD2     C 9219   0.897   4.264  13.432  0.6158  0.2122  0.1022
  619MPD2    C1 9220   0.804   4.358  13.403 -0.6680  0.4324 -0.0100
  619MPD2    C2 9221   0.684   4.347  13.469  0.9150  0.2795  0.6840
  619MPD2    C3 9222   0.656   4.255  13.563  0.1917 -0.0105  0.2242
  619MPD2    C4 9223   0.749   4.155  13.582 -0.3396 -0.4917 -0.6017
  619MPD2    C5 9224   0.870   4.167  13.528 -0.4107  0.4893 -1.0123
  619MPD2     H 9225   0.613   4.426  13.450 -0.3331 -1.8769 -3.5090
  619MPD2    H1 9226   0.736   4.062  13.636 -0.5561  0.4996  1.0675
  619MPD2    H2 9227   0.990   4.255  13.377 -0.9057  0.5089 -2.5252
  619MPD2    H3 9228   0.937   4.084  13.547 -2.0877 -1.2996 -2.7681
  619MPD2     N 9229   0.528   4.235  13.621  0.1651 -0.6592 -0.3739
  619MPD2    H5 9230   0.520   4.159  13.688  3.2942 -1.4642 -0.8985
  619MPD2    N1 9231   0.818   4.467  13.314 -0.1731 -0.6518 -0.8972
  619MPD2    H7 9232   0.742   4.531  13.294 -1.1389 -1.1884  1.0153
  620TMC3    C1 9233   0.935   4.604  13.164  0.1229 -0.0283  0.1733
  620TMC3    C2 9234   0.807   4.637  13.121 -0.3965 -0.2796  0.2061
  620TMC3    C3 9235   0.778   0.028  13.082  0.9255  0.1784  0.7206
  620TMC3    C4 9236   1.022   4.706  13.186  0.1089 -0.3502  0.3724
  620TMC3    C5 9237   0.988   0.092  13.156  0.7375  0.5484 -0.7718
  620TMC3    C6 9238   0.875   0.125  13.092 -0.0088 -0.2077 -0.0598
  620TMC3     C 9239   0.935   4.498  13.261 -0.4471  0.3645 -0.3218
  620TMC3     O 9240   1.048   4.471  13.303  0.1135 -0.4087 -1.1504
  620TMC3     H 9241   0.734   4.561  13.094  0.4846 -1.3628  0.8474
  620TMC3    H1 9242   1.116   4.678  13.231  1.0639  2.7127  0.2252
  620TMC3    H2 9243   0.860   0.228  13.059  1.5107 -0.6473 -2.0855
  620TMC3    C7 9244   0.989   0.169  13.278  0.4294  0.1182  0.1183
  620TMC3    C8 9245   0.662   0.062  13.164  0.2434  0.4050  0.1721
  620TMC3    O1 9246   0.937   0.281  13.276 -0.2370  0.2948 -0.0992
  620TMC3    O2 9247   0.642   4.723  13.253  0.1607  0.3636  0.0114
  621MPD2     C 9248   1.057   3.727   9.685 -0.4022  0.0842  0.0281
  621MPD2    C1 9249   1.079   3.679   9.810  0.5315 -0.5855 -0.4927
  621MPD2    C2 9250   1.159   3.748   9.899  0.4487  0.7248 -0.0629
  621MPD2    C3 9251   1.205   3.876   9.863  0.2844  0.8305  0.4295
  621MPD2    C4 9252   1.197   3.917   9.733 -0.0888  0.3803 -0.6844
  621MPD2    C5 9253   1.114   3.852   9.646  0.5489  0.0778  0.2507
  621MPD2     H 9254   1.168   3.715  10.002 -0.2763  0.8134  0.0340
  621MPD2    H1 9255   1.258   3.997   9.691  0.4812 -0.0934 -0.7632
  621MPD2    H2 9256   0.988   3.682   9.614 -1.2696  0.5150  0.6039
  621MPD2    H3 9257   1.112   3.886   9.543 -0.3460  0.6009  0.4455
  621MPD2     N 9258   1.284   3.951   9.956 -0.3696 -0.3358  0.7100
  621MPD2    H5 9259   1.300   3.920  10.052  0.7851  1.2079  1.0090
  621MPD2    N1 9260   1.028   3.552   9.846  0.0695  0.2803 -0.3947
  621MPD2    H7 9261   1.028   3.528   9.945  1.8848 -1.5415 -0.8217
  622TMC3    C1 9262   0.956   3.328   9.819  0.3594 -0.1181  0.1687
  622TMC3    C2 9263   0.874   3.348   9.928  0.0521  0.2244  0.1766
  622TMC3    C3 9264   0.799   3.234   9.970  0.2228 -0.5217  0.0396
  622TMC3    C4 9265   0.958   3.212   9.748  0.0114 -0.0306  0.5272
  622TMC3    C5 9266   0.872   3.114   9.783  0.8499  0.3014  0.6193
  622TMC3    C6 9267   0.812   3.111   9.907  0.1110 -0.0792 -1.0214
  622TMC3     C 9268   1.007   3.445   9.753 -0.2099 -0.3300  0.5371
  622TMC3     O 9269   1.014   3.437   9.634  0.4606 -0.0830  0.4355
  622TMC3     H 9270   0.867   3.443   9.979  0.7967  0.4363 -0.1150
  622TMC3    H1 9271   1.025   3.209   9.663 -2.0883 -0.2212 -1.1289
  622TMC3    H2 9272   0.760   3.024   9.947  2.3104  0.0446  2.0894
  622TMC3    C7 9273   0.861   2.990   9.707  0.1145  0.9011 -0.3880
  622TMC3    C8 9274   0.671   3.255  10.040  0.3959  0.2829 -0.1086
  622TMC3    O1 9275   0.816   2.888   9.759  0.1114 -0.4186 -0.2068
  622TMC3    O2 9276   0.597   3.158  10.040 -0.1647 -0.0121 -0.2310
  623MPD2     C 9277   0.552   0.704  16.157 -0.0365  0.4785  0.2929
  623MPD2    C1 9278   0.466   0.607  16.210  0.4750 -0.0507 -0.5089
  623MPD2    C2 9279   0.506   0.549  16.327 -0.6447  0.0588  0.2727
  623MPD2    C3 9280   0.617   0.592  16.399  0.1005 -1.1705 -0.7555
  623MPD2    C4 9281   0.692   0.696  16.354  0.2199 -0.3586  0.3105
  623MPD2    C5 9282   0.663   0.752  16.234 -0.1209  0.1955 -0.6587
  623MPD2     H 9283   0.434   0.488  16.381 -0.2272 -0.8388 -0.1928
  623MPD2    H1 9284   0.772   0.740  16.413  1.4743 -0.1467 -1.5382
  623MPD2    H2 9285   0.524   0.749  16.062  0.3866  2.0969  0.9334
  623MPD2    H3 9286   0.710   0.843  16.201 -0.6677  1.2106  1.3744
  623MPD2     N 9287   0.626   0.546  16.530  0.0860  0.4068  0.1979
  623MPD2    H5 9288   0.540   0.513  16.572  0.3486 -1.4992 -0.7475
  623MPD2    N1 9289   0.351   0.567  16.148  0.0559  0.6790 -0.1885
  623MPD2    H7 9290   0.295   0.500  16.198 -0.6847  0.9314 -0.6846
  624TMC3    C1 9291   0.761   0.360  16.908  0.2791  0.1890 -0.5044
  624TMC3    C2 9292   0.634   0.351  16.947 -0.7425 -1.1346 -0.0440
  624TMC3    C3 9293   0.546   0.440  16.890  0.2225  0.0958  0.6345
  624TMC3    C4 9294   0.803   0.436  16.803  0.1950 -0.3177  0.3858
  624TMC3    C5 9295   0.710   0.514  16.741 -0.4470 -0.7422  0.6307
  624TMC3    C6 9296   0.579   0.532  16.786 -0.0361 -0.0563  0.0055
  624TMC3     C 9297   0.859   0.296  17.000  0.2447 -0.4094  0.1322
  624TMC3     O 9298   0.823   0.213  17.083  0.1301  0.1900 -0.5299
  624TMC3     H 9299   0.610   0.285  17.029 -0.3763 -1.4036 -0.1546
  624TMC3    H1 9300   0.896   0.409  16.754  0.1616  0.3709 -0.0691
  624TMC3    H2 9301   0.506   0.600  16.745  0.9145  0.3855 -0.9342
  624TMC3    C7 9302   0.742   0.558  16.609 -0.1585 -0.5981 -0.6563
  624TMC3    C8 9303   0.409   0.389  16.869  0.3596  0.8921  0.0878
  624TMC3    O1 9304   0.858   0.567  16.566 -0.9298 -0.0787 -0.1760
  624TMC3    O2 9305   0.345   0.434  16.779  0.3932 -0.0718  0.2534
  625MPD2     C 9306   0.268   1.217   0.042  1.2217 -0.2427 -0.6821
  625MPD2    C1 9307   0.291   1.343   0.099 -0.6523 -0.6003 -0.2499
  625MPD2    C2 9308   0.397   1.357   0.187 -0.3759 -0.0121 -0.0042
  625MPD2    C3 9309   0.495   1.266   0.204 -0.4825 -0.0399 -0.5082
  625MPD2    C4 9310   0.482   1.145   0.134 -0.0802 -0.7115 -0.4157
  625MPD2    C5 9311   0.371   1.125   0.059 -0.9112  0.2179  0.2292
  625MPD2     H 9312   0.399   1.451   0.241 -0.7262 -0.8787  1.5249
  625MPD2    H1 9313   0.561   1.071   0.129  1.6504  1.0398  0.6890
  625MPD2    H2 9314   0.193   1.188  17.727 -0.0290  0.9744  0.1163
  625MPD2    H3 9315   0.364   1.030   0.008 -0.9020 -0.0564  0.7380
  625MPD2     N 9316   0.609   1.299   0.291 -0.3923  0.0951 -0.4854
  625MPD2    H5 9317   0.618   1.396   0.320 -0.0762  0.0343 -0.3862
  625MPD2    N1 9318   0.213   1.462   0.072  0.3441 -0.0962  0.1309
  625MPD2    H7 9319   0.250   1.544   0.118  3.1505 -1.2451 -0.0605
  626TMC3    C1 9320   0.066   1.610  17.727 -0.1331 -0.0312 -0.1427
  626TMC3    C2 9321   0.034   1.664  17.606  0.2481  0.2160 -0.3769
  626TMC3    C3 9322   4.679   1.765  17.607 -0.0266  0.0477  0.3866
  626TMC3    C4 9323   0.003   1.641   0.083  0.3081  0.0038 -0.1694
  626TMC3    C5 9324   4.658   1.746   0.079 -0.9311 -0.2854  0.4825
  626TMC3    C6 9325   4.625   1.815  17.719  0.7833  0.8592  0.1380
  626TMC3     C 9326   0.119   1.483  17.733  0.3356 -0.3749 -0.6749
  626TMC3     O 9327   0.057   1.400  17.666 -0.2773 -0.3833  0.0423
  626TMC3     H 9328   0.072   1.624  17.512  1.7885 -0.4700  0.5258
  626TMC3    H1 9329   0.021   1.581   0.171 -0.0988 -0.8901 -0.7010
  626TMC3    H2 9330   4.555   1.897  17.726  0.3541  0.5775 -0.8250
  626TMC3    C7 9331   4.575   1.765   0.198  0.0676 -0.0529 -0.4276
  626TMC3    C8 9332   4.661   1.834  17.480 -0.0582  0.3452  0.4421
  626TMC3    O1 9333   4.459   1.803   0.181 -0.1472  0.1734 -0.1498
  626TMC3    O2 9334   0.001   1.814  17.388  0.2569 -0.3564 -0.1139
  627MPD2     C 9335   3.377   1.503  13.970  0.1887 -0.7376  0.6439
  627MPD2    C1 9336   3.442   1.528  14.087  0.3870  0.4720  0.2622
  627MPD2    C2 9337   3.413   1.449  14.197 -0.1996 -0.3183 -0.4090
  627MPD2    C3 9338   3.319   1.347  14.194  0.0911  0.0353 -0.4209
  627MPD2    C4 9339   3.255   1.314  14.075  0.8899 -0.7601 -0.0610
  627MPD2    C5 9340   3.284   1.397  13.967 -0.0015 -0.3693  0.3343
  627MPD2     H 9341   3.460   1.468  14.293 -2.2907 -2.9389  1.1628
  627MPD2    H1 9342   3.190   1.229  14.054 -0.7076  0.4564 -0.0915
  627MPD2    H2 9343   3.383   1.565  13.881 -2.4859 -1.4391 -0.0273
  627MPD2    H3 9344   3.217   1.389  13.881  1.1439  0.0213 -0.5886
  627MPD2     N 9345   3.288   1.285  14.316 -0.1081  0.7069  0.2068
  627MPD2    H5 9346   3.337   1.320  14.398 -1.0515 -3.1336  2.4199
  627MPD2    N1 9347   3.543   1.620  14.102 -0.2749  0.2083  0.0874
  627MPD2    H7 9348   3.604   1.618  14.183 -0.2266  2.3733  0.1102
  628TMC3    C1 9349   3.676   1.811  14.054 -0.3180  0.2364 -0.7942
  628TMC3    C2 9350   3.780   1.757  14.130  0.1294  0.3575 -0.3890
  628TMC3    C3 9351   3.889   1.834  14.146 -0.5883  0.0863  0.5121
  628TMC3    C4 9352   3.700   1.927  13.982 -0.3518  0.1631 -0.5980
  628TMC3    C5 9353   3.812   2.000  13.996 -0.2049 -0.2669  0.2514
  628TMC3    C6 9354   3.908   1.956  14.077  0.3287 -0.5806  0.1388
  628TMC3     C 9355   3.563   1.729  14.020 -0.0904 -0.3011  0.3038
  628TMC3     O 9356   3.475   1.768  13.943 -0.3719  0.8158  0.2863
  628TMC3     H 9357   3.782   1.656  14.171 -0.3261 -0.1333 -1.5500
  628TMC3    H1 9358   3.619   1.966  13.922 -1.5809 -1.5329 -0.0162
  628TMC3    H2 9359   4.007   2.000  14.077  0.1327 -0.1295 -0.4529
  628TMC3    C7 9360   3.823   2.139  13.969 -0.7040 -0.4380  0.3994
  628TMC3    C8 9361   4.005   1.786  14.213  0.0288  0.6158  0.4514
  628TMC3    O1 9362   3.900   2.206  14.039  0.0208  0.8519 -1.1894
  628TMC3    O2 9363   4.117   1.813  14.170  0.0638  0.3370  0.3706
  629MPD2     C 9364   2.429   0.692  16.096 -0.2239 -0.2508 -0.7203
  629MPD2    C1 9365   2.470   0.593  16.185 -1.1982 -0.5372  0.9709
  629MPD2    C2 9366   2.391   0.479  16.211 -0.1623 -0.0466  0.2100
  629MPD2    C3 9367   2.261   0.469  16.157  0.4496 -0.1662  0.6957
  629MPD2    C4 9368   2.222   0.570  16.074 -0.3899 -0.6563 -0.2905
  629MPD2    C5 9369   2.304   0.679  16.048  0.0940 -1.0941 -0.2946
  629MPD2     H 9370   2.441   0.401  16.267 -1.0212  0.5029  1.7418
  629MPD2    H1 9371   2.125   0.573  16.026 -0.2036  2.8118 -0.4936
  629MPD2    H2 9372   2.492   0.779  16.088 -0.5772 -0.0271 -1.1084
  629MPD2    H3 9373   2.271   0.758  15.982 -1.3038 -0.5155  1.1223
  629MPD2     N 9374   2.189   0.344  16.184 -0.1828  0.5270 -0.0604
  629MPD2    H5 9375   2.232   0.266  16.233 -1.2247 -0.5313 -0.8039
  629MPD2    N1 9376   2.597   0.616  16.247 -0.8210 -0.0774 -0.2052
  629MPD2    H7 9377   2.642   0.706  16.236 -0.9279 -0.2835 -2.4693
  630TMC3    C1 9378   2.790   0.586  16.372 -0.5246 -0.6504  0.0199
  630TMC3    C2 9379   2.863   0.662  16.281 -0.0950  0.1220 -0.4671
  630TMC3    C3 9380   2.985   0.700  16.331 -0.6650 -0.0768 -0.0626
  630TMC3    C4 9381   2.839   0.536  16.489 -0.1862 -0.1483 -0.5737
  630TMC3    C5 9382   2.955   0.595  16.536 -0.5089 -0.3743 -0.5754
  630TMC3    C6 9383   3.035   0.661  16.454 -0.0937 -0.7745 -0.1975
  630TMC3     C 9384   2.669   0.529  16.327 -1.3388  0.4062  0.2147
  630TMC3     O 9385   2.642   0.417  16.375  0.5256  0.0658  0.0958
  630TMC3     H 9386   2.811   0.706  16.197 -0.2715  0.9544  0.0806
  630TMC3    H1 9387   2.765   0.506  16.563  0.6214  1.5983  0.9489
  630TMC3    H2 9388   3.131   0.702  16.485 -0.7008  1.4797 -1.3498
  630TMC3    C7 9389   3.008   0.552  16.662 -0.7062  0.1477  0.8983
  630TMC3    C8 9390   3.027   0.834  16.298 -0.0271  0.8922  0.0369
  630TMC3    O1 9391   2.963   0.443  16.699  0.1194 -0.4872  0.2444
  630TMC3    O2 9392   3.069   0.900  16.391  0.6729 -0.0600  0.1219
  631MPD2     C 9393   1.346   1.167  15.353  0.7633 -0.2614  0.1935
  631MPD2    C1 9394   1.222   1.146  15.409 -0.3411 -0.3471 -0.4151
  631MPD2    C2 9395   1.232   1.117  15.542  0.2045  0.4717 -0.1995
  631MPD2    C3 9396   1.345   1.086  15.613 -0.3366  0.5108  0.1993
  631MPD2    C4 9397   1.468   1.081  15.551 -0.0545  0.3605 -0.7284
  631MPD2    C5 9398   1.462   1.133  15.422 -0.3561  0.1736  0.6807
  631MPD2     H 9399   1.138   1.115  15.596  0.0519 -0.0389 -0.4836
  631MPD2    H1 9400   1.562   1.055  15.599 -1.2100 -0.2594  1.2071
  631MPD2    H2 9401   1.354   1.201  15.250 -0.3794 -1.7226 -0.3734
  631MPD2    H3 9402   1.557   1.136  15.370  0.6314  3.2508  2.6525
  631MPD2     N 9403   1.321   1.044  15.746 -0.4147 -0.8769  0.1331
  631MPD2    H5 9404   1.225   1.044  15.781 -0.3925 -2.6643  0.1730
  631MPD2    N1 9405   1.101   1.156  15.335  0.6502 -0.5659 -0.0867
  631MPD2    H7 9406   1.094   1.201  15.244 -2.7433 -0.1518  0.3645
  632TMC3    C1 9407   0.869   1.113  15.301 -0.6983  0.6433  0.0837
  632TMC3    C2 9408   0.751   1.053  15.354  0.3328 -0.2470  0.2964
  632TMC3    C3 9409   0.650   1.036  15.262 -0.6583 -0.2629  0.5692
  632TMC3    C4 9410   0.886   1.153  15.171  0.3217 -0.4014 -0.1182
  632TMC3    C5 9411   0.775   1.137  15.089  0.0211  0.5646  0.7291
  632TMC3    C6 9412   0.658   1.077  15.127  0.5177  0.2695 -0.7196
  632TMC3     C 9413   0.978   1.118  15.386  0.5840  0.2470 -0.3982
  632TMC3     O 9414   0.954   1.079  15.498  0.1056 -0.2386  0.0230
  632TMC3     H 9415   0.744   1.015  15.455 -1.5740  1.5371  0.8302
  632TMC3    H1 9416   0.973   1.198  15.124  0.6373 -3.2637 -2.2633
  632TMC3    H2 9417   0.584   1.061  15.049 -0.9906  1.0124  0.5498
  632TMC3    C7 9418   0.782   1.180  14.948  0.3231  0.2321 -0.5663
  632TMC3    C8 9419   0.523   0.987  15.311 -0.1752 -0.7707 -0.5639
  632TMC3    O1 9420   0.888   1.161  14.891  0.2994 -0.3467 -0.5180
  632TMC3    O2 9421   0.511   0.966  15.432  0.1192 -0.1945  0.4230
  633MPD2     C 9422   0.222   3.406  17.337  0.7559  0.1219 -0.1730
  633MPD2    C1 9423   0.177   3.311  17.244 -0.3785 -0.4984  0.4134
  633MPD2    C2 9424   0.154   3.183  17.288  0.3895  0.2471  0.0509
  633MPD2    C3 9425   0.163   3.146  17.419  0.1485  0.8289  1.0734
  633MPD2    C4 9426   0.200   3.244  17.516  0.1700 -0.3877  0.1664
  633MPD2    C5 9427   0.226   3.369  17.468 -0.9008 -0.2458 -0.2360
  633MPD2     H 9428   0.126   3.109  17.214  0.2643 -0.2618  0.6124
  633MPD2    H1 9429   0.203   3.227  17.623 -0.8870  1.8166  0.5393
  633MPD2    H2 9430   0.253   3.508  17.320  1.4332 -0.0635 -0.0539
  633MPD2    H3 9431   0.256   3.434  17.550 -2.4929 -0.0924  0.2266
  633MPD2     N 9432   0.140   3.012  17.471 -0.0095 -1.0936 -0.0885
  633MPD2    H5 9433   0.188   2.990  17.557 -2.4543 -0.3515  1.4688
  633MPD2    N1 9434   0.154   3.337  17.106 -0.4269 -0.2738 -0.7434
  633MPD2    H7 9435   0.155   3.263  17.037  1.6016  1.0111 -2.0793
  634TMC3    C1 9436   0.139   3.473  16.907  0.0444  0.5389  0.3083
  634TMC3    C2 9437   0.202   3.381  16.836 -0.1043 -0.3408  0.8936
  634TMC3    C3 9438   0.212   3.404  16.702  0.0224  0.5026 -0.2202
  634TMC3    C4 9439   0.079   3.585  16.852 -0.8518  0.6188 -0.0083
  634TMC3    C5 9440   0.096   3.600  16.718 -0.6361  0.8205  0.2725
  634TMC3    C6 9441   0.153   3.512  16.640  0.8543  0.5759 -0.6516
  634TMC3     C 9442   0.141   3.464  17.056 -0.8551 -0.8436 -0.0316
  634TMC3     O 9443   0.103   3.560  17.118 -0.1503 -0.6078  0.7642
  634TMC3     H 9444   0.265   3.308  16.886 -0.5490 -1.9924 -0.9753
  634TMC3    H1 9445   0.018   3.653  16.911 -3.6326 -1.5344 -0.4099
  634TMC3    H2 9446   0.135   3.507  16.533 -0.4980 -0.7503 -0.3589
  634TMC3    C7 9447   0.060   3.728  16.655 -0.9495 -0.0831  0.4735
  634TMC3    C8 9448   0.244   3.286  16.624  0.3741 -0.0264 -0.3151
  634TMC3    O1 9449   0.109   3.749  16.543 -0.1842  0.0974 -0.1880
  634TMC3    O2 9450   0.218   3.184  16.685 -0.5982 -0.1927 -0.4160
  635TMC3    C1 9451   4.425   4.417   1.142 -0.0273 -0.1107  0.0814
  635TMC3    C2 9452   4.326   4.503   1.123  0.1783  0.0539 -0.4450
  635TMC3    C3 9453   4.257   4.559   1.229 -0.8308  0.3803 -0.0737
  635TMC3    C4 9454   4.457   4.380   1.270  0.1512  0.2504  0.4817
  635TMC3    C5 9455   4.376   4.421   1.373  0.0273 -0.1187  0.0921
  635TMC3    C6 9456   4.277   4.522   1.359 -0.2871  0.4582  0.5774
  635TMC3     C 9457   4.519   4.394   1.030  0.1495  0.1448 -0.2246
  635TMC3     O 9458   4.516   4.475   0.943  0.4734  0.1337  0.0154
  635TMC3     H 9459   4.309   4.538   1.021  1.0463  2.8072  0.3703
  635TMC3    H1 9460   4.534   4.308   1.296 -0.2082 -0.6127 -0.8180
  635TMC3    H2 9461   4.226   4.561   1.446 -3.0461  0.4896 -1.0499
  635TMC3    C7 9462   4.387   4.351   1.497  0.7078  0.0416 -0.2918
  635TMC3    C8 9463   4.179   4.679   1.203 -0.5502  0.0768  0.0858
  635TMC3    O1 9464   4.495   4.301   1.525  0.1378  0.3949 -0.2302
  635TMC3    O2 9465   4.179   4.717   1.083 -0.2471  0.2867  0.0163
  636MPD2     C 9466   1.273   3.870  15.445  0.3473  0.5511 -0.2797
  636MPD2    C1 9467   1.278   3.809  15.568  0.0118  0.1506 -0.0002
  636MPD2    C2 9468   1.335   3.680  15.576  0.0227  0.0613  0.2318
  636MPD2    C3 9469   1.409   3.623  15.469 -0.0586 -0.1667  0.7803
  636MPD2    C4 9470   1.394   3.684  15.346 -0.1155 -0.6051 -0.2948
  636MPD2    C5 9471   1.330   3.804  15.339 -0.4850 -0.0008 -0.1129
  636MPD2     H 9472   1.340   3.629  15.672 -1.3884 -0.0325  0.2595
  636MPD2    H1 9473   1.452   3.653  15.260 -0.7212  1.1363 -1.3093
  636MPD2    H2 9474   1.237   3.970  15.426  0.0653  0.4204 -0.4474
  636MPD2    H3 9475   1.322   3.866  15.250 -1.4670 -0.5068 -0.3819
  636MPD2     N 9476   1.480   3.508  15.487 -0.1650 -0.2685 -0.0472
  636MPD2    H5 9477   1.474   3.461  15.577  4.8381  1.4190  1.1723
  636MPD2    N1 9478   1.214   3.860  15.686 -1.0446  0.7287  0.4096
  636MPD2    H7 9479   1.219   3.810  15.773  0.9922 -0.0537 -0.1627
  637TMC3    C1 9480   1.642   3.339  15.450  0.0153  0.0484  0.0562
  637TMC3    C2 9481   1.573   3.259  15.543 -0.3542  0.4382  0.3443
  637TMC3    C3 9482   1.641   3.151  15.585  0.0977 -1.1187  0.3515
  637TMC3    C4 9483   1.769   3.308  15.403  0.3290  0.4000 -0.0714
  637TMC3    C5 9484   1.834   3.208  15.464 -0.6609 -0.5952 -0.2118
  637TMC3    C6 9485   1.768   3.119  15.544 -0.2908  0.1767  0.0578
  637TMC3     C 9486   1.569   3.454  15.393  0.4031 -0.6068  0.3588
  637TMC3     O 9487   1.614   3.490  15.287 -0.1932 -0.2293  0.5244
  637TMC3     H 9488   1.468   3.269  15.567 -0.2876  1.3263  0.2662
  637TMC3    H1 9489   1.825   3.381  15.344  1.8574  0.5235  1.5407
  637TMC3    H2 9490   1.816   3.023  15.562  1.3776  0.8090 -1.0808
  637TMC3    C7 9491   1.965   3.245  15.503  0.3338  0.2539 -0.6645
  637TMC3    C8 9492   1.612   3.122  15.729  1.2286 -0.5863  0.5638
  637TMC3    O1 9493   1.994   3.363  15.509 -0.4401  0.3536 -0.1794
  637TMC3    O2 9494   1.554   3.204  15.797  0.1821  0.5336  0.2289
  638MPD2     C 9495   1.466   2.545  14.882 -0.0400  0.2091 -0.4942
  638MPD2    C1 9496   1.460   2.437  14.799 -0.5356  0.3081  0.9271
  638MPD2    C2 9497   1.420   2.316  14.855  0.0101  0.5557  0.4366
  638MPD2    C3 9498   1.384   2.306  14.982 -0.7389 -0.1233 -0.1639
  638MPD2    C4 9499   1.384   2.418  15.065 -0.4523 -0.6271 -0.1912
  638MPD2    C5 9500   1.430   2.530  15.011  0.1640  0.6897 -0.2020
  638MPD2     H 9501   1.424   2.231  14.787  2.4116  0.3138  0.8834
  638MPD2    H1 9502   1.350   2.412  15.168 -2.8238 -2.6079 -1.1087
  638MPD2    H2 9503   1.497   2.644  14.851 -1.4465  0.2417 -1.8238
  638MPD2    H3 9504   1.432   2.621  15.071 -0.8951 -0.6179  1.8206
  638MPD2     N 9505   1.356   2.182  15.040 -0.0623 -0.4272  0.0037
  638MPD2    H5 9506   1.373   2.100  14.983  1.4011 -1.0224  1.3187
  638MPD2    N1 9507   1.493   2.454  14.664 -0.0738  0.8319 -0.2947
  638MPD2    H7 9508   1.516   2.543  14.620  0.4622  0.3251 -1.0218
  639TMC3    C1 9509   1.341   1.997  15.171 -0.1125 -0.6449  0.9625
  639TMC3    C2 9510   1.280   1.937  15.060 -0.6663 -0.0367 -0.3422
  639TMC3    C3 9511   1.322   1.822  15.006 -0.8225 -0.1912 -0.2595
  639TMC3    C4 9512   1.454   1.941  15.223  0.3146  0.3854 -0.5943
  639TMC3    C5 9513   1.496   1.827  15.155 -0.2366  0.5556 -0.1329
  639TMC3    C6 9514   1.439   1.771  15.044  0.1915 -0.4096  0.5103
  639TMC3     C 9515   1.345   2.145  15.169 -0.1753 -0.5478  0.4707
  639TMC3     O 9516   1.357   2.213  15.270 -0.1081 -0.2514  0.1514
  639TMC3     H 9517   1.191   1.984  15.020  0.6989  0.6275 -2.6047
  639TMC3    H1 9518   1.505   1.993  15.303  0.7377 -1.2828  0.2208
  639TMC3    H2 9519   1.474   1.678  15.001  2.3134  1.9174 -2.8538
  639TMC3    C7 9520   1.606   1.766  15.213  0.3655 -0.6458 -0.2521
  639TMC3    C8 9521   1.241   1.761  14.906 -0.0345  1.0100 -0.2332
  639TMC3    O1 9522   1.610   1.756  15.336 -0.3383 -0.0924  0.0242
  639TMC3    O2 9523   1.303   1.697  14.823 -0.2151  0.5720  0.6188
  640MPD2     C 9524   1.909   0.525  10.023 -0.0557  0.4668  0.3661
  640MPD2    C1 9525   1.816   0.543   9.922  0.5835  0.1641  0.0386
  640MPD2    C2 9526   1.698   0.617   9.938 -0.1257 -0.2294 -0.2416
  640MPD2    C3 9527   1.673   0.676  10.061 -0.1555 -0.6185  0.5974
  640MPD2    C4 9528   1.770   0.662  10.158  0.3590  0.3652 -0.0861
  640MPD2    C5 9529   1.875   0.586  10.140  0.4344 -0.2058  0.2244
  640MPD2     H 9530   1.636   0.628   9.849 -1.0790 -0.4547  0.3997
  640MPD2    H1 9531   1.759   0.703  10.258  0.9671 -0.9344  0.5155
  640MPD2    H2 9532   1.999   0.466  10.018  0.8107  1.8378 -0.2722
  640MPD2    H3 9533   1.948   0.556  10.214  0.5843 -0.2728  0.0514
  640MPD2     N 9534   1.555   0.743  10.096  0.4543  0.1870  0.0396
  640MPD2    H5 9535   1.560   0.801  10.179  0.6674  0.4383 -0.1485
  640MPD2    N1 9536   1.842   0.465   9.802  0.2032 -0.1034 -0.1821
  640MPD2    H7 9537   1.922   0.402   9.805 -0.8813 -1.6209 -3.1305
  641TMC3    C1 9538   1.836   0.378   9.589  0.1450  0.0628 -0.4591
  641TMC3    C2 9539   1.955   0.311   9.618 -0.4913  0.5861 -0.7665
  641TMC3    C3 9540   1.997   0.227   9.517 -0.2132  0.5584  0.4151
  641TMC3    C4 9541   1.768   0.376   9.472 -0.1168 -0.1339 -0.8141
  641TMC3    C5 9542   1.817   0.295   9.372  0.4849 -0.0736  0.6640
  641TMC3    C6 9543   1.927   0.217   9.393  0.8911 -0.9319  0.4446
  641TMC3     C 9544   1.775   0.472   9.683 -0.4289  0.3692 -0.0808
  641TMC3     O 9545   1.672   0.525   9.648 -0.1695 -0.1673  0.0242
  641TMC3     H 9546   2.015   0.326   9.707  0.6035  0.4320 -1.4718
  641TMC3    H1 9547   1.671   0.419   9.453 -0.1523 -0.4791 -1.4208
  641TMC3    H2 9548   1.960   0.139   9.326 -0.8621 -1.4319  0.1728
  641TMC3    C7 9549   1.717   0.244   9.279  0.4246 -0.1535 -0.2525
  641TMC3    C8 9550   2.121   0.151   9.537  0.4283 -0.6263  0.1345
  641TMC3    O1 9551   1.601   0.283   9.298  0.2443  0.3825 -0.5450
  641TMC3    O2 9552   2.192   0.140   9.439  0.2014  0.5678  0.0087
  642TMC3    C1 9553   2.615   1.406  12.833  0.2235  0.1151 -0.7993
  642TMC3    C2 9554   2.741   1.398  12.878 -0.0802  0.1504  0.6214
  642TMC3    C3 9555   2.807   1.276  12.885  0.6776 -0.5110 -0.1253
  642TMC3    C4 9556   2.563   1.292  12.778 -0.2355  0.3103  0.3918
  642TMC3    C5 9557   2.629   1.173  12.780  1.1388 -0.1539 -0.0140
  642TMC3    C6 9558   2.762   1.167  12.821 -0.2169 -0.2052 -0.4447
  642TMC3     C 9559   2.554   1.543  12.823 -0.0673  0.3888 -0.2615
  642TMC3     O 9560   2.629   1.636  12.807 -0.5890 -0.2328 -0.3157
  642TMC3     H 9561   2.779   1.486  12.929  1.8448  0.8744 -2.0824
  642TMC3    H1 9562   2.460   1.298  12.746 -0.8102  0.4227  2.2443
  642TMC3    H2 9563   2.813   1.073  12.812  1.9273  0.7071  2.2820
  642TMC3    C7 9564   2.570   1.065  12.703  0.2724 -0.1987 -0.3776
  642TMC3    C8 9565   2.918   1.277  12.969 -0.4044  0.4212  0.0190
  642TMC3    O1 9566   2.640   0.991  12.639 -0.0717  0.1981  0.5060
  642TMC3    O2 9567   2.968   1.389  12.991 -0.5695  0.1183  0.0256
  643TMC3    C1 9568   2.033   1.044  17.631 -0.5805  0.0134 -0.8811
  643TMC3    C2 9569   1.949   1.086  17.537 -0.0278 -0.3542  0.8133
  643TMC3    C3 9570   1.990   1.099  17.407 -0.5175  0.8877 -0.0666
  643TMC3    C4 9571   2.168   1.022  17.600  0.1063 -0.1983  0.0271
  643TMC3    C5 9572   2.212   1.042  17.473 -0.4376  0.1804 -0.2196
  643TMC3    C6 9573   2.127   1.085  17.376  1.0355  0.0959  0.2565
  643TMC3     C 9574   2.016   1.110   0.002  0.1058 -0.6371 -0.0377
  643TMC3     O 9575   1.907   1.097   0.059  1.0721 -0.1470  0.1359
  643TMC3     H 9576   1.843   1.099  17.556 -0.0953  2.3661 -1.4028
  643TMC3    H1 9577   2.234   0.982  17.676  0.5818  0.2778 -0.1280
  643TMC3    H2 9578   2.142   1.074  17.269  0.0667 -1.0851  0.2387
  643TMC3    C7 9579   2.353   1.035  17.458  0.5588 -0.6374  0.3196
  643TMC3    C8 9580   1.929   1.221  17.360 -1.1239 -0.2332 -0.2585
  643TMC3    O1 9581   2.420   0.997  17.554 -0.0222  0.0178 -0.4698
  643TMC3    O2 9582   1.891   1.299  17.447  0.6720  0.3760  0.2801
  644MPD2     C 9583   1.842   1.355   9.602  0.1616 -1.0610  0.1852
  644MPD2    C1 9584   1.745   1.270   9.553  0.1856  0.0394  0.0244
  644MPD2    C2 9585   1.627   1.325   9.516 -0.0517 -0.3177 -0.3602
  644MPD2    C3 9586   1.598   1.460   9.516 -0.0139  0.7087 -0.3346
  644MPD2    C4 9587   1.698   1.544   9.557 -0.2308  0.5340  0.3200
  644MPD2    C5 9588   1.820   1.489   9.595 -0.7742 -0.2991 -0.0363
  644MPD2     H 9589   1.552   1.250   9.495  1.7376 -2.8490  2.2573
  644MPD2    H1 9590   1.686   1.652   9.560 -0.9150  0.4423  0.9870
  644MPD2    H2 9591   1.941   1.324   9.633  0.4365 -0.4727 -0.0995
  644MPD2    H3 9592   1.894   1.560   9.630 -0.2575 -0.5687 -0.5871
  644MPD2     N 9593   1.477   1.500   9.475 -0.1378  0.1914  0.3524
  644MPD2    H5 9594   1.418   1.428   9.434 -0.0878 -0.3798  1.2899
  644MPD2    N1 9595   1.779   1.137   9.527 -0.0163 -0.4467 -0.2326
  644MPD2    H7 9596   1.875   1.114   9.548 -0.6281 -1.7180  1.2444
  645TMC3    C1 9597   1.286   1.628   9.438 -0.2877  0.2429  0.3705
  645TMC3    C2 9598   1.256   1.750   9.386  0.3894 -0.1041  0.2298
  645TMC3    C3 9599   1.120   1.780   9.385  0.3242 -0.2970  0.2621
  645TMC3    C4 9600   1.196   1.541   9.488  0.3242 -0.1032  0.2161
  645TMC3    C5 9601   1.064   1.580   9.478 -0.2015 -0.1493  0.3086
  645TMC3    C6 9602   1.022   1.705   9.436  0.1982 -0.0186 -0.2314
  645TMC3     C 9603   1.422   1.629   9.476 -1.0907 -0.3019  0.2198
  645TMC3     O 9604   1.472   1.730   9.520  0.2503  0.0083  0.7719
  645TMC3     H 9605   1.339   1.802   9.342  0.3117 -0.3744 -0.2324
  645TMC3    H1 9606   1.239   1.457   9.543 -1.5634 -0.2127  1.5032
  645TMC3    H2 9607   0.918   1.732   9.423  0.0087 -0.6727 -0.0814
  645TMC3    C7 9608   0.966   1.481   9.506 -0.5713  0.0262  0.2514
  645TMC3    C8 9609   1.083   1.892   9.300  0.2951 -0.0062 -0.0602
  645TMC3    O1 9610   0.848   1.512   9.518 -0.1108 -0.2967  0.2555
  645TMC3    O2 9611   0.966   1.909   9.273 -0.1356 -0.2660 -0.0460
  646MPD2     C 9612   1.588   1.008  14.675  0.6910  0.3429 -0.0860
  646MPD2    C1 9613   1.475   1.040  14.743 -0.3620  0.9726  0.3776
  646MPD2    C2 9614   1.368   1.100  14.679  0.5000  0.3322 -0.1134
  646MPD2    C3 9615   1.379   1.129  14.543 -0.4531  0.2454  0.6046
  646MPD2    C4 9616   1.496   1.095  14.483 -0.2502 -0.8104 -0.5462
  646MPD2    C5 9617   1.603   1.049  14.551  0.4401 -0.1299  1.1434
  646MPD2     H 9618   1.280   1.123  14.738 -0.8895 -0.7543 -1.7496
  646MPD2    H1 9619   1.505   1.130  14.381  0.9066  0.7538  0.0853
  646MPD2    H2 9620   1.667   0.953  14.725  1.6763  0.4509 -1.5396
  646MPD2    H3 9621   1.695   1.036  14.495 -0.1980  2.8924 -0.6430
  646MPD2     N 9622   1.273   1.209  14.480  0.3214 -0.8042 -0.3114
  646MPD2    H5 9623   1.198   1.238  14.542 -1.5539 -0.1632 -2.8946
  646MPD2    N1 9624   1.483   0.991  14.876  1.1518 -0.7319 -0.8081
  646MPD2    H7 9625   1.565   0.935  14.895  2.4612  1.2042 -0.7756
  647TMC3    C1 9626   1.433   0.954  15.097  0.1600  0.1755  0.0999
  647TMC3    C2 9627   1.328   0.912  15.186 -1.1561 -0.3067 -0.1748
  647TMC3    C3 9628   1.372   0.837  15.298  0.1616 -0.0703  0.0700
  647TMC3    C4 9629   1.564   0.915  15.119  0.5273  0.4558  1.0666
  647TMC3    C5 9630   1.594   0.837  15.226 -0.7634 -0.3431 -0.0612
  647TMC3    C6 9631   1.502   0.798  15.317 -0.0259  0.1759  0.4823
  647TMC3     C 9632   1.386   1.016  14.969 -0.1285 -0.2832 -0.0050
  647TMC3     O 9633   1.269   1.047  14.959 -1.0137 -0.9455 -0.7359
  647TMC3     H 9634   1.227   0.951  15.186 -1.2850 -0.6359  0.0299
  647TMC3    H1 9635   1.638   0.957  15.052  0.0252 -0.2745  0.0542
  647TMC3    H2 9636   1.532   0.747  15.408  1.5193  2.0000  0.9976
  647TMC3    C7 9637   1.731   0.777  15.231  0.7299 -0.0324  0.2331
  647TMC3    C8 9638   1.279   0.773  15.389  0.0716 -0.4649 -0.2867
  647TMC3    O1 9639   1.752   0.687  15.312 -0.9682  0.0402  0.0925
  647TMC3    O2 9640   1.327   0.741  15.496  0.1952  0.2620 -0.3634
  648TMC3    C1 9641   0.682   3.443  15.793  0.2053  0.1881  0.3180
  648TMC3    C2 9642   0.721   3.343  15.707 -0.5779 -0.6005  0.1706
  648TMC3    C3 9643   0.675   3.344  15.579  0.0052 -0.4556  0.2058
  648TMC3    C4 9644   0.586   3.532  15.756 -0.0589 -0.1095 -0.8590
  648TMC3    C5 9645   0.535   3.529  15.624  0.0523  0.7167 -0.1248
  648TMC3    C6 9646   0.590   3.445  15.532 -0.0229 -0.7565 -0.0806
  648TMC3     C 9647   0.714   3.440  15.936 -0.1557  0.1831  0.4595
  648TMC3     O 9648   0.736   3.544  15.994 -0.1786 -0.5057  0.1762
  648TMC3     H 9649   0.778   3.256  15.739 -2.1487 -1.4382  0.6791
  648TMC3    H1 9650   0.532   3.578  15.838 -0.2836 -1.0411 -0.4941
  648TMC3    H2 9651   0.557   3.448  15.429  1.2999 -4.1119 -0.5816
  648TMC3    C7 9652   0.394   3.555  15.611  0.4269  0.2566  0.0100
  648TMC3    C8 9653   0.694   3.237  15.488 -0.3281 -0.2197 -0.7039
  648TMC3    O1 9654   0.339   3.486  15.526 -0.1298 -0.0411  0.2008
  648TMC3    O2 9655   0.615   3.214  15.401 -0.1405  0.5524 -0.5534
  649TMC3    C1 9656   0.124   4.024  12.494  0.6034 -0.0008 -0.0152
  649TMC3    C2 9657   0.173   4.153  12.503 -0.7430 -0.5223  0.8493
  649TMC3    C3 9658   0.182   4.210  12.624 -0.0151  0.2512 -0.1245
  649TMC3    C4 9659   0.072   3.962  12.606 -0.3029  0.7050  0.6209
  649TMC3    C5 9660   0.070   4.026  12.728  0.0315 -0.8648 -0.2625
  649TMC3    C6 9661   0.124   4.152  12.736 -0.3935  0.4890 -0.0155
  649TMC3     C 9662   0.041   3.994  12.380 -0.4109  0.1447 -0.6420
  649TMC3     O 9663   4.663   3.961  12.399 -0.4323  0.5362  0.5409
  649TMC3     H 9664   0.223   4.191  12.414 -1.9306  1.4076  0.9973
  649TMC3    H1 9665   0.039   3.859  12.598  0.8188  0.5354 -1.8076
  649TMC3    H2 9666   0.092   4.212  12.821  0.3084 -1.3427  1.5456
  649TMC3    C7 9667   0.015   3.970  12.843  0.2647 -0.2436  0.0517
  649TMC3    C8 9668   0.238   4.346  12.611  1.1594  0.0008  0.3472
  649TMC3    O1 9669   4.648   3.908  12.825  0.3260  0.5848  0.1021
  649TMC3    O2 9670   0.248   4.392  12.500  0.2467  0.6970  0.3709
  650TMC3    C1 9671   1.774   0.543  12.232  0.2512 -0.4358 -0.4706
  650TMC3    C2 9672   1.675   0.636  12.201 -0.2448  0.5770 -0.0278
  650TMC3    C3 9673   1.705   0.734  12.109  0.1486 -0.0514  0.1509
  650TMC3    C4 9674   1.894   0.545  12.165 -0.1237  0.1727  0.1489
  650TMC3    C5 9675   1.913   0.633  12.064  0.5266 -0.0247 -0.4144
  650TMC3    C6 9676   1.828   0.735  12.043 -0.2696 -0.4467  0.0281
  650TMC3     C 9677   1.768   0.502  12.375  0.5899 -0.4650 -0.1765
  650TMC3     O 9678   1.663   0.523  12.433  0.0296 -0.3743  0.2435
  650TMC3     H 9679   1.582   0.644  12.257 -0.3463  0.6454 -0.2018
  650TMC3    H1 9680   1.973   0.473  12.185 -1.2774 -1.2291 -0.3650
  650TMC3    H2 9681   1.870   0.798  11.966 -1.4534 -2.0817 -1.9736
  650TMC3    C7 9682   2.052   0.677  12.052 -0.1855  0.4481  0.5558
  650TMC3    C8 9683   1.652   0.864  12.151 -0.4306  0.4800 -0.4942
  650TMC3    O1 9684   2.130   0.624  11.973 -0.1475 -0.6817 -0.3327
  650TMC3    O2 9685   1.658   0.903  12.269  0.3101  0.1047 -0.6077
  651MPD2     C 9686   0.813   2.819  10.156  0.1246 -0.2502  0.4549
  651MPD2    C1 9687   0.837   2.891  10.273 -0.5340 -0.3680  0.2840
  651MPD2    C2 9688   0.950   2.867  10.341 -0.0443 -0.0682  0.2973
  651MPD2    C3 9689   1.048   2.775  10.298 -0.1093 -0.0202  0.2896
  651MPD2    C4 9690   1.023   2.697  10.184 -0.2021 -0.3979 -0.0870
  651MPD2    C5 9691   0.904   2.716  10.117  0.1850  0.4487  0.2343
  651MPD2     H 9692   0.976   2.929  10.426  1.9132  0.9194 -1.0151
  651MPD2    H1 9693   1.098   2.637  10.134 -1.3665 -0.5573 -1.6512
  651MPD2    H2 9694   0.727   2.843  10.095  0.7503 -0.9709 -0.7052
  651MPD2    H3 9695   0.873   2.654  10.035  0.0246 -3.2452  3.0950
  651MPD2     N 9696   1.169   2.774  10.366 -0.2488 -0.1124  0.7083
  651MPD2    H5 9697   1.175   2.843  10.440  1.5454  0.6849 -0.1822
  651MPD2    N1 9698   0.746   2.990  10.316 -0.2346 -0.1288 -0.1650
  651MPD2    H7 9699   0.776   3.053  10.391 -0.9082 -1.1553  0.9681
  652TMC3    C1 9700   1.607   2.719  10.489  1.3446 -0.2417  0.2159
  652TMC3    C2 9701   1.502   2.660  10.423 -0.8874  0.4353  1.0967
  652TMC3    C3 9702   1.368   2.691  10.461  0.0790  0.0724 -0.9352
  652TMC3    C4 9703   1.581   2.787  10.606 -0.3414 -0.6509  0.0267
  652TMC3    C5 9704   1.450   2.806  10.645  0.6740  0.0349 -0.1989
  652TMC3    C6 9705   1.345   2.763  10.573 -0.4186 -0.0358 -0.1551
  652TMC3     C 9706   1.735   2.645  10.498  0.0130 -0.2125 -0.2473
  652TMC3     O 9707   1.766   2.592  10.605 -0.8317 -0.0725 -0.1248
  652TMC3     H 9708   1.521   2.607  10.331 -0.1614  0.1892  1.3868
  652TMC3    H1 9709   1.659   2.815  10.676  0.0827 -0.5345 -0.4915
  652TMC3    H2 9710   1.242   2.780  10.602 -0.4517 -0.7414  0.1593
  652TMC3    C7 9711   1.411   2.894  10.754 -0.6082 -0.2032 -0.1842
  652TMC3    C8 9712   1.261   2.676  10.363  0.1973 -0.0772 -0.5107
  652TMC3    O1 9713   1.320   2.861  10.825 -0.2509  0.2825  0.4948
  652TMC3    O2 9714   1.284   2.589  10.277 -0.0269  0.0464 -0.2021
  653MPD2     C 9715   4.508   3.068  17.388 -0.6447  0.0997 -0.5144
  653MPD2    C1 9716   4.505   3.186  17.309  0.3133  0.0373  0.2542
  653MPD2    C2 9717   4.442   3.173  17.187 -0.5662 -0.0576  0.7571
  653MPD2    C3 9718   4.373   3.049  17.150 -0.2779 -0.4056  0.1793
  653MPD2    C4 9719   4.378   2.939  17.231 -0.6979  0.3728 -0.7638
  653MPD2    C5 9720   4.446   2.948  17.355 -0.3761  0.0928 -0.4139
  653MPD2     H 9721   4.428   3.261  17.126 -0.8552 -0.3404  0.4168
  653MPD2    H1 9722   4.332   2.846  17.203  2.8092 -2.0707  1.5449
  653MPD2    H2 9723   4.558   3.068  17.484 -2.0507 -0.0554  0.2187
  653MPD2    H3 9724   4.463   2.865  17.423 -3.2443  1.0873  1.4951
  653MPD2     N 9725   4.308   3.049  17.028 -0.5371  0.0677 -0.2082
  653MPD2    H5 9726   4.314   3.133  16.970  1.2871  0.1417  0.0751
  653MPD2    N1 9727   4.539   3.317  17.347 -0.7481  0.1612  0.4016
  653MPD2    H7 9728   4.532   3.393  17.280 -0.7058  0.8693  1.1983
  654TMC3    C1 9729   4.226   2.995  16.832  0.1867  0.4213 -0.6206
  654TMC3    C2 9730   4.227   3.136  16.826  0.2346 -0.3138 -0.7288
  654TMC3    C3 9731   4.278   3.202  16.723 -0.4191 -0.4338  0.3426
  654TMC3    C4 9732   4.285   2.921  16.734 -0.3982 -0.1418 -0.0064
  654TMC3    C5 9733   4.340   2.996  16.628 -0.4724 -0.5228 -0.3805
  654TMC3    C6 9734   4.340   3.132  16.619 -0.2851 -0.8119 -0.6343
  654TMC3     C 9735   4.245   2.945  16.964 -0.5335 -0.0442 -0.1276
  654TMC3     O 9736   4.237   2.824  16.984 -0.3931  0.5923 -0.6876
  654TMC3     H 9737   4.168   3.193  16.896 -1.2486 -1.6246 -0.9215
  654TMC3    H1 9738   4.319   2.819  16.752 -1.3049 -0.4387  0.0049
  654TMC3    H2 9739   4.392   3.177  16.535  0.7615  0.3834  0.6511
  654TMC3    C7 9740   4.420   2.925  16.531  0.7224 -0.6068 -0.2834
  654TMC3    C8 9741   4.220   3.331  16.688  0.3482  0.2172 -0.7675
  654TMC3    O1 9742   4.500   2.992  16.468 -0.3916 -0.8870 -0.6866
  654TMC3    O2 9743   4.159   3.397  16.773 -0.2181  0.2065 -0.2970
  655MPD2     C 9744   1.022   3.484  15.484  0.5128  0.2821  0.3281
  655MPD2    C1 9745   0.982   3.596  15.419 -0.5497 -0.2157  1.0663
  655MPD2    C2 9746   0.991   3.607  15.286  0.5278  0.2459 -0.0701
  655MPD2    C3 9747   1.055   3.509  15.212  0.2185 -0.4261 -0.0959
  655MPD2    C4 9748   1.093   3.390  15.279 -0.0151  0.7404 -0.4685
  655MPD2    C5 9749   1.073   3.382  15.411  0.5560 -0.3480 -0.0144
  655MPD2     H 9750   0.962   3.700  15.239 -1.0413  0.1861  0.8049
  655MPD2    H1 9751   1.139   3.305  15.231 -0.9337  0.0347 -0.1035
  655MPD2    H2 9752   1.010   3.456  15.588  0.7740  1.7737  0.7679
  655MPD2    H3 9753   1.099   3.292  15.467 -1.7713 -0.6016  0.6745
  655MPD2     N 9754   1.084   3.515  15.074 -0.5092 -0.4861 -0.0746
  655MPD2    H5 9755   1.119   3.431  15.028 -2.1309 -0.9348 -0.4790
  655MPD2    N1 9756   0.927   3.708  15.484 -0.1829  0.0682  0.2513
  655MPD2    H7 9757   0.913   3.788  15.424 -0.4946 -1.7829 -2.1150
  656TMC3    C1 9758   0.823   3.859  15.645  0.4065 -0.2246  0.4684
  656TMC3    C2 9759   0.740   3.849  15.750 -0.4021  0.6873  0.4637
  656TMC3    C3 9760   0.658   3.956  15.773 -0.5269  0.6309  0.5575
  656TMC3    C4 9761   0.830   3.976  15.567  0.7889  0.5177 -0.4176
  656TMC3    C5 9762   0.749   4.077  15.592 -0.3033 -0.7234 -0.3336
  656TMC3    C6 9763   0.656   4.070  15.695  0.2745  0.1896 -0.0137
  656TMC3     C 9764   0.896   3.723  15.618 -0.5277  0.3017 -0.2878
  656TMC3     O 9765   0.914   3.644  15.712  0.3129 -0.1310  0.7222
  656TMC3     H 9766   0.726   3.756  15.804  2.6933  0.2976  0.5973
  656TMC3    H1 9767   0.903   3.976  15.487 -1.5825 -0.9823 -2.5861
  656TMC3    H2 9768   0.589   4.148  15.727 -2.7618 -1.9252 -1.1581
  656TMC3    C7 9769   0.742   4.166  15.483  0.1696 -0.4531 -0.3629
  656TMC3    C8 9770   0.552   3.923  15.871 -0.4472  0.9702  0.5484
  656TMC3    O1 9771   0.845   4.180  15.415  0.3198  0.3497 -0.3238
  656TMC3    O2 9772   0.521   3.805  15.881 -0.1686 -0.0922  0.0118
  657TMC3    C1 9773   0.044   2.767  14.096 -0.0580 -0.5657  0.3811
  657TMC3    C2 9774   0.058   2.820  14.222 -0.1393 -0.9328 -1.0697
  657TMC3    C3 9775   4.730   2.941  14.240  0.4921 -0.3014  0.1665
  657TMC3    C4 9776   4.715   2.829  13.991 -0.0044  0.0667 -0.3716
  657TMC3    C5 9777   4.627   2.931  14.032  0.1950 -0.9570  0.8726
  657TMC3    C6 9778   4.639   2.990  14.153 -0.4545 -0.9871  0.3565
  657TMC3     C 9779   0.103   2.640  14.072  0.5617  0.8803  0.6416
  657TMC3     O 9780   0.056   2.575  13.980  0.2783  0.8201  0.6478
  657TMC3     H 9781   0.102   2.767  14.306 -1.5338  1.1352  0.9706
  657TMC3    H1 9782   4.708   2.771  13.900 -0.4272  2.0945 -1.6041
  657TMC3    H2 9783   4.560   3.061  14.176  0.2855 -0.3008  0.7672
  657TMC3    C7 9784   4.510   2.972  13.949 -0.2647 -0.1396 -0.6312
  657TMC3    C8 9785   4.702   2.974  14.381 -0.6429 -0.9136  0.0245
  657TMC3    O1 9786   4.421   3.045  13.991  0.5804  0.2780 -0.3342
  657TMC3    O2 9787   0.014   2.900  14.464 -0.1147 -0.0630 -0.3169
  658MPD2     C 9788   1.636   3.405  14.641  0.2123 -0.2632 -0.4552
  658MPD2    C1 9789   1.516   3.386  14.578 -0.2665  0.3676 -0.1077
  658MPD2    C2 9790   1.506   3.311  14.458  0.2260  0.1888 -1.2755
  658MPD2    C3 9791   1.622   3.262  14.402  0.1793 -0.3923  0.1080
  658MPD2    C4 9792   1.744   3.275  14.467  0.1737  0.6897 -0.2263
  658MPD2    C5 9793   1.745   3.343  14.588 -0.7217 -0.4730  0.1996
  658MPD2     H 9794   1.416   3.289  14.403  0.9346 -2.0978 -1.5420
  658MPD2    H1 9795   1.836   3.236  14.425  0.0208 -0.1527  0.2235
  658MPD2    H2 9796   1.644   3.470  14.728 -1.2779  2.1009 -2.0528
  658MPD2    H3 9797   1.839   3.376  14.631 -0.0757 -0.9345 -0.8389
  658MPD2     N 9798   1.600   3.190  14.286  0.1533 -0.0014  0.5083
  658MPD2    H5 9799   1.508   3.190  14.243  0.2306 -0.4702  0.3426
  658MPD2    N1 9800   1.397   3.436  14.642  0.1896 -0.3273  0.4605
  658MPD2    H7 9801   1.420   3.494  14.722 -0.0221  1.2160 -0.5947
  659TMC3    C1 9802   1.188   3.528  14.670 -0.4144  0.3608 -0.0308
  659TMC3    C2 9803   1.168   3.529  14.801  0.0116 -0.5289  0.1567
  659TMC3    C3 9804   1.063   3.608  14.853  0.1444  0.0056 -0.4673
  659TMC3    C4 9805   1.095   3.599  14.593 -0.2463  0.0238 -0.4850
  659TMC3    C5 9806   0.995   3.680  14.645 -0.2625 -0.5875 -0.4281
  659TMC3    C6 9807   0.980   3.691  14.780  0.5135  0.8225 -0.3314
  659TMC3     C 9808   1.268   3.439  14.591  0.2665 -0.2506 -0.3421
  659TMC3     O 9809   1.221   3.387  14.495  0.4259  0.4178  0.6208
  659TMC3     H 9810   1.244   3.477  14.859  1.7274 -2.0164 -3.4235
  659TMC3    H1 9811   1.111   3.604  14.486  0.9364 -0.9688 -0.3587
  659TMC3    H2 9812   0.905   3.755  14.825  0.1342  1.1083 -1.3536
  659TMC3    C7 9813   0.869   3.671  14.589  0.3627  0.4455  0.5019
  659TMC3    C8 9814   1.053   3.626  15.002  0.5369 -0.5590 -0.2770
  659TMC3    O1 9815   0.784   3.668  14.674 -0.0096 -0.5868 -0.1398
  659TMC3    O2 9816   1.039   3.741  15.045  0.0744 -0.0852 -0.1990
  660MPD2     C 9817   3.998   1.696  12.299 -0.7957  0.2216  0.2225
  660MPD2    C1 9818   3.895   1.777  12.347  0.1180 -0.1968 -0.8313
  660MPD2    C2 9819   3.836   1.748  12.473  0.4618  0.4799  0.2332
  660MPD2    C3 9820   3.872   1.634  12.543 -0.3355 -0.4909 -0.4333
  660MPD2    C4 9821   3.967   1.552  12.487  0.5015 -0.2989  0.2035
  660MPD2    C5 9822   4.028   1.584  12.364 -0.1588  0.9671 -0.2066
  660MPD2     H 9823   3.754   1.808  12.511 -0.6162 -0.8034 -0.0813
  660MPD2    H1 9824   4.000   1.469  12.549 -1.0893  0.5312  2.1721
  660MPD2    H2 9825   4.063   1.737  12.222 -1.3603  0.7726  0.0405
  660MPD2    H3 9826   4.100   1.512  12.327 -1.5484 -0.9875  0.8984
  660MPD2     N 9827   3.805   1.581  12.658  0.8329 -0.4937  0.5083
  660MPD2    H5 9828   3.828   1.488  12.691 -0.3168 -1.1485 -0.5445
  660MPD2    N1 9829   3.870   1.899  12.282 -0.3769  0.0771  0.3494
  660MPD2    H7 9830   3.942   1.938  12.223 -1.6811  2.7981  0.5430
  661TMC3    C1 9831   3.732   2.085  12.217  0.2244  0.5132 -0.9613
  661TMC3    C2 9832   3.758   2.062  12.085  1.0672  0.2969 -1.3010
  661TMC3    C3 9833   3.663   2.106  11.996 -0.1825 -0.7101  0.1696
  661TMC3    C4 9834   3.630   2.155  12.259 -0.7239 -0.4587  0.2473
  661TMC3    C5 9835   3.534   2.197  12.166 -0.3159 -0.0872  0.0139
  661TMC3    C6 9836   3.554   2.186  12.032  0.6363  0.1076 -0.1939
  661TMC3     C 9837   3.747   1.963  12.291 -0.0520 -0.7947  0.2809
  661TMC3     O 9838   3.644   1.926  12.347 -0.0146  0.1257 -0.0400
  661TMC3     H 9839   3.845   2.010  12.047 -0.5457 -0.7228 -3.6144
  661TMC3    H1 9840   3.629   2.174  12.366  1.3857  0.8280  0.0452
  661TMC3    H2 9841   3.488   2.213  11.950  0.9125  2.2289  0.2862
  661TMC3    C7 9842   3.408   2.175  12.229  0.6661  0.8432 -0.2298
  661TMC3    C8 9843   3.699   2.092  11.855 -0.0447  0.8056  0.3796
  661TMC3    O1 9844   3.409   2.211  12.345  0.1957 -0.0232 -0.2731
  661TMC3    O2 9845   3.818   2.083  11.835 -0.1312 -0.1340 -0.0769
  662MPD2     C 9846   4.057   2.337  16.970  0.5245 -0.6054  0.1502
  662MPD2    C1 9847   4.054   2.262  17.085  0.0635  0.3418 -0.6392
  662MPD2    C2 9848   3.983   2.312  17.196  0.1796 -0.7092  0.3351
  662MPD2    C3 9849   3.919   2.437  17.184 -0.1638 -0.0556  0.0361
  662MPD2    C4 9850   3.935   2.514  17.071 -0.0639 -0.0837  0.4879
  662MPD2    C5 9851   4.007   2.462  16.968  0.4442 -0.3127  0.3274
  662MPD2     H 9852   3.991   2.259  17.290  0.1755 -0.2097  0.6169
  662MPD2    H1 9853   3.897   2.615  17.076  0.7003  0.2383 -0.2444
  662MPD2    H2 9854   4.106   2.293  16.884  0.9657  0.2854 -0.0548
  662MPD2    H3 9855   4.019   2.525  16.881 -1.3704 -0.4727 -0.0250
  662MPD2     N 9856   3.845   2.498  17.292 -0.4778 -0.3909 -0.3883
  662MPD2    H5 9857   3.789   2.578  17.265 -1.5674 -0.5805  1.3210
  662MPD2    N1 9858   4.097   2.130  17.105 -0.1089  0.4235 -0.0396
  662MPD2    H7 9859   4.090   2.087  17.196  0.2305  0.1301 -0.1520
  663TMC3    C1 9860   4.174   1.913  17.039 -0.5888 -0.3062 -1.1255
  663TMC3    C2 9861   4.248   1.873  17.146 -0.4879  0.7878 -0.8372
  663TMC3    C3 9862   4.329   1.764  17.130 -0.7187  0.3656  0.6961
  663TMC3    C4 9863   4.157   1.835  16.927  0.3402 -0.3163  0.1283
  663TMC3    C5 9864   4.232   1.720  16.924 -0.5097 -0.3501 -0.2397
  663TMC3    C6 9865   4.298   1.671  17.032 -0.0452 -0.2160 -0.6647
  663TMC3     C 9866   4.150   2.054  17.002 -0.7742 -0.0219 -0.1431
  663TMC3     O 9867   4.154   2.076  16.883  0.2281 -0.3890  0.0716
  663TMC3     H 9868   4.283   1.942  17.223 -1.0776 -0.0892  0.2251
  663TMC3    H1 9869   4.106   1.862  16.836  1.9738  2.6759  0.1067
  663TMC3    H2 9870   4.374   1.595  17.031  0.7287  0.5387  0.8015
  663TMC3    C7 9871   4.200   1.625  16.822 -0.0141 -0.0594  0.2050
  663TMC3    C8 9872   4.366   1.699  17.246 -0.0416 -0.3119 -0.3142
  663TMC3    O1 9873   4.133   1.645  16.721 -0.6645  0.1926  0.0789
  663TMC3    O2 9874   4.452   1.612  17.237 -0.4857 -0.3832  0.1877
  664MPD2     C 9875   2.552   4.689  17.287  0.5652 -0.1637 -0.4811
  664MPD2    C1 9876   2.543   0.044  17.392 -0.0285  1.3078  0.0887
  664MPD2    C2 9877   2.431   0.041  17.467  0.1475  1.0959 -0.1946
  664MPD2    C3 9878   2.329   4.688  17.447 -0.1574 -0.6142 -0.0422
  664MPD2    C4 9879   2.346   4.584  17.355  0.1916 -0.8790  0.7707
  664MPD2    C5 9880   2.461   4.585  17.282  1.0808  0.0005  0.2709
  664MPD2     H 9881   2.418   0.118  17.542  0.9672  1.0505 -0.0093
  664MPD2    H1 9882   2.276   4.504  17.332  1.2896 -1.2962 -1.0897
  664MPD2    H2 9883   2.632   4.683  17.215  1.5062  1.0489  0.4590
  664MPD2    H3 9884   2.472   4.519  17.197  1.0582 -0.0804  0.3307
  664MPD2     N 9885   2.210   4.703  17.512 -0.0987  0.6558  0.0084
  664MPD2    H5 9886   2.200   0.053  17.558 -0.8827  1.2885 -1.3863
  664MPD2    N1 9887   2.639   0.150  17.410  0.0037  0.2914  0.1049
  664MPD2    H7 9888   2.635   0.214  17.489  0.2588  0.7148 -0.2241
  665TMC3    C1 9889   1.987   4.698  17.581  0.2642 -0.8564  0.1188
  665TMC3    C2 9890   1.970   4.636  17.701  0.0701 -0.2122  0.3647
  665TMC3    C3 9891   1.992   4.705   0.063  0.3058 -0.2572  0.5089
  665TMC3    C4 9892   2.016   0.093  17.578  0.1472 -0.0638 -0.4801
  665TMC3    C5 9893   2.024   0.159  17.695 -0.2459 -0.2957 -0.7362
  665TMC3    C6 9894   2.012   0.098   0.059 -0.4015 -0.2179  0.4233
  665TMC3     C 9895   2.094   4.627  17.497 -0.0278  0.4149  0.5927
  665TMC3     O 9896   2.075   4.520  17.436 -0.1012  0.1344 -0.6844
  665TMC3     H 9897   1.953   4.529  17.702  0.6324 -0.3005  1.5405
  665TMC3    H1 9898   2.048   0.138  17.485  2.7088  0.1963  0.5227
  665TMC3    H2 9899   2.037   0.156   0.147  0.7468 -1.3933  0.8769
  665TMC3    C7 9900   2.084   0.294  17.685 -0.5023 -0.5295 -0.2320
  665TMC3    C8 9901   1.991   4.634   0.191 -0.0625 -0.8152  0.8954
  665TMC3    O1 9902   2.089   0.336  17.573  0.0865  0.5547 -0.3523
  665TMC3    O2 9903   2.060   4.688   0.276  0.2057  0.4947 -0.2697
  666TMC3    C1 9904   1.416   4.137  10.024  0.0729 -0.4015 -0.2757
  666TMC3    C2 9905   1.505   4.055  10.089 -0.5184  0.3394 -0.3801
  666TMC3    C3 9906   1.599   4.116  10.163  0.1217 -0.0036 -0.1977
  666TMC3    C4 9907   1.422   4.270  10.033 -0.3084  0.3093 -0.5215
  666TMC3    C5 9908   1.521   4.328  10.104 -0.8217  0.7580 -0.2101
  666TMC3    C6 9909   1.611   4.250  10.173  0.0248 -0.7431 -0.3918
  666TMC3     C 9910   1.322   4.083   9.935 -0.3079 -0.3021  0.3693
  666TMC3     O 9911   1.265   4.158   9.857 -0.4011  0.3209  0.1838
  666TMC3     H 9912   1.515   3.950  10.064 -0.7538  0.2592 -0.1474
  666TMC3    H1 9913   1.336   4.316   9.985 -1.4370 -2.2882 -1.0126
  666TMC3    H2 9914   1.688   4.295  10.235 -0.8540 -0.4258  0.4712
  666TMC3    C7 9915   1.519   4.471  10.142 -0.2377  0.1634  0.2456
  666TMC3    C8 9916   1.704   4.036  10.225  0.1314  1.0749  0.5397
  666TMC3    O1 9917   1.413   4.532  10.159 -0.1066 -0.0506 -0.5431
  666TMC3    O2 9918   1.679   3.920  10.247  0.1720 -0.1979  0.0625
  667MPD2     C 9919   2.966   4.448  14.869  0.2790 -0.4273  0.4286
  667MPD2    C1 9920   2.855   4.517  14.914  0.2129  0.6404  0.3398
  667MPD2    C2 9921   2.726   4.465  14.885  0.0862  0.1429 -0.7393
  667MPD2    C3 9922   2.704   4.348  14.811 -0.1648  0.3475  0.2865
  667MPD2    C4 9923   2.814   4.286  14.769 -0.1982 -0.0183 -0.3611
  667MPD2    C5 9924   2.938   4.337  14.794 -0.0290  0.1003  0.0896
  667MPD2     H 9925   2.638   4.523  14.910  1.2472  2.2620 -1.5655
  667MPD2    H1 9926   2.803   4.198  14.707  0.7003  0.4763 -1.2149
  667MPD2    H2 9927   3.065   4.490  14.885  0.9945 -1.6306 -0.7925
  667MPD2    H3 9928   3.020   4.279  14.754 -0.7976 -0.4316 -0.7294
  667MPD2     N 9929   2.584   4.288  14.775 -0.0738  0.1148  0.4752
  667MPD2    H5 9930   2.589   4.205  14.717 -1.1303 -0.1635  0.7816
  667MPD2    N1 9931   2.864   4.648  14.972  0.0582  0.4397  0.5147
  667MPD2    H7 9932   2.781   4.684  15.017 -1.1668 -0.2497 -1.1561
  668TMC3    C1 9933   2.974   0.086  15.075  0.5261 -0.1036 -0.2935
  668TMC3    C2 9934   3.068   0.173  15.060  0.3074  0.5864  0.2194
  668TMC3    C3 9935   3.128   0.234  15.165 -0.9208  0.6515 -0.1981
  668TMC3    C4 9936   2.934   0.052  15.201 -0.3766  0.0424 -0.2671
  668TMC3    C5 9937   2.988   0.121  15.311 -0.4472  0.6728 -1.1732
  668TMC3    C6 9938   3.087   0.213  15.293 -0.2394  0.4839  0.0283
  668TMC3     C 9939   2.976   4.733  14.976  0.9453  0.0061  0.2196
  668TMC3     O 9940   3.084   4.714  14.924  0.7808  0.2959 -0.5336
  668TMC3     H 9941   3.098   0.213  14.964 -0.3257 -0.7321 -0.5175
  668TMC3    H1 9942   2.870   4.705  15.210  2.0257 -1.5836  0.7983
  668TMC3    H2 9943   3.147   0.253  15.373  0.1025 -1.6490  0.8264
  668TMC3    C7 9944   2.925   0.089  15.439  0.3586  0.6578  0.3223
  668TMC3    C8 9945   3.230   0.335  15.146 -0.2974  0.0243  0.1290
  668TMC3    O1 9946   2.853   4.726  15.446  0.4512  0.2853 -0.0162
  668TMC3    O2 9947   3.250   0.412  15.245  0.1644 -0.4810 -0.1091
  669TMC3    C1 9948   1.197   0.689  14.697 -0.3535  0.5686 -0.1626
  669TMC3    C2 9949   1.073   0.703  14.639 -0.0527  0.0012  0.4666
  669TMC3    C3 9950   1.077   0.756  14.511  0.2773 -0.2135  0.0162
  669TMC3    C4 9951   1.319   0.708  14.643 -0.6265 -0.6896 -0.3210
  669TMC3    C5 9952   1.312   0.759  14.513 -0.6031 -0.0070  0.8362
  669TMC3    C6 9953   1.197   0.796  14.449 -0.2443 -0.1728  0.1501
  669TMC3     C 9954   1.194   0.602  14.809 -0.3415 -1.3805  1.0125
  669TMC3     O 9955   1.095   0.529  14.814 -0.2106  0.1197  0.1660
  669TMC3     H 9956   0.984   0.664  14.687  0.1511 -0.0419  0.8124
  669TMC3    H1 9957   1.408   0.665  14.688 -0.7646  0.5006  1.1183
  669TMC3    H2 9958   1.195   0.847  14.353 -1.9211  2.4721  1.5914
  669TMC3    C7 9959   1.418   0.739  14.415  0.2959 -0.0637  0.3518
  669TMC3    C8 9960   0.969   0.723  14.420  0.4926  0.1151  0.1446
  669TMC3    O1 9961   1.436   0.821  14.324 -0.4558 -0.3178  0.3080
  669TMC3    O2 9962   0.992   0.729  14.303 -0.1893  0.6496 -0.1046
  670MPD2     C 9963   4.044   2.533  13.234 -0.4582 -0.5918  0.3557
  670MPD2    C1 9964   4.050   2.413  13.166 -0.0188  0.2165 -0.4875
  670MPD2    C2 9965   4.032   2.294  13.236  0.1472  0.2129  0.5882
  670MPD2    C3 9966   4.016   2.302  13.372  0.0793  0.3631 -0.1613
  670MPD2    C4 9967   4.012   2.428  13.436  0.9001  0.2979 -0.4835
  670MPD2    C5 9968   4.027   2.542  13.365  0.4767 -0.5752 -1.1251
  670MPD2     H 9969   4.015   2.202  13.181 -0.0048  1.8340 -2.0675
  670MPD2    H1 9970   3.974   2.438  13.538  0.5039  1.1094 -0.7083
  670MPD2    H2 9971   4.053   2.631  13.188  1.3748 -0.2327  1.4759
  670MPD2    H3 9972   4.024   2.645  13.399  2.7856 -0.9265  0.1757
  670MPD2     N 9973   3.994   2.181  13.437  0.3469  0.2089 -0.6255
  670MPD2    H5 9974   3.995   2.094  13.385 -0.3178 -0.3579  0.3294
  670MPD2    N1 9975   4.073   2.411  13.033 -0.1988 -0.4500 -0.2044
  670MPD2    H7 9976   4.090   2.319  12.994  1.9368 -0.0628 -0.2364
  671TMC3    C1 9977   3.989   2.013  13.609  0.0597  0.6613  0.7369
  671TMC3    C2 9978   4.058   1.978  13.722  0.2088  0.8386  0.1733
  671TMC3    C3 9979   4.096   1.852  13.734  0.6509  0.0887 -0.1009
  671TMC3    C4 9980   3.944   1.920  13.517  0.0289 -0.1222  0.8855
  671TMC3    C5 9981   3.975   1.788  13.546 -0.1876 -0.3458  0.4721
  671TMC3    C6 9982   4.053   1.751  13.655  0.4315 -0.1208 -0.2119
  671TMC3     C 9983   4.011   2.158  13.572  0.2695 -0.0455 -0.4886
  671TMC3     O 9984   4.076   2.222  13.657 -0.0422 -0.0384  0.4038
  671TMC3     H 9985   4.109   2.053  13.782 -0.2384  1.1752  0.1341
  671TMC3    H1 9986   3.887   1.952  13.431 -2.0750 -0.4626  2.1505
  671TMC3    H2 9987   4.100   1.653  13.655 -1.3489 -0.9701 -0.9191
  671TMC3    C7 9988   3.987   1.710  13.424  0.1681 -0.1661  0.1433
  671TMC3    C8 9989   4.239   1.849  13.756 -0.0411  0.2761 -0.0465
  671TMC3    O1 9990   3.969   1.769  13.320  0.6134  0.2038 -0.3504
  671TMC3    O2 9991   4.310   1.935  13.706  0.0872  0.2189 -0.2578
  672MPD2     C 9992   4.395   2.825   0.509  0.5353  0.6692 -0.1279
  672MPD2    C1 9993   4.456   2.703   0.512 -0.5232 -0.0498 -0.1033
  672MPD2    C2 9994   4.592   2.703   0.520 -0.1691 -0.7686 -0.0793
  672MPD2    C3 9995   4.667   2.815   0.508 -0.0511  0.0964  0.5019
  672MPD2    C4 9996   4.600   2.939   0.504 -0.2358  0.0455  0.8805
  672MPD2    C5 9997   4.466   2.944   0.510  0.0055  0.1290 -0.0182
  672MPD2     H 9998   4.640   2.605   0.524  0.3312 -0.4874  0.8636
  672MPD2    H1 9999   4.654   3.033   0.488 -2.0368  0.9063 -0.1295
  672MPD2    H210000   4.287   2.838   0.507  0.3544 -0.5340  2.2155
  672MPD2    H310001   4.407   3.035   0.500 -1.0580 -0.6193 -0.5490
  672MPD2     N10002   0.075   2.817   0.494 -0.0029  0.2045 -0.1493
  672MPD2    H510003   0.118   2.908   0.510 -1.1387  0.9803 -1.5451
  672MPD2    N110004   4.377   2.590   0.505 -0.7083 -0.0486 -0.5269
  672MPD2    H710005   4.421   2.499   0.513 -2.4515 -0.8661 -0.1430
  673TMC3    C110006   4.191   2.448   0.477 -0.3250 -0.4895  0.6494
  673TMC3    C210007   4.215   2.378   0.590 -0.0506  0.2295  0.8443
  673TMC3    C310008   4.109   2.328   0.665  0.2973 -0.2502 -0.1670
  673TMC3    C410009   4.068   2.459   0.430  0.1981 -0.3757  0.9673
  673TMC3    C510010   3.958   2.419   0.507  0.3017 -0.0872 -0.5658
  673TMC3    C610011   3.982   2.348   0.621 -0.7871 -0.0818 -0.1106
  673TMC3     C10012   4.248   2.581   0.465  0.2043 -0.4468  0.1017
  673TMC3     O10013   4.170   2.665   0.413 -0.0507 -0.0990  0.3957
  673TMC3     H10014   4.315   2.376   0.631 -0.1193  1.2576  1.0809
  673TMC3    H110015   4.051   2.499   0.330 -0.8435  1.2550  1.7862
  673TMC3    H210016   3.897   2.321   0.683 -0.8823  1.7122  0.5673
  673TMC3    C710017   3.857   2.519   0.528 -0.7764 -0.4154 -0.0959
  673TMC3    C810018   4.137   2.259   0.792 -0.8297  0.0758 -0.1995
  673TMC3    O110019   3.744   2.498   0.567 -0.2885  0.1507 -0.3759
  673TMC3    O210020   4.056   2.252   0.882  0.0737 -0.3597  0.5704
  674MPD2     C10021   4.179   3.216  17.470  0.0291 -0.3766 -0.3123
  674MPD2    C110022   4.059   3.174  17.523 -0.1101 -1.2414 -0.9357
  674MPD2    C210023   3.947   3.258  17.518 -0.5454  0.0422 -0.2569
  674MPD2    C310024   3.950   3.375  17.448 -0.2332  0.1683 -0.2889
  674MPD2    C410025   4.074   3.415  17.399 -0.7673  0.1736  0.8318
  674MPD2    C510026   4.183   3.333  17.398 -0.7991 -0.0338 -0.0472
  674MPD2     H10027   3.851   3.215  17.544 -0.1314  0.4006  1.8616
  674MPD2    H110028   4.082   3.510  17.348 -0.1272 -0.6202 -0.5352
  674MPD2    H210029   4.264   3.149  17.473 -0.4896 -1.0827 -1.5905
  674MPD2    H310030   4.275   3.354  17.345 -0.2647 -0.5914  0.6512
  674MPD2     N10031   3.834   3.454  17.433 -0.6360  0.1694 -0.8691
  674MPD2    H510032   3.746   3.404  17.448  0.2712 -1.3561 -0.5984
  674MPD2    N110033   4.060   3.045  17.569  0.0458  0.0636  0.0611
  674MPD2    H710034   4.148   2.994  17.571  0.3454  0.5091 -1.4074
  675TMC3    C110035   3.984   2.835  17.662 -0.4156  0.7684 -0.8513
  675TMC3    C210036   3.908   2.775   0.005  0.3475 -0.2137  0.9132
  675TMC3    C310037   3.908   2.641   0.013  0.1741 -0.1352 -0.1487
  675TMC3    C410038   4.060   2.767  17.568 -0.0986  0.0877  0.0835
  675TMC3    C510039   4.052   2.632  17.583  0.2688  0.2954  0.1755
  675TMC3    C610040   3.982   2.571  17.680 -0.3955 -0.0423 -0.1747
  675TMC3     C10041   3.959   2.983  17.642  0.8244 -0.6441  0.5168
  675TMC3     O10042   3.859   3.036  17.694  0.2883  0.0650 -0.2547
  675TMC3     H10043   3.846   2.835   0.070 -0.5263 -1.0232  0.8335
  675TMC3    H110044   4.111   2.820  17.489  1.5633 -0.2840  0.9006
  675TMC3    H210045   3.984   2.464  17.697  1.4802 -0.3866 -2.4597
  675TMC3    C710046   4.162   2.556  17.531 -0.5707  0.3982  0.4105
  675TMC3    C810047   3.807   2.573   0.089  0.8016  0.0319 -0.0421
  675TMC3    O110048   4.204   2.463  17.593 -0.3234 -0.1472  0.0161
  675TMC3    O210049   3.718   2.649   0.130 -0.3387 -0.2369 -0.4827
  676MPD2     C10050   2.000   0.558  11.066  0.0715  0.8000  0.5314
  676MPD2    C110051   1.977   0.480  11.177 -0.0446 -1.0091 -0.5065
  676MPD2    C210052   2.055   0.370  11.200  0.1951  0.7171  0.6640
  676MPD2    C310053   2.139   0.318  11.103 -0.1773  0.1887 -0.0660
  676MPD2    C410054   2.148   0.390  10.987 -0.6568 -0.1168  0.4254
  676MPD2    C510055   2.086   0.511  10.967  0.0877 -0.1535  0.3093
  676MPD2     H10056   2.049   0.319  11.296 -1.4562  1.8853  1.1965
  676MPD2    H110057   2.217   0.363  10.907 -1.3905 -0.9787  0.0873
  676MPD2    H210058   1.937   0.643  11.040 -1.5624  0.0218  1.8705
  676MPD2    H310059   2.111   0.555  10.872 -0.0671  0.0038  0.3419
  676MPD2     N10060   2.208   0.191  11.114  0.7066 -0.8941  0.0397
  676MPD2    H510061   2.248   0.156  11.027  0.9980 -0.1218 -0.1381
  676MPD2    N110062   1.884   0.525  11.278 -0.3131  1.0251 -0.3738
  676MPD2    H710063   1.868   0.457  11.352 -0.6815 -1.0510 -2.3641
  677TMC3    C110064   1.758   0.674  11.402 -0.5209  0.7087  0.6124
  677TMC3    C210065   1.689   0.576  11.464  0.4252 -0.0729  0.7333
  677TMC3    C310066   1.628   0.604  11.587 -0.3277  0.5461 -0.4544
  677TMC3    C410067   1.779   0.792  11.468 -0.1347  0.3016 -0.2566
  677TMC3    C510068   1.738   0.811  11.590  0.7999 -0.1235 -0.3690
  677TMC3    C610069   1.667   0.713  11.652 -1.2194 -0.9704  0.1547
  677TMC3     C10070   1.831   0.648  11.280 -0.4183  0.3343 -0.2427
  677TMC3     O10071   1.858   0.748  11.208 -0.4684  0.3065  0.2378
  677TMC3     H10072   1.667   0.483  11.414  1.4951 -0.0912  0.2863
  677TMC3    H110073   1.838   0.870  11.421 -0.4317  0.5838 -0.1618
  677TMC3    H210074   1.625   0.730  11.751  0.4634  0.5589  0.6307
  677TMC3    C710075   1.797   0.903  11.678  0.0610 -0.6451 -0.5235
  677TMC3    C810076   1.628   0.497  11.683 -0.3876 -0.4150 -0.2015
  677TMC3    O110077   1.748   0.908  11.789  0.3116 -0.2019 -0.2269
  677TMC3    O210078   1.529   0.495  11.756 -0.3885 -0.7176  0.0239
  678MPD2     C10079   3.136   1.480   1.298 -0.2839 -0.1516 -0.2175
  678MPD2    C110080   3.153   1.396   1.190 -0.0380 -0.5950  0.0526
  678MPD2    C210081   3.041   1.353   1.128 -0.1258  0.0773  0.3691
  678MPD2    C310082   2.916   1.386   1.160  0.4062 -0.1403  0.8349
  678MPD2    C410083   2.898   1.473   1.268  0.9991 -0.4940  0.0366
  678MPD2    C510084   3.011   1.521   1.339  0.0294 -0.1530 -0.6519
  678MPD2     H10085   3.062   1.284   1.046  0.7953  0.1321  0.5570
  678MPD2    H110086   2.799   1.503   1.300  0.6694 -0.5310 -0.9575
  678MPD2    H210087   3.216   1.521   1.359  0.5023  0.0193 -1.3427
  678MPD2    H310088   2.998   1.580   1.429  0.5420 -2.4196  0.9057
  678MPD2     N10089   2.809   1.328   1.086  0.5067 -0.0978 -0.0560
  678MPD2    H510090   2.834   1.276   1.002 -0.3589  0.4155 -0.6283
  678MPD2    N110091   3.280   1.370   1.133 -0.0618  0.5699  0.5273
  678MPD2    H710092   3.267   1.290   1.071 -0.6523  2.0166 -1.2046
  679TMC3    C110093   3.630   1.198   0.989 -0.0646 -0.1622  0.5973
  679TMC3    C210094   3.517   1.241   1.056 -0.0835  0.1185 -0.0188
  679TMC3    C310095   3.514   1.367   1.098 -0.6515 -0.3677 -0.1136
  679TMC3    C410096   3.741   1.280   0.974 -0.3126 -0.5627 -0.8906
  679TMC3    C510097   3.732   1.412   1.020 -0.1283  0.2863 -0.4288
  679TMC3    C610098   3.613   1.457   1.069 -0.5315  0.5399 -0.4318
  679TMC3     C10099   3.648   1.056   0.954  0.3625  0.5246  0.1029
  679TMC3     O10100   3.757   1.032   0.900  0.2852 -0.2890 -0.1447
  679TMC3     H10101   3.446   1.170   1.098  0.7290 -1.5821 -1.5160
  679TMC3    H110102   3.833   1.241   0.932 -0.3952  1.6540 -3.0660
  679TMC3    H210103   3.601   1.563   1.090 -2.9334  0.4583 -1.3482
  679TMC3    C710104   3.814   1.509   0.952  0.7081 -0.2817 -0.0597
  679TMC3    C810105   3.400   1.422   1.167  0.7875 -0.1341 -0.2187
  679TMC3    O110106   3.750   1.612   0.924  0.2539  0.5949  0.1391
  679TMC3    O210107   3.431   1.504   1.259 -0.0810  0.2000  0.1753
  680MPD2     C10108   4.054   4.530  13.362  0.0180  0.1050  0.0034
  680MPD2    C110109   4.074   4.452  13.474  0.6050  0.0791 -0.3244
  680MPD2    C210110   4.113   4.519  13.590 -0.3276 -0.0763  0.5137
  680MPD2    C310111   4.118   4.649  13.603 -0.0234 -0.1444  0.0327
  680MPD2    C410112   4.082   4.727  13.492  0.1548 -0.1872  0.5103
  680MPD2    C510113   4.054   4.667  13.371  0.3329 -0.4086 -0.7075
  680MPD2     H10114   4.151   4.461  13.673 -2.5411 -1.4743  0.5649
  680MPD2    H110115   4.087   0.095  13.505  0.2451 -0.1668  0.3130
  680MPD2    H210116   4.026   4.485  13.267 -1.0415 -2.2617  1.4582
  680MPD2    H310117   4.028   4.737  13.292 -0.9235 -0.6581 -0.5123
  680MPD2     N10118   4.186   4.716  13.712  0.0291  0.0390  0.1224
  680MPD2    H510119   4.206   0.073  13.693  0.0890  0.1684  0.8483
  680MPD2    N110120   4.082   4.312  13.461  0.4304  0.1558  0.0787
  680MPD2    H710121   4.092   4.256  13.546 -0.7757 -0.7648 -0.3859
  681TMC3    C110122   4.116   4.093  13.387  0.5025  0.6429  0.2985
  681TMC3    C210123   4.026   4.042  13.474  0.2634 -0.1980  0.2155
  681TMC3    C310124   4.066   3.927  13.532 -0.5678  0.3967 -0.1740
  681TMC3    C410125   4.228   4.039  13.349  0.1950  0.3002  0.0174
  681TMC3    C510126   4.273   3.925  13.413  0.2576 -0.0432  0.3341
  681TMC3    C610127   4.186   3.864  13.505  0.5854  0.5214 -0.0927
  681TMC3     C10128   4.096   4.235  13.347 -0.3672  0.5274  0.0342
  681TMC3     O10129   4.135   4.269  13.235 -0.8930 -0.4228 -0.0667
  681TMC3     H10130   3.933   4.092  13.501  0.7646  1.7585 -1.7615
  681TMC3    H110131   4.294   4.096  13.284 -0.7037  2.7922  1.3168
  681TMC3    H210132   4.214   3.779  13.566 -0.4285  0.7786  0.7260
  681TMC3    C710133   4.405   3.878  13.400 -0.0052 -0.2096 -0.3766
  681TMC3    C810134   3.964   3.857  13.614 -0.7857 -0.7267 -0.7849
  681TMC3    O110135   4.445   3.799  13.482  0.2159 -0.5905  0.4265
  681TMC3    O210136   3.932   3.740  13.592  0.3949 -0.9715  0.3291
  682MPD2     C10137   1.292   0.996  10.548 -0.3107 -0.1935 -0.6048
  682MPD2    C110138   1.274   0.882  10.624 -0.8509 -0.6973 -0.3674
  682MPD2    C210139   1.246   0.910  10.759 -0.1009 -0.0454  0.3619
  682MPD2    C310140   1.233   1.036  10.810 -0.7720 -0.0589 -0.5468
  682MPD2    C410141   1.242   1.142  10.726  0.0623 -0.3823 -0.1690
  682MPD2    C510142   1.276   1.118  10.593  0.0970 -0.4649  0.2347
  682MPD2     H10143   1.225   0.828  10.826  1.5020 -0.2504  0.6001
  682MPD2    H110144   1.215   1.243  10.755 -0.4737 -0.5151 -0.2063
  682MPD2    H210145   1.313   0.985  10.442  0.8489  0.7662 -0.4661
  682MPD2    H310146   1.282   1.206  10.530 -0.5087  0.3427  1.3003
  682MPD2     N10147   1.213   1.069  10.943  0.1623  0.4809  0.1053
  682MPD2    H510148   1.230   1.166  10.969  2.5876  0.4386 -1.3763
  682MPD2    N110149   1.285   0.748  10.577 -0.4772  0.2675 -0.0891
  682MPD2    H710150   1.246   0.680  10.641  2.2651  0.7747  2.1344
  683TMC3    C110151   1.178   1.218  11.335 -0.3594  0.2375  0.6247
  683TMC3    C210152   1.081   1.169  11.415  0.1605  0.1807  0.9336
  683TMC3    C310153   1.010   1.062  11.372  0.2196  0.2446 -0.3211
  683TMC3    C410154   1.209   1.168  11.210  0.1916  0.0082 -1.0337
  683TMC3    C510155   1.132   1.058  11.168  0.4789  0.0239  0.4893
  683TMC3    C610156   1.037   0.999  11.249  0.0114  1.1411 -0.6537
  683TMC3     C10157   1.247   1.338  11.383 -0.5616  0.0957  0.2616
  683TMC3     O10158   1.216   1.389  11.487 -0.2009  0.5400  0.3956
  683TMC3     H10159   1.060   1.204  11.516 -0.4799  2.6578 -0.0502
  683TMC3    H110160   1.280   1.217  11.143 -0.8510  1.8274 -0.8063
  683TMC3    H210161   0.972   0.924  11.205  2.1688  0.4084 -2.5660
  683TMC3    C710162   1.162   0.992  11.040 -0.6907  0.1526  0.1953
  683TMC3    C810163   0.938   0.986  11.468 -0.0094 -0.0724 -0.6822
  683TMC3    O110164   1.121   0.875  11.033  0.2511  0.2716  1.2890
  683TMC3    O210165   0.893   1.043  11.566 -0.7696  0.5483 -0.0164
  684MPD2     C10166   4.505   0.681  16.545 -0.0893 -0.5047 -0.1571
  684MPD2    C110167   4.503   0.729  16.413  0.0888 -0.1849 -0.1590
  684MPD2    C210168   4.474   0.860  16.385  0.0308 -0.4599  0.0291
  684MPD2    C310169   4.463   0.948  16.490  0.6278  0.4010 -0.2044
  684MPD2    C410170   4.487   0.906  16.622 -0.2290 -0.0560  0.0280
  684MPD2    C510171   4.505   0.778  16.648 -0.2981 -0.4077  0.0778
  684MPD2     H10172   4.487   0.903  16.286 -0.1519  0.6971  0.5073
  684MPD2    H110173   4.499   0.985  16.696 -2.7055 -0.7924  1.2293
  684MPD2    H210174   4.516   0.577  16.571  1.9338 -0.8819 -2.5325
  684MPD2    H310175   4.517   0.753  16.753  1.3974 -0.6682 -0.1707
  684MPD2     N10176   4.452   1.088  16.463  0.7734  0.2567 -0.0414
  684MPD2    H510177   4.461   1.152  16.542 -1.1151  0.8603 -0.3190
  684MPD2    N110178   4.539   0.652  16.302  0.1085  0.4161  0.4061
  684MPD2    H710179   4.514   0.693  16.213 -0.2566 -1.7554 -0.5059
  685TMC3    C110180   4.698   0.549  16.172 -0.4272  0.0192  0.4724
  685TMC3    C210181   4.616   0.557  16.067  0.1403  0.0959  0.8711
  685TMC3    C310182   4.684   0.560  15.945 -0.9256  0.7928  0.5688
  685TMC3    C410183   0.093   0.551  16.172  0.3113  0.4371  0.0189
  685TMC3    C510184   0.153   0.561  16.048 -0.0932 -0.0640 -0.0977
  685TMC3    C610185   0.080   0.572  15.938  0.8332  1.2841  0.4764
  685TMC3     C10186   4.648   0.564  16.307  0.4119  0.4377 -0.8643
  685TMC3     O10187   4.712   0.520  16.403  0.2131 -0.1521 -0.1597
  685TMC3     H10188   4.513   0.524  16.078  0.1364 -1.2354 -3.0192
  685TMC3    H110189   0.154   0.557  16.262 -1.7475  0.1713  1.4362
  685TMC3    H210190   0.122   0.574  15.838  0.4648 -0.4266  0.2879
  685TMC3    C710191   0.288   0.612  16.041  0.0256 -0.1541 -0.1654
  685TMC3    C810192   4.613   0.596  15.821  0.2022 -0.1306  0.0605
  685TMC3    O110193   0.330   0.667  15.936  0.3612  0.1252 -0.1747
  685TMC3    O210194   4.659   0.565  15.710  0.6890  0.1677  0.2060
  686MPD2     C10195   0.699   0.909  15.741  0.4755 -0.1484 -0.5501
  686MPD2    C110196   0.748   0.821  15.835 -0.1985 -0.7772 -0.0841
  686MPD2    C210197   0.825   0.864  15.936  0.4284  0.0683  0.2360
  686MPD2    C310198   0.873   0.993  15.944  0.5456  0.4495 -0.3775
  686MPD2    C410199   0.827   1.085  15.851 -0.0223  0.6222 -0.0325
  686MPD2    C510200   0.729   1.044  15.761  0.8093  0.1329  0.0732
  686MPD2     H10201   0.849   0.789  16.011  0.2270 -0.7212 -0.4826
  686MPD2    H110202   0.863   1.187  15.855  1.6514  0.0233  0.0972
  686MPD2    H210203   0.633   0.886  15.658  1.5348  2.2217 -2.0304
  686MPD2    H310204   0.691   1.108  15.683  1.2964 -0.9715 -1.0669
  686MPD2     N10205   0.986   1.026  16.024 -0.0676 -0.0169 -0.4161
  686MPD2    H510206   1.037   1.110  15.996  1.0906 -0.7607 -0.5486
  686MPD2    N110207   0.705   0.684  15.811 -0.3765  0.1287 -0.4578
  686MPD2    H710208   0.631   0.672  15.742  0.8816  2.0192 -2.1102
  687TMC3    C110209   1.181   0.951  16.113 -0.0340  0.4108  0.4954
  687TMC3    C210210   1.234   1.001  15.993 -0.4674 -0.6946  0.7139
  687TMC3    C310211   1.360   0.956  15.957  0.1935 -0.2405 -0.2333
  687TMC3    C410212   1.242   0.844  16.177 -0.2204 -0.0107 -1.2657
  687TMC3    C510213   1.362   0.797  16.131  0.4106 -0.0376  0.8148
  687TMC3    C610214   1.422   0.856  16.022 -0.2826 -0.5602  0.4704
  687TMC3     C10215   1.040   0.950  16.119 -0.5130  0.0225 -0.6043
  687TMC3     O10216   0.990   0.864  16.188  0.0206  0.5813 -0.1606
  687TMC3     H10217   1.207   1.098  15.952  0.5231 -0.1782  1.2823
  687TMC3    H110218   1.190   0.808  16.265 -0.2310 -2.9473 -2.5035
  687TMC3    H210219   1.511   0.816  15.977 -1.6696 -1.6909 -1.2632
  687TMC3    C710220   1.423   0.673  16.186  0.1593  0.3644 -0.1451
  687TMC3    C810221   1.418   1.001  15.830 -0.0503 -0.2629 -0.3078
  687TMC3    O110222   1.529   0.645  16.140  0.3419 -0.5220 -0.7900
  687TMC3    O210223   1.537   0.994  15.804  0.7369  0.5469  0.6167
  688MPD2     C10224   4.733   4.035  17.103  0.2235  0.5571  0.9790
  688MPD2    C110225   0.035   3.906  17.115  0.0651  0.3285  0.3320
  688MPD2    C210226   0.140   3.867  17.031  0.7338 -0.2547  0.3104
  688MPD2    C310227   0.197   3.954  16.936  0.4099  0.2307 -0.5149
  688MPD2    C410228   0.151   4.080  16.921 -0.4526 -0.1417 -0.3043
  688MPD2    C510229   0.046   4.114  17.008 -0.0823  0.8036  0.2242
  688MPD2     H10230   0.176   3.764  17.036 -0.3858 -0.6999 -0.8039
  688MPD2    H110231   0.185   4.146  16.842 -1.9295 -0.4636 -1.2010
  688MPD2    H210232   4.652   4.082  17.157  0.2160 -0.8735  2.2231
  688MPD2    H310233   4.735   4.206  16.984 -0.7929  0.6345  1.1238
  688MPD2     N10234   0.317   3.922  16.870 -0.3061 -0.1561  0.7857
  688MPD2    H510235   0.337   3.984  16.793 -0.9226  1.6769  2.0959
  688MPD2    N110236   4.727   3.808  17.212  0.0137 -0.4668 -0.6529
  688MPD2    H710237   0.034   3.718  17.210  1.8820  0.4927 -0.5065
  689TMC3    C110238   4.642   3.720  17.405  0.2418  0.7685 -0.6326
  689TMC3    C210239   4.712   3.760  17.514  0.6844 -0.7280  0.4577
  689TMC3    C310240   4.738   3.665  17.610 -0.5971  0.3571 -0.0562
  689TMC3    C410241   4.621   3.587  17.373  1.1257  0.1240  0.0469
  689TMC3    C510242   4.631   3.499  17.477  0.0881  0.5414 -0.4601
  689TMC3    C610243   4.697   3.536  17.592 -0.0480  0.3658  0.0708
  689TMC3     C10244   4.635   3.825  17.310  0.6293  0.1477 -1.0209
  689TMC3     O10245   4.554   3.915  17.327 -0.7566  0.3722 -0.2975
  689TMC3     H10246   4.714   3.867  17.527  1.3402 -0.8743  1.5531
  689TMC3    H110247   4.561   3.557  17.288  0.7677 -1.4405  0.8494
  689TMC3    H210248   4.712   3.468  17.675 -0.7343 -0.3467 -0.3951
  689TMC3    C710249   4.592   3.361  17.467  0.4975  0.6325 -0.5932
  689TMC3    C810250   0.058   3.694  17.738  0.4970  0.6658 -0.0387
  689TMC3    O110251   4.599   3.289  17.567  0.0544  0.3540 -0.8753
  689TMC3    O210252   0.065   3.607   0.065 -0.1020  0.1996 -0.0321
  690MPD2     C10253   2.380   0.994  15.906 -0.5414  0.1794  0.4401
  690MPD2    C110254   2.303   1.023  15.793 -0.9177 -0.3641  0.1526
  690MPD2    C210255   2.364   1.038  15.665  0.1074  0.0554  0.2534
  690MPD2    C310256   2.500   1.041  15.661 -0.3824 -1.0179 -0.1531
  690MPD2    C410257   2.578   1.023  15.772  0.0383 -0.1902  0.2181
  690MPD2    C510258   2.517   0.991  15.891  0.6768  0.2461 -0.7688
  690MPD2     H10259   2.302   1.045  15.576  1.2712 -1.8913 -0.6908
  690MPD2    H110260   2.687   1.017  15.770  0.0134 -0.4504 -0.3306
  690MPD2    H210261   2.333   0.961  15.998 -0.1073 -4.6645 -1.0660
  690MPD2    H310262   2.583   0.966  15.973 -1.1782  0.7664  0.8722
  690MPD2     N10263   2.572   1.065  15.540  0.0104 -0.7812  0.1979
  690MPD2    H510264   2.670   1.040  15.544  0.4341  0.8791 -0.0714
  690MPD2    N110265   2.167   1.037  15.808  0.0130 -0.4869 -0.6076
  690MPD2    H710266   2.110   1.016  15.726 -1.2247 -1.6654  0.5589
  691TMC3    C110267   1.970   1.007  15.916 -0.4749  0.5120 -0.3937
  691TMC3    C210268   1.891   1.053  16.017 -0.1978 -0.0791  0.0069
  691TMC3    C310269   1.803   0.971  16.071 -0.1128  0.1548  0.6924
  691TMC3    C410270   1.969   0.878  15.875 -0.2315  0.7935 -0.0143
  691TMC3    C510271   1.874   0.794  15.940  0.4352  0.0761  0.1303
  691TMC3    C610272   1.793   0.845  16.036 -0.4982 -0.2118 -0.4135
  691TMC3     C10273   2.101   1.067  15.919  0.5602 -0.3473  0.5560
  691TMC3     O10274   2.134   1.118  16.028  0.0145  0.0175 -0.0924
  691TMC3     H10275   1.901   1.153  16.057 -1.7031  1.2870 -2.9947
  691TMC3    H110276   2.030   0.839  15.795  1.0801  2.0591  0.3664
  691TMC3    H210277   1.710   0.796  16.085  0.8785  0.2685  2.3786
  691TMC3    C710278   1.871   0.652  15.908 -0.4021  0.3640  0.2186
  691TMC3    C810279   1.679   1.025  16.135  0.1932  0.6316 -0.1510
  691TMC3    O110280   1.963   0.595  15.853 -0.6265 -0.2890 -0.1495
  691TMC3    O210281   1.628   0.964  16.225  0.4583  0.1938  0.6103
  692TMC3    C110282   3.976   2.214  15.548  0.4429 -0.0430  0.2190
  692TMC3    C210283   4.052   2.303  15.627 -0.1388 -0.4074  0.9602
  692TMC3    C310284   4.156   2.251  15.701  0.0047  0.2863  0.7333
  692TMC3    C410285   4.008   2.083  15.537 -0.1658 -1.0610 -0.7670
  692TMC3    C510286   4.105   2.040  15.622 -0.3903 -0.3609  0.2352
  692TMC3    C610287   4.179   2.118  15.703  0.9291 -0.4838  0.7289
  692TMC3     C10288   3.838   2.258  15.517  0.4645  0.2790 -0.2491
  692TMC3     O10289   3.800   2.352  15.579  0.3637 -0.4749 -0.9324
  692TMC3     H10290   4.011   2.401  15.649 -0.8912 -0.2860 -0.9583
  692TMC3    H110291   3.954   2.024  15.464  0.4730 -0.9805 -1.3074
  692TMC3    H210292   4.268   2.079  15.751 -0.5957 -4.7150  0.1059
  692TMC3    C710293   4.125   1.897  15.624  0.1658  0.9003  0.0896
  692TMC3    C810294   4.190   2.323  15.826  0.4097 -0.3759  0.1490
  692TMC3    O110295   4.071   1.833  15.532 -0.5377  0.0856  0.0998
  692TMC3    O210296   4.233   2.264  15.921 -0.7536  0.6154  0.6197
  693MPD2     C10297   3.485   4.601  10.543  0.4593  0.2613 -0.2090
  693MPD2    C110298   3.411   4.486  10.523 -0.9918 -0.1378  0.2781
  693MPD2    C210299   3.459   4.369  10.571  0.0716  0.6491 -0.6316
  693MPD2    C310300   3.586   4.352  10.617  0.2848  0.1629  0.2430
  693MPD2    C410301   3.655   4.470  10.635 -0.1184  0.0679 -0.0260
  693MPD2    C510302   3.599   4.586  10.612  0.0719  0.6222  0.0882
  693MPD2     H10303   3.395   4.282  10.579  1.0944 -0.1534 -1.1532
  693MPD2    H110304   3.754   4.472  10.678  0.0975  0.7195 -0.5552
  693MPD2    H210305   3.445   4.702  10.542 -0.2649 -0.0180  0.0908
  693MPD2    H310306   3.655   4.675  10.638 -0.9314  1.1466  0.4479
  693MPD2     N10307   3.634   4.234  10.679  0.0835 -0.4523 -0.3157
  693MPD2    H510308   3.726   4.238  10.721  0.2498 -0.3211 -0.6919
  693MPD2    N110309   3.279   4.507  10.485  0.1150  0.5190  0.6504
  693MPD2    H710310   3.246   4.604  10.480 -0.5204  0.2262 -0.8701
  694TMC3    C110311   3.056   4.453  10.466  0.0391 -0.5310 -0.2786
  694TMC3    C210312   2.961   4.377  10.408  0.3030  0.1096 -0.1601
  694TMC3    C310313   2.835   4.362  10.469 -0.7576  0.1164 -0.1814
  694TMC3    C410314   3.039   4.520  10.589 -0.3063  0.4871  0.9226
  694TMC3    C510315   2.918   4.493  10.653  0.1218 -0.3436 -0.4787
  694TMC3    C610316   2.817   4.423  10.589 -0.4202 -0.7558 -0.7166
  694TMC3     C10317   3.194   4.413  10.435 -0.1584 -0.0774  0.4824
  694TMC3     O10318   3.216   4.295  10.408  0.2177 -0.1109  0.0986
  694TMC3     H10319   2.997   4.317  10.325 -0.7857  0.7886 -1.1273
  694TMC3    H110320   3.120   4.576  10.635  0.1634  0.6928 -0.1717
  694TMC3    H210321   2.715   4.407  10.625  0.3461  1.4046  2.4160
  694TMC3    C710322   2.905   4.534  10.791 -0.2457 -0.4222 -0.0106
  694TMC3    C810323   2.738   4.260  10.427 -0.1610  1.0062  0.4086
  694TMC3    O110324   2.959   4.637  10.818  0.4053  0.2147 -0.4157
  694TMC3    O210325   2.668   4.205  10.513  0.4241  0.1774 -0.6995
  695MPD2     C10326   0.255   1.730  12.965 -0.4011  0.0791 -0.1879
  695MPD2    C110327   0.150   1.761  13.049  0.5459 -0.5609  0.4336
  695MPD2    C210328   0.021   1.751  12.999 -0.3259  0.3875  0.4760
  695MPD2    C310329   4.732   1.730  12.868 -0.2929  0.5758  0.3541
  695MPD2    C410330   0.101   1.710  12.782  0.5361 -0.4413  0.2355
  695MPD2    C510331   0.227   1.711  12.831 -0.3102 -0.0001 -0.3204
  695MPD2     H10332   4.672   1.752  13.061 -1.0689  0.0435 -0.5774
  695MPD2    H110333   0.080   1.688  12.678  1.5240  0.0254 -0.0569
  695MPD2    H210334   0.356   1.724  13.003 -1.3124 -0.1420  2.1786
  695MPD2    H310335   0.300   1.686  12.755 -0.3335 -0.2717 -0.2561
  695MPD2     N10336   4.590   1.735  12.826  0.2773 -0.2092  0.5331
  695MPD2    H510337   4.523   1.749  12.902  1.9922  0.3263  1.9308
  695MPD2    N110338   0.166   1.762  13.189  0.0146 -0.6616  0.1451
  695MPD2    H710339   0.080   1.769  13.242  0.4331 -2.1180  1.0245
  696TMC3    C110340   4.406   1.704  12.699  0.1644  0.6362  0.1529
  696TMC3    C210341   4.345   1.618  12.792  0.5503  0.1899  0.2981
  696TMC3    C310342   4.209   1.635  12.801  0.3195 -1.0488 -0.2887
  696TMC3    C410343   4.337   1.783  12.611  0.8780  0.3480 -0.3085
  696TMC3    C510344   4.199   1.789  12.631 -0.0903 -0.7615  0.2024
  696TMC3    C610345   4.133   1.719  12.723  0.0920  0.1836 -0.7186
  696TMC3     C10346   4.545   1.729  12.700  0.6163  0.3528 -0.1985
  696TMC3     O10347   4.595   1.754  12.589  0.0457 -0.4288 -0.2390
  696TMC3     H10348   4.401   1.552  12.857  1.3207  1.4946  0.9692
  696TMC3    H110349   4.387   1.842  12.535 -1.2969  0.0707 -1.9635
  696TMC3    H210350   4.024   1.716  12.726  0.0127  0.5891 -3.1896
  696TMC3    C710351   4.135   1.912  12.580  0.1310 -0.7222 -0.3966
  696TMC3    C810352   4.135   1.575  12.915 -0.4480  0.1873  0.0167
  696TMC3    O110353   4.195   1.966  12.496 -0.2945  0.3832 -0.1917
  696TMC3    O210354   4.019   1.615  12.940 -0.8196  0.0327  0.5815
  697MPD2     C10355   3.876   3.589  15.864 -0.4423  0.0237  0.4632
  697MPD2    C110356   3.849   3.589  15.732  0.7273 -0.4338  0.2662
  697MPD2    C210357   3.880   3.701  15.653 -0.4553  0.8871  0.2100
  697MPD2    C310358   3.936   3.813  15.707 -0.4228  0.1455 -0.5049
  697MPD2    C410359   3.960   3.814  15.841  0.1351 -0.0624  0.0909
  697MPD2    C510360   3.928   3.705  15.913  0.1858  0.2218 -0.3846
  697MPD2     H10361   3.868   3.697  15.545  0.8219  0.3790  0.0959
  697MPD2    H110362   4.010   3.893  15.895  2.2643 -1.9162  0.8386
  697MPD2    H210363   3.851   3.513  15.938  0.2712  0.2339  0.9210
  697MPD2    H310364   3.948   3.709  16.020  1.2984 -0.7231 -0.5515
  697MPD2     N10365   3.967   3.922  15.614  0.4600  0.1686 -0.7622
  697MPD2    H510366   3.945   3.911  15.516 -0.0151  0.7040 -0.7150
  697MPD2    N110367   3.791   3.483  15.664  0.1145 -0.2080  0.1440
  697MPD2    H710368   3.765   3.516  15.572 -0.9125 -1.0895  0.1200
  698TMC3    C110369   4.032   4.139  15.536  0.5119  0.6584 -0.2377
  698TMC3    C210370   4.061   4.269  15.574  0.3993  0.8351  0.8280
  698TMC3    C310371   4.057   4.368  15.477 -0.1901 -0.1392 -0.4039
  698TMC3    C410372   4.016   4.102  15.409  0.9175 -0.0862  0.4260
  698TMC3    C510373   4.027   4.199  15.315  0.1079 -0.2207 -0.6743
  698TMC3    C610374   4.044   4.333  15.344  0.3189 -0.0870 -0.5524
  698TMC3     C10375   4.014   4.047  15.653 -0.0240 -0.3455 -0.7438
  698TMC3     O10376   4.040   4.090  15.763  0.2776 -0.0353  0.0466
  698TMC3     H10377   4.071   4.289  15.680  3.1418 -0.5785  0.8316
  698TMC3    H110378   4.015   3.998  15.376 -1.7632  0.4963 -1.3191
  698TMC3    H210379   4.025   4.406  15.267  0.1109 -0.9942 -1.3604
  698TMC3    C710380   4.024   4.158  15.175 -0.0850 -0.5440  0.1461
  698TMC3    C810381   4.080   4.500  15.524 -0.3852  0.8863 -0.1034
  698TMC3    O110382   3.981   4.043  15.161 -0.1342  0.3617 -0.0384
  698TMC3    O210383   4.104   4.513  15.641  0.6477  0.3751 -0.0424
  699TMC3    C110384   3.641   1.560  12.825 -0.5818 -0.2429  0.6291
  699TMC3    C210385   3.707   1.446  12.870 -0.5196 -0.1370  0.0682
  699TMC3    C310386   3.650   1.387  12.981  0.6792  0.1346 -0.2045
  699TMC3    C410387   3.518   1.606  12.871  0.0750  0.0994  0.4424
  699TMC3    C510388   3.462   1.533  12.970  0.5331  0.0576  0.2725
  699TMC3    C610389   3.529   1.430  13.029 -0.9281 -0.2161 -0.0925
  699TMC3     C10390   3.703   1.643  12.724  0.4389  0.6588 -0.0179
  699TMC3     O10391   3.670   1.762  12.720 -0.2503  0.4296 -0.0776
  699TMC3     H10392   3.810   1.426  12.844 -0.9911 -0.1466 -1.8397
  699TMC3    H110393   3.478   1.688  12.813  1.2323  0.6941  0.4768
  699TMC3    H210394   3.490   1.376  13.115 -0.5624  0.6733  0.6371
  699TMC3    C710395   3.345   1.577  13.040  0.3660 -0.1009  0.9965
  699TMC3    C810396   3.719   1.282  13.053  0.1384  0.2338 -0.0355
  699TMC3    O110397   3.345   1.536  13.155 -0.4913  0.0454  0.1758
  699TMC3    O210398   3.700   1.275  13.175  0.2237  0.3806  0.4284
  700TMC3    C110399   2.798   4.377  17.170  0.0650 -0.3827 -0.6905
  700TMC3    C210400   2.836   4.256  17.137 -0.3270  0.4412  0.0610
  700TMC3    C310401   2.922   4.187  17.213 -0.3018  1.1904 -0.6606
  700TMC3    C410402   2.835   4.436  17.286  0.5155 -0.5509  0.6235
  700TMC3    C510403   2.920   4.367  17.370 -0.0701  0.0948  0.5828
  700TMC3    C610404   2.971   4.245  17.329  0.1428 -0.0793  0.1345
  700TMC3     C10405   2.754   4.466  17.067 -0.3716  0.4349  0.1069
  700TMC3     O10406   2.672   4.423  16.988  0.1818  0.1334  0.0727
  700TMC3     H10407   2.801   4.214  17.043 -0.3034 -2.5830  1.4141
  700TMC3    H110408   2.791   4.526  17.327  0.0918 -0.9223  0.9856
  700TMC3    H210409   3.043   4.190  17.388 -1.4756 -3.3938 -0.9284
  700TMC3    C710410   2.979   4.435  17.485 -0.3234  0.2861 -0.5709
  700TMC3    C810411   3.014   4.098  17.149  0.2735 -0.4224  0.2190
  700TMC3    O110412   2.962   4.555  17.486  0.5214 -0.0260  0.5807
  700TMC3    O210413   3.128   4.137  17.146  0.4513 -0.5036  0.9040
  701TMC3    C110414   3.022   2.980  15.380  0.0326 -0.0923 -0.4275
  701TMC3    C210415   3.061   2.939  15.254  0.0101  0.6405 -0.0205
  701TMC3    C310416   3.180   2.975  15.203 -0.4684 -0.9875  0.2421
  701TMC3    C410417   3.103   3.055  15.460 -0.1583  0.2250  0.4806
  701TMC3    C510418   3.220   3.101  15.403 -0.3867 -0.2775 -0.1182
  701TMC3    C610419   3.265   3.054  15.278 -0.5925  0.6660  0.3911
  701TMC3     C10420   2.891   2.952  15.422  0.2951  0.2474 -0.2539
  701TMC3     O10421   2.840   2.846  15.393 -0.0051 -0.2597 -0.4413
  701TMC3     H10422   2.989   2.877  15.200  0.3558 -1.0705  1.4939
  701TMC3    H110423   3.084   3.085  15.563 -1.9317 -0.8352  0.4470
  701TMC3    H210424   3.347   3.097  15.222  1.0425 -0.8967  1.6051
  701TMC3    C710425   3.296   3.200  15.475  0.0104  0.4943  0.4948
  701TMC3    C810426   3.238   2.908  15.088  0.0301  0.3714 -0.2023
  701TMC3    O110427   3.368   3.270  15.409  0.3299 -0.7611 -0.5384
  701TMC3    O210428   3.359   2.888  15.086 -0.2059  0.4638  0.1960
  702MPD2     C10429   2.161   4.566  10.460  0.5126  0.1695  0.0180
  702MPD2    C110430   2.185   4.656  10.568  0.1081 -0.1435 -0.0238
  702MPD2    C210431   2.235   0.038  10.532 -0.0513  0.5106 -0.6926
  702MPD2    C310432   2.249   0.078  10.406  0.1445 -0.1769  0.0732
  702MPD2    C410433   2.210   4.734  10.300  0.4207  0.0173 -0.9876
  702MPD2    C510434   2.169   4.607  10.334  0.5229 -0.0150 -0.1849
  702MPD2     H10435   2.244   0.111  10.611 -0.3219  0.4980 -0.6507
  702MPD2    H110436   2.226   0.012  10.194 -1.2437 -0.8909 -1.3897
  702MPD2    H210437   2.111   4.472  10.477  2.9173 -1.3762 -1.4909
  702MPD2    H310438   2.145   4.538  10.254  0.5513 -0.2314 -0.0065
  702MPD2     N10439   2.294   0.217  10.378 -0.0137 -0.6991 -0.4711
  702MPD2    H510440   2.344   0.273  10.446  0.3741 -1.0596 -0.4560
  702MPD2    N110441   2.160   4.620  10.698 -0.8076  0.7511  0.4700
  702MPD2    H710442   2.116   4.529  10.708  1.0398 -0.2390 -0.3706
  703TMC3    C110443   2.300   0.422  10.282  0.6138  0.0573  0.3969
  703TMC3    C210444   2.199   0.486  10.349 -0.0829 -0.2426 -0.6914
  703TMC3    C310445   2.235   0.549  10.470 -0.6020  0.2740 -0.3942
  703TMC3    C410446   2.435   0.429  10.318  0.6175 -0.0617 -0.8262
  703TMC3    C510447   2.468   0.494  10.436  0.1724 -0.0805  0.1050
  703TMC3    C610448   2.367   0.550  10.508 -0.7289 -0.0862 -0.8585
  703TMC3     C10449   2.266   0.285  10.259 -0.4147 -0.1234 -0.0825
  703TMC3     O10450   2.192   0.249  10.168  0.8551  1.0608  0.1172
  703TMC3     H10451   2.098   0.457  10.325 -1.4006  4.2176 -0.5064
  703TMC3    H110452   2.513   0.368  10.274  1.4641  0.6077 -0.2643
  703TMC3    H210453   2.391   0.618  10.590 -0.6884  0.1669 -1.0800
  703TMC3    C710454   2.602   0.545  10.458  0.2251 -0.9328 -0.2832
  703TMC3    C810455   2.169   0.480  10.579  0.4188 -0.1756  0.5207
  703TMC3    O110456   2.685   0.556  10.365  0.3838  0.4960  0.1267
  703TMC3    O210457   2.242   0.404  10.641  0.1053  0.3383  0.4210
  704TMC3    C110458   0.802   3.370  12.442 -0.1414 -0.3317 -0.0994
  704TMC3    C210459   0.798   3.328  12.314 -0.0776  0.1640 -0.2761
  704TMC3    C310460   0.872   3.218  12.280  0.4575  0.1468  0.0899
  704TMC3    C410461   0.885   3.314  12.534 -0.2188  0.4502  0.1982
  704TMC3    C510462   0.942   3.193  12.504 -0.1375  0.5555 -0.8235
  704TMC3    C610463   0.945   3.149  12.375  0.7603  0.2167 -0.2373
  704TMC3     C10464   0.672   3.376  12.496  0.5539 -0.0336 -0.1957
  704TMC3     O10465   0.673   3.413  12.615  0.3552  0.2147  0.4714
  704TMC3     H10466   0.745   3.387  12.240  0.1157  1.6637  0.7699
  704TMC3    H110467   0.888   3.352  12.636  1.1504  0.0855  0.2928
  704TMC3    H210468   0.992   3.055  12.349 -1.0287 -0.7323 -0.0392
  704TMC3    C710469   0.881   3.089  12.581 -0.1729  0.2002 -0.1256
  704TMC3    C810470   0.829   3.142  12.165  0.5824 -0.0814 -0.5198
  704TMC3    O110471   0.868   2.975  12.530 -0.1363  0.4459 -0.1216
  704TMC3    O210472   0.708   3.146  12.138  0.3757 -0.7908  0.0627
  705MPD2     C10473   4.549   1.908  16.501 -0.3244  0.5496  0.0982
  705MPD2    C110474   4.476   1.984  16.409 -0.7506 -0.2901  0.2639
  705MPD2    C210475   4.354   2.046  16.439 -0.0685 -0.1724  0.4665
  705MPD2    C310476   4.301   2.029  16.568  0.0154  0.4274  0.1991
  705MPD2    C410477   4.375   1.953  16.653 -1.1853 -0.0235 -0.1224
  705MPD2    C510478   4.494   1.891  16.623  0.5331  0.7658 -0.1374
  705MPD2     H10479   4.294   2.083  16.357  0.5525  1.2995  0.6858
  705MPD2    H110480   4.350   1.957  16.758 -0.7922  0.3465 -0.0427
  705MPD2    H210481   4.638   1.850  16.484 -0.0495  0.4309  1.9438
  705MPD2    H310482   4.546   1.841  16.704 -1.3923  0.2988  0.8334
  705MPD2     N10483   4.169   2.070  16.598  0.1853  0.5442 -0.1256
  705MPD2    H510484   4.147   2.064  16.697 -1.1115  1.4711 -0.3659
  705MPD2    N110485   4.527   2.012  16.281  0.0613  0.1591  0.1563
  705MPD2    H710486   4.476   2.071  16.216  2.8598 -2.4402 -4.4048
  706TMC3    C110487   4.672   1.880  15.885  0.3094 -0.7697 -0.5594
  706TMC3    C210488   4.630   1.989  15.822 -0.2544  0.8661 -0.5486
  706TMC3    C310489   4.599   2.101  15.899  0.7006  0.7615 -0.1948
  706TMC3    C410490   4.683   1.871  16.018  0.4279  0.2056 -0.1235
  706TMC3    C510491   4.648   1.980  16.091  0.5666 -0.2023  0.1099
  706TMC3    C610492   4.605   2.095  16.035 -0.2344 -0.2481 -0.5415
  706TMC3     C10493   4.685   1.768  15.794 -0.4645 -0.4140 -0.5162
  706TMC3     O10494   0.015   1.673  15.820  0.0791 -0.3429  0.1469
  706TMC3     H10495   4.635   2.003  15.714 -2.8701 -1.0671 -0.9259
  706TMC3    H110496   4.723   1.782  16.067 -0.3243 -0.8050 -1.3442
  706TMC3    H210497   4.580   2.184  16.092 -1.0568  1.0007 -2.8620
  706TMC3    C710498   4.642   1.963  16.229 -0.2827  0.7393 -0.0015
  706TMC3    C810499   4.554   2.221  15.827  0.4236  0.0126  0.4632
  706TMC3    O110500   4.730   1.893  16.269 -0.5933 -0.4306 -0.0490
  706TMC3    O210501   4.497   2.212  15.718 -0.0942  0.5199 -0.7197
  707TMC3    C110502   1.549   0.969   0.887  0.0207  0.3156  0.2913
  707TMC3    C210503   1.578   0.899   1.000  0.1942 -0.0820  0.7852
  707TMC3    C310504   1.590   0.759   0.994 -0.4043  0.3657  0.1243
  707TMC3    C410505   1.504   0.906   0.776 -0.1911  0.2875  0.6673
  707TMC3    C510506   1.506   0.770   0.769 -0.1617 -0.1270  0.2660
  707TMC3    C610507   1.548   0.699   0.880 -0.4323  0.0937  0.1779
  707TMC3     C10508   1.533   1.117   0.902  0.1810  0.0852 -0.2010
  707TMC3     O10509   1.475   1.167   0.995  0.6284  0.0212  0.2807
  707TMC3     H10510   1.607   0.952   1.090  0.3814  1.2291 -0.0488
  707TMC3    H110511   1.463   0.960   0.691 -0.7276  0.6899  1.1759
  707TMC3    H210512   1.562   0.592   0.873 -1.6028 -0.0833  0.5419
  707TMC3    C710513   1.429   0.706   0.664 -0.1780 -0.3318  0.1994
  707TMC3    C810514   1.677   0.695   1.088 -0.3365  0.0521 -0.2389
  707TMC3    O110515   1.322   0.766   0.634 -0.2385 -0.2578  0.2707
  707TMC3    O210516   1.695   0.750   1.195  0.3199 -0.0442  0.3727
  708MPD2     C10517   2.777   4.524  13.837  0.5203  0.2199  0.4820
  708MPD2    C110518   2.652   4.537  13.895  0.1705  0.9157 -0.2416
  708MPD2    C210519   2.628   4.526  14.028 -0.7604 -0.6712  0.2478
  708MPD2    C310520   2.732   4.501  14.112  0.8669 -0.5367  0.2647
  708MPD2    C410521   2.859   4.477  14.057 -0.9099 -0.1830 -0.1116
  708MPD2    C510522   2.875   4.482  13.921 -0.2222  0.5897  0.5037
  708MPD2     H10523   2.524   4.544  14.052 -0.2154  4.3503 -1.0734
  708MPD2    H110524   2.944   4.448  14.119  0.5993  0.6581 -1.8015
  708MPD2    H210525   2.800   4.547  13.734  0.0081 -1.5217 -0.0134
  708MPD2    H310526   2.969   4.464  13.871 -0.4723 -3.1333  1.3768
  708MPD2     N10527   2.721   4.510  14.256 -0.4580  0.0812  0.1245
  708MPD2    H510528   2.804   4.506  14.315  1.2040 -3.6190 -2.4802
  708MPD2    N110529   2.536   4.564  13.815  0.3058  0.1219 -0.2663
  708MPD2    H710530   2.454   4.588  13.870  0.4826  0.0759  0.0206
  709TMC3    C110531   2.399   4.648  13.647 -0.7521 -0.4708 -0.5657
  709TMC3    C210532   2.400   0.028  13.577  0.4362  0.6789  0.1740
  709TMC3    C310533   2.297   0.116  13.604  0.3525 -0.1410  0.0986
  709TMC3    C410534   2.305   4.620  13.746  0.4114 -0.4372  0.1818
  709TMC3    C510535   2.238   4.729  13.785  0.7113  0.8738 -0.3929
  709TMC3    C610536   2.213   0.096  13.709 -0.0098 -0.0841 -0.2902
  709TMC3     C10537   2.530   4.594  13.682  0.2093 -0.5195  0.4240
  709TMC3     O10538   2.619   4.600  13.601 -0.3973  1.0426 -0.3187
  709TMC3     H10539   2.452   0.023  13.482 -2.8516 -0.5968 -1.5809
  709TMC3    H110540   2.299   4.524  13.795 -1.8164 -0.1847  0.3916
  709TMC3    H210541   2.148   0.174  13.745  1.5435  0.7121  0.8027
  709TMC3    C710542   2.233   4.730  13.924  0.2537  0.0978  0.0454
  709TMC3    C810543   2.276   0.235  13.525 -0.0880 -0.0877  0.5569
  709TMC3    O110544   2.291   4.635  13.975  0.2290 -0.3746 -0.5961
  709TMC3    O210545   2.164   0.284  13.522 -0.3134  0.0858 -0.0959
  710TMC3    C110546   3.625   1.762   0.139  0.0884  0.5092 -0.1124
  710TMC3    C210547   3.721   1.769   0.041 -0.2949  0.7213  0.4511
  710TMC3    C310548   3.851   1.737   0.080 -0.2973 -0.2729 -0.0420
  710TMC3    C410549   3.650   1.721   0.268  0.3632 -0.5598 -0.2279
  710TMC3    C510550   3.781   1.686   0.295 -0.0372  0.2055 -0.2409
  710TMC3    C610551   3.886   1.699   0.206 -0.2205 -0.0272  0.7643
  710TMC3     C10552   3.506   1.832   0.105 -0.5070  0.4474 -0.1815
  710TMC3     O10553   3.487   1.885  17.752 -0.5206 -0.3018 -0.0018
  710TMC3     H10554   3.695   1.807  17.700  1.1353  0.0760 -0.1916
  710TMC3    H110555   3.577   1.704   0.346  1.0134  1.3037  0.7855
  710TMC3    H210556   3.990   1.676   0.226 -0.3276 -0.7173  0.5177
  710TMC3    C710557   3.811   1.667   0.435 -0.2866  0.2508 -0.2748
  710TMC3    C810558   3.943   1.708  17.729 -0.7554  0.5314  0.2808
  710TMC3    O110559   3.746   1.712   0.529  0.1458 -0.4274 -0.2859
  710TMC3    O210560   3.896   1.727  17.620 -0.2210  0.2203 -0.0147
  711TMC3    C110561   3.771   2.426  14.291 -0.2126  0.1786 -0.2446
  711TMC3    C210562   3.692   2.528  14.343  0.4919  0.0484  0.0338
  711TMC3    C310563   3.753   2.630  14.403  0.5758 -0.6103  0.2296
  711TMC3    C410564   3.906   2.425  14.290  1.0965  0.1538  0.3575
  711TMC3    C510565   3.962   2.542  14.330 -0.4498 -0.0189  0.6594
  711TMC3    C610566   3.888   2.639  14.389  0.2886  0.3720 -0.5226
  711TMC3     C10567   3.713   2.295  14.288  0.3469  0.9757  0.3837
  711TMC3     O10568   3.594   2.284  14.261 -0.3768 -0.9496 -0.9485
  711TMC3     H10569   3.591   2.500  14.372  0.1872 -1.3420 -2.3051
  711TMC3    H110570   3.961   2.345  14.241  0.7703  0.0274  0.1946
  711TMC3    H210571   3.947   2.725  14.420  1.5464 -0.2424 -1.1907
  711TMC3    C710572   4.094   2.536  14.403 -0.1041 -0.5352  0.0706
  711TMC3    C810573   3.701   2.669  14.535 -0.4626  0.1801  0.2576
  711TMC3    O110574   4.084   2.592  14.514 -0.5864  0.0892  0.7574
  711TMC3    O210575   3.579   2.666  14.550 -0.9180  0.3844  0.3874
  712MPD2     C10576   0.241   3.486  13.917 -0.3271 -0.7185  0.3303
  712MPD2    C110577   0.138   3.535  13.836  1.2860 -0.0307  0.1525
  712MPD2    C210578   0.129   3.668  13.812  0.0872 -0.1299 -0.1853
  712MPD2    C310579   0.226   3.754  13.864 -0.4344 -0.2029 -0.2395
  712MPD2    C410580   0.332   3.702  13.938 -0.3877  0.6729 -0.2518
  712MPD2    C510581   0.331   3.570  13.967 -0.1002 -0.6894 -1.3947
  712MPD2     H10582   0.038   3.715  13.776  0.2336  0.1056 -0.2504
  712MPD2    H110583   0.415   3.767  13.966  0.4632  0.0352 -1.2917
  712MPD2    H210584   0.267   3.383  13.939  1.2033 -0.1657  1.0733
  712MPD2    H310585   0.414   3.540  14.030 -0.0285 -1.6234 -1.9403
  712MPD2     N10586   0.226   3.896  13.852  0.0116 -0.3229  0.5936
  712MPD2    H510587   0.311   3.936  13.889 -0.1703 -0.5732  1.2681
  712MPD2    N110588   0.046   3.446  13.776  0.6419 -0.9548  0.5881
  712MPD2    H710589   4.739   3.474  13.691  5.1123  1.5988 -1.0477
  713TMC3    C110590   0.157   4.106  13.777  0.0084  0.1663 -0.4339
  713TMC3    C210591   0.278   4.151  13.742 -0.0617  0.1047 -0.1437
  713TMC3    C310592   0.294   4.256  13.660  0.1125 -0.1734  0.6170
  713TMC3    C410593   0.050   4.185  13.761 -0.5100  0.6725 -0.2171
  713TMC3    C510594   0.061   4.296  13.680  0.2757 -0.1061  0.3272
  713TMC3    C610595   0.181   4.326  13.617  0.1007 -0.0940  0.0729
  713TMC3     C10596   0.126   3.972  13.801 -0.4159  0.6394  0.6092
  713TMC3     O10597   0.012   3.936  13.774 -0.0597 -0.0065 -0.0706
  713TMC3     H10598   0.362   4.086  13.765  0.2737  0.9862  1.1530
  713TMC3    H110599   4.690   4.162  13.796  0.3325 -2.7731 -0.1021
  713TMC3    H210600   0.180   4.414  13.553 -0.2144  0.3124  0.6377
  713TMC3    C710601   4.678   4.348  13.632  0.4706 -0.3775 -0.4902
  713TMC3    C810602   0.414   4.306  13.590  0.2408  0.0360 -0.3766
  713TMC3    O110603   4.579   4.342  13.703  0.0025  0.0891  0.1383
  713TMC3    O210604   0.389   4.388  13.497 -0.0412 -0.0237 -0.5646
  714MPD2     C10605   1.859   2.634   0.909 -0.8489 -0.1391 -0.0187
  714MPD2    C110606   1.907   2.506   0.894  0.2930  0.4649  0.0879
  714MPD2    C210607   1.819   2.416   0.835  0.1561  0.5169 -0.0303
  714MPD2    C310608   1.696   2.459   0.781  0.1290 -0.5061 -0.0750
  714MPD2    C410609   1.651   2.593   0.797 -0.0597  0.4172 -0.3776
  714MPD2    C510610   1.734   2.677   0.866  0.1512  0.0336 -0.0492
  714MPD2     H10611   1.839   2.309   0.828  0.8750  0.4631  2.8906
  714MPD2    H110612   1.558   2.630   0.755  0.1701 -0.1646 -1.4009
  714MPD2    H210613   1.920   2.709   0.958  0.4417 -1.5177  0.4664
  714MPD2    H310614   1.689   2.774   0.881 -3.8449 -1.9600  0.7794
  714MPD2     N10615   1.615   2.359   0.725 -0.3752  0.0336  0.3050
  714MPD2    H510616   1.633   2.264   0.755  1.4649  0.0357 -0.7820
  714MPD2    N110617   2.036   2.482   0.938  1.1198  0.4066  0.3921
  714MPD2    H710618   2.079   2.556   0.993  1.6622 -1.3585  2.3261
  715TMC3    C110619   2.245   2.349   0.957  0.2460  0.0052  0.8882
  715TMC3    C210620   2.330   2.281   0.878 -0.1918 -0.2859  0.8011
  715TMC3    C310621   2.442   2.236   0.938 -0.0286 -0.9562 -0.0208
  715TMC3    C410622   2.268   2.397   1.082  0.7947  0.2820 -0.1439
  715TMC3    C510623   2.396   2.380   1.121  0.0536 -0.3638  0.3191
  715TMC3    C610624   2.482   2.290   1.059  0.4789  0.1470 -0.4974
  715TMC3     C10625   2.106   2.365   0.907 -0.3533 -0.1110  0.6499
  715TMC3     O10626   2.071   2.276   0.834  0.5340 -0.0576 -0.0671
  715TMC3     H10627   2.309   2.248   0.777  0.2333  0.7224  0.3861
  715TMC3    H110628   2.201   2.463   1.135 -0.1752  0.2170 -1.2792
  715TMC3    H210629   2.587   2.279   1.083  0.3950 -3.6556 -1.8916
  715TMC3    C710630   2.471   2.475   1.208  0.0249  0.3006 -0.3459
  715TMC3    C810631   2.511   2.127   0.867  0.0761  0.2336 -0.1891
  715TMC3    O110632   2.593   2.472   1.211  0.4748 -0.1399  0.0400
  715TMC3    O210633   2.480   2.102   0.752  0.3797 -0.7487 -0.1905
  716MPD2     C10634   2.286   0.029   9.850 -0.0184 -0.0590  0.2698
  716MPD2    C110635   2.247   0.025   9.717  0.9019  0.0930 -0.7486
  716MPD2    C210636   2.310   4.676   9.633  0.2553 -0.2800 -0.8269
  716MPD2    C310637   2.396   4.578   9.687  0.1109 -0.5064 -0.0243
  716MPD2    C410638   2.428   4.582   9.822  0.0720 -0.1437  0.5520
  716MPD2    C510639   2.374   4.678   9.898 -0.0537 -0.2742  0.1123
  716MPD2     H10640   2.286   4.676   9.528  1.5305  1.8787 -1.1089
  716MPD2    H110641   2.501   4.517   9.868  0.0021 -0.4483  0.2353
  716MPD2    H210642   2.243   0.106   9.913 -0.9602 -1.1027  0.9013
  716MPD2    H310643   2.413   4.689   9.999  0.0497 -1.9858  0.2456
  716MPD2     N10644   2.461   4.486   9.598  0.5865 -0.3554  0.4928
  716MPD2    H510645   2.421   4.491   9.505 -1.4010  3.9736  1.5479
  716MPD2    N110646   2.142   0.107   9.671 -0.5708  0.7729  0.3005
  716MPD2    H710647   2.076   0.137   9.742 -0.4495  0.3029  0.6124
  717TMC3    C110648   2.567   4.292   9.532 -1.1623 -0.2908  0.0687
  717TMC3    C210649   2.485   4.312   9.429  0.4114 -0.0612 -0.6654
  717TMC3    C310650   2.401   4.216   9.391 -0.0630  0.7561 -0.1829
  717TMC3    C410651   2.571   4.169   9.596 -0.0321  0.4896 -0.4430
  717TMC3    C510652   2.488   4.069   9.542  0.3848  0.1093 -0.1617
  717TMC3    C610653   2.395   4.095   9.449 -0.0459 -0.3463  0.0478
  717TMC3     C10654   2.562   4.398   9.631  0.8965 -0.2511 -0.1337
  717TMC3     O10655   2.620   4.384   9.734  0.0956 -0.4180  0.2766
  717TMC3     H10656   2.493   4.395   9.359 -0.9805  1.3023  0.8015
  717TMC3    H110657   2.649   4.150   9.668 -0.0884  0.1836 -0.4622
  717TMC3    H210658   2.332   4.019   9.405 -0.6872  0.1680  0.0837
  717TMC3    C710659   2.507   3.939   9.600  0.2699  0.1625 -0.3679
  717TMC3    C810660   2.269   4.269   9.364 -0.1857  0.4569 -0.1551
  717TMC3    O110661   2.572   3.937   9.703  0.2870 -0.6103  0.2253
  717TMC3    O210662   2.248   4.385   9.389  1.1588  0.4724  0.4768
  718MPD2     C10663   2.205   3.762  12.886  0.8179 -0.2841  0.0103
  718MPD2    C110664   2.133   3.873  12.854  0.6127 -0.6408  0.3812
  718MPD2    C210665   2.014   3.850  12.787 -0.1355 -0.5708 -0.2373
  718MPD2    C310666   1.966   3.715  12.755 -0.3852  0.2672 -0.2970
  718MPD2    C410667   2.043   3.607  12.788 -0.5556 -0.1619  0.3236
  718MPD2    C510668   2.159   3.637  12.858 -0.3407  0.2181  0.8952
  718MPD2     H10669   1.961   3.928  12.734  1.6113 -1.0875 -2.7382
  718MPD2    H110670   2.019   3.501  12.777 -2.6694  0.2299  1.1069
  718MPD2    H210671   2.299   3.776  12.938  0.2673  1.3438  0.5560
  718MPD2    H310672   2.221   3.555  12.892  0.0182  0.0241 -0.2006
  718MPD2     N10673   1.846   3.711  12.674  0.0011  0.9984 -0.2970
  718MPD2    H510674   1.810   3.803  12.651 -2.1819 -0.0396 -0.9407
  718MPD2    N110675   2.171   4.008  12.897 -0.3698  0.2150  0.1684
  718MPD2    H710676   2.253   4.022  12.955 -0.2822  0.0750  0.0791
  719TMC3    C110677   2.146   4.246  12.929 -0.0787  0.5390 -0.3553
  719TMC3    C210678   2.036   4.331  12.950  0.1218 -0.1582  0.4106
  719TMC3    C310679   2.039   4.455  12.882 -0.5104  0.3524 -0.7673
  719TMC3    C410680   2.257   4.283  12.861  1.1331 -0.2246 -0.4625
  719TMC3    C510681   2.249   4.408  12.802  0.2738 -0.3464  0.9045
  719TMC3    C610682   2.151   4.500  12.820  0.5175 -0.0054 -1.0231
  719TMC3     C10683   2.091   4.118  12.881 -0.4958  0.4267 -0.3613
  719TMC3     O10684   1.976   4.115  12.835  0.2888 -0.6308  0.3805
  719TMC3     H10685   1.945   4.279  12.980 -0.9810  1.1819 -0.5969
  719TMC3    H110686   2.321   4.207  12.817  0.1324 -0.4261 -1.5669
  719TMC3    H210687   2.145   4.593  12.765  3.1734 -0.0871 -1.4560
  719TMC3    C710688   2.347   4.446  12.701  0.4407 -0.0626 -0.5851
  719TMC3    C810689   1.918   4.477  12.805  0.0584 -0.0318 -0.4024
  719TMC3    O110690   2.310   4.533  12.625  0.1487  0.1580 -0.3483
  719TMC3    O210691   1.899   4.582  12.744  0.1690 -0.2394  0.5003
  720MPD2     C10692   0.308   1.317  13.691 -0.3936  0.0547  0.0207
  720MPD2    C110693   0.365   1.197  13.650  0.1403  0.1109 -0.1614
  720MPD2    C210694   0.464   1.143  13.736  0.1993  0.5541  0.5288
  720MPD2    C310695   0.499   1.210  13.847  0.4234 -0.0310 -0.2918
  720MPD2    C410696   0.443   1.334  13.876  0.2901 -0.5311  0.5556
  720MPD2    C510697   0.334   1.386  13.805 -0.1629  0.1199  0.3556
  720MPD2     H10698   0.523   1.054  13.720 -1.7238 -0.3795 -1.2590
  720MPD2    H110699   0.459   1.383  13.971  2.6086  0.7068 -0.4431
  720MPD2    H210700   0.235   1.367  13.628  0.4307 -0.1706 -1.0970
  720MPD2    H310701   0.271   1.468  13.837  0.7803  0.5069  1.2258
  720MPD2     N10702   0.613   1.154  13.915 -0.1351  0.0978  0.1728
  720MPD2    H510703   0.646   1.068  13.872  1.1562  0.9621 -0.5483
  720MPD2    N110704   0.309   1.110  13.552  0.7162 -0.0911  0.2691
  720MPD2    H710705   0.369   1.032  13.528 -0.5760 -0.4838 -1.6891
  721TMC3    C110706   0.762   1.101  14.088 -0.2253  0.0859  0.0173
  721TMC3    C210707   0.729   1.073  14.220  0.0144 -0.1863 -0.0778
  721TMC3    C310708   0.834   1.046  14.300  0.0485 -0.2934 -0.1865
  721TMC3    C410709   0.893   1.084  14.044 -0.5907  0.3985 -0.1304
  721TMC3    C510710   0.983   1.026  14.122  0.2059 -0.2572 -0.0715
  721TMC3    C610711   0.957   1.014  14.255  0.1104  1.0814 -0.1319
  721TMC3     C10712   0.674   1.205  14.028 -0.2236 -0.5007  0.4641
  721TMC3     O10713   0.658   1.304  14.097  0.2452  0.4359  0.5333
  721TMC3     H10714   0.629   1.108  14.243 -0.1146 -1.1324  0.8195
  721TMC3    H110715   0.912   1.109  13.941 -0.8593 -1.2049 -0.5695
  721TMC3    H210716   1.041   0.993  14.321 -1.0685  1.1507  1.3801
  721TMC3    C710717   1.098   0.966  14.058  0.2962 -0.2268  0.3682
  721TMC3    C810718   0.823   1.097  14.432 -0.4291 -0.4566 -0.0256
  721TMC3    O110719   1.149   1.028  13.963  0.1555  0.0257  0.0420
  721TMC3    O210720   0.917   1.076  14.514 -0.6420  0.0099  0.1639
  722MPD2     C10721   4.085   3.785  13.192  0.0478  0.3171  0.6751
  722MPD2    C110722   4.016   3.863  13.104  0.3603 -0.0193  0.3177
  722MPD2    C210723   3.880   3.851  13.108 -0.8752  0.0129  0.2156
  722MPD2    C310724   3.819   3.740  13.169 -0.5482 -1.2368 -0.4678
  722MPD2    C410725   3.888   3.674  13.264  0.1712 -0.1044 -0.2363
  722MPD2    C510726   4.018   3.702  13.279  0.0029  0.6739 -0.2164
  722MPD2     H10727   3.814   3.912  13.048 -0.4379 -0.6075 -0.8997
  722MPD2    H110728   3.846   3.600  13.332 -1.7957  0.2797 -1.0583
  722MPD2    H210729   4.192   3.798  13.207  0.2793 -0.6340 -0.2081
  722MPD2    H310730   4.078   3.639  13.345 -1.3886  0.9490  1.3089
  722MPD2     N10731   3.682   3.718  13.148 -0.4532 -0.0157  0.2634
  722MPD2    H510732   3.630   3.786  13.093 -1.3924  0.3982  1.6882
  722MPD2    N110733   4.074   3.954  13.021 -0.1531  0.3413  0.4848
  722MPD2    H710734   4.008   4.014  12.972 -1.6821 -1.1069  0.7651
  723TMC3    C110735   3.488   3.575  13.122 -0.5004 -0.3023  0.0684
  723TMC3    C210736   3.422   3.464  13.168  0.3308  0.3917 -0.2693
  723TMC3    C310737   3.308   3.429  13.101 -0.5986 -0.0549 -0.1688
  723TMC3    C410738   3.448   3.637  13.010 -0.6791 -0.0920 -0.2801
  723TMC3    C510739   3.322   3.607  12.957 -0.5781  0.1174  0.6271
  723TMC3    C610740   3.254   3.497  13.001 -0.8415 -0.0082  0.0513
  723TMC3     C10741   3.620   3.598  13.181  0.7361 -0.6960  0.1887
  723TMC3     O10742   3.667   3.497  13.234  0.2594 -0.4684 -0.5360
  723TMC3     H10743   3.456   3.400  13.249  1.8965  0.6802 -0.7003
  723TMC3    H110744   3.507   3.719  12.970  0.3203  0.0711  1.5024
  723TMC3    H210745   3.155   3.477  12.962 -0.0184 -0.0299 -2.0017
  723TMC3    C710746   3.239   3.710  12.899  0.6302 -0.1539  0.0224
  723TMC3    C810747   3.272   3.292  13.108 -0.4419  0.1078  0.3707
  723TMC3    O110748   3.136   3.673  12.846  0.2365  0.3257 -1.2481
  723TMC3    O210749   3.287   3.236  13.213 -0.2748  0.0817  0.1727
  724TMC3    C110750   3.459   1.769  10.228 -0.5219  0.1324 -0.0980
  724TMC3    C210751   3.379   1.831  10.129  0.0129  0.2697  0.4199
  724TMC3    C310752   3.438   1.907  10.037  1.0495 -0.1324 -0.6553
  724TMC3    C410753   3.594   1.798  10.242  0.8212 -0.0976  0.5676
  724TMC3    C510754   3.650   1.874  10.140 -0.1992  0.7335  0.9232
  724TMC3    C610755   3.575   1.921  10.039 -0.2527 -0.1870 -0.5722
  724TMC3     C10756   3.407   1.660  10.309  0.3923 -0.3687  0.0325
  724TMC3     O10757   3.472   1.618  10.406  0.0186 -0.0327 -0.1823
  724TMC3     H10758   3.273   1.852  10.135 -0.1538  0.2352 -2.4127
  724TMC3    H110759   3.642   1.769  10.335  1.9743  0.6905  0.2155
  724TMC3    H210760   3.618   1.981   9.959  2.5212  1.9344  2.5034
  724TMC3    C710761   3.771   1.950  10.167  0.0004 -0.7897 -0.0865
  724TMC3    C810762   3.351   1.986   9.953  0.0172  0.9193 -0.6387
  724TMC3    O110763   3.789   2.049  10.098 -0.0994  0.4792  0.2147
  724TMC3    O210764   3.244   1.943   9.917 -0.3438 -0.2146 -0.0162
  725TMC3    C110765   0.971   0.837  12.431 -0.0163 -0.1700  0.5067
  725TMC3    C210766   0.913   0.867  12.308 -0.6795  0.1119 -0.0436
  725TMC3    C310767   0.898   0.761  12.228 -0.6569 -0.4688  0.3009
  725TMC3    C410768   0.995   0.705  12.478  0.2635 -0.2181 -0.1829
  725TMC3    C510769   0.987   0.604  12.383  0.2786  0.3345  0.0609
  725TMC3    C610770   0.940   0.633  12.261  0.4975  1.0177 -0.2515
  725TMC3     C10771   1.015   0.948  12.519  1.0343 -0.4172  0.0179
  725TMC3     O10772   0.989   1.066  12.491  0.0922 -0.6673  0.5639
  725TMC3     H10773   0.891   0.970  12.282 -0.9400 -1.0607 -4.5364
  725TMC3    H110774   1.032   0.684  12.577  1.7181  1.1413 -0.4328
  725TMC3    H210775   0.919   0.552  12.193 -1.5827  2.1605 -0.9887
  725TMC3    C710776   1.022   0.464  12.421 -0.6722 -0.3357  0.2199
  725TMC3    C810777   0.777   0.754  12.150 -0.4488  0.3024 -0.1151
  725TMC3    O110778   1.012   0.378  12.333  0.9462  0.8241 -0.5906
  725TMC3    O210779   0.702   0.659  12.168  0.0260 -0.7239  0.4183
  726MPD2     C10780   3.227   2.133  10.347  0.1363 -0.1611 -0.9392
  726MPD2    C110781   3.118   2.132  10.269  0.6232  0.3574  1.0771
  726MPD2    C210782   3.021   2.035  10.282 -0.3732 -0.2266 -0.1486
  726MPD2    C310783   3.034   1.928  10.369  0.5354 -1.1856 -0.2410
  726MPD2    C410784   3.149   1.923  10.442  0.1584 -0.0835  0.7146
  726MPD2    C510785   3.242   2.021  10.429  0.1099  0.1168 -0.1333
  726MPD2     H10786   2.927   2.053  10.230  0.5403  1.5231 -1.1763
  726MPD2    H110787   3.167   1.839  10.509  0.4840 -1.4039 -1.0154
  726MPD2    H210788   3.303   2.210  10.351  1.2675 -1.2736 -1.1097
  726MPD2    H310789   3.331   2.023  10.491  0.1556  0.2711 -0.2047
  726MPD2     N10790   2.931   1.848  10.416 -0.0693  0.0818 -0.8375
  726MPD2    H510791   2.949   1.780  10.489 -0.9122 -0.2741 -0.9558
  726MPD2    N110792   3.085   2.239  10.178 -0.1482  0.3628  0.2526
  726MPD2    H710793   3.011   2.221  10.110  0.1639  0.1839 -0.0420
  727TMC3    C110794   3.073   2.457  10.091 -0.7705 -0.5626 -0.6196
  727TMC3    C210795   3.074   2.589  10.116 -0.2155 -0.1287  0.0058
  727TMC3    C310796   3.037   2.677  10.016  0.9270 -0.6016 -0.4448
  727TMC3    C410797   3.043   2.406   9.967  0.7539  0.4699 -0.3712
  727TMC3    C510798   3.017   2.495   9.866  0.1196 -0.4830 -0.4927
  727TMC3    C610799   3.011   2.629   9.888  0.6340  0.0236  0.1618
  727TMC3     C10800   3.136   2.365  10.188 -0.0432  0.5724 -0.5850
  727TMC3     O10801   3.207   2.412  10.274 -0.2508 -0.6788 -0.5424
  727TMC3     H10802   3.080   2.627  10.218 -0.8316  1.5112 -0.5560
  727TMC3    H110803   3.030   2.300   9.946  1.6045  0.6804 -1.9795
  727TMC3    H210804   2.981   2.691   9.804 -2.4611  1.1875  2.1035
  727TMC3    C710805   2.995   2.436   9.734 -0.5363  0.1119 -0.4033
  727TMC3    C810806   3.048   2.820  10.025  0.2370  0.5709 -0.0825
  727TMC3    O110807   2.968   2.318   9.724 -0.3891  0.2570  0.6654
  727TMC3    O210808   2.974   2.885   9.953 -0.3397 -0.5727 -0.2587
  728TMC3    C110809   2.621   1.133  15.315  0.3191 -0.4044 -0.4458
  728TMC3    C210810   2.752   1.146  15.350 -0.2887  0.2731 -0.4146
  728TMC3    C310811   2.849   1.155  15.251 -0.3739  0.1525 -0.5830
  728TMC3    C410812   2.592   1.143  15.179 -0.4643  0.1186 -0.6911
  728TMC3    C510813   2.692   1.141  15.081  1.1815  0.4356 -0.3491
  728TMC3    C610814   2.822   1.145  15.113 -0.4462  0.3236 -0.5910
  728TMC3     C10815   2.513   1.097  15.416  0.1766  0.5002 -0.1802
  728TMC3     O10816   2.397   1.117  15.380 -0.2835  0.4314 -0.2250
  728TMC3     H10817   2.777   1.167  15.453  2.7594 -0.6466 -0.9612
  728TMC3    H110818   2.486   1.146  15.155 -0.9806 -1.3594  1.3914
  728TMC3    H210819   2.906   1.128  15.046  1.1070 -0.5101  1.5612
  728TMC3    C710820   2.657   1.145  14.938  0.6459 -0.5773  0.2630
  728TMC3    C810821   2.982   1.172  15.289  0.6332 -0.7349  0.5627
  728TMC3    O110822   2.553   1.084  14.919 -0.4895 -0.3601  0.0177
  728TMC3    O210823   3.000   1.158  15.413  0.5733 -0.2201 -0.2019
  729MPD2     C10824   4.668   2.770  16.778  0.1012 -0.3435  0.0981
  729MPD2    C110825   0.004   2.658  16.784 -0.5201  0.0891  0.3595
  729MPD2    C210826   0.037   2.614  16.912 -0.6541 -0.5319  0.3248
  729MPD2    C310827   4.723   2.682  17.024  0.7551  0.6665 -0.0238
  729MPD2    C410828   4.658   2.802  17.013 -1.2549 -0.2151 -0.2673
  729MPD2    C510829   4.626   2.838  16.887  0.8661  0.2600  0.1510
  729MPD2     H10830   0.086   2.518  16.928  2.4876  1.6402  3.8162
  729MPD2    H110831   4.620   2.856  17.099 -2.1376 -1.4157  0.0976
  729MPD2    H210832   4.639   2.811  16.682  0.8062  0.5938  0.2851
  729MPD2    H310833   4.587   2.938  16.886 -0.5807 -0.3016  1.7996
  729MPD2     N10834   0.028   2.652  17.152 -0.4145  0.5780  0.9308
  729MPD2    H510835   0.000   2.722  17.219 -0.5755  2.4835 -1.1190
  729MPD2    N110836   0.050   2.600  16.667  0.3787  0.8545  0.2299
  729MPD2    H710837   0.009   2.642  16.583  1.4035  0.9311 -0.2315
  730TMC3    C110838   0.128   2.577  17.335 -0.7156 -0.1514 -0.0850
  730TMC3    C210839   0.257   2.553  17.349  0.4913 -0.0582  0.1917
  730TMC3    C310840   0.335   2.651  17.407 -1.0015 -0.3932  0.5435
  730TMC3    C410841   0.069   2.685  17.380 -0.2142  0.0390  0.1814
  730TMC3    C510842   0.142   2.779  17.446  0.1095 -0.5910  0.2049
  730TMC3    C610843   0.278   2.766  17.462  0.4969  0.2537  0.6472
  730TMC3     C10844   0.097   2.546  17.197  0.3978  1.1151  0.0787
  730TMC3     O10845   0.170   2.472  17.129  0.3238  0.3768  0.8085
  730TMC3     H10846   0.296   2.454  17.326  0.4496  0.2321 -1.1401
  730TMC3    H110847   4.702   2.695  17.368  0.0626  2.0701 -0.6966
  730TMC3    H210848   0.339   2.851  17.490  1.7183 -0.0702 -1.0193
  730TMC3    C710849   0.096   2.906  17.394  0.3540  0.8226  0.9673
  730TMC3    C810850   0.450   2.680  17.320  0.7175 -0.4733 -0.4291
  730TMC3    O110851   0.043   2.897  17.283  0.2505 -0.2026 -0.4044
  730TMC3    O210852   0.526   2.771  17.347  0.3202 -0.2184 -0.4411
  731MPD2     C10853   0.278   0.492  12.259 -0.7594 -1.0262 -0.5324
  731MPD2    C110854   0.410   0.465  12.277 -0.0206 -0.7432  0.2215
  731MPD2    C210855   0.462   0.492  12.403 -0.7045  0.2211  0.2471
  731MPD2    C310856   0.384   0.533  12.508 -0.4103 -0.2723  0.2007
  731MPD2    C410857   0.250   0.573  12.489 -0.1675  0.2542 -0.1542
  731MPD2    C510858   0.202   0.548  12.362 -0.4054 -0.3872  0.6462
  731MPD2     H10859   0.568   0.485  12.422 -0.7187  0.3962  0.3884
  731MPD2    H110860   0.182   0.617  12.561 -0.4022 -0.7189  0.2193
  731MPD2    H210861   0.233   0.479  12.161 -1.1586  0.7716 -0.5775
  731MPD2    H310862   0.098   0.574  12.351 -0.2518 -0.4103 -0.8899
  731MPD2     N10863   0.452   0.540  12.633 -0.7620 -0.0335  0.1141
  731MPD2    H510864   0.549   0.511  12.623 -0.7069  0.3354 -0.4028
  731MPD2    N110865   0.500   0.423  12.174 -0.3265  0.0569  0.0253
  731MPD2    H710866   0.600   0.418  12.193 -0.4841  0.6106  0.9772
  732TMC3    C110867   0.583   0.372  11.959  0.4358 -0.0860 -0.7310
  732TMC3    C210868   0.547   0.292  11.860 -0.7277 -0.2981 -0.7241
  732TMC3    C310869   0.648   0.239  11.785  0.0555 -0.0992 -0.4241
  732TMC3    C410870   0.709   0.402  11.998  0.3825  0.2350 -0.0594
  732TMC3    C510871   0.809   0.349  11.917  0.1616  0.7185  0.0781
  732TMC3    C610872   0.782   0.266  11.809  0.5187 -0.9139  0.0436
  732TMC3     C10873   0.470   0.414  12.042 -0.5245  0.3571 -0.0899
  732TMC3     O10874   0.364   0.416  11.981  0.8516  0.1364  0.1852
  732TMC3     H10875   0.443   0.272  11.835 -0.5791 -0.0406 -1.5621
  732TMC3    H110876   0.739   0.469  12.078 -1.5432 -0.3654  1.1678
  732TMC3    H210877   0.855   0.223  11.741  0.0765  0.2997 -1.1882
  732TMC3    C710878   0.941   0.416  11.924  0.1921  0.4919  0.4650
  732TMC3    C810879   0.610   0.123  11.707  0.5482 -0.1875 -0.1125
  732TMC3    O110880   0.948   0.535  11.920 -0.1018  0.3577  0.0394
  732TMC3    O210881   0.624   0.132  11.589 -0.0009  0.0605 -0.0360
  733TMC3    C110882   1.416   3.616  12.605  0.7846 -0.1146 -0.2455
  733TMC3    C210883   1.541   3.553  12.613 -0.9823  0.1489 -0.4601
  733TMC3    C310884   1.640   3.641  12.587 -0.4587  0.1751  0.1436
  733TMC3    C410885   1.393   3.740  12.553  0.2073  0.2287 -1.1690
  733TMC3    C510886   1.506   3.813  12.532 -0.5506 -0.3036  0.0692
  733TMC3    C610887   1.631   3.766  12.548 -0.1687 -0.4811  0.7184
  733TMC3     C10888   1.301   3.575  12.667  0.2528 -0.3558 -0.4501
  733TMC3     O10889   1.235   3.662  12.725 -0.3741 -0.4273  0.1585
  733TMC3     H10890   1.549   3.460  12.668  0.8360  1.5118  1.5872
  733TMC3    H110891   1.301   3.797  12.551  0.9781  1.3716 -3.6443
  733TMC3    H210892   1.711   3.820  12.498 -1.0875  0.6942  0.5183
  733TMC3    C710893   1.486   3.954  12.518  0.4130  0.5096 -0.4507
  733TMC3    C810894   1.766   3.608  12.647 -1.0991  0.1597  0.5796
  733TMC3    O110895   1.420   4.000  12.424 -0.3671  0.0456  0.2068
  733TMC3    O210896   1.784   3.491  12.676 -0.0835 -0.5629  0.0356
  734MPD2     C10897   3.614   0.594  12.513 -0.0280 -0.7633  0.4531
  734MPD2    C110898   3.499   0.677  12.525 -0.1370 -0.2974 -0.0347
  734MPD2    C210899   3.487   0.781  12.434  1.1084  0.2067 -0.1122
  734MPD2    C310900   3.588   0.804  12.341 -0.2207 -0.1015  0.7429
  734MPD2    C410901   3.700   0.727  12.331 -0.2584  0.3969 -0.2736
  734MPD2    C510902   3.714   0.626  12.421 -1.0092  0.7302  0.1049
  734MPD2     H10903   3.410   0.855  12.453 -0.8828 -2.0755  0.8047
  734MPD2    H110904   3.772   0.742  12.251 -3.4361 -3.7976 -3.9338
  734MPD2    H210905   3.634   0.511  12.580  0.2199  1.3938  3.0695
  734MPD2    H310906   3.799   0.558  12.421 -0.7817  1.0159  1.1196
  734MPD2     N10907   3.554   0.904  12.247 -0.9114  0.7534  0.4917
  734MPD2    H510908   3.459   0.940  12.253 -1.1097  0.1696  0.9138
  734MPD2    N110909   3.405   0.633  12.625 -0.1241 -0.0038 -0.1197
  734MPD2    H710910   3.419   0.546  12.677  0.0844 -1.1217 -2.0552
  735TMC3    C110911   3.187   0.606  12.696 -0.2378  0.1755  0.1477
  735TMC3    C210912   3.070   0.591  12.630  0.0239  0.0826 -0.5163
  735TMC3    C310913   3.033   0.467  12.578 -0.9767 -1.0212 -0.0225
  735TMC3    C410914   3.253   0.493  12.729 -0.3272  0.1150  0.6196
  735TMC3    C510915   3.218   0.373  12.676 -0.2896  0.9023 -0.5294
  735TMC3    C610916   3.111   0.355  12.593 -0.2582  0.7908 -0.2386
  735TMC3     C10917   3.280   0.681  12.621 -1.0974 -0.2654 -0.4497
  735TMC3     O10918   3.222   0.759  12.545 -0.5102  0.2931 -0.2814
  735TMC3     H10919   3.005   0.678  12.622 -1.8736 -1.3363 -0.5639
  735TMC3    H110920   3.313   0.495  12.819  1.2268  1.9056 -0.4605
  735TMC3    H210921   3.088   0.262  12.542  1.8663  1.7264 -2.8605
  735TMC3    C710922   3.334   0.297  12.661 -0.2867  0.3637 -0.2282
  735TMC3    C810923   2.988   0.486  12.442  0.7281 -0.2475  0.4041
  735TMC3    O110924   3.440   0.358  12.687  0.1455  0.2303  0.2776
  735TMC3    O210925   2.931   0.391  12.386 -0.4209  0.1865 -0.6350
  736MPD2     C10926   3.425   4.687  12.609 -0.1233  0.3789  0.4272
  736MPD2    C110927   3.440   0.085  12.599 -0.1765 -0.3472 -0.2821
  736MPD2    C210928   3.570   0.130  12.575 -0.4564  0.2184 -0.1699
  736MPD2    C310929   3.679   0.043  12.555  0.1628 -0.0785 -0.1117
  736MPD2    C410930   3.661   4.649  12.574  0.3893  0.3645  0.2293
  736MPD2    C510931   3.532   4.600  12.587 -0.2456 -0.1165 -0.0070
  736MPD2     H10932   3.583   0.236  12.557 -1.6605  0.3158 -0.5046
  736MPD2    H110933   3.749   4.585  12.566  2.1547  2.9836 -1.2326
  736MPD2    H210934   3.325   4.644  12.619  0.4691 -1.0598  0.1255
  736MPD2    H310935   3.516   4.492  12.582 -2.4689  0.3107 -2.1006
  736MPD2     N10936   3.811   0.085  12.511 -0.2745 -0.4882 -0.1793
  736MPD2    H510937   3.881   0.013  12.494  1.0713 -0.0002  3.3375
  736MPD2    N110938   3.326   0.163  12.619 -0.4500 -0.6381 -0.2140
  736MPD2    H710939   3.239   0.112  12.613 -0.8354 -0.1703  1.4217
  737TMC3    C110940   3.953   0.210  12.368  0.6590 -0.1180 -0.3017
  737TMC3    C210941   3.951   0.333  12.300  0.0932 -0.3659 -0.3269
  737TMC3    C310942   3.978   0.336  12.163  0.5114 -0.0001  0.2062
  737TMC3    C410943   3.956   0.097  12.295  0.2133  0.1213  0.7734
  737TMC3    C510944   3.997   0.109  12.161  0.9907  0.1818 -0.7836
  737TMC3    C610945   4.013   0.226  12.094  0.1254  0.0764  0.0590
  737TMC3     C10946   3.850   0.212  12.479  0.0264 -0.7441 -0.8365
  737TMC3     O10947   3.797   0.319  12.513 -0.2039 -0.3914 -0.3941
  737TMC3     H10948   3.933   0.426  12.353  1.9722 -0.0153 -0.3053
  737TMC3    H110949   3.940   0.000  12.340  0.5811 -0.0774  0.4807
  737TMC3    H210950   4.016   0.215  11.986 -2.7312 -0.5258  0.0202
  737TMC3    C710951   4.040   4.732  12.095 -0.2083  0.6146 -0.8191
  737TMC3    C810952   3.964   0.464  12.098  0.4426  0.0667  0.3105
  737TMC3    O110953   4.052   4.628  12.155 -0.1259 -0.0720  0.4793
  737TMC3    O210954   3.925   0.555  12.168  0.2266 -0.5790  0.6494
  738MPD2     C10955   4.090   0.049  15.568 -0.8142  0.0745 -0.0966
  738MPD2    C110956   4.066   4.732  15.448 -0.4878  0.1484  0.1711
  738MPD2    C210957   4.045   0.073  15.336  0.0854 -0.5024 -0.0705
  738MPD2    C310958   4.052   0.211  15.346 -0.0604  0.4628 -0.4876
  738MPD2    C410959   4.069   0.270  15.471  0.2375 -0.0399 -0.2730
  738MPD2    C510960   4.082   0.188  15.584 -0.2410  0.1734  0.5043
  738MPD2     H10961   4.029   0.031  15.237 -1.0718 -1.8797  0.7006
  738MPD2    H110962   4.080   0.377  15.482  2.1114 -0.3721  1.2069
  738MPD2    H210963   4.112   4.733  15.658  0.2686  1.9663  0.7977
  738MPD2    H310964   4.091   0.232  15.683  1.1740 -1.7468  1.2480
  738MPD2     N10965   4.028   0.292  15.234  0.2325 -0.0361  0.2915
  738MPD2    H510966   4.030   0.391  15.258 -0.4438 -0.7258  3.2046
  738MPD2    N110967   4.056   4.597  15.424 -0.1658  0.1089  0.2672
  738MPD2    H710968   4.025   4.565  15.333  1.6855  1.0912 -0.7006
  739TMC3    C110969   4.062   0.364  15.012  0.1586 -0.3082  0.7306
  739TMC3    C210970   4.083   0.342  14.879 -0.1310 -0.3220  0.6811
  739TMC3    C310971   4.131   0.432  14.795 -0.2493 -0.2615  0.2092
  739TMC3    C410972   4.091   0.489  15.062 -0.0270  0.0676  0.4924
  739TMC3    C510973   4.146   0.577  14.973  0.4022 -0.3768 -0.1502
  739TMC3    C610974   4.171   0.550  14.842 -1.0034 -0.4355 -0.3022
  739TMC3     C10975   4.033   0.254  15.103  0.6964  0.0130 -0.4466
  739TMC3     O10976   4.018   0.148  15.046 -0.6581 -0.3471  0.7078
  739TMC3     H10977   4.060   0.247  14.832  2.2683  0.8362 -2.8256
  739TMC3    H110978   4.070   0.525  15.162 -3.4203 -0.4809 -0.0018
  739TMC3    H210979   4.227   0.618  14.779 -0.4819  0.5152  1.1751
  739TMC3    C710980   4.179   0.711  15.022  0.7205 -0.5920  0.1411
  739TMC3    C810981   4.192   0.377  14.671  0.2635 -0.0636  0.2733
  739TMC3    O110982   4.188   0.728  15.142  0.3085  0.3615 -0.0663
  739TMC3    O210983   4.138   0.284  14.616  0.2771  0.0095 -0.5734
  740TMC3    C110984   4.329   1.337  13.834  0.4048 -0.3922 -0.2192
  740TMC3    C210985   4.433   1.288  13.914  0.1231 -0.2944 -0.1477
  740TMC3    C310986   4.553   1.284  13.863  0.1320 -0.1199 -0.1445
  740TMC3    C410987   4.355   1.372  13.704 -0.3374 -0.3084 -0.6550
  740TMC3    C510988   4.482   1.361  13.652 -0.2579 -0.5524 -0.6905
  740TMC3    C610989   4.585   1.323  13.735 -0.3944 -0.3932 -0.3843
  740TMC3     C10990   4.190   1.344  13.873 -0.9082 -0.0286  0.2287
  740TMC3     O10991   4.116   1.407  13.798 -0.2997  0.1361 -0.4498
  740TMC3     H10992   4.421   1.261  14.019  0.1139 -0.4955 -0.1993
  740TMC3    H110993   4.278   1.385  13.629 -0.9732  1.6757  0.3473
  740TMC3    H210994   4.690   1.318  13.706 -0.3056  0.5279 -0.2007
  740TMC3    C710995   4.505   1.415  13.518 -0.3044 -0.1428  1.2357
  740TMC3    C810996   4.662   1.256  13.959 -0.0073 -0.5407 -0.5569
  740TMC3    O110997   4.410   1.482  13.475 -0.6288 -0.1355  0.2916
  740TMC3    O210998   4.652   1.313  14.064 -0.0032 -0.1846  0.1945
  741TMC3    C110999   4.267   0.500  14.156 -0.3683  0.7844  0.5336
  741TMC3    C211000   4.155   0.420  14.177  0.0275 -0.3497 -0.2383
  741TMC3    C311001   4.080   0.446  14.293  0.5280  0.2599 -0.4429
  741TMC3    C411002   4.291   0.604  14.242 -0.3070  0.3142 -0.5028
  741TMC3    C511003   4.212   0.630  14.351  0.0331  0.2285  0.6851
  741TMC3    C611004   4.102   0.548  14.374 -0.4533  0.1934 -0.0595
  741TMC3     C11005   4.382   0.467  14.070  0.0033 -0.3328 -0.6794
  741TMC3     O11006   4.492   0.517  14.094  0.5138  0.2524 -0.2926
  741TMC3     H11007   4.126   0.338  14.113 -0.9392  0.0455 -0.3022
  741TMC3    H111008   4.373   0.669  14.211  2.4106 -1.9880  1.7703
  741TMC3    H211009   4.037   0.553  14.460  0.7786  1.2349  0.8072
  741TMC3    C711010   4.270   0.686  14.476 -0.6938 -0.1207  0.0392
  741TMC3    C811011   3.964   0.357  14.323  0.1824  0.1012 -0.4909
  741TMC3    O111012   4.201   0.709  14.575  0.4374  0.8568 -0.0545
  741TMC3    O211013   3.862   0.386  14.388  0.4072  0.4842 -0.4444
  742TMC3    C111014   4.237   3.915  14.930  0.3035 -0.0462 -0.0446
  742TMC3    C211015   4.157   3.822  14.864 -0.5769  0.4964  0.1479
  742TMC3    C311016   4.169   3.817  14.725  0.0715  0.4435 -0.3299
  742TMC3    C411017   4.326   3.994  14.866 -0.0930  0.5768 -0.3759
  742TMC3    C511018   4.341   3.979  14.732 -0.3817  0.3250  0.0027
  742TMC3    C611019   4.260   3.898  14.657 -0.3425  0.5638  0.6939
  742TMC3     C11020   4.253   3.909  15.075  0.4401 -0.0997 -1.0160
  742TMC3     O11021   4.317   3.996  15.131  0.3687  1.2002  0.1281
  742TMC3     H11022   4.122   3.733  14.914 -1.9869  2.2921  2.4078
  742TMC3    H111023   4.368   4.075  14.925 -0.4753 -0.4946  1.3497
  742TMC3    H211024   4.293   3.874  14.557  1.3675  0.8991  1.1597
  742TMC3    C711025   4.473   3.980  14.688 -0.6708  0.2974  0.5056
  742TMC3    C811026   4.117   3.712  14.646 -0.3723 -0.6539 -0.2482
  742TMC3    O111027   4.508   3.953  14.572  0.4923  0.6642 -0.0063
  742TMC3    O211028   4.184   3.679  14.555 -0.3939  0.7809  0.0768
  743MPD2     C11029   2.337   4.182   1.288 -0.1003  0.2231  0.5363
  743MPD2    C111030   2.388   4.302   1.239  0.1588 -1.1578  0.6067
  743MPD2    C211031   2.519   4.334   1.260 -0.5102 -0.2121 -0.1583
  743MPD2    C311032   2.603   4.268   1.338  0.0948  0.0245 -0.4787
  743MPD2    C411033   2.561   4.144   1.377 -0.1690 -0.2333 -0.1049
  743MPD2    C511034   2.429   4.101   1.352  0.1584  0.6616 -0.0586
  743MPD2     H11035   2.566   4.421   1.216 -1.3316 -0.2359 -1.0959
  743MPD2    H111036   2.619   4.076   1.438 -0.5094 -1.0083 -0.6589
  743MPD2    H211037   2.234   4.159   1.264  0.0248 -1.7713  1.9851
  743MPD2    H311038   2.411   4.003   1.396 -1.6897  1.0450  0.0117
  743MPD2     N11039   2.737   4.304   1.333  0.1266 -0.0609 -0.2315
  743MPD2    H511040   2.756   4.396   1.293 -1.0022 -0.2092 -1.0916
  743MPD2    N111041   2.290   4.381   1.167  0.0969 -0.1378 -0.2095
  743MPD2    H711042   2.196   4.347   1.154  0.4558 -1.4798  0.7447
  744TMC3    C111043   2.199   4.558   1.039  0.2702 -0.2750  0.5007
  744TMC3    C211044   2.160   4.688   1.054 -0.3282 -0.0742 -0.4134
  744TMC3    C311045   2.051   4.723   0.984  0.2915  0.9937 -0.1129
  744TMC3    C411046   2.133   4.464   0.969  0.2351 -0.1740 -0.4482
  744TMC3    C511047   2.032   4.515   0.894 -0.6875  0.0840  0.7849
  744TMC3    C611048   1.993   4.641   0.893  0.1666  0.5600  0.7907
  744TMC3     C11049   2.307   4.508   1.124  0.2150  0.1631  1.0425
  744TMC3     O11050   2.396   4.589   1.158 -0.2386 -0.8006 -0.1855
  744TMC3     H11051   2.227   0.026   1.092 -1.7335  0.6654  0.5489
  744TMC3    H111052   2.153   4.358   0.965 -1.2032 -0.4714  0.1709
  744TMC3    H211053   1.907   4.674   0.835 -0.7705  1.6040  2.7767
  744TMC3    C711054   1.965   4.422   0.803  0.0439 -0.1438 -0.2348
  744TMC3    C811055   1.983   0.110   0.990 -0.8145 -0.5802  0.0825
  744TMC3    O111056   1.937   4.308   0.843 -0.1962 -0.4732 -0.5396
  744TMC3    O211057   1.904   0.137   0.902  0.7024 -0.3954  0.2753
  745TMC3    C111058   4.670   3.247  13.739 -0.6178 -0.0946  0.2473
  745TMC3    C211059   4.541   3.270  13.772 -0.0607  0.5318  0.5720
  745TMC3    C311060   4.451   3.273  13.665  0.2352  0.3492  0.6823
  745TMC3    C411061   4.708   3.261  13.607  0.4630 -0.0748 -0.8275
  745TMC3    C511062   4.616   3.243  13.510  0.0232  0.5030 -0.3338
  745TMC3    C611063   4.482   3.247  13.533  0.6661  0.2881  0.0017
  745TMC3     C11064   0.020   3.316  13.822  0.6540 -1.0079 -0.7023
  745TMC3     O11065   0.041   3.272  13.932 -0.3366 -0.7789  0.1986
  745TMC3     H11066   4.482   3.273  13.862  0.0357  0.1654  0.6470
  745TMC3    H111067   0.071   3.231  13.593  0.9058  0.0919  2.1004
  745TMC3    H211068   4.410   3.237  13.452 -0.2511  1.6046  0.6565
  745TMC3    C711069   4.674   3.215  13.381 -0.2537 -0.2943  0.3708
  745TMC3    C811070   4.364   3.385  13.680  0.3104 -0.4898 -0.0493
  745TMC3    O111071   4.607   3.155  13.297 -0.0340 -0.0173 -0.0285
  745TMC3    O211072   4.253   3.381  13.624  0.0489 -0.6622 -0.0701
  746TMC3    C111073   2.170   4.709  11.154  0.2286 -0.0931 -0.2122
  746TMC3    C211074   2.224   4.692  11.032  0.1164 -0.3249  0.6413
  746TMC3    C311075   2.158   4.630  10.931  0.8651 -0.4065  0.2826
  746TMC3    C411076   2.049   4.646  11.178  0.2225 -0.2839  0.2309
  746TMC3    C511077   1.988   4.574  11.077  0.3020  0.3363  0.4359
  746TMC3    C611078   2.036   4.578  10.951 -0.0435  0.1540  0.0952
  746TMC3     C11079   2.189   0.099  11.209  0.5150 -0.8596 -0.2945
  746TMC3     O11080   2.143   0.119  11.321  0.0574 -0.1479 -0.0031
  746TMC3     H11081   2.329   4.715  11.018 -0.1940  1.6949  1.5833
  746TMC3    H111082   1.991   4.682  11.262  1.6694  0.2516  1.0033
  746TMC3    H211083   1.977   4.533  10.872  0.1075 -0.0365  0.0908
  746TMC3    C711084   1.850   4.523  11.097 -0.3608 -0.4229 -0.0677
  746TMC3    C811085   2.188   4.690  10.812 -0.3508 -0.3489 -0.5974
  746TMC3    O111086   1.783   4.493  11.000  0.1588  0.1540  0.1484
  746TMC3    O211087   2.247   0.057  10.827  0.1341 -0.1803 -0.0854
  747TMC3    C111088   4.412   4.609  11.117 -0.6261  0.4645 -0.6619
  747TMC3    C211089   4.325   4.591  11.214 -0.0589  0.0871  0.0148
  747TMC3    C311090   4.365   4.595  11.342  0.0529  0.9280 -0.1403
  747TMC3    C411091   4.541   4.622  11.142  0.2841  0.0848  0.7744
  747TMC3    C511092   4.587   4.614  11.266 -0.6250  0.3695  0.7617
  747TMC3    C611093   4.499   4.610  11.370 -0.2156 -0.8446  0.5010
  747TMC3     C11094   4.363   4.644  10.987  0.0135  0.7581 -0.0483
  747TMC3     O11095   4.253   4.692  10.976  0.6816 -0.5369 -0.1724
  747TMC3     H11096   4.220   4.574  11.194 -0.2729  2.7612 -1.1215
  747TMC3    H111097   4.615   4.642  11.065  3.4017 -0.7237  3.5289
  747TMC3    H211098   4.536   4.600  11.471  2.2070  0.0709 -0.3163
  747TMC3    C711099   4.717   4.666  11.294  0.2096 -0.0376 -0.1294
  747TMC3    C811100   4.264   4.553  11.434 -0.6930  0.2523  0.6489
  747TMC3    O111101   4.731   0.012  11.377  0.1349 -0.0907  0.3788
  747TMC3    O211102   4.176   4.480  11.391  0.0505 -0.0793 -0.1935
  748MPD2     C11103   1.584   1.310   1.546  0.0998 -0.0609 -0.3226
  748MPD2    C111104   1.548   1.212   1.451 -0.7628 -0.2781 -0.2471
  748MPD2    C211105   1.566   1.249   1.319  0.2194 -0.0937  0.3549
  748MPD2    C311106   1.611   1.381   1.286 -0.2525  0.1739  0.1890
  748MPD2    C411107   1.627   1.472   1.389 -0.4026 -0.2172 -0.1059
  748MPD2    C511108   1.615   1.441   1.518 -0.4409 -0.1597  0.1882
  748MPD2     H11109   1.554   1.180   1.236  0.1362  1.2615 -0.7499
  748MPD2    H111110   1.646   1.576   1.367  2.2763 -0.6298  0.2410
  748MPD2    H211111   1.584   1.278   1.649  2.3977  0.4328 -0.1663
  748MPD2    H311112   1.650   1.510   1.593 -0.7541  0.8009 -0.5516
  748MPD2     N11113   1.647   1.405   1.151 -0.4741  0.1646  0.5131
  748MPD2    H511114   1.646   1.317   1.101 -2.9032  2.0554 -2.7476
  748MPD2    N111115   1.511   1.079   1.485  0.3062 -0.3570 -0.6113
  748MPD2    H711116   1.523   1.055   1.583  0.3974  0.7668 -0.3539
  749TMC3    C111117   1.721   1.522   0.965 -0.5099 -0.0371 -0.4952
  749TMC3    C211118   1.809   1.418   0.934 -0.4591 -0.0112  0.1925
  749TMC3    C311119   1.889   1.424   0.827 -0.6436 -0.2729  0.6694
  749TMC3    C411120   1.712   1.629   0.885 -0.0691  0.0223 -0.3125
  749TMC3    C511121   1.795   1.633   0.777  0.2958  0.6701  0.2190
  749TMC3    C611122   1.888   1.533   0.740  0.5541  0.1343  0.4168
  749TMC3     C11123   1.657   1.531   1.096 -0.1898 -0.0235  0.0251
  749TMC3     O11124   1.592   1.628   1.130 -0.3097  0.3530 -0.0401
  749TMC3     H11125   1.808   1.328   0.993  0.3907 -1.2202 -1.6312
  749TMC3    H111126   1.640   1.706   0.912 -1.3635 -1.0244 -0.7567
  749TMC3    H211127   1.966   1.540   0.665 -1.0736 -1.8236 -1.4608
  749TMC3    C711128   1.802   1.765   0.717 -0.8794 -0.9315  0.4431
  749TMC3    C811129   2.011   1.339   0.827  0.9791  0.0953 -0.2148
  749TMC3    O111130   1.789   1.855   0.799  0.1336  0.2672 -0.1924
  749TMC3    O211131   2.053   1.308   0.714  0.0895  0.3675  0.0179
  750MPD2     C11132   2.696   1.863  11.336  0.4008 -0.2347  0.4755
  750MPD2    C111133   2.589   1.867  11.426 -0.3641 -0.0634 -0.0211
  750MPD2    C211134   2.495   1.768  11.418 -0.3288  0.0719  0.0315
  750MPD2    C311135   2.511   1.658  11.320 -0.3453 -0.5837  0.5799
  750MPD2    C411136   2.619   1.653  11.245  0.1497 -0.4680 -1.0878
  750MPD2    C511137   2.708   1.755  11.257  0.3624 -0.8912 -0.4464
  750MPD2     H11138   2.407   1.765  11.482 -1.5109 -0.7981 -1.6426
  750MPD2    H111139   2.635   1.575  11.173 -1.2963 -1.0572 -0.7795
  750MPD2    H211140   2.781   1.931  11.329  0.1194  0.3432  2.6297
  750MPD2    H311141   2.791   1.752  11.187  1.0282 -1.5892  0.3826
  750MPD2     N11142   2.416   1.560  11.302  0.1661 -1.1463 -0.0513
  750MPD2    H511143   2.428   1.503  11.219  3.8230  0.2136 -0.4719
  750MPD2    N111144   2.566   1.983  11.502 -0.2937  0.7356  1.0981
  750MPD2    H711145   2.633   2.058  11.490  1.5686 -0.4487  4.2373
  751TMC3    C111146   2.242   1.405  11.351  0.7742  0.0977 -0.2055
  751TMC3    C211147   2.119   1.386  11.408 -0.0118  0.3107 -0.2318
  751TMC3    C311148   2.039   1.289  11.366  0.3697  0.1064 -0.2994
  751TMC3    C411149   2.280   1.338  11.239 -0.6031 -0.0592 -0.4142
  751TMC3    C511150   2.188   1.258  11.179  0.1442 -0.0746  0.4821
  751TMC3    C611151   2.072   1.233  11.245 -0.8984  1.3120 -0.3667
  751TMC3     C11152   2.309   1.531  11.386  0.2713 -0.1200 -0.3190
  751TMC3     O11153   2.275   1.588  11.490 -0.3758  0.0444  0.3311
  751TMC3     H11154   2.092   1.433  11.502 -1.1466 -1.6796  0.4478
  751TMC3    H111155   2.385   1.332  11.210 -0.7298 -1.2160 -0.6312
  751TMC3    H211156   2.008   1.160  11.197  0.9051 -0.0801 -0.6553
  751TMC3    C711157   2.234   1.190  11.051  0.4228  0.2059  0.5816
  751TMC3    C811158   1.913   1.258  11.436 -0.1524  0.3025  0.3470
  751TMC3    O111159   2.326   1.243  10.999 -0.5496  0.1411  0.0761
  751TMC3    O211160   1.892   1.324  11.536  0.3359  0.1068  0.1898
  752TMC3    C111161   0.783   1.855  17.044 -0.1385  0.1301  0.2355
  752TMC3    C211162   0.837   1.734  17.009  0.5338 -0.6062 -0.5532
  752TMC3    C311163   0.806   1.628  17.089  0.1821 -0.9386 -0.3726
  752TMC3    C411164   0.695   1.870  17.148 -0.2675 -0.4880  0.0207
  752TMC3    C511165   0.660   1.759  17.217 -0.6623 -0.1250  0.3941
  752TMC3    C611166   0.712   1.633  17.185 -0.2417 -0.3049  0.3765
  752TMC3     C11167   0.837   1.974  16.992  0.8631 -0.0179 -0.1400
  752TMC3     O11168   0.956   1.972  16.979 -0.3017  0.7667  0.5879
  752TMC3     H11169   0.929   1.731  16.951  0.3760  0.3285 -0.8640
  752TMC3    H111170   0.664   1.973  17.164 -0.1609 -0.3933 -0.3787
  752TMC3    H211171   0.698   1.544  17.245 -0.9359  2.5779  4.4858
  752TMC3    C711172   0.557   1.770  17.320 -0.3472  0.2450  0.3574
  752TMC3    C811173   0.878   1.507  17.068  0.1339  0.0213  0.3986
  752TMC3    O111174   0.551   1.676  17.398 -0.1285  0.3471  0.0632
  752TMC3    O211175   0.874   1.429  17.162 -0.0001 -0.1121 -0.2617
  753TMC3    C111176   3.316   3.305  13.594 -0.7255  0.3232  0.0473
  753TMC3    C211177   3.358   3.303  13.729 -0.9288 -0.1497 -0.1602
  753TMC3    C311178   3.345   3.185  13.794  0.1151 -0.2999  0.1446
  753TMC3    C411179   3.253   3.203  13.544  0.7024 -0.7279  0.4003
  753TMC3    C511180   3.253   3.077  13.607 -0.2499  1.0507 -0.2647
  753TMC3    C611181   3.292   3.070  13.739 -0.2705  0.0412 -0.1841
  753TMC3     C11182   3.281   3.438  13.545  0.9068  0.0507 -0.1405
  753TMC3     O11183   3.161   3.453  13.518  0.1046  0.4120 -0.1849
  753TMC3     H11184   3.403   3.393  13.769  1.5793 -0.9157 -1.2437
  753TMC3    H111185   3.216   3.222  13.444  1.0582 -1.7986  0.0631
  753TMC3    H211186   3.279   2.977  13.792 -1.6565 -1.2216 -2.7392
  753TMC3    C711187   3.148   2.993  13.550  0.5675  0.8422 -0.2636
  753TMC3    C811188   3.358   3.181  13.941  0.2805  0.7103 -0.9215
  753TMC3    O111189   3.056   3.059  13.508  0.1341  1.0146 -0.3585
  753TMC3    O211190   3.300   3.085  13.993 -0.6382 -0.3111 -0.2975
  754MPD2     C11191   1.858   2.051  12.849 -0.3748 -0.9210 -0.6947
  754MPD2    C111192   1.843   1.936  12.912  0.4843  0.0158 -0.1261
  754MPD2    C211193   1.723   1.872  12.906  0.9482 -0.3854 -0.4800
  754MPD2    C311194   1.616   1.930  12.844  0.4300 -1.0891  0.1575
  754MPD2    C411195   1.627   2.048  12.782  0.1204  0.1052  0.6270
  754MPD2    C511196   1.749   2.108  12.786 -0.7854  0.2591 -0.4801
  754MPD2     H11197   1.708   1.780  12.961 -0.9162  1.9938  2.9972
  754MPD2    H111198   1.540   2.084  12.728  0.4008  1.7041  1.2267
  754MPD2    H211199   1.953   2.104  12.849 -0.6642 -0.4018 -0.3105
  754MPD2    H311200   1.750   2.203  12.735 -2.6279  1.5560  1.8894
  754MPD2     N11201   1.491   1.875  12.836 -0.2603 -0.1332  0.3715
  754MPD2    H511202   1.422   1.934  12.790  0.1863 -0.1745 -0.3418
  754MPD2    N111203   1.954   1.886  12.982 -0.4320  1.2887 -0.5382
  754MPD2    H711204   2.033   1.949  12.992  0.4029  0.3328 -1.1562
  755MPD2     C11205   0.918   2.384  12.973 -0.1240 -0.6521 -0.0549
  755MPD2    C111206   0.833   2.280  12.990  0.1929  0.1911  0.6390
  755MPD2    C211207   0.880   2.149  12.967 -0.6246  0.5523 -0.0231
  755MPD2    C311208   1.008   2.127  12.916  0.9119  0.4494 -0.3138
  755MPD2    C411209   1.094   2.230  12.902  0.1652 -0.2147  0.2428
  755MPD2    C511210   1.045   2.359  12.928 -0.6574  0.6861 -0.0509
  755MPD2     H11211   0.813   2.066  12.989  0.0256  0.0154 -0.0601
  755MPD2    H111212   1.198   2.219  12.873 -0.2281  0.5762 -1.4719
  755MPD2    H211213   0.896   2.487  12.995 -1.9168 -1.1173  0.2662
  755MPD2    H311214   1.109   2.443  12.902  0.8485 -0.6791 -0.7948
  755MPD2     N11215   1.061   1.996  12.893 -0.2138 -0.4463  0.3469
  755MPD2    H511216   1.154   1.995  12.853  0.1293  2.1488  1.0859
  755MPD2    N111217   0.702   2.288  13.035 -0.5204 -0.2365 -0.8977
  755MPD2    H711218   0.656   2.199  13.055 -0.8939  0.3962  1.0521
  756MPD2     C11219   1.843   2.579   9.703  0.0411  0.0339 -0.1613
  756MPD2    C111220   1.755   2.491   9.757 -0.6101  0.2300 -0.6033
  756MPD2    C211221   1.622   2.476   9.706 -0.8116 -0.6494  0.0004
  756MPD2    C311222   1.582   2.538   9.586  0.6392  0.5748  1.3391
  756MPD2    C411223   1.688   2.611   9.529  0.4144  0.4374 -0.2779
  756MPD2    C511224   1.810   2.640   9.589  0.1360 -0.0854 -0.5194
  756MPD2     H11225   1.543   2.431   9.766 -1.1716  0.2260  0.1897
  756MPD2    H111226   1.671   2.657   9.432  0.2207  1.0811  0.0616
  756MPD2    H211227   1.940   2.600   9.745 -0.9799 -0.4385  2.4377
  756MPD2    H311228   1.884   2.697   9.535  0.7900 -0.5908 -0.1508
  756MPD2     N11229   1.446   2.527   9.537  0.5139  0.1245  0.5828
  756MPD2    H511230   1.392   2.458   9.588 -1.3480  2.2411  1.4977
  756MPD2    N111231   1.785   2.423   9.880  0.1792 -0.1457  0.3574
  756MPD2    H711232   1.703   2.380   9.921  0.8640 -3.3541 -1.5976
  757MPD2     C11233   0.980   1.871   9.708 -0.7576  0.2054 -0.1126
  757MPD2    C111234   1.107   1.916   9.695 -0.9492  0.0796 -0.1648
  757MPD2    C211235   1.141   2.034   9.634 -0.2527  0.2901  0.7183
  757MPD2    C311236   1.042   2.107   9.573 -0.7955  0.0138 -0.1249
  757MPD2    C411237   0.910   2.070   9.592  0.3103  0.3786 -0.3275
  757MPD2    C511238   0.880   1.955   9.661 -0.4629  0.6929  1.3307
  757MPD2     H11239   1.240   2.068   9.608 -1.3375  4.4069  1.9276
  757MPD2    H111240   0.825   2.125   9.553  0.4188 -0.7204 -2.1233
  757MPD2    H211241   0.942   1.776   9.745 -1.5220 -0.4530 -2.5919
  757MPD2    H311242   0.779   1.915   9.660 -0.7358  1.3765  1.7017
  757MPD2     N11243   1.084   2.228   9.508  1.0145  0.1620  0.0873
  757MPD2    H511244   1.184   2.237   9.496  1.0132 -0.0536 -0.0843
  757MPD2    N111245   1.204   1.837   9.758 -0.2033 -0.2311  0.2694
  757MPD2    H711246   1.170   1.756   9.808  0.3446 -0.2829  0.5591
  758MPD2     C11247   1.893   1.635  15.658 -0.1649  0.2456  0.6643
  758MPD2    C111248   1.974   1.622  15.775 -0.2023 -0.2412  0.6385
  758MPD2    C211249   1.960   1.709  15.883 -0.9133 -0.3946  0.1655
  758MPD2    C311250   1.874   1.810  15.874  0.6790 -1.0588 -0.1292
  758MPD2    C411251   1.800   1.830  15.760 -0.6599 -0.3557 -0.0978
  758MPD2    C511252   1.799   1.732  15.656  0.1608  0.6245  0.1729
  758MPD2     H11253   2.021   1.697  15.971 -1.0079  1.8873  0.5357
  758MPD2    H111254   1.732   1.915  15.756  0.8587  0.8475 -0.5030
  758MPD2    H211255   1.901   1.563  15.578 -0.0424 -0.6151  1.4477
  758MPD2    H311256   1.736   1.747  15.570  0.9422  0.8680 -0.3547
  758MPD2     N11257   1.855   1.893  15.988  0.4235 -0.6205 -0.1805
  758MPD2    H511258   1.914   1.871  16.068 -0.1130 -1.7671 -0.0939
  758MPD2    N111259   2.069   1.518  15.777 -0.3264 -0.6273  0.0614
  758MPD2    H711260   2.074   1.472  15.687  0.3285  0.8917 -0.6805
  759MPD2     C11261   0.361   4.505  10.501 -0.6900 -0.0474  0.1919
  759MPD2    C111262   0.449   4.447  10.416 -1.0426 -0.0867 -0.0053
  759MPD2    C211263   0.571   4.500  10.391  0.0530  0.3047  0.3033
  759MPD2    C311264   0.614   4.616  10.440 -0.4617  1.0043  0.2505
  759MPD2    C411265   0.526   4.669  10.529 -0.3106 -0.0631 -0.0091
  759MPD2    C511266   0.402   4.618  10.564 -0.2108 -0.0914  0.0680
  759MPD2     H11267   0.632   4.447  10.318  0.3396 -0.5125  1.1322
  759MPD2    H111268   0.552   0.020  10.582  0.0772  0.0208 -0.3444
  759MPD2    H211269   0.264   4.463  10.523  0.1008 -1.2340  1.4618
  759MPD2    H311270   0.337   4.676  10.628 -0.0349  0.0525  0.1155
  759MPD2     N11271   0.744   4.667  10.409  0.3098 -0.2317 -0.3191
  759MPD2    H511272   0.806   4.612  10.350  0.2575  1.3743 -1.8518
  759MPD2    N111273   0.411   4.334  10.353  0.2558 -0.2340 -0.3609
  759MPD2    H711274   0.489   4.306  10.294  1.4997  1.6287  0.3822
  760MPD2     C11275   0.142   2.008  11.192 -0.2498 -0.0080  0.8140
  760MPD2    C111276   0.133   1.979  11.327  0.5680  0.1178 -0.2449
  760MPD2    C211277   0.181   1.860  11.370  0.6134 -0.1101  0.5097
  760MPD2    C311278   0.236   1.768  11.280  0.7154  0.1889 -0.7220
  760MPD2    C411279   0.236   1.793  11.143 -0.9275  0.2905 -0.1093
  760MPD2    C511280   0.189   1.920  11.101  0.0855  0.1806 -0.2296
  760MPD2     H11281   0.174   1.828  11.474  1.1828 -1.6147  0.0758
  760MPD2    H111282   0.288   1.727  11.074 -1.5163  0.4731 -0.7286
  760MPD2    H211283   0.102   2.102  11.156  1.4916  0.2694 -0.3663
  760MPD2    H311284   0.187   1.944  10.995  0.2795 -1.2573 -0.5579
  760MPD2     N11285   0.284   1.643  11.318 -0.0466 -0.1759 -0.1268
  760MPD2    H511286   0.317   1.589  11.238 -0.6378 -2.6238  1.2691
  760MPD2    N111287   0.083   2.083  11.406  0.3485 -0.3375 -0.4733
  760MPD2    H711288   0.075   2.172  11.358  1.5693 -0.4357 -0.8667
  761MPD2     C11289   1.450   1.029  11.480  0.3128 -0.3160  0.0602
  761MPD2    C111290   1.508   1.000  11.364  0.1558  0.5945 -0.3101
  761MPD2    C211291   1.638   1.043  11.332 -0.1211  0.1461  0.0205
  761MPD2    C311292   1.707   1.127  11.412  0.1326 -0.0569  0.3008
  761MPD2    C411293   1.635   1.165  11.524  0.9948 -0.2033  0.2491
  761MPD2    C511294   1.519   1.104  11.571 -0.1746  0.1035  0.2891
  761MPD2     H11295   1.698   1.013  11.247 -1.1437 -0.6900 -0.4042
  761MPD2    H111296   1.679   1.235  11.594  1.0130  1.7472 -1.6992
  761MPD2    H211297   1.352   0.994  11.509  1.2827 -1.4358  2.0318
  761MPD2    H311298   1.474   1.144  11.661  0.7811  1.1078  0.3212
  761MPD2     N11299   1.831   1.170  11.373 -0.3025  0.2334 -0.1486
  761MPD2    H511300   1.863   1.145  11.280  0.0763 -2.4957  0.7199
  761MPD2    N111301   1.443   0.923  11.265  0.3580  0.4166 -0.1946
  761MPD2    H711302   1.347   0.894  11.283  0.7380 -1.0856 -0.5521
  762MPD2     C11303   1.778   0.274  10.844  0.1820  0.8642 -0.2639
  762MPD2    C111304   1.734   0.399  10.801  0.3729 -1.1228  0.0953
  762MPD2    C211305   1.821   0.466  10.708 -0.7421 -0.3458  0.3711
  762MPD2    C311306   1.945   0.419  10.675  0.0037 -0.9266 -0.7305
  762MPD2    C411307   1.975   0.290  10.704  0.6274  0.7300 -0.2629
  762MPD2    C511308   1.893   0.223  10.795 -0.2454  0.2096 -0.1588
  762MPD2     H11309   1.793   0.561  10.665  0.0244 -0.8530 -1.2485
  762MPD2    H111310   2.071   0.253  10.669 -0.5487 -1.9106 -0.6772
  762MPD2    H211311   1.723   0.212  10.914 -1.2637  2.1650 -0.2420
  762MPD2    H311312   1.919   0.124  10.830 -1.5408 -0.3656 -0.8482
  762MPD2     N11313   2.029   0.500  10.595  0.3638 -0.1572  0.0758
  762MPD2    H511314   1.989   0.583  10.553  0.0095 -0.1838  0.3604
  762MPD2    N111315   1.612   0.454  10.844 -0.2498  0.2827  0.1308
  762MPD2    H711316   1.559   0.408  10.918 -1.4772 -3.3961 -3.0248
  763MPD2     C11317   3.865   2.220  15.999  0.0928 -0.3181  0.1884
  763MPD2    C111318   3.779   2.254  15.897  0.0913 -0.1200  0.4583
  763MPD2    C211319   3.772   2.388  15.865 -0.2732 -0.0155  0.6690
  763MPD2    C311320   3.844   2.481  15.944  0.0381 -0.4309 -0.0516
  763MPD2    C411321   3.901   2.445  16.062  0.6086 -0.1848 -0.4636
  763MPD2    C511322   3.912   2.310  16.089  0.6141  0.0997 -0.5321
  763MPD2     H11323   3.702   2.428  15.793 -0.6990 -3.3118 -0.7198
  763MPD2    H111324   3.942   2.519  16.130  0.9399  0.5024 -1.4086
  763MPD2    H211325   3.867   2.116  16.029 -4.0042 -0.0183  1.3803
  763MPD2    H311326   3.974   2.275  16.171 -0.9391 -1.0341  0.1456
  763MPD2     N11327   3.848   2.618  15.910  0.1530  0.0455  0.2835
  763MPD2    H511328   3.890   2.683  15.975 -1.9007  1.0221  0.6612
  763MPD2    N111329   3.719   2.159  15.805 -0.1069  0.2531 -0.3726
  763MPD2    H711330   3.688   2.194  15.715  0.7343 -0.3777 -0.8999
  764MPD2     C11331   1.842   3.433  17.404  0.1062  0.6347 -0.0603
  764MPD2    C111332   1.807   3.349  17.298  0.0221  0.3977 -0.7680
  764MPD2    C211333   1.851   3.221  17.297 -0.5704 -0.3669 -0.1499
  764MPD2    C311334   1.922   3.172  17.402  0.8108  0.0167  0.2522
  764MPD2    C411335   1.960   3.255  17.504  0.2524 -0.6350  0.2863
  764MPD2    C511336   1.926   3.384  17.501 -0.8013  0.3251 -0.3356
  764MPD2     H11337   1.826   3.154  17.216  0.5883 -0.8157 -0.1386
  764MPD2    H111338   2.028   3.228  17.584  1.0120  1.5101  0.3656
  764MPD2    H211339   1.801   3.533  17.404  1.6093  1.2487  1.5353
  764MPD2    H311340   1.957   3.451  17.579 -1.4424 -1.9174  1.8540
  764MPD2     N11341   1.946   3.034  17.404  0.1183 -0.0085 -0.8559
  764MPD2    H511342   1.912   2.982  17.323 -1.0173  1.7436 -1.5189
  764MPD2    N111343   1.719   3.389  17.192 -0.4447  0.0027  0.0963
  764MPD2    H711344   1.709   3.327  17.112  1.3651  0.5337 -0.5448
  765MPD2     C11345   1.319   1.374  16.104  1.2028  0.0225  1.0084
  765MPD2    C111346   1.399   1.391  15.994  0.2974  0.5327  0.4686
  765MPD2    C211347   1.517   1.316  16.004  0.3667  0.4858  0.4544
  765MPD2    C311348   1.534   1.216  16.094 -0.0128  0.4130  0.6327
  765MPD2    C411349   1.443   1.198  16.188  0.0829 -0.7179 -0.6258
  765MPD2    C511350   1.338   1.279  16.198 -0.1172  0.3082 -0.2768
  765MPD2     H11351   1.586   1.333  15.922 -1.7638 -1.2460 -1.6923
  765MPD2    H111352   1.453   1.122  16.264 -0.6197 -0.1128  0.0679
  765MPD2    H211353   1.224   1.426  16.104  0.5543 -1.1471 -0.6381
  765MPD2    H311354   1.259   1.271  16.272  0.0886  2.0923  0.1506
  765MPD2     N11355   1.648   1.138  16.073  0.6080 -0.5217  0.2837
  765MPD2    H511356   1.700   1.167  15.991  0.1118  2.2637  0.9527
  765MPD2    N111357   1.362   1.475  15.885 -0.0728  0.0753 -0.3653
  765MPD2    H711358   1.271   1.521  15.880 -1.4655 -2.3650  1.8779
  766MPD2     C11359   0.976   1.520  15.221  0.1838 -0.0323  0.1059
  766MPD2    C111360   1.108   1.505  15.270 -0.8982 -0.2126  0.4337
  766MPD2    C211361   1.197   1.454  15.177 -0.1661  0.7102 -0.5893
  766MPD2    C311362   1.160   1.417  15.050  0.0808  0.5392  0.2918
  766MPD2    C411363   1.028   1.432  15.007 -0.0151  0.1391  0.5768
  766MPD2    C511364   0.939   1.483  15.097 -0.3667 -0.4448 -0.0982
  766MPD2     H11365   1.300   1.440  15.206 -0.6708  0.4407  1.0654
  766MPD2    H111366   0.993   1.391  14.913  3.6172 -2.3581  0.3006
  766MPD2    H211367   0.897   1.557  15.285  1.1988 -0.8545  1.8442
  766MPD2    H311368   0.833   1.491  15.074 -0.4210 -1.5322 -0.2119
  766MPD2     N11369   1.252   1.384  14.944  0.0803  0.4356  0.1082
  766MPD2    H511370   1.211   1.377  14.851  1.9421 -0.7546 -0.6202
  766MPD2    N111371   1.161   1.556  15.392  0.7105 -0.1267  0.0984
  766MPD2    H711372   1.261   1.549  15.408  0.7036  1.2578  0.7667
  767MPD2     C11373   0.866   1.731  14.888  0.2819 -0.3961 -0.8527
  767MPD2    C111374   1.001   1.723  14.854  0.7042 -0.0968  0.3252
  767MPD2    C211375   1.024   1.661  14.729  0.5520  0.3408  0.6439
  767MPD2    C311376   0.932   1.607  14.647 -0.1955 -0.3281  0.1073
  767MPD2    C411377   0.800   1.615  14.687  0.0656 -0.3879 -0.0142
  767MPD2    C511378   0.765   1.675  14.810 -0.2768 -0.5759  0.2621
  767MPD2     H11379   1.122   1.661  14.681 -0.9442 -0.7223 -2.4296
  767MPD2    H111380   0.721   1.590  14.617  0.0752  0.3570 -0.2915
  767MPD2    H211381   0.833   1.792  14.971 -0.2325 -1.4587 -0.2762
  767MPD2    H311382   0.664   1.701  14.838 -0.4258  0.2266 -0.9872
  767MPD2     N11383   0.969   1.557  14.521  0.1146  0.2775  0.0830
  767MPD2    H511384   1.069   1.546  14.512 -0.0385 -2.0585  1.1842
  767MPD2    N111385   1.105   1.779  14.934  0.1004  0.1666 -0.5557
  767MPD2    H711386   1.085   1.811  15.028 -0.0588  0.3799 -0.6632
  768MPD2     C11387   1.602   4.069  10.716  0.1280  0.6850 -0.6358
  768MPD2    C111388   1.562   4.100  10.851  0.1786  0.5882 -0.1203
  768MPD2    C211389   1.660   4.121  10.947  0.6035  0.2635  0.1698
  768MPD2    C311390   1.795   4.112  10.915 -0.1857 -0.6920 -0.1478
  768MPD2    C411391   1.831   4.077  10.786 -0.2585  0.6691 -0.0107
  768MPD2    C511392   1.733   4.061  10.688 -0.0869 -0.1201 -0.1652
  768MPD2     H11393   1.631   4.151  11.047 -0.2575  0.2579 -0.0785
  768MPD2    H111394   1.939   4.073  10.774 -0.3326  0.3530 -0.5659
  768MPD2    H211395   1.526   4.075  10.639 -0.5821 -2.5426 -0.2171
  768MPD2    H311396   1.767   4.048  10.586  0.1474  1.2615 -0.2641
  768MPD2     N11397   1.896   4.155  11.006  0.3249  0.6304  0.6082
  768MPD2    H511398   1.993   4.160  10.976  0.1696 -0.4378 -0.0634
  768MPD2    N111399   1.428   4.129  10.891 -0.9074  0.4133 -0.4832
  768MPD2    H711400   1.412   4.151  10.988  1.2467 -1.3301  0.2563
  769MPD2     C11401   3.161   2.564  14.720  0.1443  0.3575  0.2552
  769MPD2    C111402   3.051   2.647  14.722  0.2046 -1.1779  0.5940
  769MPD2    C211403   3.052   2.755  14.819 -0.3012 -0.3789  0.5080
  769MPD2    C311404   3.163   2.777  14.893 -0.6461 -0.5677 -0.4396
  769MPD2    C411405   3.275   2.695  14.886 -0.3011 -0.9587 -0.0558
  769MPD2    C511406   3.275   2.596  14.784 -0.1696 -0.2247  0.0603
  769MPD2     H11407   2.970   2.825  14.816  0.2284  0.1743 -1.6417
  769MPD2    H111408   3.367   2.700  14.943 -0.0021 -0.2649 -0.5953
  769MPD2    H211409   3.175   2.494  14.639  1.6617  2.1659 -1.0662
  769MPD2    H311410   3.364   2.534  14.777 -1.4072 -2.1269  1.1155
  769MPD2     N11411   3.142   2.883  14.993  0.4460  0.4408  0.5769
  769MPD2    H511412   3.053   2.931  14.987  0.6214  0.7522  0.5096
  769MPD2    N111413   2.945   2.613  14.632 -0.6519 -0.7193 -0.3426
  769MPD2    H711414   2.955   2.520  14.593  1.0133 -0.1934 -1.1824
  770MPD2     C11415   2.375   1.889  14.271 -0.7228 -0.0901  0.6424
  770MPD2    C111416   2.425   1.933  14.394 -0.0141 -0.0087 -0.1294
  770MPD2    C211417   2.489   2.055  14.404  0.2398  0.0709 -0.5004
  770MPD2    C311418   2.496   2.135  14.286 -0.7855  0.2012 -1.0233
  770MPD2    C411419   2.426   2.093  14.169 -0.3624 -0.2094 -0.8036
  770MPD2    C511420   2.381   1.968  14.165  0.2991 -0.0593 -0.4877
  770MPD2     H11421   2.529   2.088  14.499  2.5339 -0.5560 -1.2284
  770MPD2    H111422   2.425   2.155  14.080  0.5430 -0.0924 -0.7381
  770MPD2    H211423   2.324   1.794  14.262  0.3657 -0.6817  0.7468
  770MPD2    H311424   2.337   1.942  14.069  1.3030 -1.0932 -0.6628
  770MPD2     N11425   2.538   2.269  14.300  0.4209  0.5517 -0.2223
  770MPD2    H511426   2.513   2.335  14.227 -2.0510  0.8572  0.8982
  770MPD2    N111427   2.401   1.843  14.501 -0.2733 -0.1744 -0.1566
  770MPD2    H711428   2.339   1.763  14.491  0.6418 -1.0703  1.2170
  771MPD2     C11429   3.770   0.102  13.541  0.5087 -0.1394 -0.0128
  771MPD2    C111430   3.722   0.203  13.462 -0.0094 -0.8091 -0.2459
  771MPD2    C211431   3.633   0.174  13.360 -0.1415 -0.0598 -0.1595
  771MPD2    C311432   3.601   0.045  13.319  0.3707 -0.0097 -0.1958
  771MPD2    C411433   3.647   4.684  13.402  0.0960 -0.2699  0.2598
  771MPD2    C511434   3.734   4.710  13.505  0.3809 -0.0460 -0.4081
  771MPD2     H11435   3.600   0.259  13.301  1.7160  0.7613 -0.0332
  771MPD2    H111436   3.617   4.581  13.386 -1.6721  0.3621 -0.4644
  771MPD2    H211437   3.844   0.115  13.618  1.7915  0.1621 -1.2954
  771MPD2    H311438   3.770   4.626  13.563  1.1466  0.1371 -0.6175
  771MPD2     N11439   3.511   0.025  13.211 -0.0852 -0.7701 -0.3763
  771MPD2    H511440   3.475   0.110  13.170 -0.6782 -0.5726  0.5395
  771MPD2    N111441   3.768   0.339  13.476  0.1480  1.1042  0.0150
  771MPD2    H711442   3.750   0.394  13.392 -0.8479  1.1041  0.2310
  772MPD2     C11443   3.680   0.968  13.990 -0.2572  0.5243  0.1192
  772MPD2    C111444   3.615   0.870  13.915 -0.0842 -0.5508 -0.8229
  772MPD2    C211445   3.488   0.828  13.952  0.2289  0.2685  0.3139
  772MPD2    C311446   3.415   0.916  14.025  0.5212 -0.7385  0.1527
  772MPD2    C411447   3.479   1.019  14.091 -0.5851  0.5837  0.1197
  772MPD2    C511448   3.608   1.039  14.076  0.2554  0.5008 -0.1898
  772MPD2     H11449   3.436   0.756  13.890 -0.6527  2.2087 -1.1814
  772MPD2    H111450   3.423   1.101  14.136 -0.2047  0.2658  1.1642
  772MPD2    H211451   3.785   0.993  13.981  0.2475 -0.9220  1.7708
  772MPD2    H311452   3.656   1.124  14.124  2.4809 -2.2003  2.3322
  772MPD2     N11453   3.281   0.917  14.051 -0.2009 -0.1453  0.3841
  772MPD2    H511454   3.251   0.989  14.116 -0.3479  0.1175  0.0253
  772MPD2    N111455   3.683   0.795  13.817  0.0007 -0.0592 -0.0199
  772MPD2    H711456   3.638   0.711  13.783 -2.4504  1.0433  0.5292
  773MPD2     C11457   2.121   1.791   0.124 -0.1031 -0.4242  0.7896
  773MPD2    C111458   2.191   1.878   0.046 -0.2993 -0.0803  0.3608
  773MPD2    C211459   2.316   1.909   0.096  0.4686  0.1205 -0.0315
  773MPD2    C311460   2.367   1.871   0.215  0.1280  0.3802  0.7025
  773MPD2    C411461   2.286   1.796   0.294 -0.4114 -0.2360  0.0986
  773MPD2    C511462   2.167   1.743   0.238  0.5676 -0.3053 -0.0496
  773MPD2     H11463   2.374   1.974   0.031 -2.6043 -1.0026 -3.8694
  773MPD2    H111464   2.313   1.771   0.396 -0.3030  0.9923  0.3662
  773MPD2    H211465   2.016   1.763   0.114  0.2200 -0.8191 -1.5123
  773MPD2    H311466   2.107   1.675   0.297  1.0421 -1.3356 -0.7576
  773MPD2     N11467   2.493   1.922   0.255 -0.3530  0.6384  0.0241
  773MPD2    H511468   2.543   1.979   0.188  2.3003 -0.0495  1.4363
  773MPD2    N111469   2.151   1.917  17.672  0.5911 -0.4972 -0.6396
  773MPD2    H711470   2.220   1.965  17.615 -0.1687 -1.0062 -1.9862
  774MPD2     C11471   1.778   1.437  13.820  0.0638 -0.4824  1.0038
  774MPD2    C111472   1.813   1.362  13.707 -0.4770 -0.4467  0.3751
  774MPD2    C211473   1.883   1.430  13.609 -0.2600 -0.4825  0.2759
  774MPD2    C311474   1.919   1.564  13.622  0.1039 -0.4784 -0.7199
  774MPD2    C411475   1.876   1.634  13.735  0.1850 -0.1872 -0.1194
  774MPD2    C511476   1.795   1.573  13.829 -0.3880 -0.4535 -0.6696
  774MPD2     H11477   1.894   1.386  13.511 -1.1559 -0.4443  0.1590
  774MPD2    H111478   1.892   1.741  13.731 -0.6001 -0.1135 -1.1820
  774MPD2    H211479   1.716   1.389  13.895 -0.7610  2.2380  2.0592
  774MPD2    H311480   1.760   1.629  13.915  0.9450  0.3096 -0.6261
  774MPD2     N11481   1.982   1.629  13.509  0.8978 -0.0853 -0.7114
  774MPD2    H511482   1.989   1.577  13.422 -0.1923 -2.0579  0.3864
  774MPD2    N111483   1.785   1.223  13.705 -0.2526  0.1136  0.2903
  774MPD2    H711484   1.755   1.190  13.797  0.4558  1.5960  1.0447
  775MPD2     C11485   3.202   2.651  15.430  0.0928  0.5759 -0.0231
  775MPD2    C111486   3.211   2.734  15.536  0.7547 -0.0637 -0.8949
  775MPD2    C211487   3.325   2.806  15.553  0.2497  0.5714  0.8833
  775MPD2    C311488   3.436   2.800  15.463 -0.2334 -0.7606 -0.4964
  775MPD2    C411489   3.417   2.727  15.351 -0.0285 -0.2538  0.2381
  775MPD2    C511490   3.310   2.643  15.340  0.6165 -0.3961  0.1507
  775MPD2     H11491   3.326   2.882  15.630 -2.3660 -0.3731  1.8379
  775MPD2    H111492   3.494   2.726  15.274 -0.1795  1.8548  0.0549
  775MPD2    H211493   3.117   2.585  15.418 -0.0053  0.6725  0.1320
  775MPD2    H311494   3.306   2.570  15.261  0.7085  0.9925 -1.1332
  775MPD2     N11495   3.546   2.882  15.468  0.1743  0.2008 -0.3986
  775MPD2    H511496   3.577   2.917  15.378  0.5390 -0.5399 -0.5670
  775MPD2    N111497   3.094   2.752  15.616  0.1365 -0.5688 -0.2237
  775MPD2    H711498   3.009   2.699  15.596 -1.0828  0.5142  2.0457
  776MPD2     C11499   2.025   2.433  11.245 -0.1988 -0.2546  0.3706
  776MPD2    C111500   2.150   2.471  11.280  0.2639  0.1540 -0.7103
  776MPD2    C211501   2.218   2.563  11.198 -0.3079  0.5865  0.0073
  776MPD2    C311502   2.165   2.612  11.078 -0.2129  0.7154 -0.5114
  776MPD2    C411503   2.032   2.577  11.058  0.4265 -0.2858 -0.1434
  776MPD2    C511504   1.968   2.486  11.139  0.3382  0.0111 -0.0309
  776MPD2     H11505   2.315   2.596  11.234  0.5079 -0.2590 -1.3884
  776MPD2    H111506   1.975   2.631  10.984 -1.9400  0.3171  2.1255
  776MPD2    H211507   1.961   2.364  11.298 -2.1252  0.7930 -0.5917
  776MPD2    H311508   1.865   2.461  11.118  0.4044 -0.4385  0.1828
  776MPD2     N11509   2.236   2.711  11.001  0.5614 -0.1137 -0.1599
  776MPD2    H511510   2.307   2.764  11.050 -0.5948  1.9786 -0.7595
  776MPD2    N111511   2.196   2.421  11.405 -0.7408  0.5626  0.9688
  776MPD2    H711512   2.127   2.380  11.468 -0.7155  2.1109  1.9834
  777MPD2     C11513   2.285   0.735   0.073 -0.4715  0.0201  0.3050
  777MPD2    C111514   2.306   0.644   0.180 -0.1657  0.5680 -1.0102
  777MPD2    C211515   2.253   0.515   0.158  0.2671 -0.0164  0.0154
  777MPD2    C311516   2.187   0.476   0.043 -0.9879 -0.0774  0.5248
  777MPD2    C411517   2.187   0.564  17.695  0.2055 -0.7204 -0.5366
  777MPD2    C511518   2.243   0.691  17.710 -0.2955 -0.2901 -0.0814
  777MPD2     H11519   2.247   0.447   0.243  0.4753  1.5295  1.2584
  777MPD2    H111520   2.145   0.549  17.596  1.3706  3.2448 -1.5920
  777MPD2    H211521   2.323   0.836   0.080 -0.0617 -0.1143  0.0105
  777MPD2    H311522   2.219   0.760  17.630 -3.1719 -0.7320  0.3998
  777MPD2     N11523   2.142   0.343   0.040  0.4182  0.3995  0.8155
  777MPD2    H511524   2.142   0.294   0.129 -0.3436  0.1710  0.6883
  777MPD2    N111525   2.370   0.682   0.303 -0.5425  0.6000  0.4189
  777MPD2    H711526   2.392   0.781   0.312 -0.2047  0.6673 -1.0934
  778MPD2     C11527   3.319   0.583  15.020 -0.3133  0.1849  0.1398
  778MPD2    C111528   3.348   0.462  14.967  0.3626 -0.1028 -0.0557
  778MPD2    C211529   3.406   0.462  14.838 -0.0480 -0.2736 -0.5733
  778MPD2    C311530   3.451   0.581  14.779 -0.0925  0.2786  0.4275
  778MPD2    C411531   3.421   0.699  14.839  0.4256 -0.7801 -0.2474
  778MPD2    C511532   3.358   0.700  14.958  0.6362  0.1658  0.6145
  778MPD2     H11533   3.412   0.371  14.778  0.8272 -1.0152  0.6492
  778MPD2    H111534   3.443   0.797  14.799 -2.1955 -0.7021 -1.4863
  778MPD2    H211535   3.258   0.591  15.110 -1.0071 -1.3418 -0.1984
  778MPD2    H311536   3.331   0.794  15.005 -1.1261  0.7894 -1.6133
  778MPD2     N11537   3.506   0.578  14.648 -0.2106  0.3811  0.9818
  778MPD2    H511538   3.523   0.487  14.606 -0.3010  0.7249  0.1998
  778MPD2    N111539   3.289   0.342  15.020  0.1632  0.6169 -0.0171
  778MPD2    H711540   3.278   0.258  14.964  0.4718  0.2285  0.5026
  779MPD2     C11541   3.115   4.059  14.602 -0.4029  0.2322 -0.5477
  779MPD2    C111542   3.238   4.122  14.614  0.1598  0.4901 -0.2776
  779MPD2    C211543   3.251   4.252  14.568 -0.2048 -0.1424 -0.5076
  779MPD2    C311544   3.152   4.312  14.506  0.9323  0.2410 -0.4627
  779MPD2    C411545   3.035   4.252  14.474  0.4655 -0.0346  0.3121
  779MPD2    C511546   3.015   4.129  14.531  0.3389 -0.1705  0.6069
  779MPD2     H11547   3.346   4.303  14.577  0.3168 -1.5444  2.1365
  779MPD2    H111548   2.954   4.291  14.413 -0.0665 -0.5963  0.6477
  779MPD2    H211549   3.093   3.960  14.639  0.7882  0.0930 -0.2131
  779MPD2    H311550   2.921   4.079  14.511 -0.8132  1.2557  2.4465
  779MPD2     N11551   3.181   4.432  14.446  0.5758 -0.3326  0.2353
  779MPD2    H511552   3.278   4.462  14.445 -0.0826  1.8261 -0.4940
  779MPD2    N111553   3.358   4.059  14.653  0.1794 -0.6259  0.5305
  779MPD2    H711554   3.445   4.111  14.649  1.0024 -2.0770 -0.1962
  780MPD2     C11555   3.066   4.214   0.952 -0.1436  0.0610 -0.0702
  780MPD2    C111556   2.937   4.235   0.910  0.4391  0.3301  1.2654
  780MPD2    C211557   2.912   4.301   0.789 -0.3938 -0.8351  0.2773
  780MPD2    C311558   3.025   4.349   0.719  0.2447  0.3376  0.1169
  780MPD2    C411559   3.156   4.332   0.761  0.2558  0.4701 -0.2417
  780MPD2    C511560   3.169   4.279   0.888 -0.2332  0.1506  0.1083
  780MPD2     H11561   2.814   4.306   0.742  0.0293 -2.0998 -0.7595
  780MPD2    H111562   3.245   4.376   0.717  0.9087  0.1298  0.7249
  780MPD2    H211563   3.093   4.168   1.047 -2.9687  1.2118  1.2785
  780MPD2    H311564   3.275   4.273   0.912 -0.1599  0.1926 -0.2023
  780MPD2     N11565   2.997   4.412   0.596 -0.2006  0.0237 -0.1655
  780MPD2    H511566   2.901   4.407   0.563  0.0161 -0.1427 -0.7607
  780MPD2    N111567   2.828   4.189   0.990 -0.6456 -0.4179  0.1134
  780MPD2    H711568   2.847   4.120   1.062 -1.3750 -0.4469  0.2775
  781MPD2     C11569   4.737   0.911  11.620 -0.5454  0.8185 -0.2769
  781MPD2    C111570   0.054   0.817  11.700  0.0092  0.5115  0.2438
  781MPD2    C211571   0.157   0.742  11.651  0.0002 -0.2618 -0.6725
  781MPD2    C311572   0.199   0.765  11.522 -0.2620  0.5225  0.3853
  781MPD2    C411573   0.146   0.867  11.450  0.4119  0.7685 -0.1465
  781MPD2    C511574   0.040   0.940  11.494 -0.0769  0.3635  0.5376
  781MPD2     H11575   0.207   0.669  11.715 -1.2011  2.5522  3.4574
  781MPD2    H111576   0.182   0.893  11.351  0.3052  1.3483 -0.0360
  781MPD2    H211577   4.660   0.982  11.649  0.0282  1.7392 -1.0022
  781MPD2    H311578   4.732   1.019  11.438 -0.7691  1.6915  3.0250
  781MPD2     N11579   0.303   0.689  11.466  0.4279  0.5403  0.5491
  781MPD2    H511580   0.321   0.707  11.368 -1.0697  1.8970  0.5301
  781MPD2    N111581   0.016   0.798  11.831 -0.0784 -0.5000  0.1831
  781MPD2    H711582   0.063   0.725  11.883  0.2529  0.2623  0.9498
  782MPD2     C11583   2.404   1.254  10.008 -0.4527 -0.1819  0.0357
  782MPD2    C111584   2.500   1.248  10.106 -1.0275  0.9499  0.9950
  782MPD2    C211585   2.497   1.335  10.208 -0.5704 -0.2735  0.0586
  782MPD2    C311586   2.424   1.454  10.198 -0.3991 -0.1910  0.0199
  782MPD2    C411587   2.347   1.471  10.090 -0.1433 -0.3143  0.4349
  782MPD2    C511588   2.332   1.368   9.998 -0.0872 -0.6330 -0.3385
  782MPD2     H11589   2.553   1.313  10.298 -3.0003 -3.3541  0.7982
  782MPD2    H111590   2.278   1.554  10.079 -3.3497 -2.8510  1.4735
  782MPD2    H211591   2.406   1.175   9.934 -1.1335 -0.8474  0.7208
  782MPD2    H311592   2.261   1.380   9.917  1.1775  0.5513 -1.2833
  782MPD2     N11593   2.436   1.561  10.289 -0.0261  0.3632 -0.4053
  782MPD2    H511594   2.401   1.651  10.255  1.5966  1.1246 -0.0555
  782MPD2    N111595   2.571   1.132  10.123  0.2624  0.0482  0.2566
  782MPD2    H711596   2.542   1.044  10.082  0.3250  0.4775 -0.7109
  783MPD2     C11597   2.117   0.877  10.901 -0.1647 -0.5903 -0.5109
  783MPD2    C111598   2.200   0.983  10.919  0.5074  0.6656 -0.1579
  783MPD2    C211599   2.294   1.019  10.821  0.0734  0.4786 -0.3533
  783MPD2    C311600   2.298   0.939  10.709  0.2948 -0.8261 -0.5222
  783MPD2    C411601   2.204   0.833  10.692  0.0244  0.6142 -0.0433
  783MPD2    C511602   2.123   0.803  10.789 -0.8216 -0.5568  0.2041
  783MPD2     H11603   2.359   1.105  10.827  0.2597  0.2706  0.5892
  783MPD2    H111604   2.196   0.786  10.595 -1.0844  0.9162 -0.0937
  783MPD2    H211605   2.045   0.855  10.979  0.8956 -2.9502 -0.2021
  783MPD2    H311606   2.052   0.726  10.763 -0.6582 -0.9087  0.8232
  783MPD2     N11607   2.408   0.961  10.622 -0.3526  0.5588  0.3479
  783MPD2    H511608   2.472   1.030  10.661 -0.0465  1.5413 -1.8993
  783MPD2    N111609   2.175   1.066  11.032  0.0144 -0.7961  0.0954
  783MPD2    H711610   2.106   1.024  11.094 -1.9776 -0.0829 -1.6403
  784MPD2     C11611   4.474   1.955   1.050  0.3230 -0.2079  0.2356
  784MPD2    C111612   4.529   1.985   0.927  0.6982  0.7350 -0.2463
  784MPD2    C211613   4.455   2.060   0.832 -0.2402  0.2153  0.1988
  784MPD2    C311614   4.330   2.106   0.869  0.1890 -0.0495 -0.7602
  784MPD2    C411615   4.288   2.088   1.006  0.3512  0.3475 -0.4064
  784MPD2    C511616   4.353   2.006   1.088 -0.3151  0.1882  0.1734
  784MPD2     H11617   4.502   2.077   0.736  0.1630 -1.6793  0.0535
  784MPD2    H111618   4.188   2.121   1.034 -0.2198 -1.2181 -0.6201
  784MPD2    H211619   4.539   1.904   1.121  3.3936  1.2710 -1.5439
  784MPD2    H311620   4.310   1.987   1.186  0.6922 -1.5137  0.2791
  784MPD2     N11621   4.256   2.185   0.773  0.2878 -0.3222 -0.7978
  784MPD2    H511622   4.307   2.204   0.687  1.5748  0.8275  0.2280
  784MPD2    N111623   4.653   1.941   0.882  0.1436 -0.1548 -0.3151
  784MPD2    H711624   4.675   1.966   0.786  2.0727  4.4474  1.3177
  785MPD2     C11625   0.093   0.475  11.107 -0.1128  0.0708 -0.3371
  785MPD2    C111626   0.028   0.576  11.046 -0.1164  0.4518  0.1220
  785MPD2    C211627   4.663   0.549  10.958 -0.1581 -0.8136 -0.2456
  785MPD2    C311628   4.634   0.423  10.925 -0.1042  0.1752 -0.0062
  785MPD2    C411629   4.703   0.325  10.981  1.0313  0.8315 -0.4701
  785MPD2    C511630   0.058   0.346  11.068 -0.3137  0.2490 -0.3315
  785MPD2     H11631   4.603   0.624  10.908  1.0695  1.3333  1.5242
  785MPD2    H111632   4.685   0.222  10.952  0.9046 -0.1441  3.0479
  785MPD2    H211633   0.168   0.484  11.184 -0.2580  1.9582 -0.4248
  785MPD2    H311634   0.113   0.263  11.109 -0.0654 -0.6570 -2.4954
  785MPD2     N11635   4.545   0.415  10.813  0.3497 -0.2621 -0.5638
  785MPD2    H511636   4.500   0.499  10.779  1.1469  0.0093 -0.9550
  785MPD2    N111637   0.059   0.712  11.069 -0.5473 -0.1271  0.5487
  785MPD2    H711638   4.739   0.775  11.017 -0.3696 -0.5287 -0.1443
  786MPD2     C11639   3.725   3.405  14.536 -0.4678  0.3825  0.0495
  786MPD2    C111640   3.847   3.407  14.473  0.4725  0.1325 -0.1444
  786MPD2    C211641   3.938   3.504  14.518 -0.5174 -0.2699  0.4212
  786MPD2    C311642   3.913   3.571  14.636  0.4594  0.0562 -0.1677
  786MPD2    C411643   3.786   3.571  14.690 -0.2773  0.3976  0.3587
  786MPD2    C511644   3.690   3.481  14.639 -0.6533 -0.3210  0.3394
  786MPD2     H11645   4.028   3.519  14.459 -1.3386 -1.0670 -1.0289
  786MPD2    H111646   3.749   3.638  14.766  1.4238 -0.2885  1.7701
  786MPD2    H211647   3.645   3.343  14.499  0.8802 -0.8732 -0.7465
  786MPD2    H311648   3.589   3.492  14.677 -1.1604  0.9293 -1.3894
  786MPD2     N11649   3.993   3.666  14.688 -0.1584 -0.3035 -0.6130
  786MPD2    H511650   3.957   3.720  14.765 -3.7986 -0.7657 -1.9634
  786MPD2    N111651   3.881   3.342  14.353 -0.1669 -0.2630  0.3007
  786MPD2    H711652   3.967   3.370  14.307  0.6806 -0.2350  1.9097
  787MPD2     C11653   4.342   2.805  14.317  0.0937 -0.0669 -0.4614
  787MPD2    C111654   4.246   2.774  14.215  0.1699 -0.6974 -0.5123
  787MPD2    C211655   4.268   2.673  14.125 -0.2749 -0.2013  0.0376
  787MPD2    C311656   4.393   2.603  14.132  0.9871 -0.0725  0.0125
  787MPD2    C411657   4.482   2.627  14.234  0.2320  0.3947  0.3569
  787MPD2    C511658   4.453   2.724  14.327 -1.1656  0.4462  0.2212
  787MPD2     H11659   4.201   2.653  14.043  0.1543 -2.5788  0.2665
  787MPD2    H111660   4.575   2.571  14.248 -2.1841 -3.3749  1.4804
  787MPD2    H211661   4.333   2.877  14.397 -0.0607  1.8360 -2.2066
  787MPD2    H311662   4.518   2.739  14.413 -1.6511  2.8788  0.1601
  787MPD2     N11663   4.406   2.498  14.035 -0.2440 -0.2266 -0.1382
  787MPD2    H511664   4.335   2.499  13.962  0.8621 -0.9672 -1.2104
  787MPD2    N111665   4.130   2.856  14.209 -0.0981 -0.0245  0.2323
  787MPD2    H711666   4.129   2.928  14.280 -0.6219 -0.5509  0.7548
  788MPD2     C11667   1.066   1.856   0.667  0.3517 -0.2101 -0.3464
  788MPD2    C111668   1.053   1.807   0.542  0.2017 -0.0031  0.1962
  788MPD2    C211669   1.089   1.881   0.435 -0.0452 -0.0116 -0.0083
  788MPD2    C311670   1.123   2.010   0.449  0.0745 -0.2142  0.0891
  788MPD2    C411671   1.117   2.074   0.568 -0.2835  0.7048  1.1871
  788MPD2    C511672   1.094   1.991   0.677  0.0418 -0.5418  0.5703
  788MPD2     H11673   1.081   1.843   0.333 -1.9099 -0.4917  0.3250
  788MPD2    H111674   1.120   2.182   0.572  0.1090  0.7837 -1.2010
  788MPD2    H211675   1.056   1.794   0.756  0.9805  1.3323  0.8004
  788MPD2    H311676   1.085   2.035   0.776 -0.7738 -0.6489  0.5437
  788MPD2     N11677   1.140   2.096   0.343  0.0336  0.4529  0.3793
  788MPD2    H511678   1.135   2.192   0.374 -0.7160  0.4639  0.2241
  788MPD2    N111679   1.009   1.669   0.540  0.2274 -0.1934 -0.0930
  788MPD2    H711680   0.984   1.625   0.629  0.7385 -0.0008  0.1457
  789MPD2     C11681   1.700   1.542  16.172  0.7389  0.1935 -0.3551
  789MPD2    C111682   1.657   1.487  16.287 -0.7990  0.0197  0.5808
  789MPD2    C211683   1.537   1.536  16.333 -0.3342  0.2739 -0.7040
  789MPD2    C311684   1.468   1.635  16.265 -0.1399 -0.5910  0.3292
  789MPD2    C411685   1.511   1.687  16.150  0.2724 -0.2735  0.1808
  789MPD2    C511686   1.640   1.652  16.114  0.3251  0.3583 -0.0952
  789MPD2     H11687   1.496   1.488  16.421 -1.3461 -0.8574 -1.7978
  789MPD2    H111688   1.454   1.766  16.103 -2.2940 -1.9742  0.4486
  789MPD2    H211689   1.793   1.516  16.122 -0.0395 -1.0389 -1.1515
  789MPD2    H311690   1.696   1.701  16.035  1.3469 -1.1847 -0.3386
  789MPD2     N11691   1.336   1.675  16.306 -0.4151  0.2073  0.6665
  789MPD2    H511692   1.307   1.750  16.244 -0.4425 -1.9644 -1.9313
  789MPD2    N111693   1.724   1.388  16.365  0.0669  0.0276 -0.5640
  789MPD2    H711694   1.672   1.336  16.436  2.3414 -2.9775 -1.0734
  790MPD2     C11695   2.573   2.922  13.377  0.1721  0.2385 -0.2400
  790MPD2    C111696   2.540   2.801  13.432 -0.1412 -0.1490  0.2013
  790MPD2    C211697   2.466   2.706  13.355  0.5716 -0.2404  0.0693
  790MPD2    C311698   2.442   2.737  13.222 -0.0233 -0.3329  0.2217
  790MPD2    C411699   2.491   2.855  13.168  0.0200  0.9708  0.9235
  790MPD2    C511700   2.549   2.950  13.246 -0.0783  0.0077  1.1034
  790MPD2     H11701   2.460   2.600  13.380  1.1183 -0.4237 -0.5621
  790MPD2    H111702   2.473   2.893  13.068  1.6412  1.0363  0.6594
  790MPD2    H211703   2.624   2.998  13.435  1.5305  0.9202 -2.3445
  790MPD2    H311704   2.557   3.053  13.214 -2.6489 -0.2916 -0.5814
  790MPD2     N11705   2.361   2.647  13.143 -0.1101  0.0260  0.0299
  790MPD2    H511706   2.326   2.563  13.188  0.8474 -1.0501 -1.2202
  790MPD2    N111707   2.585   2.765  13.563 -0.0103  0.4217  0.6849
  790MPD2    H711708   2.617   2.845  13.617 -1.8147  0.5049  1.6046
  791MPD2     C11709   1.789   2.740  12.542 -0.0414 -0.6762  0.5719
  791MPD2    C111710   1.796   2.630  12.622 -0.5850  0.3513 -0.1987
  791MPD2    C211711   1.686   2.542  12.611  0.5347 -0.2243 -0.3005
  791MPD2    C311712   1.571   2.572  12.535  0.1308  0.6431 -1.0135
  791MPD2    C411713   1.576   2.682  12.453  0.4604 -0.7708 -0.1936
  791MPD2    C511714   1.685   2.757  12.449 -0.4188  0.1076  0.8512
  791MPD2     H11715   1.690   2.447  12.663 -0.4763  1.0461  2.1330
  791MPD2    H111716   1.493   2.708  12.388  2.0809 -0.8408 -2.2943
  791MPD2    H211717   1.869   2.812  12.533 -0.4609  0.0134  2.4149
  791MPD2    H311718   1.687   2.834  12.372 -1.4601 -0.9183 -0.1919
  791MPD2     N11719   1.462   2.484  12.543 -0.0278  0.1676 -0.0922
  791MPD2    H511720   1.473   2.412  12.614  0.3219  2.3971  2.1386
  791MPD2    N111721   1.908   2.601  12.709 -1.3066 -0.3450 -0.2811
  791MPD2    H711722   1.982   2.670  12.716 -2.4276  0.8228 -0.0744
  792MPD2     C11723   2.258   2.024  11.287  0.7941 -0.2593 -0.8811
  792MPD2    C111724   2.198   2.089  11.185  0.8913 -0.1825  0.4265
  792MPD2    C211725   2.062   2.096  11.198  0.3443  0.1334  0.0127
  792MPD2    C311726   1.997   2.026  11.292  0.2459  0.2265  0.4816
  792MPD2    C411727   2.062   1.943  11.378 -0.4255  0.0419  0.3061
  792MPD2    C511728   2.196   1.953  11.384  0.1571  0.8223 -0.1089
  792MPD2     H11729   2.011   2.159  11.126  1.8892  0.9676 -0.3568
  792MPD2    H111730   2.006   1.887  11.451 -1.2314  1.7729  1.0120
  792MPD2    H211731   2.364   2.043  11.283  0.4301  1.8547 -0.6016
  792MPD2    H311732   2.256   1.898  11.456 -0.4854 -1.1366 -1.0707
  792MPD2     N11733   1.860   2.030  11.304  0.3555 -0.4984  0.3646
  792MPD2    H511734   1.816   1.969  11.372  2.3104 -1.3409  0.8772
  792MPD2    N111735   2.271   2.145  11.078 -0.4956 -0.1358  0.2762
  792MPD2    H711736   2.372   2.131  11.072 -0.4418  0.7257 -0.7148
  793MPD2     C11737   1.396   2.287  10.456  0.1001 -0.1194  0.2785
  793MPD2    C111738   1.521   2.289  10.517  0.1801  0.1443  0.0012
  793MPD2    C211739   1.532   2.251  10.648 -0.2792 -0.3413 -0.1269
  793MPD2    C311740   1.434   2.201  10.724 -0.0810 -0.3208  0.1298
  793MPD2    C411741   1.315   2.190  10.660  0.1900 -0.0234 -0.6076
  793MPD2    C511742   1.289   2.243  10.536  0.0526 -0.1491  0.1765
  793MPD2     H11743   1.630   2.260  10.693 -0.9210 -0.9781  1.3975
  793MPD2    H111744   1.231   2.148  10.714 -0.4749 -0.2826 -1.8592
  793MPD2    H211745   1.369   2.317  10.355 -0.3325  0.6324  0.6168
  793MPD2    H311746   1.187   2.232  10.500 -0.3131 -0.9069  1.4457
  793MPD2     N11747   1.466   2.152  10.857  0.3013  0.4403 -0.2116
  793MPD2    H511748   1.558   2.166  10.897  0.6885 -0.4439 -0.7957
  793MPD2    N111749   1.639   2.314  10.446 -0.2800  0.0789 -0.5007
  793MPD2    H711750   1.724   2.317  10.501  0.2343 -3.4567 -1.1400
  794MPD2     C11751   2.220   2.479  17.143 -0.3836 -0.2806 -0.3418
  794MPD2    C111752   2.157   2.381  17.070  0.2684 -1.2029  0.0141
  794MPD2    C211753   2.118   2.413  16.945  0.3087  0.3556  0.1895
  794MPD2    C311754   2.122   2.545  16.890 -0.8418 -0.1261  0.3502
  794MPD2    C411755   2.184   2.635  16.971  0.0438  0.0165  0.3400
  794MPD2    C511756   2.229   2.605  17.093 -0.5280  0.5012  0.2945
  794MPD2     H11757   2.062   2.340  16.888  0.0858 -1.1355  2.3184
  794MPD2    H111758   2.194   2.739  16.942  0.0554 -0.5044 -1.5052
  794MPD2    H211759   2.259   2.459  17.242  0.6957  2.8904 -0.1046
  794MPD2    H311760   2.274   2.681  17.157  2.2579 -0.5927 -0.3700
  794MPD2     N11761   2.064   2.588  16.773  0.2046  0.1867  0.2242
  794MPD2    H511762   2.079   2.685  16.747  1.9732 -0.5782 -1.5975
  794MPD2    N111763   2.127   2.253  17.124  0.3682  0.0440 -0.0479
  794MPD2    H711764   2.081   2.189  17.061  0.8259  0.5535 -0.8968
  795MPD2     C11765   4.390   4.540  13.260  0.3481 -0.1335  0.4941
  795MPD2    C111766   4.479   4.448  13.207 -0.4005 -0.1901  0.1453
  795MPD2    C211767   4.572   4.389  13.287 -0.7150  0.7487 -0.6469
  795MPD2    C311768   4.588   4.422  13.420 -0.1271 -0.0782  0.9285
  795MPD2    C411769   4.494   4.508  13.475 -0.1564  0.4269 -0.3977
  795MPD2    C511770   4.406   4.569  13.395  0.7519  0.1369  1.0816
  795MPD2     H11771   4.644   4.314  13.256 -1.1533 -0.8616  2.2318
  795MPD2    H111772   4.499   4.521  13.583  1.0906 -0.9648 -0.2902
  795MPD2    H211773   4.321   4.600  13.201  0.7703 -0.9690 -0.8641
  795MPD2    H311774   4.331   4.632  13.442 -0.8904  0.2166 -1.6664
  795MPD2     N11775   4.693   4.367  13.500  0.1723  0.3153 -0.2605
  795MPD2    H511776   0.036   4.334  13.451 -0.7087 -0.3405 -1.2978
  795MPD2    N111777   4.478   4.387  13.078  0.0203  0.1450 -0.5957
  795MPD2    H711778   4.544   4.312  13.059 -2.3156 -2.2166  0.4270
  796MPD2     C11779   4.307   1.449  15.778  0.4448  0.0538 -0.7034
  796MPD2    C111780   4.342   1.542  15.877 -0.3044 -0.7857  0.6445
  796MPD2    C211781   4.302   1.675  15.868  0.4268 -0.0124 -0.5352
  796MPD2    C311782   4.221   1.715  15.760 -0.2554 -0.7781 -0.3707
  796MPD2    C411783   4.186   1.616  15.671  0.0123  0.0143 -0.8039
  796MPD2    C511784   4.232   1.482  15.674 -0.2666  0.2117  0.3178
  796MPD2     H11785   4.327   1.747  15.946 -3.0495  0.1536  0.4539
  796MPD2    H111786   4.125   1.632  15.583 -1.0521  1.1963  0.1580
  796MPD2    H211787   4.342   1.347  15.786  0.1151  0.0414  0.6437
  796MPD2    H311788   4.194   1.415  15.598 -2.3422  1.7118  0.0284
  796MPD2     N11789   4.188   1.848  15.740  0.1385  0.2559 -0.3761
  796MPD2    H511790   4.213   1.915  15.812 -0.5414 -0.0213  0.1234
  796MPD2    N111791   4.401   1.485  15.993  0.7329  0.1197 -0.2206
  796MPD2    H711792   4.384   1.386  16.006  0.5892  0.4576  2.0950
  797MPD2     C11793   4.707   0.888  17.014 -0.8662  0.5388 -0.2718
  797MPD2    C111794   0.076   0.859  17.092  0.8541  0.0686 -0.0480
  797MPD2    C211795   0.185   0.942  17.096  0.9871  0.4501  0.0084
  797MPD2    C311796   0.179   1.065  17.035 -0.1140  0.7802 -0.2447
  797MPD2    C411797   0.074   1.096  16.955  0.0740 -0.9553 -0.2968
  797MPD2    C511798   4.709   1.010  16.947 -0.7232  0.5175 -0.7279
  797MPD2     H11799   0.276   0.912  17.147  1.7176  1.2242 -0.8440
  797MPD2    H111800   0.061   1.192  16.907  0.5864 -1.2431 -1.0063
  797MPD2    H211801   4.617   0.829  17.006  0.5949 -1.8409  0.7611
  797MPD2    H311802   4.626   1.028  16.880 -0.0702 -0.9705 -1.9336
  797MPD2     N11803   0.289   1.156  17.034  0.6735  0.3204 -0.1571
  797MPD2    H511804   0.272   1.229  16.966  1.3097  0.8207  0.2202
  797MPD2    N111805   0.084   0.746  17.182 -0.4195 -0.7034 -0.1635
  797MPD2    H711806   0.168   0.739  17.238  0.6266  1.4054 -1.4664
  798MPD2     C11807   0.835   0.761  17.151  0.1617 -0.0784 -0.1330
  798MPD2    C111808   0.725   0.842  17.173  0.3940 -0.7529  0.0251
  798MPD2    C211809   0.610   0.777  17.225  0.0705 -0.5199 -0.8512
  798MPD2    C311810   0.599   0.642  17.251 -0.1282  0.0190  0.0791
  798MPD2    C411811   0.713   0.564  17.229 -0.3823  0.2650  0.3521
  798MPD2    C511812   0.830   0.627  17.187  0.5692  0.0432  0.0999
  798MPD2     H11813   0.522   0.840  17.230 -0.2796 -1.1173  0.4558
  798MPD2    H111814   0.705   0.457  17.246  1.1880  0.0547 -0.2143
  798MPD2    H211815   0.929   0.800  17.113 -1.4661  4.4060  0.4829
  798MPD2    H311816   0.916   0.566  17.165 -0.1138 -1.0564  0.4992
  798MPD2     N11817   0.471   0.590  17.280 -0.3129  0.3895  0.4489
  798MPD2    H511818   0.399   0.660  17.293  2.0593  2.4899  2.2749
  798MPD2    N111819   0.714   0.975  17.126 -0.1125 -0.4586  0.0241
  798MPD2    H711820   0.629   1.026  17.147 -0.8814 -1.3300 -1.0475
  799MPD2     C11821   3.773   2.419  13.875  0.4247 -0.8086 -0.5947
  799MPD2    C111822   3.744   2.305  13.799 -0.3439 -0.1466  0.1520
  799MPD2    C211823   3.690   2.323  13.671  0.6579 -0.2588 -0.0333
  799MPD2    C311824   3.713   2.444  13.611 -0.3769  0.1679 -0.2750
  799MPD2    C411825   3.754   2.551  13.681 -0.0851  0.2492  1.0281
  799MPD2    C511826   3.777   2.543  13.810  0.4658  0.2224  0.2722
  799MPD2     H11827   3.653   2.241  13.611 -0.3498  0.5400 -0.5059
  799MPD2    H111828   3.791   2.645  13.641  1.5134  0.0164  1.9880
  799MPD2    H211829   3.787   2.419  13.982  3.0260 -2.3578 -0.9356
  799MPD2    H311830   3.812   2.634  13.857  0.8952  0.5769 -0.7161
  799MPD2     N11831   3.714   2.468  13.478 -0.0407 -0.3074 -0.9413
  799MPD2    H511832   3.733   2.563  13.445 -1.7548  0.7248  1.0385
  799MPD2    N111833   3.758   2.174  13.850  0.3213 -0.3971  0.1478
  799MPD2    H711834   3.720   2.098  13.795  0.6902 -1.3767  1.2395
  800MPD2     C11835   4.303   3.818  13.955 -0.3860 -0.1125 -0.5519
  800MPD2    C111836   4.432   3.790  13.964 -0.5096 -0.4267 -0.1055
  800MPD2    C211837   4.481   3.683  13.878 -0.8604  0.0814 -0.2185
  800MPD2    C311838   4.385   3.602  13.817  0.7003  0.1262  0.1845
  800MPD2    C411839   4.250   3.639  13.811 -0.8288 -0.6838  0.3370
  800MPD2    C511840   4.213   3.746  13.886  0.4617 -0.5732  0.1282
  800MPD2     H11841   4.585   3.653  13.878 -1.6145 -2.5902 -0.3055
  800MPD2    H111842   4.178   3.579  13.755 -2.0892  1.3375 -0.2119
  800MPD2    H211843   4.265   3.904  14.009  1.0805  0.4237 -0.3974
  800MPD2    H311844   4.107   3.770  13.891  0.5666 -0.4992  1.7997
  800MPD2     N11845   4.432   3.485  13.758 -0.5130 -0.5294  0.4861
  800MPD2    H511846   4.527   3.462  13.787 -0.1859  0.1592 -0.0397
  800MPD2    N111847   4.514   3.872  14.047 -0.0853  0.4232 -0.0125
  800MPD2    H711848   4.469   3.950  14.094 -1.6676 -0.1327 -0.5978
  801MPD2     C11849   4.486   4.475  14.453 -0.8047  0.0853 -0.1919
  801MPD2    C111850   4.437   4.361  14.381  0.4602  0.1810 -0.4374
  801MPD2    C211851   4.303   4.354  14.358 -0.1007 -0.2258  1.0636
  801MPD2    C311852   4.221   4.459  14.397 -0.5022  0.2955  0.3131
  801MPD2    C411853   4.273   4.561  14.473  0.7920  1.2372  0.1556
  801MPD2    C511854   4.401   4.569  14.504  0.6507  0.2068 -0.2603
  801MPD2     H11855   4.253   4.267  14.317  0.7681 -0.3498  0.2709
  801MPD2    H111856   4.205   4.633  14.517  0.1887  1.7179 -1.5648
  801MPD2    H211857   4.587   4.487  14.490 -0.6282 -1.1060 -0.2753
  801MPD2    H311858   4.442   4.645  14.570  1.5973 -1.5423  1.2052
  801MPD2     N11859   4.079   4.455  14.387  0.2691  0.3603 -0.3338
  801MPD2    H511860   4.032   4.515  14.455 -1.7756 -1.6684  0.0384
  801MPD2    N111861   4.525   4.252  14.339 -0.2573  0.4484  0.3036
  801MPD2    H711862   4.477   4.175  14.295  2.1078  0.5866 -2.5293
  802MPD2     C11863   3.864   0.756  17.631  0.0744  0.0461 -0.0813
  802MPD2    C111864   3.876   0.665  17.734  0.8029 -0.0988 -0.0830
  802MPD2    C211865   3.953   0.553  17.713  0.5981 -0.0602  0.1662
  802MPD2    C311866   4.032   0.541  17.603  0.1489 -0.2117 -0.0529
  802MPD2    C411867   4.029   0.632  17.507  0.1367 -0.1022  0.3137
  802MPD2    C511868   3.944   0.737  17.522 -0.3166  0.1913 -0.2731
  802MPD2     H11869   3.962   0.471   0.026 -0.1580  0.0449  0.3876
  802MPD2    H111870   4.101   0.631  17.426 -1.1178 -0.1808 -0.8003
  802MPD2    H211871   3.815   0.851  17.649 -1.9159 -0.9358 -0.2933
  802MPD2    H311872   3.961   0.819  17.454 -0.5606  0.8680  0.4863
  802MPD2     N11873   4.107   0.418  17.597  0.1462  0.1653 -0.2401
  802MPD2    H511874   4.079   0.358  17.674  1.0919  0.1177  0.0559
  802MPD2    N111875   3.793   0.664   0.093 -0.4238 -0.4851 -0.1525
  802MPD2    H711876   3.782   0.570   0.128 -0.6331 -0.5002 -0.2577
  803MPD2     C11877   0.034   2.803  11.620  0.2413 -0.2154  0.0844
  803MPD2    C111878   0.147   2.859  11.676 -0.1874 -0.1981  0.6334
  803MPD2    C211879   0.174   2.844  11.814 -0.6291  0.1195 -0.0547
  803MPD2    C311880   0.083   2.770  11.891 -0.0890  0.3237 -0.3711
  803MPD2    C411881   4.713   2.715  11.831 -0.1815 -0.8893 -0.3184
  803MPD2    C511882   4.693   2.732  11.695  0.2997  1.1402 -0.3320
  803MPD2     H11883   0.274   2.863  11.854 -0.4965 -0.6725 -0.0189
  803MPD2    H111884   4.637   2.655  11.881  1.0540 -1.4491  0.8648
  803MPD2    H211885   0.015   2.794  11.513 -0.2526 -1.1804  0.2584
  803MPD2    H311886   4.596   2.701  11.658 -0.3851  0.8423  1.6929
  803MPD2     N11887   0.105   2.740  12.030 -0.1298 -0.3490 -0.0487
  803MPD2    H511888   0.060   2.660  12.073  0.1918 -1.0852 -1.0874
  803MPD2    N111889   0.241   2.933  11.601 -0.1027 -0.6481  0.3422
  803MPD2    H711890   0.311   2.980  11.658  0.3718  0.8474 -1.4876
  804MPD2     C11891   4.439   4.396  17.104 -0.0264  0.4630  0.6617
  804MPD2    C111892   4.443   4.307  17.213  0.2831 -0.2203 -0.1750
  804MPD2    C211893   4.536   4.328  17.314  0.0312  0.6710 -0.6073
  804MPD2    C311894   4.619   4.435  17.318 -0.2553 -0.6113 -0.6609
  804MPD2    C411895   4.601   4.532  17.221 -0.3869  0.4257 -0.0584
  804MPD2    C511896   4.522   4.504  17.112  0.4235  0.6278  0.6296
  804MPD2     H11897   4.523   4.264  17.400  1.6712 -0.1964 -1.0041
  804MPD2    H111898   4.646   4.629  17.237  2.2706 -0.9010  0.4524
  804MPD2    H211899   4.381   4.390  17.012 -0.9080 -1.8480  1.3682
  804MPD2    H311900   4.520   4.577  17.032 -1.1696  0.5513  0.5911
  804MPD2     N11901   4.702   4.457  17.429  0.0322  0.0437  0.0509
  804MPD2    H511902   4.700   4.387  17.503 -1.3891  1.3213  1.2305
  804MPD2    N111903   4.360   4.194  17.215  0.4040  0.1895 -0.3123
  804MPD2    H711904   4.364   4.139  17.301 -0.6042 -2.3895 -1.9311
  805MPD2     C11905   3.647   2.689  14.824  0.4035  0.1486  0.2343
  805MPD2    C111906   3.773   2.696  14.767  0.6273 -0.0571  0.1795
  805MPD2    C211907   3.879   2.726  14.850  0.2441 -0.0878  0.0200
  805MPD2    C311908   3.867   2.733  14.988 -0.2339 -0.3799 -0.0682
  805MPD2    C411909   3.740   2.706  15.048 -0.2284  0.0887 -0.5256
  805MPD2    C511910   3.639   2.681  14.962  0.4061 -0.1332  0.4160
  805MPD2     H11911   3.968   2.761  14.800 -1.4751  1.6984 -1.7874
  805MPD2    H111912   3.714   2.708  15.153  4.0557 -1.7524  0.5938
  805MPD2    H211913   3.556   2.678  14.767  1.8258 -3.4534 -1.3780
  805MPD2    H311914   3.546   2.655  15.012 -0.4337  0.3119 -0.8998
  805MPD2     N11915   3.982   2.764  15.063 -0.1835  0.5773 -0.5644
  805MPD2    H511916   4.064   2.791  15.009 -0.9399  1.4322 -1.2720
  805MPD2    N111917   3.799   2.690  14.627 -0.2500  0.1396  0.3759
  805MPD2    H711918   3.895   2.689  14.595 -1.2218  1.8636 -2.5622
  806MPD2     C11919   3.624   2.162   0.342 -0.3545  0.2175  0.0514
  806MPD2    C111920   3.759   2.159   0.350 -0.0399 -0.5159  0.0360
  806MPD2    C211921   3.835   2.256   0.274 -0.3140  0.1928 -0.5294
  806MPD2    C311922   3.768   2.356   0.203  0.5365  0.8574  0.0224
  806MPD2    C411923   3.634   2.349   0.198 -0.5485 -0.1741  0.1426
  806MPD2    C511924   3.567   2.252   0.271 -0.0177  0.0900 -0.9437
  806MPD2     H11925   3.943   2.251   0.270 -0.2587  1.8094 -0.9434
  806MPD2    H111926   3.577   2.417   0.136 -1.3750  0.2160  1.3337
  806MPD2    H211927   3.579   2.091   0.409 -0.7484 -1.3203 -1.8429
  806MPD2    H311928   3.459   2.256   0.268 -0.1190 -1.3240  1.6652
  806MPD2     N11929   3.840   2.449   0.133 -0.2013  0.0812 -0.1211
  806MPD2    H511930   3.938   2.425   0.119  0.4738  2.3623  0.6489
  806MPD2    N111931   3.809   2.071   0.442 -0.4324 -0.2139  0.4464
  806MPD2    H711932   3.745   2.021   0.503 -2.0538 -1.4138 -2.2412
  807MPD2     C11933   3.721   2.032   1.210 -0.6610  0.0915 -0.2253
  807MPD2    C111934   3.763   1.914   1.155 -0.0555  0.2562 -0.0068
  807MPD2    C211935   3.754   1.802   1.232 -0.3548  0.9236 -0.0117
  807MPD2    C311936   3.683   1.805   1.350  0.2172  0.0235 -0.1814
  807MPD2    C411937   3.637   1.928   1.398  0.6405  0.0399  0.7282
  807MPD2    C511938   3.668   2.044   1.338 -0.0817  0.4366 -0.0284
  807MPD2     H11939   3.794   1.710   1.191  0.2776  0.2854  2.0197
  807MPD2    H111940   3.600   1.934   1.500  0.6223 -0.1758  0.7351
  807MPD2    H211941   3.743   2.126   1.160 -0.6998  0.4688  0.4636
  807MPD2    H311942   3.649   2.143   1.379  0.0563  0.0144  1.0612
  807MPD2     N11943   3.663   1.685   1.423 -0.0224 -0.1037 -0.7556
  807MPD2    H511944   3.695   1.599   1.380 -0.6105  0.1890 -1.7692
  807MPD2    N111945   3.828   1.907   1.032 -0.0356  0.3328  0.0546
  807MPD2    H711946   3.863   1.814   1.013  1.7760  0.7992  1.0542
  808MPD2     C11947   4.319   2.844   9.902 -0.1725 -0.1731  0.3163
  808MPD2    C111948   4.309   2.847   9.758 -0.7872  0.6587 -0.1005
  808MPD2    C211949   4.400   2.923   9.684 -0.1975  0.2347 -0.3122
  808MPD2    C311950   4.496   3.004   9.738  0.0405 -0.0276 -0.2042
  808MPD2    C411951   4.500   3.009   9.878  0.4214 -0.3659 -0.1755
  808MPD2    C511952   4.418   2.926   9.954  0.7050  0.0231  0.8636
  808MPD2     H11953   4.383   2.927   9.577 -0.4211  3.0579 -0.1587
  808MPD2    H111954   4.575   3.063   9.935  2.5380 -1.5678 -1.7873
  808MPD2    H211955   4.260   2.788   9.974 -0.8652  1.0409  0.6786
  808MPD2    H311956   4.433   2.922  10.062 -0.8845 -0.3750  1.0839
  808MPD2     N11957   4.576   3.098   9.666  0.2415 -0.6049  0.5553
  808MPD2    H511958   4.623   3.165   9.726  1.8710 -0.6345 -0.7112
  808MPD2    N111959   4.208   2.782   9.684  0.3938  0.4990  0.0552
  808MPD2    H711960   4.204   2.792   9.583 -1.9352 -0.6858  0.0170
  809MPD2     C11961   0.292   3.123   8.787 -0.2652  0.5191  0.2932
  809MPD2    C111962   0.351   3.192   8.885 -0.0325  0.0004  0.2984
  809MPD2    C211963   0.280   3.250   8.986 -0.4404  0.9748 -0.2022
  809MPD2    C311964   0.148   3.213   8.995 -0.4093  0.0938 -0.1282
  809MPD2    C411965   0.094   3.124   8.897 -0.5653  0.8375 -0.4029
  809MPD2    C511966   0.166   3.075   8.796 -0.2669 -0.2939  0.8507
  809MPD2     H11967   0.333   3.303   9.064 -0.2459  0.1736  0.2198
  809MPD2    H111968   4.731   3.091   8.907  0.4066 -2.2759 -0.5979
  809MPD2    H211969   0.351   3.076   8.708  1.4422 -0.9798  2.4354
  809MPD2    H311970   0.128   3.013   8.716 -1.1984  0.2356  0.8795
  809MPD2     N11971   0.070   3.257   9.102 -0.4689 -0.1881 -0.5276
  809MPD2    H511972   4.718   3.216   9.114 -0.5741 -0.1259 -1.1199
  809MPD2    N111973   0.485   3.228   8.873 -0.2584  0.5594  0.2029
  809MPD2    H711974   0.531   3.271   8.952  0.1736 -0.1229  0.3169
  810MPD2     C11975   4.068   2.716  10.489  0.0446  0.1889  0.2291
  810MPD2    C111976   3.939   2.669  10.521  0.5200  0.5231  0.1156
  810MPD2    C211977   3.848   2.754  10.577  0.2192  0.0384  0.3325
  810MPD2    C311978   3.894   2.883  10.612  0.4033 -0.4696  0.0237
  810MPD2    C411979   4.016   2.930  10.566 -0.8118 -0.4909  0.2252
  810MPD2    C511980   4.102   2.845  10.507  0.0701  0.4167  0.5669
  810MPD2     H11981   3.747   2.721  10.594  0.5492 -1.9537 -1.5262
  810MPD2    H111982   4.050   3.032  10.586 -1.0992 -0.4298  0.4070
  810MPD2    H211983   4.136   2.645  10.444 -0.3870  1.7585 -2.9208
  810MPD2    H311984   4.207   2.862  10.487  0.2400  0.7559  1.7738
  810MPD2     N11985   3.808   2.979  10.669  0.4745 -0.0649  0.2553
  810MPD2    H511986   3.844   3.073  10.678 -0.0564  0.4669 -2.9256
  810MPD2    N111987   3.908   2.537  10.485 -0.7593 -0.7491  0.3118
  810MPD2    H711988   3.975   2.498  10.419 -1.2996 -0.0485 -0.6585
  811MPD2     C11989   3.413   2.507   9.995 -0.3583  0.4058  0.7018
  811MPD2    C111990   3.499   2.555  10.091  0.0547  1.0995 -0.0287
  811MPD2    C211991   3.523   2.693  10.105  0.8601  0.5809 -0.6696
  811MPD2    C311992   3.474   2.781  10.008  0.4592  0.1633  0.1245
  811MPD2    C411993   3.412   2.722   9.895  0.0726  0.1666  0.4912
  811MPD2    C511994   3.377   2.590   9.896 -1.0161  0.4238  0.2549
  811MPD2     H11995   3.586   2.736  10.182  1.7155  2.7879 -2.5961
  811MPD2    H111996   3.380   2.785   9.812  0.5801 -1.3778 -0.8768
  811MPD2    H211997   3.392   2.401   9.988 -0.7172  0.5081  0.2492
  811MPD2    H311998   3.322   2.561   9.807 -0.5297  0.1856  0.0332
  811MPD2     N11999   3.483   2.920  10.032  0.2391  0.6546 -0.2787
  811MPD2    H512000   3.525   2.949  10.119  0.5767 -0.2458 -0.1434
  811MPD2    N112001   3.563   2.466  10.190 -0.3474  0.6822  0.0321
  811MPD2    H712002   3.630   2.508  10.253 -1.4778  3.6749 -0.7470
  812MPD2     C12003   2.663   2.464  11.738  0.3281  0.5839  0.0656
  812MPD2    C112004   2.683   2.561  11.835 -0.0568 -0.6722 -0.3990
  812MPD2    C212005   2.771   2.533  11.935  0.1354 -0.4346  0.4011
  812MPD2    C312006   2.826   2.411  11.952 -0.3457  0.0781 -0.0053
  812MPD2    C412007   2.799   2.311  11.863  0.1242 -0.4836 -0.0717
  812MPD2    C512008   2.721   2.340  11.756  0.9247  0.4781 -0.1894
  812MPD2     H12009   2.798   2.614  12.002 -0.2843  0.7748 -0.8911
  812MPD2    H112010   2.834   2.208  11.871  2.2697  0.4565  2.4899
  812MPD2    H212011   2.612   2.476  11.643  0.8839  0.0513 -0.2966
  812MPD2    H312012   2.696   2.263  11.683 -3.4179  1.5834  0.1379
  812MPD2     N12013   2.904   2.384  12.071 -0.2330  0.5328 -0.6857
  812MPD2    H512014   2.914   2.470  12.125 -0.5602 -1.3049  2.3252
  812MPD2    N112015   2.611   2.680  11.820 -0.1692 -0.5562 -0.3128
  812MPD2    H712016   2.566   2.699  11.731  1.3241  1.8884 -0.5646
  813MPD2     C12017   2.426   4.500  13.232  0.0466  0.4061  0.1936
  813MPD2    C112018   2.342   4.595  13.181  0.1968  0.0544 -0.0577
  813MPD2    C212019   2.223   4.627  13.251 -0.3579  0.0806  0.5153
  813MPD2    C312020   2.193   4.560  13.366 -0.5797  0.6437  0.1569
  813MPD2    C412021   2.277   4.462  13.413 -0.0563 -0.4367 -0.0305
  813MPD2    C512022   2.384   4.436  13.344  1.0087 -0.2349 -0.0450
  813MPD2     H12023   2.159   4.711  13.226 -0.4050 -0.4431 -1.1186
  813MPD2    H112024   2.260   4.408  13.505 -2.1767 -0.6457 -0.5547
  813MPD2    H212025   2.525   4.474  13.197  0.3837  0.2782  1.2582
  813MPD2    H312026   2.447   4.362  13.393  1.9834  1.0341  0.6113
  813MPD2     N12027   2.073   4.599  13.433  0.1517 -0.8225  0.0549
  813MPD2    H512028   2.030   4.679  13.388  0.0343  0.0416  1.7064
  813MPD2    N112029   2.375   4.679  13.076  0.9807 -0.0038  0.2830
  813MPD2    H712030   2.305   0.003  13.039 -0.2704 -1.2917  0.4228
  814MPD2     C12031   2.159   0.822  12.510 -0.2321 -0.5496 -0.0843
  814MPD2    C112032   2.291   0.806  12.480  0.0971 -0.5112 -0.8364
  814MPD2    C212033   2.385   0.886  12.542 -0.0320 -0.0252 -0.2651
  814MPD2    C312034   2.344   0.978  12.638  0.5260 -0.7395  0.4703
  814MPD2    C412035   2.214   0.989  12.673  0.1874 -0.3790  0.4538
  814MPD2    C512036   2.121   0.916  12.604  0.1451  0.6775  0.2212
  814MPD2     H12037   2.486   0.879  12.503 -1.1910 -0.7300 -3.1588
  814MPD2    H112038   2.185   1.058  12.752  0.7258  0.1445  0.2018
  814MPD2    H212039   2.079   0.765  12.464  1.3621 -1.1114 -2.1289
  814MPD2    H312040   2.016   0.918  12.629 -0.4307 -0.4914 -2.1309
  814MPD2     N12041   2.432   1.069  12.707 -0.5315  0.0892 -0.2398
  814MPD2    H512042   2.387   1.140  12.764 -0.0112  1.6007 -1.6906
  814MPD2    N112043   2.332   0.704  12.395  0.3251  0.4996  0.1492
  814MPD2    H712044   2.431   0.688  12.379  0.3432  1.0070 -0.2246
  815MPD2     C12045   3.170   4.310  11.356 -0.3055 -0.0075 -0.2618
  815MPD2    C112046   3.094   4.211  11.416  0.1656  0.0894  0.7893
  815MPD2    C212047   3.023   4.251  11.534  0.7214 -0.2098 -0.6498
  815MPD2    C312048   3.043   4.374  11.588 -0.4896 -0.9566  0.8843
  815MPD2    C412049   3.117   4.478  11.528 -0.0611 -0.6156  0.0616
  815MPD2    C512050   3.184   4.433  11.416  0.7250  0.4768 -0.0146
  815MPD2     H12051   2.953   4.184  11.582  0.4367 -0.2483 -1.1146
  815MPD2    H112052   3.136   4.571  11.582 -0.3599 -0.6151  0.1670
  815MPD2    H212053   3.245   4.283  11.284 -0.4378  1.6663 -1.0324
  815MPD2    H312054   3.253   4.506  11.376  0.6197 -0.6696 -2.2990
  815MPD2     N12055   2.949   4.402  11.692 -0.0749 -0.1265  0.0906
  815MPD2    H512056   2.882   4.329  11.717  0.0337 -0.7137 -1.3566
  815MPD2    N112057   3.094   4.078  11.360 -0.1165  0.2246  0.2865
  815MPD2    H712058   3.154   4.056  11.281 -1.2936 -1.2229 -0.1930
  816MPD2     C12059   2.971   3.778  16.990  0.0278  0.1974 -0.2307
  816MPD2    C112060   3.023   3.905  16.998  0.1069 -0.0138 -0.2435
  816MPD2    C212061   3.139   3.937  16.928 -0.0599 -0.0890 -0.3937
  816MPD2    C312062   3.209   3.832  16.861  0.3808 -0.2134  0.2492
  816MPD2    C412063   3.166   3.705  16.881 -0.9879  0.3393 -0.1453
  816MPD2    C512064   3.055   3.679  16.950 -0.3612 -0.3910  0.7109
  816MPD2     H12065   3.171   4.041  16.932 -1.9242  0.4762 -0.2205
  816MPD2    H112066   3.226   3.624  16.843 -1.3277 -0.6787  1.4713
  816MPD2    H212067   2.880   3.745  17.038 -0.2298  0.9917 -0.1820
  816MPD2    H312068   3.018   3.578  16.956  1.6881 -1.1609  0.5279
  816MPD2     N12069   3.328   3.865  16.797  0.2950  0.0011  0.0862
  816MPD2    H512070   3.353   3.962  16.781 -1.9801  0.4630 -0.7394
  816MPD2    N112071   2.953   3.997  17.081  0.1087 -0.0733 -0.1302
  816MPD2    H712072   2.854   3.985  17.102  0.0452 -0.4774 -0.6585
  817MPD2     C12073   2.349   0.390   9.848 -0.4816  0.2805 -1.0355
  817MPD2    C112074   2.363   0.377   9.712  0.4965  0.0601 -0.1876
  817MPD2    C212075   2.285   0.455   9.628  0.0681 -0.3147  1.1861
  817MPD2    C312076   2.204   0.555   9.673  0.0565  0.0857 -0.6446
  817MPD2    C412077   2.192   0.565   9.806 -0.5478  0.6541  0.2581
  817MPD2    C512078   2.258   0.485   9.898 -0.3786 -0.4274 -0.1366
  817MPD2     H12079   2.301   0.439   9.522  0.7106  0.4839  1.1706
  817MPD2    H112080   2.132   0.645   9.849 -0.8297 -0.1909  1.4109
  817MPD2    H212081   2.411   0.343   9.924 -1.9047  0.7235  0.4088
  817MPD2    H312082   2.248   0.490  10.006 -1.7388 -0.5395 -0.2593
  817MPD2     N12083   2.129   0.626   9.589 -0.0090 -0.3752 -0.2073
  817MPD2    H512084   2.132   0.609   9.490 -0.1175 -2.7433  0.2019
  817MPD2    N112085   2.462   0.287   9.649  0.5132 -0.4414 -0.5515
  817MPD2    H712086   2.469   0.289   9.547  1.7048 -0.7786 -0.4791
  818MPD2     C12087   1.798   0.165  10.222 -0.2618 -0.1713 -0.8351
  818MPD2    C112088   1.671   0.127  10.265 -0.2455 -0.5841  0.0232
  818MPD2    C212089   1.623   0.001  10.228 -0.7548 -0.2611  0.0749
  818MPD2    C312090   1.706   4.651  10.173  0.3248  0.1552 -0.2954
  818MPD2    C412091   1.835   4.688  10.139 -0.1223  0.0595  0.0922
  818MPD2    C512092   1.884   0.076  10.171  0.2261 -0.2708 -0.4607
  818MPD2     H12093   1.518   4.720  10.246 -1.3562  1.7003 -1.0846
  818MPD2    H112094   1.904   4.621  10.090  0.5025 -0.4517  1.6807
  818MPD2    H212095   1.847   0.260  10.240 -0.7911  0.3368 -2.0890
  818MPD2    H312096   1.985   0.106  10.143  0.5516 -0.9285 -0.0035
  818MPD2     N12097   1.657   4.519  10.141 -0.6699 -0.2704  0.2799
  818MPD2    H512098   1.732   4.457  10.112 -0.9704 -0.9857  1.0452
  818MPD2    N112099   1.596   0.213  10.347 -0.4424  0.1499  0.2320
  818MPD2    H712100   1.507   0.182  10.383 -0.7316  0.6297 -0.0695
  819MPD2     C12101   0.056   2.405  15.545 -0.1246 -0.5495  0.5848
  819MPD2    C112102   0.061   2.356  15.413  0.1763 -0.3135 -0.5681
  819MPD2    C212103   0.115   2.230  15.395  0.2723 -0.3466  0.0655
  819MPD2    C312104   0.147   2.144  15.501 -0.0992 -0.0902 -1.0048
  819MPD2    C412105   0.142   2.197  15.629  0.1868  0.2728  0.1858
  819MPD2    C512106   0.106   2.331  15.647 -0.0258  0.5261 -0.0133
  819MPD2     H12107   0.131   2.195  15.294 -2.5600  1.3700 -0.9791
  819MPD2    H112108   0.175   2.150  15.720  1.2035  0.7620  0.0721
  819MPD2    H212109   0.018   2.503  15.570 -2.1842 -0.9250 -1.0568
  819MPD2    H312110   0.098   2.366  15.750 -2.3455  0.1644 -0.0524
  819MPD2     N12111   0.206   2.015  15.470  0.1654  0.0673 -0.5556
  819MPD2    H512112   0.226   1.999  15.371  1.7790 -0.3204 -0.1731
  819MPD2    N112113   0.008   2.430  15.309  0.7412  0.2508 -0.2572
  819MPD2    H712114   4.705   2.518  15.334 -4.0018 -1.9891 -0.5377
  820MPD2     C12115   4.358   2.278  14.380 -0.0335  0.2688 -0.4932
  820MPD2    C112116   4.305   2.404  14.406  0.2744  0.4364 -0.0995
  820MPD2    C212117   4.362   2.474  14.510 -0.4236 -0.7848  0.3939
  820MPD2    C312118   4.470   2.432  14.579  0.2451  0.4942 -0.8111
  820MPD2    C412119   4.534   2.316  14.540 -0.7517 -0.4014 -0.5541
  820MPD2    C512120   4.469   2.240  14.450  0.6999 -0.3639  0.0211
  820MPD2     H12121   4.325   2.571  14.540  2.2825  0.3730  0.0082
  820MPD2    H112122   4.625   2.270  14.577 -1.5824 -1.4959  0.1293
  820MPD2    H212123   4.306   2.215  14.308 -0.6011 -0.3738  0.4898
  820MPD2    H312124   4.512   2.144  14.424 -1.9163 -0.9510 -2.1996
  820MPD2     N12125   4.526   2.525  14.677  0.2038  0.1521  0.2528
  820MPD2    H512126   4.475   2.608  14.707  0.5449  0.9023 -1.2757
  820MPD2    N112127   4.184   2.448  14.347  0.5486 -0.4323  0.2279
  820MPD2    H712128   4.166   2.407  14.256  0.7309  1.1940 -0.5512
  821MPD2     C12129   0.091   3.211  13.118 -0.0786  0.1152 -0.7768
  821MPD2    C112130   0.120   3.286  13.231 -0.2212  0.0930 -0.0855
  821MPD2    C212131   0.224   3.379  13.226 -0.1313  0.4868  0.3273
  821MPD2    C312132   0.293   3.396  13.110  0.6131 -0.1695  0.2123
  821MPD2    C412133   0.258   3.329  12.999 -0.5767  0.0793 -0.4328
  821MPD2    C512134   0.154   3.249  13.004  0.4196 -0.3393 -0.3563
  821MPD2     H12135   0.250   3.433  13.316 -2.7487 -1.9861  2.5810
  821MPD2    H112136   0.308   3.348  12.905 -1.6437  0.8119 -0.8579
  821MPD2    H212137   0.024   3.126  13.124  2.0237 -1.3607  2.2110
  821MPD2    H312138   0.140   3.188  12.915  0.6756 -0.7125 -0.1415
  821MPD2     N12139   0.409   3.472  13.096  0.9004  0.3967 -0.0581
  821MPD2    H512140   0.463   3.460  13.010 -0.3590 -1.1932 -0.6342
  821MPD2    N112141   0.055   3.276  13.358  0.5776 -0.4308 -0.4382
  821MPD2    H712142   0.098   3.329  13.434  0.5737 -1.2744  0.1475
  822MPD2     C12143   0.119   3.613  15.649  0.3440  0.2435  0.0354
  822MPD2    C112144   0.215   3.697  15.692  0.2073  0.0878  0.6376
  822MPD2    C212145   0.181   3.816  15.754  0.8862  0.0583 -0.8064
  822MPD2    C312146   0.050   3.854  15.772  1.2069 -0.0164  0.0563
  822MPD2    C412147   4.698   3.769  15.727 -0.6362  0.1667 -0.3231
  822MPD2    C512148   4.727   3.644  15.673  0.3138  0.1188 -0.2520
  822MPD2     H12149   0.260   3.868  15.806  1.4388 -0.0942 -1.4932
  822MPD2    H112150   4.595   3.800  15.743 -1.1601 -2.0958  0.7350
  822MPD2    H212151   0.125   3.515  15.603  1.0852  0.1221  0.3885
  822MPD2    H312152   4.646   3.577  15.648  0.6592  0.0869 -1.3203
  822MPD2     N12153   0.009   3.975  15.837 -0.3035  0.3757  0.3673
  822MPD2    H512154   4.649   3.979  15.857 -0.5945 -0.2581 -0.9842
  822MPD2    N112155   0.350   3.662  15.685 -0.4247  0.4847  1.1197
  822MPD2    H712156   0.425   3.714  15.730 -0.2628  0.6006  0.7205
  823MPD2     C12157   4.532   4.166  16.628  0.0175  0.3347  0.0902
  823MPD2    C112158   4.595   4.095  16.527  0.1619  0.3327 -0.6767
  823MPD2    C212159   4.671   3.983  16.558 -0.4619  0.1566  1.2817
  823MPD2    C312160   4.664   3.931  16.687 -0.7372 -0.6996 -0.8569
  823MPD2    C412161   4.585   4.000  16.781  0.7651 -0.4994  0.6036
  823MPD2    C512162   4.529   4.121  16.757 -0.0475 -0.3920  0.2931
  823MPD2     H12163   4.724   3.931  16.480  0.1572  0.9282  1.1924
  823MPD2    H112164   4.558   3.956  16.877 -2.3422  0.8141  0.3430
  823MPD2    H212165   4.503   4.270  16.614  0.2397  0.6274  1.8133
  823MPD2    H312166   4.483   4.180  16.835  1.7880  2.1689 -0.5747
  823MPD2     N12167   4.709   3.805  16.730  0.4684  0.5624 -0.3728
  823MPD2    H512168   4.689   3.786  16.827 -1.8155 -0.6936 -1.0826
  823MPD2    N112169   4.596   4.149  16.400  0.0577 -0.3863  0.2479
  823MPD2    H712170   4.544   4.233  16.376 -0.6416 -0.2353  2.3236
  824MPD2     C12171   0.771   2.980  15.353  0.4479  0.1226 -0.0448
  824MPD2    C112172   0.851   3.047  15.444  0.5246  0.0335  0.0969
  824MPD2    C212173   0.972   2.999  15.484  0.0188 -0.0968 -0.6970
  824MPD2    C312174   1.022   2.885  15.424 -0.4089 -0.3899 -0.5498
  824MPD2    C412175   0.943   2.810  15.338 -0.4838 -0.0492 -0.5727
  824MPD2    C512176   0.820   2.863  15.302 -0.8791  0.2323  0.5594
  824MPD2     H12177   1.032   3.041  15.564  0.1013 -2.3247  0.4075
  824MPD2    H112178   0.972   2.720  15.284 -2.8048 -0.9475 -0.3136
  824MPD2    H212179   0.679   3.014  15.307 -0.8451 -3.6376 -0.2248
  824MPD2    H312180   0.766   2.820  15.219 -0.0091  0.3900 -0.1000
  824MPD2     N12181   1.159   2.858  15.442  0.3933 -0.1879 -0.0178
  824MPD2    H512182   1.221   2.924  15.488  0.4550 -0.6148  0.5057
  824MPD2    N112183   0.810   3.173  15.505  0.0884 -0.3103 -0.3053
  824MPD2    H712184   0.872   3.223  15.567 -0.3379  1.1329 -1.0421
  825MPD2     C12185   1.925   3.054  15.117 -0.0953  0.3618 -0.3365
  825MPD2    C112186   1.792   3.093  15.136  0.1479 -0.5076 -1.1165
  825MPD2    C212187   1.743   3.218  15.097  0.2953  0.1538 -0.6603
  825MPD2    C312188   1.835   3.304  15.040 -0.1624  0.8055  0.8331
  825MPD2    C412189   1.966   3.276  15.024  0.9163 -0.2213 -0.0814
  825MPD2    C512190   2.015   3.150  15.058  0.1481  0.6006  0.5532
  825MPD2     H12191   1.644   3.260  15.111  1.2855  1.6907  1.7792
  825MPD2    H112192   2.037   3.349  14.986  1.4097  1.0521  3.2589
  825MPD2    H212193   1.965   2.959  15.148 -0.0818  0.1798 -0.9066
  825MPD2    H312194   2.118   3.117  15.047 -0.0398  0.5081 -0.8376
  825MPD2     N12195   1.792   3.435  15.004 -0.1075 -0.4687  0.4791
  825MPD2    H512196   1.703   3.473  15.034 -0.9273 -1.1490 -1.0648
  825MPD2    N112197   1.718   2.988  15.204  0.2035  0.2828 -0.1404
  825MPD2    H712198   1.758   2.895  15.208 -0.7517 -0.0443  1.5919
  826MPD2     C12199   0.720   2.279  13.475  0.8430  0.0834  0.1790
  826MPD2    C112200   0.828   2.321  13.410 -0.1090 -0.2667 -0.0702
  826MPD2    C212201   0.853   2.458  13.402 -0.0810  0.3266 -0.0729
  826MPD2    C312202   0.758   2.547  13.446  0.2198 -0.0734 -0.1996
  826MPD2    C412203   0.632   2.497  13.487  0.1921 -0.4764  0.7519
  826MPD2    C512204   0.617   2.363  13.507 -0.4770 -0.0524 -0.0805
  826MPD2     H12205   0.949   2.490  13.363 -1.2321  1.6758 -1.7729
  826MPD2    H112206   0.554   2.558  13.531  0.8852  2.3761 -1.9862
  826MPD2    H212207   0.711   2.173  13.492 -2.3457  0.1251 -1.3395
  826MPD2    H312208   0.535   2.339  13.574 -1.4587 -0.8827 -1.5628
  826MPD2     N12209   0.760   2.687  13.426 -0.4486 -0.8575  0.4983
  826MPD2    H512210   0.679   2.739  13.457 -0.7658 -0.1511 -1.5657
  826MPD2    N112211   0.915   2.218  13.357 -0.5794 -0.2728 -0.2727
  826MPD2    H712212   0.892   2.122  13.382  0.3461  0.4036  3.2342
  827MPD2     C12213   1.912   3.970   9.980  0.9825  0.3713 -0.3824
  827MPD2    C112214   1.892   3.836  10.012  0.8254 -0.8742 -0.3731
  827MPD2    C212215   1.794   3.769   9.951  0.1951  0.1323  0.2128
  827MPD2    C312216   1.708   3.828   9.862 -0.6993 -0.3578  0.1765
  827MPD2    C412217   1.716   3.964   9.843  0.3596 -0.1931 -0.3610
  827MPD2    C512218   1.824   4.031   9.889  0.1549 -0.5986  0.3619
  827MPD2     H12219   1.784   3.664   9.978  2.0418  0.0774  0.6764
  827MPD2    H112220   1.641   4.018   9.787  1.4443  2.2215  0.5430
  827MPD2    H212221   1.981   4.030  10.038  1.3641 -0.8421  0.4122
  827MPD2    H312222   1.831   4.138   9.871  1.8389 -0.6222  0.9135
  827MPD2     N12223   1.606   3.743   9.810 -0.5243  0.3169 -0.0995
  827MPD2    H512224   1.613   3.643   9.826  1.4631  0.8609  2.4957
  827MPD2    N112225   1.994   3.785  10.095  0.3090  0.0035  0.3468
  827MPD2    H712226   2.064   3.856  10.116  0.7325 -0.6746  1.2375
  828MPD2     C12227   0.624   3.389  11.897  0.4677 -0.3246  0.4549
  828MPD2    C112228   0.519   3.475  11.856 -0.6054  0.3137  0.4377
  828MPD2    C212229   0.515   3.516  11.723  0.2593  0.2669 -0.4224
  828MPD2    C312230   0.614   3.475  11.632 -0.6820 -0.1099  0.7475
  828MPD2    C412231   0.706   3.380  11.673  0.0365  0.3543  0.4531
  828MPD2    C512232   0.713   3.341  11.805 -0.0797  0.7062 -0.0023
  828MPD2     H12233   0.440   3.586  11.690  0.0934  0.9954  1.5167
  828MPD2    H112234   0.782   3.340  11.607 -1.6090 -1.0115 -0.5743
  828MPD2    H212235   0.623   3.344  11.996 -1.3672 -1.6725 -0.1643
  828MPD2    H312236   0.791   3.271  11.834  0.1349  1.8103  2.1325
  828MPD2     N12237   0.602   3.502  11.493  0.5807  0.3622 -0.3328
  828MPD2    H512238   0.644   3.439  11.425 -0.2110 -0.8516  0.3044
  828MPD2    N112239   0.422   3.521  11.939  0.5186 -0.6241 -0.4571
  828MPD2    H712240   0.345   3.562  11.886 -0.6674 -0.8534  1.0813
  829MPD2     C12241   4.395   3.613  11.586  0.1355 -0.3700  0.7513
  829MPD2    C112242   4.362   3.656  11.716 -0.4719  0.2896 -0.0937
  829MPD2    C212243   4.460   3.661  11.818  0.3078 -0.9085  0.1783
  829MPD2    C312244   4.587   3.609  11.792  0.6739 -0.2327 -0.3362
  829MPD2    C412245   4.621   3.560  11.665 -0.3989 -0.4177 -0.4333
  829MPD2    C512246   4.523   3.565  11.564 -0.4436 -0.1383  0.2137
  829MPD2     H12247   4.425   3.688  11.917 -0.4713 -3.7315  0.6574
  829MPD2    H112248   4.723   3.526  11.655 -0.3923 -0.4152 -0.3738
  829MPD2    H212249   4.335   3.602  11.496 -1.2089 -0.2494  1.6302
  829MPD2    H312250   4.547   3.530  11.464  2.7825 -0.1289  0.9760
  829MPD2     N12251   4.686   3.605  11.895 -0.3810  0.3755 -0.2601
  829MPD2    H512252   0.038   3.576  11.865 -1.0719 -1.4568 -0.6530
  829MPD2    N112253   4.226   3.685  11.739 -0.3821 -0.6574  0.3437
  829MPD2    H712254   4.161   3.679  11.661  0.4234  2.6749 -0.5630
  830MPD2     C12255   0.366   1.696  14.886 -0.3985 -0.0411  0.0252
  830MPD2    C112256   0.436   1.771  14.976 -0.5020  0.3336  0.6882
  830MPD2    C212257   0.510   1.875  14.925 -0.2018 -0.0305 -0.2642
  830MPD2    C312258   0.524   1.905  14.785 -0.1987 -0.4013  0.2122
  830MPD2    C412259   0.452   1.828  14.693 -0.8773  0.2516  0.1779
  830MPD2    C512260   0.371   1.728  14.749 -0.1025 -1.2817  0.3744
  830MPD2     H12261   0.556   1.939  14.999 -1.0135  0.6150 -0.3171
  830MPD2    H112262   0.450   1.847  14.586  0.3923  3.7630  0.7695
  830MPD2    H212263   0.306   1.611  14.919 -0.0309  0.4697  2.0031
  830MPD2    H312264   0.311   1.672  14.678 -2.9323  2.0890  0.1239
  830MPD2     N12265   0.593   2.012  14.731 -0.0228 -0.0009 -0.5666
  830MPD2    H512266   0.574   2.027  14.632  0.6921  0.5676 -0.6200
  830MPD2    N112267   0.429   1.747  15.111 -0.5446 -0.2745 -0.1885
  830MPD2    H712268   0.355   1.690  15.151 -1.8642  0.5219 -1.5227
  831MPD2     C12269   0.431   4.110  16.156  0.0057 -0.0031 -0.6355
  831MPD2    C112270   0.431   4.016  16.062  0.1249  0.3698 -0.4875
  831MPD2    C212271   0.339   3.911  16.065  0.3148 -0.2732 -0.0683
  831MPD2    C312272   0.240   3.906  16.162 -0.1568 -0.6740 -0.5095
  831MPD2    C412273   0.235   4.007  16.254 -0.0474 -0.2763  0.0625
  831MPD2    C512274   0.330   4.108  16.252  0.6697 -0.1288 -0.1853
  831MPD2     H12275   0.335   3.843  15.980 -2.7424  0.6835 -0.6811
  831MPD2    H112276   0.158   4.012  16.329 -0.5473 -1.9882 -0.3413
  831MPD2    H212277   0.503   4.192  16.159  0.0240 -0.1274  2.2031
  831MPD2    H312278   0.320   4.192  16.319  1.1476 -0.8362  0.7715
  831MPD2     N12279   0.150   3.804  16.163 -0.0069  0.6369 -0.0283
  831MPD2    H512280   0.070   3.822  16.222 -0.4771  1.1638 -0.8254
  831MPD2    N112281   0.526   4.025  15.957 -0.9330  0.2124 -0.1109
  831MPD2    H712282   0.592   4.102  15.963 -0.3702 -0.2618 -0.3171
  832MPD2     C12283   3.986   0.299  17.241  0.6719  0.0049  0.7947
  832MPD2    C112284   3.971   0.409  17.163  0.0762  0.1491  0.2781
  832MPD2    C212285   3.855   0.436  17.092  0.6417  0.4944  0.6204
  832MPD2    C312286   3.759   0.341  17.094 -0.2824 -1.0538 -0.6171
  832MPD2    C412287   3.770   0.239  17.180 -0.1769 -0.0589  0.1059
  832MPD2    C512288   3.880   0.212  17.257  0.1344  0.2093 -0.5074
  832MPD2     H12289   3.854   0.517  17.020 -1.0358 -0.1450 -0.0795
  832MPD2    H112290   3.687   0.169  17.184 -0.9645  0.8827  0.4062
  832MPD2    H212291   4.083   0.279  17.286  1.3494 -0.0254 -0.6668
  832MPD2    H312292   3.877   0.123  17.318  0.3599 -0.0690 -0.8982
  832MPD2     N12293   3.641   0.349  17.016 -0.5201 -0.8955 -0.4784
  832MPD2    H512294   3.585   0.266  17.028  0.1782 -1.1243  1.1834
  832MPD2    N112295   4.081   0.490  17.154  0.0940 -0.0979  0.3641
  832MPD2    H712296   4.154   0.483  17.224 -0.1583  0.7455  0.7180
  833MPD2     C12297   1.085   1.933  12.004 -0.5905 -0.1037  0.2499
  833MPD2    C112298   1.037   2.020  11.905  0.0675 -0.0348 -0.0003
  833MPD2    C212299   1.131   2.099  11.842  0.0045  0.4793  0.3007
  833MPD2    C312300   1.272   2.084  11.870  0.0861 -0.3741 -0.0872
  833MPD2    C412301   1.309   1.993  11.966  0.3278  0.1327  0.3861
  833MPD2    C512302   1.219   1.924  12.036  0.5426 -0.0511 -0.2245
  833MPD2     H12303   1.097   2.170  11.768  0.1913 -0.1629 -0.4006
  833MPD2    H112304   1.412   1.974  11.993  1.0684  1.3584 -1.6020
  833MPD2    H212305   1.019   1.867  12.060 -0.0493 -0.2065  0.7654
  833MPD2    H312306   1.246   1.858  12.117 -2.8843 -1.7243 -0.4558
  833MPD2     N12307   1.381   2.152  11.806  0.0302  0.4537  0.0329
  833MPD2    H512308   1.474   2.114  11.816  0.6368  2.1220  0.6514
  833MPD2    N112309   0.896   2.031  11.887  0.2344  0.5300 -0.1719
  833MPD2    H712310   0.836   1.966  11.937  2.5676 -1.3882  0.1649
  834MPD2     C12311   1.588   1.434  11.336  0.7008 -0.1277  0.1760
  834MPD2    C112312   1.457   1.459  11.355  0.2209  0.5119 -0.1071
  834MPD2    C212313   1.408   1.582  11.401 -0.1929 -0.2204  0.7101
  834MPD2    C312314   1.503   1.683  11.424 -0.4494  0.0759  0.1931
  834MPD2    C412315   1.639   1.655  11.407  0.2647  1.0804  0.5771
  834MPD2    C512316   1.677   1.530  11.365 -0.7175 -0.3908  0.0540
  834MPD2     H12317   1.303   1.606  11.408 -0.1341 -0.0169  0.8828
  834MPD2    H112318   1.722   1.724  11.419  0.0786  1.3096  0.5494
  834MPD2    H212319   1.618   1.338  11.296  0.3705 -0.2783  0.2878
  834MPD2    H312320   1.782   1.504  11.350 -0.7610 -1.2599  1.3135
  834MPD2     N12321   1.459   1.809  11.460  0.1468 -0.2768 -0.2375
  834MPD2    H512322   1.359   1.821  11.473  0.1584 -0.8462  0.3889
  834MPD2    N112323   1.370   1.354  11.325 -0.4672 -0.4923  0.1354
  834MPD2    H712324   1.405   1.278  11.267  0.8455 -0.0166  0.3074
  835MPD2     C12325   1.028   3.670  11.179 -0.2158  0.4870  0.0979
  835MPD2    C112326   0.951   3.778  11.218 -0.6920 -0.3204 -0.0929
  835MPD2    C212327   0.915   3.776  11.360  0.2852 -0.7081  0.3673
  835MPD2    C312328   0.958   3.678  11.451  0.3398  0.9925  0.1963
  835MPD2    C412329   1.051   3.585  11.411  0.3669 -0.1072  0.0589
  835MPD2    C512330   1.070   3.578  11.273  0.3583 -0.0119 -0.2649
  835MPD2     H12331   0.855   3.855  11.403  2.8986  1.2188  0.3948
  835MPD2    H112332   1.094   3.504  11.468  1.2811  1.6630  1.8717
  835MPD2    H212333   1.054   3.638  11.078  1.7069  1.5857  0.2477
  835MPD2    H312334   1.114   3.489  11.230  1.1214  0.9286 -1.4440
  835MPD2     N12335   0.913   3.665  11.585 -0.0372 -0.0506  0.0109
  835MPD2    H512336   0.954   3.585  11.632 -2.2941 -1.5586 -0.6109
  835MPD2    N112337   0.896   3.882  11.139  0.5020  0.2413  0.6224
  835MPD2    H712338   0.847   3.954  11.191  0.1082 -0.1011  0.7332
  836MPD2     C12339   0.405   4.137  11.888 -0.4127 -0.0266  0.5506
  836MPD2    C112340   0.472   4.069  11.984 -0.4129 -0.0456  0.4515
  836MPD2    C212341   0.501   4.133  12.101 -0.2839  0.1005  0.7158
  836MPD2    C312342   0.477   4.269  12.113  0.1482 -0.1596  0.3643
  836MPD2    C412343   0.423   4.337  12.011 -0.0571 -0.0955  0.3570
  836MPD2    C512344   0.393   4.269  11.901 -0.5267 -0.1799  0.7071
  836MPD2     H12345   0.539   4.077  12.185 -0.9000  0.4442  1.2203
  836MPD2    H112346   0.425   4.445  12.023  1.6870  0.1632 -2.2937
  836MPD2    H212347   0.394   4.094  11.789  0.7351 -1.8407  1.1899
  836MPD2    H312348   0.363   4.337  11.821 -1.4322  1.2586  2.2556
  836MPD2     N12349   0.515   4.338  12.235 -0.1814 -1.4240 -0.2557
  836MPD2    H512350   0.491   4.437  12.240  0.7979 -1.1591 -0.6199
  836MPD2    N112351   0.524   3.936  11.951  0.1769 -0.1731 -0.9192
  836MPD2    H712352   0.528   3.912  11.852 -2.0340  0.3713 -1.1313
  837MPD2     C12353   3.813   3.511  10.413  0.0341 -0.7363  0.2377
  837MPD2    C112354   3.755   3.552  10.298 -0.3711  0.6039 -0.2970
  837MPD2    C212355   3.757   3.688  10.262  1.1542  0.2291  0.0829
  837MPD2    C312356   3.806   3.784  10.354  0.0816  0.3975 -0.0888
  837MPD2    C412357   3.887   3.745  10.462  0.0340 -0.0068 -0.2909
  837MPD2    C512358   3.887   3.608  10.488  0.3847 -0.7427 -0.5332
  837MPD2     H12359   3.695   3.720  10.179 -0.9834 -1.2664  1.1120
  837MPD2    H112360   3.930   3.802  10.543 -0.0181 -0.8346  0.3182
  837MPD2    H212361   3.821   3.406  10.438 -0.1668 -0.9207 -0.4809
  837MPD2    H312362   3.943   3.572  10.574 -1.8526  1.1004  1.6916
  837MPD2     N12363   3.770   3.923  10.331  0.0480  0.4006  0.7567
  837MPD2    H512364   3.711   3.942  10.250  3.8068  0.9717 -1.8617
  837MPD2    N112365   3.673   3.469  10.215 -0.4337  0.7332 -0.5570
  837MPD2    H712366   3.627   3.518  10.138 -2.2163 -2.1347 -1.3256
  838MPD2     C12367   2.792   1.624  11.967  0.6598  0.2628 -0.0987
  838MPD2    C112368   2.717   1.516  11.986  0.0405 -0.3628  0.0275
  838MPD2    C212369   2.624   1.507  12.085  0.0656 -0.3061  0.6401
  838MPD2    C312370   2.632   1.603  12.189 -0.8058  0.2028  0.5761
  838MPD2    C412371   2.717   1.707  12.181  0.2147  0.5402 -0.4901
  838MPD2    C512372   2.794   1.716  12.067 -0.4179 -0.6238  0.1079
  838MPD2     H12373   2.564   1.416  12.084 -1.7751  0.8962  1.0775
  838MPD2    H112374   2.715   1.787  12.254  0.0895 -0.4326  0.5651
  838MPD2    H212375   2.851   1.653  11.880  0.1911 -1.7561 -1.0860
  838MPD2    H312376   2.858   1.802  12.051  0.6366 -1.6047 -1.0360
  838MPD2     N12377   2.543   1.598  12.302 -0.3559 -0.2326  0.7629
  838MPD2    H512378   2.525   1.680  12.360  0.2607  1.5008 -1.5149
  838MPD2    N112379   2.695   1.424  11.880  0.0799 -0.1698  0.5370
  838MPD2    H712380   2.601   1.385  11.879 -0.2745  0.6942  0.3602
  839MPD2     C12381   1.968   1.083  11.842  0.4002  0.4523 -0.0890
  839MPD2    C112382   1.994   1.044  11.716 -0.4766  0.2819 -0.2415
  839MPD2    C212383   2.119   1.091  11.666  0.2585 -0.2681 -0.2995
  839MPD2    C312384   2.210   1.160  11.743 -0.0393 -0.0188 -0.6386
  839MPD2    C412385   2.177   1.192  11.869 -0.6409  0.4051 -0.6930
  839MPD2    C512386   2.055   1.158  11.913 -0.1185  0.1527  0.3909
  839MPD2     H12387   2.152   1.077  11.563  1.1833  0.4073 -0.1026
  839MPD2    H112388   2.246   1.256  11.923 -1.3693  2.0523 -1.7160
  839MPD2    H212389   1.879   1.053  11.895  1.0925 -3.7471 -1.3451
  839MPD2    H312390   2.024   1.193  12.012 -1.3911  1.5929 -0.5132
  839MPD2     N12391   2.341   1.205  11.695 -0.4046 -0.2931 -0.4122
  839MPD2    H512392   2.390   1.274  11.750  0.4669 -2.5513  1.6527
  839MPD2    N112393   1.914   0.962  11.636 -0.4371  0.1509  0.2985
  839MPD2    H712394   1.950   0.939  11.543  1.1032  0.6962  0.7514
  840MPD2     C12395   2.527   4.014  10.029  0.3103  0.1819 -0.1914
  840MPD2    C112396   2.534   3.972  10.157  0.0818 -0.3758  0.0000
  840MPD2    C212397   2.599   4.058  10.246  0.0866  0.9244  0.0959
  840MPD2    C312398   2.663   4.177  10.206  0.1477  0.2810  0.0340
  840MPD2    C412399   2.660   4.208  10.071  0.6205 -0.7868 -0.8130
  840MPD2    C512400   2.578   4.135   9.993 -0.4331  0.3395  0.3573
  840MPD2     H12401   2.594   4.026  10.350  2.2444 -1.9057 -0.6840
  840MPD2    H112402   2.705   4.298  10.029  1.8025 -0.9018  0.1955
  840MPD2    H212403   2.474   3.962   9.949 -0.3567  0.5968 -0.0210
  840MPD2    H312404   2.565   4.185   9.898  1.3290  1.0606  0.4878
  840MPD2     N12405   2.731   4.265  10.291  0.4179 -0.4575  0.3669
  840MPD2    H512406   2.784   4.341  10.251 -1.0123  0.5920  0.4723
  840MPD2    N112407   2.447   3.864  10.184 -0.0356 -0.7700 -0.3726
  840MPD2    H712408   2.397   3.817  10.109 -0.2395  0.0432 -0.7466
  841MPD2     C12409   2.158   3.500  14.352 -0.0971  0.1324 -0.2659
  841MPD2    C112410   2.050   3.584  14.369  0.3472  0.0014  0.2697
  841MPD2    C212411   2.070   3.710  14.427 -0.0135  0.1028  0.0270
  841MPD2    C312412   2.188   3.754  14.460  0.4329 -0.2731 -0.3427
  841MPD2    C412413   2.300   3.678  14.440  0.3765  0.1639  0.2422
  841MPD2    C512414   2.284   3.546  14.391  0.3365  0.4266  0.4503
  841MPD2     H12415   1.984   3.775  14.438 -0.0566  0.0115  0.2406
  841MPD2    H112416   2.397   3.708  14.476  0.7870 -0.4337 -0.3661
  841MPD2    H212417   2.144   3.401  14.310 -0.8274  0.8190 -1.6660
  841MPD2    H312418   2.371   3.483  14.387  0.3583  0.6062 -1.9593
  841MPD2     N12419   2.201   3.877  14.528  0.3970 -0.3126  0.4082
  841MPD2    H512420   2.112   3.922  14.551 -0.4516 -0.6214 -2.3598
  841MPD2    N112421   1.924   3.538  14.329 -0.2477  0.2599 -0.5012
  841MPD2    H712422   1.915   3.443  14.293 -0.1015  1.0837 -2.6500
  842MPD2     C12423   3.234   0.701  16.885 -0.0164  0.0626 -0.1170
  842MPD2    C112424   3.131   0.618  16.853 -0.4184 -0.4708 -0.0270
  842MPD2    C212425   3.079   0.531  16.952  0.0031  0.2344  0.7752
  842MPD2    C312426   3.129   0.533  17.081 -0.7146  0.2686 -0.1089
  842MPD2    C412427   3.242   0.608  17.101  0.6963 -0.4464 -0.1776
  842MPD2    C512428   3.291   0.695  17.008  0.5371  0.5593 -0.2490
  842MPD2     H12429   2.991   0.473  16.928 -1.0820  2.3103 -0.2444
  842MPD2    H112430   3.289   0.607  17.199 -0.8815  0.2236  0.5835
  842MPD2    H212431   3.274   0.770  16.813  3.6815  0.1010  1.9924
  842MPD2    H312432   3.371   0.765  17.027  0.4872  0.9587 -1.4708
  842MPD2     N12433   3.067   0.460  17.189  1.0773 -0.1725  0.1926
  842MPD2    H512434   2.982   0.409  17.170  1.0445 -0.0009 -0.1269
  842MPD2    N112435   3.087   0.646  16.724  0.2365  0.0636  0.4095
  842MPD2    H712436   3.118   0.735  16.685  0.1567 -0.9842 -2.0453
  843MPD2     C12437   0.066   1.461  17.121  0.6966 -1.1301 -0.0200
  843MPD2    C112438   0.063   1.373  17.229 -0.3434  0.2028 -0.3552
  843MPD2    C212439   0.174   1.360  17.316  0.3539 -0.2570 -0.2733
  843MPD2    C312440   0.285   1.441  17.304  0.2951 -0.6211 -0.1415
  843MPD2    C412441   0.291   1.526  17.191  0.0002 -0.1251 -0.4745
  843MPD2    C512442   0.181   1.536  17.109 -0.3279 -0.2068  0.0065
  843MPD2     H12443   0.162   1.304  17.408  1.6878 -0.8751 -0.4854
  843MPD2    H112444   0.368   1.597  17.164 -0.8358  0.9108 -0.1368
  843MPD2    H212445   4.726   1.478  17.050  1.3341  0.5604 -0.3316
  843MPD2    H312446   0.180   1.602  17.022 -0.6819  0.8333  0.7948
  843MPD2     N12447   0.390   1.438  17.393 -0.5666 -0.0230  0.0776
  843MPD2    H512448   0.448   1.521  17.394  0.3770 -0.7206  1.7472
  843MPD2    N112449   4.677   1.315  17.265  0.4926  0.2690 -0.4013
  843MPD2    H712450   4.600   1.336  17.203 -2.4226 -1.6363  2.5489
  844MPD2     C12451   3.208   4.689  16.392  0.2030 -0.3674 -0.0557
  844MPD2    C112452   3.279   0.010  16.297 -0.2392 -0.2399 -0.4874
  844MPD2    C212453   3.395   0.082  16.332 -0.3822 -0.3401  0.2005
  844MPD2    C312454   3.435   0.087  16.467 -0.0685 -0.2712 -0.0704
  844MPD2    C412455   3.357   0.014  16.550 -0.3635  0.3019 -0.6328
  844MPD2    C512456   3.239   4.696  16.523  0.4733  0.0463  0.9201
  844MPD2     H12457   3.464   0.135  16.267  0.9476 -1.3571  0.7865
  844MPD2    H112458   3.377   0.009  16.657  2.3271  0.8227 -1.0943
  844MPD2    H212459   3.112   4.643  16.371 -0.3076  1.6676 -2.1617
  844MPD2    H312460   3.181   4.647  16.599 -0.7924  3.2924  2.0382
  844MPD2     N12461   3.552   0.157  16.504 -0.2163  0.3016  0.7606
  844MPD2    H512462   3.598   0.211  16.432  1.0290 -0.9720  0.6130
  844MPD2    N112463   3.248   0.016  16.156  0.2990  0.1050 -0.0467
  844MPD2    H712464   3.306   0.083  16.106 -0.5337  0.2303 -0.8481
  845MPD2     C12465   3.849   1.082  16.698  0.1382  0.5964  0.7417
  845MPD2    C112466   3.885   1.018  16.817  0.1366 -0.1794  0.0311
  845MPD2    C212467   3.892   0.877  16.810  0.6069 -0.2128  0.0805
  845MPD2    C312468   3.853   0.812  16.699 -0.4771  0.0810  0.0697
  845MPD2    C412469   3.817   0.876  16.583  0.1105 -0.2988  0.0201
  845MPD2    C512470   3.827   1.011  16.581  0.0579  0.2198 -0.0993
  845MPD2     H12471   3.938   0.819  16.889  2.4347  1.6109  0.3518
  845MPD2    H112472   3.785   0.820  16.496  1.2024 -0.4885 -0.2525
  845MPD2    H212473   3.856   1.189  16.691 -0.3393  0.3430 -3.3455
  845MPD2    H312474   3.783   1.057  16.494 -0.3245  1.2639  0.6382
  845MPD2     N12475   3.852   0.670  16.700  0.3863 -0.3454 -0.7385
  845MPD2    H512476   3.883   0.622  16.784 -2.1620 -1.9852 -0.7480
  845MPD2    N112477   3.903   1.095  16.935  0.5961 -0.2952 -0.0967
  845MPD2    H712478   3.889   1.194  16.917 -0.7867 -0.9185 -2.5854
  846MPD2     C12479   4.728   1.453  13.068  0.4752 -0.4174 -0.5671
  846MPD2    C112480   0.085   1.415  13.155  0.1066  0.0688  0.7146
  846MPD2    C212481   0.059   1.413  13.288  1.0121 -0.1702  0.2375
  846MPD2    C312482   4.665   1.422  13.331  0.4168 -0.1260 -0.1431
  846MPD2    C412483   4.564   1.443  13.240 -0.3341  0.0419 -0.1709
  846MPD2    C512484   4.601   1.473  13.110 -0.6443 -0.4720 -0.9173
  846MPD2     H12485   0.134   1.392  13.364  0.6919 -2.1582  0.0079
  846MPD2    H112486   4.457   1.438  13.261 -0.1733 -2.4741  0.0121
  846MPD2    H212487   0.021   1.457  12.965 -0.1260 -0.8437 -0.7774
  846MPD2    H312488   4.526   1.492  13.034 -0.3944  3.9195 -0.0457
  846MPD2     N12489   4.631   1.392  13.467 -0.0270 -0.2361  0.1451
  846MPD2    H512490   4.694   1.339  13.525 -0.4974 -3.5784 -2.4316
  846MPD2    N112491   0.217   1.387  13.114 -0.0582  0.0991 -0.4631
  846MPD2    H712492   0.289   1.393  13.186 -0.1428 -0.2624 -0.3461
  847MPD2     C12493   0.839   2.219  14.103  0.1928 -0.3498  0.2223
  847MPD2    C112494   0.834   2.352  14.127  0.8389  0.7875 -0.0515
  847MPD2    C212495   0.914   2.399  14.228  0.5098 -0.0873 -0.1665
  847MPD2    C312496   0.996   2.320  14.305  0.3362  0.1521 -0.0398
  847MPD2    C412497   0.992   2.187  14.279  0.6426  0.5824 -0.0415
  847MPD2    C512498   0.918   2.139  14.176  0.7331  0.2737 -0.1291
  847MPD2     H12499   0.922   2.505  14.250  1.1094 -0.0413 -0.6050
  847MPD2    H112500   1.049   2.120  14.342  1.2561 -2.2752 -3.6179
  847MPD2    H212501   0.784   2.168  14.026  0.3151 -1.5524  0.9267
  847MPD2    H312502   0.914   2.031  14.167  1.4708  0.4166 -2.3415
  847MPD2     N12503   1.051   2.385  14.415 -0.0384 -0.0932 -0.1087
  847MPD2    H512504   1.025   2.483  14.427 -1.5122 -0.4073 -0.8377
  847MPD2    N112505   0.757   2.444  14.052  0.5809 -0.6435  0.4541
  847MPD2    H712506   0.771   2.539  14.087  1.2753 -1.0749  1.3348
  848MPD2     C12507   3.324   0.632  16.269 -0.1862  0.1601  0.4812
  848MPD2    C112508   3.386   0.676  16.382 -0.1496  0.2179  0.5074
  848MPD2    C212509   3.449   0.800  16.382 -0.3561  0.5757  0.0084
  848MPD2    C312510   3.430   0.884  16.270 -0.4158 -0.1933  0.4077
  848MPD2    C412511   3.367   0.835  16.157 -0.4051 -0.3077 -0.3703
  848MPD2    C512512   3.312   0.710  16.161  0.1954 -0.4634 -0.1882
  848MPD2     H12513   3.502   0.832  16.472 -1.0070  1.1318  0.1944
  848MPD2    H112514   3.331   0.900  16.078  0.2344  2.8699  1.8980
  848MPD2    H212515   3.271   0.538  16.256 -0.3587  0.6137 -1.9632
  848MPD2    H312516   3.251   0.689  16.073 -0.3798 -1.3614  0.4167
  848MPD2     N12517   3.481   1.020  16.266  0.1668 -0.0552 -0.5161
  848MPD2    H512518   3.492   1.064  16.175 -0.1588 -0.7684 -0.9046
  848MPD2    N112519   3.401   0.602  16.501 -0.1667  0.3740  0.0045
  848MPD2    H712520   3.454   0.651  16.572  0.1175 -1.7132  1.2287
  849MPD2     C12521   2.091   0.235  14.157  0.6255  0.3385 -0.4991
  849MPD2    C112522   2.182   0.143  14.114 -0.9239  0.5087  0.1452
  849MPD2    C212523   2.264   0.072  14.203  0.0989 -0.4352 -0.0727
  849MPD2    C312524   2.246   0.096  14.340 -0.1417  0.5077 -0.7032
  849MPD2    C412525   2.147   0.179  14.390 -0.3958  0.4324 -0.1288
  849MPD2    C512526   2.086   0.256  14.296  0.2078  0.9124 -0.1573
  849MPD2     H12527   2.337   4.735  14.182 -2.2313 -2.5917 -0.2750
  849MPD2    H112528   2.127   0.216  14.490  1.3347  1.4669 -0.1563
  849MPD2    H212529   2.017   0.272  14.086  0.4117 -1.3273 -1.1386
  849MPD2    H312530   2.026   0.338  14.334  2.6608  2.4703  0.3133
  849MPD2     N12531   2.325   0.009  14.424  0.2104 -0.1378  0.3375
  849MPD2    H512532   2.388   4.682  14.382  0.7409  0.3460  0.3646
  849MPD2    N112533   2.179   0.109  13.979 -0.9814  0.2739 -0.4019
  849MPD2    H712534   2.120   0.171  13.925 -1.9839  1.0814  1.6410
  850MPD2     C12535   0.600   3.481  14.205 -0.3195 -0.0024  0.0585
  850MPD2    C112536   0.561   3.494  14.341  0.6849 -0.2722 -0.1305
  850MPD2    C212537   0.651   3.550  14.428 -0.0067 -0.0330  0.0400
  850MPD2    C312538   0.766   3.612  14.371  0.1576  0.0193 -0.1825
  850MPD2    C412539   0.787   3.620  14.239 -0.0877 -0.1352 -0.1200
  850MPD2    C512540   0.705   3.554  14.154 -0.1644 -0.3719  0.4915
  850MPD2     H12541   0.634   3.556  14.534 -0.0846  0.3948  0.0017
  850MPD2    H112542   0.879   3.668  14.207 -0.1434  0.2803  0.3571
  850MPD2    H212543   0.545   3.412  14.141 -1.8781  1.6256 -0.3309
  850MPD2    H312544   0.728   3.556  14.048  1.9496 -0.2329  0.9410
  850MPD2     N12545   0.863   3.670  14.456  0.1035 -0.1313  0.0841
  850MPD2    H512546   0.940   3.709  14.403  0.8934  1.7154  2.5837
  850MPD2    N112547   0.440   3.444  14.399  0.5999  0.4910 -0.0059
  850MPD2    H712548   0.434   3.471  14.497 -0.8005 -1.2079  0.3560
  851MPD2     C12549   0.459   3.041  14.948 -0.2457 -0.3397 -0.4351
  851MPD2    C112550   0.410   2.999  14.828  0.0319  0.4905 -0.5808
  851MPD2    C212551   0.456   2.881  14.777  0.5435  0.5580  0.6105
  851MPD2    C312552   0.553   2.805  14.842  0.0309  0.7745 -0.3811
  851MPD2    C412553   0.591   2.844  14.974 -0.0743 -0.6341 -0.6615
  851MPD2    C512554   0.541   2.963  15.022 -0.2500 -0.2262  0.4515
  851MPD2     H12555   0.444   2.856  14.672 -0.3257  1.4858  0.4850
  851MPD2    H112556   0.679   2.794  15.012 -2.3032 -3.0312  1.3819
  851MPD2    H212557   0.417   3.127  14.997  1.5893  1.2124 -1.6014
  851MPD2    H312558   0.580   3.006  15.114 -1.5931 -1.2315  1.4940
  851MPD2     N12559   0.608   2.692  14.778 -0.6625 -0.2615  0.1752
  851MPD2    H512560   0.587   2.683  14.679 -4.4562 -0.4221  1.0074
  851MPD2    N112561   0.329   3.091  14.756 -0.2329  0.3408  0.3185
  851MPD2    H712562   0.306   3.173  14.812  0.9616  0.8586  0.0557
  852MPD2     C12563   0.133   0.333  10.115  0.8631 -0.2155  0.1194
  852MPD2    C112564   0.105   0.438  10.193 -0.5016  0.2379 -0.1481
  852MPD2    C212565   0.192   0.547  10.190  0.0903 -0.7039 -0.4467
  852MPD2    C312566   0.292   0.553  10.097  0.1105 -0.6063 -0.0146
  852MPD2    C412567   0.293   0.450  10.000 -0.4927 -0.6849 -0.5136
  852MPD2    C512568   0.217   0.341  10.014 -0.2051  0.0422  0.1502
  852MPD2     H12569   0.185   0.633  10.256 -1.5496 -0.2085 -1.2681
  852MPD2    H112570   0.341   0.450   9.903  0.8360  0.8389  0.1572
  852MPD2    H212571   0.068   0.247  10.118  0.0107  0.5321  2.9658
  852MPD2    H312572   0.219   0.258   9.944  1.8908 -0.8636  1.2751
  852MPD2     N12573   0.378   0.661  10.097 -0.7591 -0.2355  0.4263
  852MPD2    H512574   0.369   0.725  10.175 -1.3836  0.4477 -0.2065
  852MPD2    N112575   4.730   0.454  10.286  0.2845  0.1700 -0.3883
  852MPD2    H712576   4.721   0.537  10.344  1.0027 -1.7259  2.4296
  853MPD2     C12577   1.979   4.716  12.476 -1.0879 -0.3828  0.4403
  853MPD2    C112578   1.864   0.019  12.420  0.0277 -0.3103  0.2956
  853MPD2    C212579   1.836   4.735  12.284 -0.1143 -0.2726 -0.2565
  853MPD2    C312580   1.930   4.667  12.202 -0.1866 -0.0400  0.7100
  853MPD2    C412581   2.047   4.628  12.266 -0.7634  0.3106 -0.4527
  853MPD2    C512582   2.074   4.659  12.400  0.3220 -0.5635 -0.4101
  853MPD2     H12583   1.749   0.028  12.228  1.1583  1.6699 -1.0617
  853MPD2    H112584   2.128   4.575  12.218 -2.0818 -0.6840 -1.5583
  853MPD2    H212585   2.003   4.733  12.581 -1.1892  1.2956  0.1967
  853MPD2    H312586   2.168   4.636  12.450  0.1147 -0.7862 -0.1213
  853MPD2     N12587   1.909   4.623  12.069 -0.2005  0.2079  0.9180
  853MPD2    H512588   1.985   4.597  12.007 -1.8337  1.6110 -1.6788
  853MPD2    N112589   1.767   0.082  12.497 -0.7046 -0.9267 -0.7843
  853MPD2    H712590   1.797   0.089  12.594 -3.6250 -2.3375  0.2356
  854MPD2     C12591   3.913   0.174  12.810  0.0472  0.1176 -0.2160
  854MPD2    C112592   4.019   0.260  12.793 -0.2452 -0.1599 -0.1668
  854MPD2    C212593   4.148   0.224  12.835  0.0230 -0.4433 -0.1651
  854MPD2    C312594   4.166   0.095  12.885 -0.8536  0.3109  0.2400
  854MPD2    C412595   4.059   0.004  12.885  0.5502  0.0127  0.5829
  854MPD2    C512596   3.937   0.049  12.849 -0.1248 -0.0868 -0.0085
  854MPD2     H12597   4.233   0.291  12.828 -0.9137  0.7113 -0.4962
  854MPD2    H112598   4.065   4.640  12.915 -1.4797 -0.3251 -0.2086
  854MPD2    H212599   3.810   0.200  12.790 -1.1862 -2.3753  2.9844
  854MPD2    H312600   3.855   4.719  12.850  0.1397 -0.4067 -0.6617
  854MPD2     N12601   4.295   0.049  12.926  0.5910 -0.0395 -0.2361
  854MPD2    H512602   4.311   4.689  12.932  0.2913 -0.1301 -1.0101
  854MPD2    N112603   3.991   0.394  12.753 -0.0494  0.4443 -0.5177
  854MPD2    H712604   3.893   0.412  12.733 -0.2964  0.3079  0.5649
  855MPD2     C12605   0.174   4.680  13.674  0.4532  0.3079 -0.7205
  855MPD2    C112606   0.046   4.716  13.635  0.1639 -0.0239  0.9732
  855MPD2    C212607   0.017   4.736  13.501 -0.2058 -0.0125 -0.6688
  855MPD2    C312608   0.121   4.728  13.409 -0.0001 -0.5519 -0.2394
  855MPD2    C412609   0.246   4.695  13.453  0.3680 -0.1977  0.9749
  855MPD2    C512610   0.276   4.673  13.584 -0.1989 -0.4010  0.2474
  855MPD2     H12611   4.653   0.015  13.479  0.2808  3.2714 -0.0928
  855MPD2    H112612   0.327   4.684  13.382  1.3703  2.4041  1.7221
  855MPD2    H212613   0.200   4.656  13.776 -0.7201  1.9716 -0.0337
  855MPD2    H312614   0.376   4.648  13.618  0.7355  1.3917 -1.2113
  855MPD2     N12615   0.102   4.734  13.264  1.2762 -0.0301  0.1593
  855MPD2    H512616   0.165   4.696  13.195  1.5350 -0.6639  0.7400
  855MPD2    N112617   4.680   4.716  13.723  0.5079 -0.3811  0.1098
  855MPD2    H712618   4.592   0.007  13.682 -0.0560  0.4693  1.9668
  856MPD2     C12619   1.739   1.471  14.263 -0.4548 -0.1876  0.2777
  856MPD2    C112620   1.715   1.591  14.203 -0.6661 -0.1468 -0.3538
  856MPD2    C212621   1.610   1.607  14.109 -0.5052 -0.5443  0.7526
  856MPD2    C312622   1.536   1.494  14.065  0.0074  0.6210 -0.0401
  856MPD2    C412623   1.574   1.369  14.124 -0.0193  0.3666  0.1968
  856MPD2    C512624   1.672   1.360  14.216 -0.0146 -0.0819  0.6500
  856MPD2     H12625   1.590   1.709  14.079 -0.7483 -0.3121  1.7071
  856MPD2    H112626   1.517   1.280  14.104  0.9201 -0.0355 -0.6899
  856MPD2    H212627   1.825   1.461  14.328 -0.3295 -0.2465  0.1024
  856MPD2    H312628   1.703   1.259  14.238  1.8023  0.8404  2.3305
  856MPD2     N12629   1.431   1.499  13.966  0.2197  0.2820 -0.5640
  856MPD2    H512630   1.397   1.408  13.936  0.5851 -0.1429  0.3080
  856MPD2    N112631   1.792   1.707  14.232  0.6163 -0.1712 -0.6508
  856MPD2    H712632   1.772   1.788  14.174 -1.3003  1.2662  2.0073
  857MPD2     C12633   3.039   2.889  12.911  0.2391 -0.2699 -0.0133
  857MPD2    C112634   3.044   2.984  12.804 -0.5111  0.3254  0.3388
  857MPD2    C212635   3.113   3.102  12.834 -0.0151 -0.5720 -0.0651
  857MPD2    C312636   3.167   3.124  12.965  0.3732 -0.1457  0.2338
  857MPD2    C412637   3.149   3.030  13.066 -0.2759 -0.0452 -0.6009
  857MPD2    C512638   3.087   2.916  13.028 -0.7368 -0.2259  0.1021
  857MPD2     H12639   3.132   3.172  12.753 -3.7158 -0.2092 -0.5871
  857MPD2    H112640   3.186   3.044  13.167 -0.4589 -1.6334 -0.3215
  857MPD2    H212641   2.982   2.797  12.908 -1.7401  1.0607 -3.6154
  857MPD2    H312642   3.081   2.838  13.104  2.6212  0.0517  0.6740
  857MPD2     N12643   3.225   3.248  12.985  0.6566  0.5985  0.1326
  857MPD2    H512644   3.226   3.307  12.902 -0.6294 -1.1875 -1.1694
  857MPD2    N112645   3.000   2.941  12.676 -0.3280  0.3198 -0.0788
  857MPD2    H712646   2.944   2.856  12.677  0.5906 -0.2847 -0.2986
  858MPD2     C12647   3.694   3.397  16.124 -0.1780 -0.0809  0.1009
  858MPD2    C112648   3.759   3.279  16.162 -0.2188  0.2721 -0.2543
  858MPD2    C212649   3.772   3.251  16.301  0.0703 -0.3089 -0.5397
  858MPD2    C312650   3.708   3.334  16.393 -0.8724 -0.5001 -0.0375
  858MPD2    C412651   3.639   3.441  16.354  0.2282  0.0308  0.2344
  858MPD2    C512652   3.649   3.481  16.224  0.3676  0.3154 -0.3599
  858MPD2     H12653   3.833   3.164  16.325  0.3805 -0.4054 -1.6469
  858MPD2    H112654   3.590   3.504  16.427 -0.6816  1.5529 -1.7110
  858MPD2    H212655   3.684   3.426  16.020 -1.5640 -2.0244 -0.3330
  858MPD2    H312656   3.595   3.567  16.185 -0.4747 -0.6416 -1.3094
  858MPD2     N12657   3.722   3.304  16.533 -0.1841 -0.1982 -0.0737
  858MPD2    H512658   3.671   3.374  16.585 -1.2222 -0.3303 -0.9194
  858MPD2    N112659   3.792   3.190  16.058 -0.1720 -0.6862  0.4394
  858MPD2    H712660   3.784   3.224  15.963 -0.9547  1.8672  1.4058
  859MPD2     C12661   1.906   0.160  15.581 -0.0910  0.6072 -0.1949
  859MPD2    C112662   2.032   0.100  15.566 -0.0798  0.7055  0.4191
  859MPD2    C212663   2.038   4.711  15.606  0.0223  0.0538  0.2442
  859MPD2    C312664   1.929   4.632  15.652  0.0669  0.1752  0.4315
  859MPD2    C412665   1.809   4.704  15.661  1.1899  0.4397 -0.4582
  859MPD2    C512666   1.794   0.094  15.628 -0.0029 -0.4857 -0.4045
  859MPD2     H12667   2.127   4.653  15.586 -2.3400 -4.0199  1.4411
  859MPD2    H112668   1.722   4.657  15.706  1.0603  1.1355  0.0168
  859MPD2    H212669   1.899   0.267  15.564 -1.7794  0.3952 -0.8536
  859MPD2    H312670   1.701   0.150  15.632 -0.0039 -0.2761 -2.8436
  859MPD2     N12671   1.931   4.493  15.678  0.2542  1.0863 -0.1676
  859MPD2    H512672   1.841   4.460  15.711  0.0511 -0.1780 -2.0039
  859MPD2    N112673   2.141   0.169  15.513  0.1209 -0.4587  0.0059
  859MPD2    H712674   2.134   0.265  15.481  0.2672 -0.7377 -0.8560
  860MPD2     C12675   0.417   4.655  11.595 -0.4432  1.2237  0.4954
  860MPD2    C112676   0.416   4.711  11.722  0.7280  0.6190 -1.0689
  860MPD2    C212677   0.300   4.683  11.798 -1.1052 -0.8904 -0.0367
  860MPD2    C312678   0.200   4.605  11.755  0.0117  0.2449 -0.3981
  860MPD2    C412679   0.212   4.551  11.629  0.6414  0.3834  0.3563
  860MPD2    C512680   0.317   4.575  11.553  0.5291  0.1652  0.8584
  860MPD2     H12681   0.297   4.734  11.894  2.5338 -0.5853 -0.0758
  860MPD2    H112682   0.134   4.487  11.589  0.7945  1.6345 -1.9552
  860MPD2    H212683   0.496   4.673  11.522  1.4680 -0.6060  2.1110
  860MPD2    H312684   0.309   4.522  11.458  1.9762  1.5154 -0.0276
  860MPD2     N12685   0.089   4.586  11.848  0.5755 -0.0853  0.3515
  860MPD2    H512686   0.089   4.638  11.935  1.7775  0.2159  0.1680
  860MPD2    N112687   0.511   0.056  11.777 -0.5080  0.1280 -0.1164
  860MPD2    H712688   0.491   0.087  11.872  2.9135 -1.3884  1.0896
  861MPD2     C12689   3.178   2.750  10.975  0.0828 -0.0519  0.0316
  861MPD2    C112690   3.043   2.779  10.988 -0.9639  0.0670 -0.6787
  861MPD2    C212691   2.991   2.848  10.881  0.4453  0.1131 -0.6934
  861MPD2    C312692   3.059   2.885  10.761  0.4173  0.4131 -0.7932
  861MPD2    C412693   3.192   2.835  10.748 -0.1174 -0.3147  0.3286
  861MPD2    C512694   3.245   2.772  10.855 -0.2482  0.0308 -0.3680
  861MPD2     H12695   2.884   2.860  10.888  0.5136  0.1458  0.3742
  861MPD2    H112696   3.244   2.852  10.654  2.2117 -0.8599  1.5181
  861MPD2    H212697   3.223   2.699  11.060  0.1804  0.8536  0.5286
  861MPD2    H312698   3.351   2.751  10.843 -0.0152  1.0733 -0.1640
  861MPD2     N12699   2.998   2.956  10.655  0.0807 -0.0518  0.4228
  861MPD2    H512700   3.058   2.974  10.575 -2.0466  1.6898 -0.7854
  861MPD2    N112701   2.962   2.749  11.100  0.7667 -0.3067 -0.4413
  861MPD2    H712702   2.882   2.812  11.110 -0.2080 -1.2907 -2.0619
  862MPD2     C12703   2.688   2.712  10.098 -0.1973 -0.1915  0.5364
  862MPD2    C112704   2.738   2.742  10.225  0.1393  0.2387 -0.4662
  862MPD2    C212705   2.770   2.630  10.302 -0.3215 -0.3360 -0.1289
  862MPD2    C312706   2.751   2.499  10.261 -0.3276 -0.2747 -0.1619
  862MPD2    C412707   2.696   2.480  10.136  0.0376 -0.4662  0.2392
  862MPD2    C512708   2.657   2.584  10.056  0.4121  0.2777  0.0103
  862MPD2     H12709   2.808   2.657  10.400  0.2744 -0.3816 -0.3509
  862MPD2    H112710   2.701   2.377  10.104 -0.7331 -0.8227  1.2681
  862MPD2    H212711   2.661   2.784  10.022 -0.3289  0.6845  1.4041
  862MPD2    H312712   2.609   2.564   9.961 -1.1393 -2.2941  1.3389
  862MPD2     N12713   2.791   2.386  10.343 -0.1991  0.8677  0.5682
  862MPD2    H512714   2.760   2.293  10.317  0.1309  0.6998  0.7680
  862MPD2    N112715   2.775   2.869  10.277 -0.3260 -0.0633  0.5560
  862MPD2    H712716   2.820   2.879  10.367  1.3963  1.0838 -0.4415
  863MPD2     C12717   1.883   1.569  16.602 -0.6620  0.3312 -0.4115
  863MPD2    C112718   1.948   1.682  16.563 -0.1139  0.1104  0.2781
  863MPD2    C212719   2.085   1.689  16.585  0.4921 -0.0178  0.6612
  863MPD2    C312720   2.155   1.579  16.630  0.7050  0.2242 -0.5960
  863MPD2    C412721   2.088   1.463  16.668 -0.8856 -0.2638  0.0550
  863MPD2    C512722   1.951   1.466  16.652 -0.3451 -0.7645  0.7507
  863MPD2     H12723   2.143   1.768  16.538  1.4302 -1.4835 -0.6399
  863MPD2    H112724   2.128   1.374  16.714 -1.0083  0.1509  0.9584
  863MPD2    H212725   1.777   1.550  16.588 -0.5526  0.1489 -0.9861
  863MPD2    H312726   1.889   1.384  16.688 -1.1733 -0.0557  0.9305
  863MPD2     N12727   2.297   1.577  16.646  0.1754  0.1313  0.1782
  863MPD2    H512728   2.346   1.494  16.677  1.0370  0.2387 -0.9183
  863MPD2    N112729   1.876   1.782  16.504  0.0491 -0.1920  0.5227
  863MPD2    H712730   1.776   1.768  16.497  0.2440 -0.3162 -1.8654
  864MPD2     C12731   2.571   2.753  17.054 -0.4083 -0.3531  0.8697
  864MPD2    C112732   2.651   2.702  16.956  0.2520 -0.7508  0.3066
  864MPD2    C212733   2.749   2.784  16.895  0.5021 -0.4634  0.1173
  864MPD2    C312734   2.759   2.922  16.935 -0.1010 -0.2115 -0.3661
  864MPD2    C412735   2.668   2.971  17.029  0.3239 -0.2599 -0.2758
  864MPD2    C512736   2.578   2.880  17.086  0.2883  0.1106  0.0552
  864MPD2     H12737   2.815   2.740  16.821 -0.2277  0.6589 -1.2138
  864MPD2    H112738   2.675   3.072  17.069 -2.4854  0.1022 -0.6832
  864MPD2    H212739   2.497   2.692  17.103  0.1840 -0.7413  1.2868
  864MPD2    H312740   2.517   2.925  17.163 -2.1822 -0.9565 -1.2757
  864MPD2     N12741   2.847   3.011  16.870 -0.1645 -0.3726 -0.1173
  864MPD2    H512742   2.831   3.110  16.887 -1.1271 -0.2660 -1.6578
  864MPD2    N112743   2.630   2.573  16.924 -0.0935  0.0676  0.2805
  864MPD2    H712744   2.566   2.527  16.988  1.0782 -1.2501  0.5108
  865MPD2     C12745   2.986   3.398  16.027  0.0209 -0.4235  0.7393
  865MPD2    C112746   2.927   3.298  16.096 -0.0419 -0.2320  0.3250
  865MPD2    C212747   2.895   3.317  16.230  1.2159  0.0797 -0.1303
  865MPD2    C312748   2.939   3.434  16.297 -0.2050  0.4975 -0.7162
  865MPD2    C412749   3.010   3.526  16.228 -0.6829  0.2628  0.3577
  865MPD2    C512750   3.031   3.512  16.094  0.5299 -0.3583 -0.5162
  865MPD2     H12751   2.830   3.245  16.279  2.3776 -1.4772 -0.9014
  865MPD2    H112752   3.059   3.609  16.277 -2.2230  0.2790  1.8307
  865MPD2    H212753   3.011   3.384  15.923  0.8845 -2.7688  1.2856
  865MPD2    H312754   3.100   3.575  16.039  1.7566 -1.0120  0.2772
  865MPD2     N12755   2.938   3.440  16.434 -0.2010  0.4047  0.0711
  865MPD2    H512756   2.991   3.512  16.482 -0.7669  0.7223  0.2098
  865MPD2    N112757   2.891   3.179  16.029 -0.6716 -0.6013 -0.5191
  865MPD2    H712758   2.921   3.186  15.932  2.6815 -2.2903  0.3926
  866MPD2     C12759   3.656   2.751  11.260  0.0876 -0.1260  0.4213
  866MPD2    C112760   3.675   2.844  11.164  0.2806 -0.8635  0.2569
  866MPD2    C212761   3.567   2.914  11.112 -0.4299 -0.1268 -0.0017
  866MPD2    C312762   3.447   2.913  11.185  0.3012 -0.1445 -0.4438
  866MPD2    C412763   3.435   2.834  11.301 -0.1472  0.7013 -0.3380
  866MPD2    C512764   3.544   2.765  11.337  0.3005 -0.2783  0.2411
  866MPD2     H12765   3.575   2.968  11.018  0.6939  1.5690  1.0642
  866MPD2    H112766   3.345   2.831  11.361  0.4232 -0.2304  0.4592
  866MPD2    H212767   3.738   2.698  11.308  1.6287 -0.1780 -2.2210
  866MPD2    H312768   3.533   2.713  11.432  2.9854  3.1399  2.4352
  866MPD2     N12769   3.330   2.979  11.140 -0.1163 -0.9858 -0.1313
  866MPD2    H512770   3.260   2.985  11.213  0.4884 -0.9771  0.4506
  866MPD2    N112771   3.801   2.861  11.116 -0.3197 -0.1575  0.7056
  866MPD2    H712772   3.872   2.801  11.156  0.3461 -0.5827 -1.1070
  867MPD2     C12773   1.356   2.949  16.441  0.4558 -0.0165 -0.3292
  867MPD2    C112774   1.479   2.969  16.510  0.3309  0.7912 -0.1824
  867MPD2    C212775   1.483   3.075  16.594 -0.6519 -0.4542  0.4645
  867MPD2    C312776   1.373   3.163  16.611  0.7191 -0.6799 -1.1130
  867MPD2    C412777   1.263   3.142  16.540 -0.7559  0.2173  0.3076
  867MPD2    C512778   1.252   3.028  16.456 -0.0797  0.0906  0.9582
  867MPD2     H12779   1.567   3.091  16.661 -1.1635  1.4774  0.6239
  867MPD2    H112780   1.172   3.201  16.546 -1.1293 -0.4724  1.4183
  867MPD2    H212781   1.345   2.882  16.357 -1.0963 -0.9849  0.6417
  867MPD2    H312782   1.157   3.012  16.406  0.0085 -0.6765  1.0368
  867MPD2     N12783   1.374   3.257  16.714 -0.9700  0.1001 -0.6567
  867MPD2    H512784   1.292   3.317  16.722 -1.7062 -1.2438  1.6435
  867MPD2    N112785   1.585   2.881  16.488  0.2774  0.7695 -0.0131
  867MPD2    H712786   1.563   2.806  16.424  1.3879  0.9603 -0.6236
  868MPD2     C12787   3.053   1.779  12.919  0.3144  0.5304  0.7064
  868MPD2    C112788   3.134   1.706  13.006 -0.2278  0.0203 -0.4638
  868MPD2    C212789   3.077   1.664  13.126  1.0475  0.5982  0.0379
  868MPD2    C312790   2.953   1.689  13.165 -0.1792 -0.4993  0.5128
  868MPD2    C412791   2.877   1.774  13.082  0.8151 -0.0531 -0.5342
  868MPD2    C512792   2.930   1.821  12.959  0.5525  0.1258 -0.0673
  868MPD2     H12793   3.141   1.614  13.198 -0.6257  0.4384  1.4230
  868MPD2    H112794   2.773   1.800  13.098  0.8671  0.3632 -0.8746
  868MPD2    H212795   3.094   1.805  12.822 -1.5658 -2.4950 -0.9167
  868MPD2    H312796   2.876   1.887  12.892 -0.0541  1.6422  1.9192
  868MPD2     N12797   2.913   1.649  13.293  0.4366 -0.7596  0.2755
  868MPD2    H512798   2.971   1.588  13.349  0.3398  0.0745  1.2883
  868MPD2    N112799   3.260   1.660  12.963 -0.6175 -0.8058  0.0186
  868MPD2    H712800   3.275   1.676  12.864  1.6002  1.1206  0.6658
  869MPD2     C12801   3.837   4.519   0.503  0.3859 -0.1668 -0.4976
  869MPD2    C112802   3.923   4.573   0.413  0.2869 -0.4923  0.5002
  869MPD2    C212803   3.951   4.710   0.422  0.2696  0.2660 -0.2408
  869MPD2    C312804   3.892   0.048   0.517  0.2994 -0.5070 -0.1671
  869MPD2    C412805   3.822   4.721   0.616  0.1668  0.5024 -0.0708
  869MPD2    C512806   3.802   4.587   0.611 -0.0317  0.1966  0.1504
  869MPD2     H12807   4.024   0.018   0.358  0.8529  1.5727  1.4171
  869MPD2    H112808   3.788   0.027   0.708  1.0158  1.4790 -0.2487
  869MPD2    H212809   3.800   4.419   0.486  2.0146 -1.0132  0.8878
  869MPD2    H312810   3.752   4.536   0.692 -0.7075  0.4032 -0.1382
  869MPD2     N12811   3.900   0.190   0.508  0.4562 -0.4183  0.3743
  869MPD2    H512812   3.845   0.244   0.574 -0.3177  0.0026 -0.6311
  869MPD2    N112813   3.974   4.480   0.321 -0.3276  0.0408  0.3828
  869MPD2    H712814   3.945   4.383   0.328  0.5431 -0.1191  1.6505
  870MPD2     C12815   0.294   3.106   1.091  0.3660 -0.1665  0.1629
  870MPD2    C112816   0.164   3.085   1.063  0.2613 -0.0001  0.0472
  870MPD2    C212817   0.075   3.189   1.094  0.2145  1.0728 -0.2355
  870MPD2    C312818   0.114   3.294   1.174  0.3842 -0.1042 -0.2267
  870MPD2    C412819   0.247   3.300   1.206 -0.4929 -0.4611 -0.4228
  870MPD2    C512820   0.336   3.215   1.158 -0.0982  0.3378 -0.3204
  870MPD2     H12821   4.708   3.175   1.088  0.6461 -3.4551  2.4990
  870MPD2    H112822   0.286   3.385   1.260  0.6574 -2.0851  1.2688
  870MPD2    H212823   0.371   3.043   1.047  0.2815  0.7386 -1.2925
  870MPD2    H312824   0.441   3.235   1.179 -0.4258  0.6067  1.0566
  870MPD2     N12825   0.025   3.400   1.186 -0.5112  0.4328 -0.2315
  870MPD2    H512826   4.676   3.382   1.142 -0.8349  0.0786  0.5718
  870MPD2    N112827   0.118   2.969   0.992  0.6236  0.7012  0.5517
  870MPD2    H712828   0.189   2.896   0.999 -0.3040 -0.3495 -0.9329
  871MPD2     C12829   0.307   3.250  16.266  0.2834  0.3698  0.7903
  871MPD2    C112830   0.280   3.208  16.396 -0.3852  0.5826 -0.1335
  871MPD2    C212831   0.263   3.070  16.418 -0.2064  0.0204 -0.2660
  871MPD2    C312832   0.278   2.974  16.317  0.7906  0.6745  1.2611
  871MPD2    C412833   0.308   3.019  16.187  0.0911 -0.2756  0.3340
  871MPD2    C512834   0.315   3.157  16.168 -0.6950 -0.3713 -0.8669
  871MPD2     H12835   0.237   3.031  16.515  0.0061 -0.0590 -0.2397
  871MPD2    H112836   0.327   2.953  16.103  0.4475  1.6262 -1.0997
  871MPD2    H212837   0.302   3.353  16.233  0.7557  0.1278 -0.0256
  871MPD2    H312838   0.348   3.199  16.074  0.7135  2.8452  1.0892
  871MPD2     N12839   0.271   2.833  16.349 -0.1295 -0.5891 -0.5295
  871MPD2    H512840   0.229   2.816  16.440 -0.4895 -0.9335 -0.7581
  871MPD2    N112841   0.271   3.311  16.490  0.3304  0.2676 -0.4676
  871MPD2    H712842   0.289   3.408  16.466 -0.7753 -0.2403 -3.2762
  872MPD2     C12843   1.447   0.597  13.984 -0.6312 -0.3934 -0.5969
  872MPD2    C112844   1.456   0.726  13.946  0.0947  0.6121  0.2657
  872MPD2    C212845   1.341   0.809  13.974 -0.6577 -0.4646 -0.0944
  872MPD2    C312846   1.236   0.764  14.057  0.1969 -0.6089  0.4263
  872MPD2    C412847   1.242   0.638  14.103 -1.0129  0.7249 -0.2281
  872MPD2    C512848   1.342   0.552  14.061 -0.1587  0.1888  0.0666
  872MPD2     H12849   1.348   0.914  13.949  1.2196 -1.0455 -2.0291
  872MPD2    H112850   1.173   0.597  14.176 -0.0648 -1.2869 -0.4713
  872MPD2    H212851   1.529   0.530  13.961 -0.3583 -1.1646  2.5579
  872MPD2    H312852   1.337   0.455  14.110 -0.9350  0.4222  0.4621
  872MPD2     N12853   1.137   0.847  14.109  0.0101 -0.3653 -0.4085
  872MPD2    H512854   1.078   0.811  14.182  1.7416 -1.1125  0.6317
  872MPD2    N112855   1.564   0.781  13.868 -0.5069 -0.2753 -0.0884
  872MPD2    H712856   1.562   0.880  13.845 -1.6704  0.1341  1.7488
  873MPD2     C12857   2.649   0.995   0.382 -0.1475  0.5412 -0.8142
  873MPD2    C112858   2.700   0.976   0.505  0.4040 -0.3677  0.3073
  873MPD2    C212859   2.778   0.863   0.531  0.1400  0.4551 -0.2877
  873MPD2    C312860   2.807   0.771   0.431  0.8967  0.0534  0.5759
  873MPD2    C412861   2.757   0.799   0.305  0.6277  0.0256 -0.1133
  873MPD2    C512862   2.677   0.906   0.287 -0.3830 -0.1720  0.0437
  873MPD2     H12863   2.826   0.838   0.625 -0.6180 -1.4708 -0.4355
  873MPD2    H112864   2.759   0.730   0.221  1.4946 -1.2691  0.9674
  873MPD2    H212865   2.579   1.075   0.358 -0.2678 -0.0389 -2.4217
  873MPD2    H312866   2.630   0.921   0.190  0.8132 -0.9440 -0.6620
  873MPD2     N12867   2.877   0.651   0.451 -0.0830  0.3375  0.5103
  873MPD2    H512868   2.882   0.587   0.373  0.5168  1.4702 -0.3838
  873MPD2    N112869   2.670   1.080   0.596 -0.2220 -0.1607 -0.2507
  873MPD2    H712870   2.610   1.151   0.555  1.5692  1.5057  0.0173
  874MPD2     C12871   2.986   1.000  15.966 -0.7816 -0.5068 -0.4413
  874MPD2    C112872   3.030   0.985  16.098 -0.3095  0.4012 -0.8747
  874MPD2    C212873   3.104   1.088  16.160 -0.0590 -0.0934  0.2959
  874MPD2    C312874   3.149   1.199  16.084 -0.2072 -0.3557  0.3774
  874MPD2    C412875   3.113   1.202  15.948  0.2452  0.1193 -0.1188
  874MPD2    C512876   3.029   1.110  15.895  0.2333  0.0889  0.0473
  874MPD2     H12877   3.138   1.085  16.263  1.3735 -0.2015 -0.1755
  874MPD2    H112878   3.138   1.280  15.877  2.2794  0.0969  0.5571
  874MPD2    H212879   2.936   0.925  15.906  0.7682 -0.6305 -1.5776
  874MPD2    H312880   3.007   1.116  15.789 -0.9556  0.4229  0.3245
  874MPD2     N12881   3.244   1.275  16.154 -0.1764 -0.0863 -0.3812
  874MPD2    H512882   3.254   1.256  16.253  0.1792  0.5985 -0.2914
  874MPD2    N112883   2.996   0.864  16.167  0.0311 -0.7132 -0.1215
  874MPD2    H712884   2.961   0.790  16.106 -0.1282  0.0750 -0.9949
  875MPD2     C12885   4.049   4.200  14.661 -0.2135 -0.6414  0.2011
  875MPD2    C112886   3.968   4.120  14.739 -0.0424 -0.8051  0.0594
  875MPD2    C212887   3.978   4.133  14.878  0.5826  0.2067  0.1428
  875MPD2    C312888   4.067   4.219  14.936  0.0882 -0.3949 -0.7416
  875MPD2    C412889   4.139   4.306  14.852 -0.5588  0.2002 -0.2245
  875MPD2    C512890   4.126   4.288  14.722 -0.1093  0.1167  0.4155
  875MPD2     H12891   3.923   4.069  14.946  2.3011  1.1068  2.4202
  875MPD2    H112892   4.206   4.383  14.889 -0.5692  0.8137 -1.4640
  875MPD2    H212893   4.038   4.194  14.554  3.3514 -1.8606 -0.0805
  875MPD2    H312894   4.171   4.367  14.662  2.3927  0.9445  3.4036
  875MPD2     N12895   4.079   4.238  15.081 -0.5781  0.1592 -0.2379
  875MPD2    H512896   4.131   4.318  15.116 -2.0124  0.9729  0.0466
  875MPD2    N112897   3.865   4.036  14.691  0.6678  0.1608 -0.2745
  875MPD2    H712898   3.821   3.992  14.771 -1.7794  1.7340 -0.7342
  876MPD2     C12899   2.242   0.147  15.877  0.5287  0.0532 -0.1196
  876MPD2    C112900   2.366   0.166  15.940  0.3382 -0.1317 -0.2401
  876MPD2    C212901   2.407   0.059  16.020  0.4064 -0.1267 -0.0295
  876MPD2    C312902   2.338   4.676  16.029  0.4981 -0.2588  0.0219
  876MPD2    C412903   2.220   4.659  15.959 -0.3395 -0.2294 -0.4007
  876MPD2    C512904   2.178   0.026  15.890  0.1621 -0.4947  0.4485
  876MPD2     H12905   2.499   0.050  16.076  1.0127 -1.6201 -1.2968
  876MPD2    H112906   2.158   4.570  15.960  0.2029 -0.6205 -1.7399
  876MPD2    H212907   2.202   0.229  15.818 -0.0355 -0.4643 -0.4559
  876MPD2    H312908   2.080   0.032  15.844  0.8027  0.9561 -0.7577
  876MPD2     N12909   2.390   4.580  16.119 -0.3498 -0.2124 -0.2497
  876MPD2    H512910   2.478   4.595  16.166 -2.1067 -0.0901  2.9903
  876MPD2    N112911   2.441   0.276  15.904  0.1677 -0.4390 -0.0298
  876MPD2    H712912   2.389   0.336  15.841  1.8690  1.5358  0.4572
  877MPD2     C12913   2.376   0.775  15.377 -0.7908 -0.1937 -0.1464
  877MPD2    C112914   2.510   0.763  15.411  1.0235 -0.6469 -0.0236
  877MPD2    C212915   2.603   0.779  15.308 -0.3893 -0.4563  0.1253
  877MPD2    C312916   2.561   0.816  15.179  0.3709  0.5086 -0.5786
  877MPD2    C412917   2.430   0.831  15.147 -0.2784 -0.0053  0.3874
  877MPD2    C512918   2.349   0.820  15.249  0.3917 -0.3934 -0.2898
  877MPD2     H12919   2.709   0.765  15.328 -0.6344  0.6468  2.2386
  877MPD2    H112920   2.391   0.864  15.051 -0.0430 -1.0691 -0.0692
  877MPD2    H212921   2.289   0.766  15.441 -1.5949  0.6425 -1.1303
  877MPD2    H312922   2.245   0.848  15.238  0.7767  1.6234  1.0868
  877MPD2     N12923   2.648   0.818  15.065  0.0647  0.9810  0.2927
  877MPD2    H512924   2.605   0.826  14.973 -0.3238  0.5222  0.4307
  877MPD2    N112925   2.561   0.729  15.537 -0.0912 -0.1565  0.4074
  877MPD2    H712926   2.659   0.712  15.558 -0.4759 -1.1351  1.3535
  878MPD2     C12927   2.408   0.467  13.087 -0.2759  0.1209 -0.5287
  878MPD2    C112928   2.497   0.367  13.120 -0.3395 -0.3951  0.0657
  878MPD2    C212929   2.491   0.304  13.240  0.4036  0.5479 -0.0028
  878MPD2    C312930   2.395   0.338  13.328 -0.4423 -0.0642  0.5054
  878MPD2    C412931   2.310   0.443  13.301 -0.5486 -0.0900  0.9761
  878MPD2    C512932   2.315   0.507  13.182 -1.0007 -0.1325 -0.0258
  878MPD2     H12933   2.552   0.214  13.242  1.3867  1.2255  0.6232
  878MPD2    H112934   2.227   0.467  13.365 -2.2446  1.0753 -1.6504
  878MPD2    H212935   2.413   0.523  12.994 -2.1982  3.3269  1.2662
  878MPD2    H312936   2.240   0.582  13.157 -2.1071 -0.3777  2.5933
  878MPD2     N12937   2.383   0.253  13.442 -0.0380 -0.0738  0.5704
  878MPD2    H512938   2.469   0.201  13.457  0.4999  0.5197 -0.4745
  878MPD2    N112939   2.591   0.320  13.026  0.2955  0.0083 -0.2521
  878MPD2    H712940   2.642   0.239  13.062  0.6943  0.8018  0.9689
  879MPD2     C12941   3.288   1.056  17.349  0.3509  0.0273 -0.8058
  879MPD2    C112942   3.271   1.157  17.262 -0.7523 -0.1124 -0.2726
  879MPD2    C212943   3.179   1.154  17.157 -0.4369  0.0617  0.5731
  879MPD2    C312944   3.095   1.052  17.147  0.4265  0.3240  0.3074
  879MPD2    C412945   3.101   0.952  17.244 -0.7344 -0.1292 -0.0969
  879MPD2    C512946   3.204   0.944  17.337 -0.3100  0.2415  0.3405
  879MPD2     H12947   3.168   1.240  17.092  1.9262 -1.6777 -2.1305
  879MPD2    H112948   3.025   0.874  17.242 -1.8686  0.9244  2.2046
  879MPD2    H212949   3.363   1.056  17.427  2.2145 -3.1072 -2.5896
  879MPD2    H312950   3.219   0.859  17.402  0.9852 -1.4064 -2.1302
  879MPD2     N12951   2.996   1.039  17.043 -0.8564  0.2876 -0.2831
  879MPD2    H512952   2.930   0.963  17.054 -0.5745  0.1767  0.6268
  879MPD2    N112953   3.362   1.262  17.289 -0.0225 -0.1602 -0.0719
  879MPD2    H712954   3.422   1.253  17.370  0.2695  3.2553  0.1107
  880MPD2     C12955   3.703   2.989   0.357 -0.5391  0.4787 -0.1951
  880MPD2    C112956   3.841   2.983   0.369 -0.0082 -0.2173 -1.2095
  880MPD2    C212957   3.900   2.863   0.403  0.2712  0.6280 -0.1889
  880MPD2    C312958   3.834   2.748   0.435  0.3523 -0.0135  0.3812
  880MPD2    C412959   3.699   2.755   0.429 -0.4236  0.2317 -0.0486
  880MPD2    C512960   3.633   2.872   0.402 -0.0841 -1.0602  0.5371
  880MPD2     H12961   4.008   2.862   0.407  0.2258 -4.4671 -0.3340
  880MPD2    H112962   3.638   2.666   0.442  1.7937 -1.1789  0.7421
  880MPD2    H212963   3.649   3.077   0.326 -0.4330  0.7304  0.3296
  880MPD2    H312964   3.526   2.860   0.387 -0.1068 -1.0362  0.6783
  880MPD2     N12965   3.903   2.633   0.464 -0.0645 -0.1156 -0.0456
  880MPD2    H512966   4.004   2.640   0.456  0.0101 -0.0948  0.8556
  880MPD2    N112967   3.916   3.092   0.319 -0.2616 -0.0947  0.1314
  880MPD2    H712968   3.855   3.166   0.285  0.4271  0.8232  0.8986
  881MPD2     C12969   3.930   3.996  17.667  0.0113  0.7566  0.4556
  881MPD2    C112970   4.008   3.896  17.636 -0.0395  0.0605 -0.6464
  881MPD2    C212971   4.026   3.786  17.719 -0.0313  0.5920  0.1240
  881MPD2    C312972   3.966   3.780   0.088  0.5884  0.0850  0.0677
  881MPD2    C412973   3.878   3.884   0.119  0.4228  0.5405 -0.0929
  881MPD2    C512974   3.857   3.990   0.027 -0.0379 -0.0498  0.5780
  881MPD2     H12975   4.081   3.698  17.687  0.3003 -0.0198  2.3569
  881MPD2    H112976   3.820   3.889   0.210  3.1452  0.7198  1.6364
  881MPD2    H212977   3.931   4.089  17.612  0.3075  1.8179  2.2779
  881MPD2    H312978   3.787   4.070   0.048  0.3678  0.2295  0.8493
  881MPD2     N12979   3.976   3.672   0.171  0.3738  0.2416  0.6862
  881MPD2    H512980   3.927   3.683   0.259  0.9358 -1.1005  1.1729
  881MPD2    N112981   4.089   3.929  17.522  0.4309  0.8854 -0.2627
  881MPD2    H712982   4.048   4.002  17.465 -0.6478  0.0260 -0.5952
  882MPD2     C12983   2.585   0.412  14.498 -0.0754  0.7513  0.0099
  882MPD2    C112984   2.614   0.546  14.482 -0.0804 -0.4335  0.0306
  882MPD2    C212985   2.552   0.617  14.382  0.0136  0.4116 -0.0881
  882MPD2    C312986   2.451   0.564  14.304 -0.2036  0.2644 -0.8564
  882MPD2    C412987   2.426   0.429  14.318 -0.5649  0.2973 -1.0493
  882MPD2    C512988   2.487   0.357  14.419  0.8966  0.1348 -0.7962
  882MPD2     H12989   2.587   0.720  14.372  0.3855  0.2371 -0.6074
  882MPD2    H112990   2.343   0.388  14.262 -0.8323  0.6732 -0.9277
  882MPD2    H212991   2.634   0.351  14.572  0.6471  0.4260 -0.7423
  882MPD2    H312992   2.449   0.259  14.442 -0.7793  0.6950 -1.1555
  882MPD2     N12993   2.369   0.639  14.208  0.1479  0.2938 -0.0985
  882MPD2    H512994   2.283   0.595  14.176  0.3079  1.1250 -1.6285
  882MPD2    N112995   2.699   0.604  14.592 -0.2599  0.9418 -0.2108
  882MPD2    H712996   2.752   0.533  14.641 -1.6664 -0.0408 -0.1232
  883MPD2     C12997   0.056   0.904  16.281  0.1541 -0.7125  0.1353
  883MPD2    C112998   0.126   0.971  16.182  0.7356  0.2623  0.5919
  883MPD2    C212999   0.254   1.005  16.207  0.5635 -0.0313 -0.1061
  883MPD2    C313000   0.317   0.973  16.330 -0.2105 -0.2131  0.2784
  883MPD2    C413001   0.251   0.888  16.419  0.5876  0.5041  0.0542
  883MPD2    C513002   0.121   0.858  16.395  0.5038  0.0612 -0.3550
  883MPD2     H13003   0.309   1.054  16.126 -0.6477  1.9616  0.2678
  883MPD2    H113004   0.290   0.851  16.513  0.1772 -0.7589 -0.2737
  883MPD2    H213005   4.697   0.864  16.258 -0.3968  1.0432 -0.5248
  883MPD2    H313006   0.064   0.790  16.457  1.4926  0.4983  1.0030
  883MPD2     N13007   0.447   1.021  16.351  0.3203 -0.0266 -0.0041
  883MPD2    H513008   0.496   1.066  16.275  0.6528  0.9910  0.8143
  883MPD2    N113009   0.070   1.013  16.061 -0.2124  0.0344 -0.0018
  883MPD2    H713010   0.122   1.083  16.010  0.2072 -1.3337 -1.4626
  884MPD2     C13011   2.095   1.602  15.171  0.1954 -0.3475  0.1313
  884MPD2    C113012   2.054   1.642  15.046 -0.4109 -0.4495 -0.2915
  884MPD2    C213013   1.923   1.689  15.040 -0.1627 -0.2207 -0.2321
  884MPD2    C313014   1.832   1.689  15.141  0.4568 -0.3396 -0.0214
  884MPD2    C413015   1.875   1.633  15.265 -0.0382 -0.3894  0.2137
  884MPD2    C513016   2.005   1.589  15.271  0.2573  0.3610  0.0866
  884MPD2     H13017   1.883   1.722  14.944  0.5607  0.3544 -0.3385
  884MPD2    H113018   1.803   1.605  15.341  0.6580  0.0117  1.0299
  884MPD2    H213019   2.197   1.571  15.191  0.5049  0.0069 -0.8999
  884MPD2    H313020   2.029   1.538  15.364  0.7624  2.1024  0.9069
  884MPD2     N13021   1.699   1.732  15.121  0.5383 -0.3345 -0.1185
  884MPD2    H513022   1.679   1.743  15.022  0.6479 -1.4801 -0.2715
  884MPD2    N113023   2.132   1.624  14.931  0.0228  0.2513  0.0122
  884MPD2    H713024   2.100   1.663  14.843  0.2941 -1.0476 -0.6621
  885MPD2     C13025   4.414   2.091  17.392  0.5235  0.0943 -0.2202
  885MPD2    C113026   4.529   2.010  17.375 -0.3093  0.4187  0.6907
  885MPD2    C213027   4.613   2.029  17.259  0.4868  0.5592 -0.5211
  885MPD2    C313028   4.563   2.102  17.151  0.4613 -1.3043 -0.0341
  885MPD2    C413029   4.442   2.167  17.171  0.1122 -0.2827 -0.2642
  885MPD2    C513030   4.372   2.165  17.286 -0.0980 -0.7636 -0.0053
  885MPD2     H13031   4.708   1.983  17.238  0.9932  0.7502  1.3859
  885MPD2    H113032   4.392   2.226  17.095 -0.6438 -0.9130 -0.2598
  885MPD2    H213033   4.349   2.085  17.478  1.1429  0.9157  0.3043
  885MPD2    H313034   4.281   2.219  17.308  0.6061  0.8968 -1.2278
  885MPD2     N13035   4.634   2.114  17.031  0.0815  0.1205 -0.7221
  885MPD2    H513036   4.732   2.088  17.028 -0.1026 -1.0655  2.8211
  885MPD2    N113037   4.561   1.919  17.479 -0.1544 -0.4701 -0.3251
  885MPD2    H713038   4.494   1.923  17.555  2.5952  0.7213  2.0403
  886MPD2     C13039   0.842   0.493  15.470  0.4221  0.2570 -0.0819
  886MPD2    C113040   0.967   0.492  15.530 -0.0722  0.4285 -0.2489
  886MPD2    C213041   1.065   0.586  15.489 -0.3698 -0.5373 -0.0454
  886MPD2    C313042   1.050   0.681  15.393  0.0585 -0.0098 -0.6735
  886MPD2    C413043   0.924   0.680  15.338 -0.3557 -0.1162 -0.1765
  886MPD2    C513044   0.824   0.592  15.380 -0.2036 -0.5610  0.2979
  886MPD2     H13045   1.161   0.587  15.539 -0.6608  1.9819  0.4694
  886MPD2    H113046   0.904   0.758  15.266 -1.7492  2.0582  2.5807
  886MPD2    H213047   0.766   0.417  15.483  1.7746 -0.7001  2.2766
  886MPD2    H313048   0.722   0.609  15.345  0.3627  2.2229 -0.0321
  886MPD2     N13049   1.149   0.771  15.349 -0.0628 -0.1393 -0.2228
  886MPD2    H513050   1.123   0.830  15.271  2.1350 -1.5654 -2.0219
  886MPD2    N113051   1.014   0.395  15.626  0.7959  0.1485  0.2825
  886MPD2    H713052   1.111   0.395  15.653  1.2994 -0.1619 -1.4863
  887MPD2     C13053   1.609   0.215  15.918  0.5414 -0.0043  0.0215
  887MPD2    C113054   1.510   0.317  15.918 -0.2878  0.1570  0.0483
  887MPD2    C213055   1.554   0.447  15.907  0.1018  0.3328  0.2193
  887MPD2    C313056   1.694   0.469  15.914  0.1939 -0.5003  0.2331
  887MPD2    C413057   1.788   0.363  15.912 -0.0902  0.0966  0.1409
  887MPD2    C513058   1.745   0.238  15.918 -0.3159 -1.2286  0.0001
  887MPD2     H13059   1.480   0.526  15.897 -0.9211 -0.3176  2.6357
  887MPD2    H113060   1.894   0.379  15.926  0.2913 -1.4624 -0.8716
  887MPD2    H213061   1.574   0.112  15.919 -2.1913  0.9212  0.7731
  887MPD2    H313062   1.827   0.167  15.908  2.3387  1.7612  0.5861
  887MPD2     N13063   1.741   0.601  15.923  0.2037  0.5833  0.3397
  887MPD2    H513064   1.667   0.665  15.952 -1.3825 -2.2889  2.5822
  887MPD2    N113065   1.369   0.296  15.933  0.3791 -0.1339  0.0501
  887MPD2    H713066   1.302   0.372  15.944 -0.9495 -1.4960  1.4153
  888MPD2     C13067   3.769   0.436  14.803  0.7735 -0.1239 -0.2230
  888MPD2    C113068   3.760   0.499  14.925 -0.1676 -0.5642  0.1934
  888MPD2    C213069   3.791   0.634  14.926  0.8264 -0.0080 -0.8539
  888MPD2    C313070   3.847   0.701  14.817 -0.3759 -0.2014 -0.7168
  888MPD2    C413071   3.870   0.626  14.707 -0.1214  0.4312  0.2295
  888MPD2    C513072   3.826   0.495  14.698 -0.1723 -0.4353  0.6208
  888MPD2     H13073   3.771   0.698  15.012 -2.7911 -0.4854 -1.3496
  888MPD2    H113074   3.905   0.668  14.613 -0.9872 -0.7242 -0.6042
  888MPD2    H213075   3.751   0.330  14.797 -0.7973  0.1406 -0.1707
  888MPD2    H313076   3.839   0.439  14.606  1.3907  0.0101  0.5612
  888MPD2     N13077   3.866   0.837  14.831 -0.2591  0.2365 -0.4251
  888MPD2    H513078   3.834   0.874  14.920 -1.0088 -0.3048 -0.4666
  888MPD2    N113079   3.702   0.431  15.037 -0.3667  0.2808 -0.4208
  888MPD2    H713080   3.693   0.489  15.120  1.1820 -1.6432  1.0824
  889MPD2     C13081   3.191   3.928  12.716  0.3925  0.0600 -0.4523
  889MPD2    C113082   3.223   3.950  12.849 -0.6779  0.2445  0.0104
  889MPD2    C213083   3.252   4.077  12.895  0.2130  0.4355 -0.5645
  889MPD2    C313084   3.215   4.187  12.817 -1.0955  0.3164 -0.4908
  889MPD2    C413085   3.174   4.166  12.687  0.2833 -0.6099 -0.0739
  889MPD2    C513086   3.149   4.037  12.642  0.2221  0.6931  0.2108
  889MPD2     H13087   3.270   4.098  13.000 -0.6704 -1.0289 -0.1236
  889MPD2    H113088   3.148   4.247  12.619 -1.0687 -1.1477 -0.1991
  889MPD2    H213089   3.178   3.828  12.676 -0.1278 -1.8182  4.4518
  889MPD2    H313090   3.117   4.028  12.539 -0.1487 -1.2950  0.5055
  889MPD2     N13091   3.240   4.311  12.869 -0.5221  0.1411  0.2266
  889MPD2    H513092   3.279   4.312  12.962  0.4493  0.2592 -0.1837
  889MPD2    N113093   3.275   3.837  12.922 -0.5476 -0.1506  0.1694
  889MPD2    H713094   3.340   3.855  12.998  0.2612 -0.7157 -0.3917
  890MPD2     C13095   2.699   1.278  14.440  0.6710  0.0053 -0.3958
  890MPD2    C113096   2.802   1.328  14.513 -0.4790 -0.8837 -0.2512
  890MPD2    C213097   2.806   1.309  14.648 -0.6232  0.1213 -0.5348
  890MPD2    C313098   2.712   1.236  14.720 -0.1387  0.3663  0.4424
  890MPD2    C413099   2.608   1.183  14.647 -0.1208 -0.7263 -0.4365
  890MPD2    C513100   2.600   1.208  14.508 -0.1319  0.2961 -0.4265
  890MPD2     H13101   2.896   1.333  14.703 -0.4897 -0.3555 -0.5471
  890MPD2    H113102   2.534   1.119  14.694 -0.3485 -0.1902 -0.0671
  890MPD2    H213103   2.701   1.283  14.332 -2.7791 -1.4550 -0.5431
  890MPD2    H313104   2.529   1.165  14.438 -1.2689 -1.9654  2.1225
  890MPD2     N13105   2.744   1.215  14.857 -0.1453  0.3460  0.3044
  890MPD2    H513106   2.823   1.264  14.897  1.0713 -2.1951  1.0104
  890MPD2    N113107   2.898   1.406  14.441 -0.3962  0.0841 -0.4154
  890MPD2    H713108   2.880   1.410  14.341  1.2468  0.3960 -0.6980
  891MPD2     C13109   1.220   0.375  17.000  0.1316  0.1033  0.4198
  891MPD2    C113110   1.105   0.307  17.030  0.2403 -0.1739 -1.0737
  891MPD2    C213111   1.117   0.194  17.110  0.3362  0.3598  0.9845
  891MPD2    C313112   1.239   0.140  17.153 -0.1142 -0.3425 -0.2308
  891MPD2    C413113   1.351   0.195  17.096  0.4847  0.5662 -0.3392
  891MPD2    C513114   1.337   0.318  17.031  0.3398  0.0855  1.1922
  891MPD2     H13115   1.034   0.132  17.141  1.0206 -0.5492  1.0010
  891MPD2    H113116   1.454   0.162  17.103  0.0131 -0.7691  0.3797
  891MPD2    H213117   1.215   0.467  16.942 -0.8052 -0.3114 -0.1700
  891MPD2    H313118   1.428   0.371  17.008 -0.3143  0.7258  0.0435
  891MPD2     N13119   1.233   0.018  17.229  0.0397 -0.1187  1.2618
  891MPD2    H513120   1.139   4.722  17.240 -1.4282  2.3151 -2.8484
  891MPD2    N113121   0.980   0.354  16.986  1.1671  0.6516 -0.7124
  891MPD2    H713122   0.988   0.436  16.926 -0.8715 -0.3525 -2.3426
  892MPD2     C13123   2.068   1.373  14.596 -0.2779  0.7572 -0.0865
  892MPD2    C113124   1.959   1.329  14.522 -0.4221  0.3381 -0.0891
  892MPD2    C213125   1.984   1.256  14.408 -0.1186  0.7108 -0.2723
  892MPD2    C313126   2.111   1.225  14.360 -0.3120  0.7304  0.1388
  892MPD2    C413127   2.215   1.282  14.428 -0.2518 -0.0088  0.4478
  892MPD2    C513128   2.194   1.348  14.547 -0.3736 -0.0058  0.4007
  892MPD2     H13129   1.900   1.211  14.356  0.0707 -0.5499  0.5267
  892MPD2    H113130   2.317   1.258  14.399  0.3784  0.0245  2.6437
  892MPD2    H213131   2.064   1.452  14.671  2.2951  0.7797  0.0290
  892MPD2    H313132   2.280   1.396  14.591 -1.1041  0.8859  0.8470
  892MPD2     N13133   2.147   1.136  14.252 -0.5495 -0.2478  0.4613
  892MPD2    H513134   2.247   1.116  14.244 -1.0566 -2.0100 -1.5949
  892MPD2    N113135   1.826   1.349  14.572 -0.2449 -0.7479 -0.1211
  892MPD2    H713136   1.759   1.316  14.503 -3.5570  1.4697  2.0259
  893MPD2     C13137   3.901   4.523   1.037  0.0323  0.5546 -0.1550
  893MPD2    C113138   3.912   4.430   1.143  0.1857 -0.0023 -0.4576
  893MPD2    C213139   3.849   4.458   1.265 -0.5699  0.3015  0.1414
  893MPD2    C313140   3.777   4.576   1.277 -0.5516 -0.1994 -0.0726
  893MPD2    C413141   3.775   4.676   1.175  0.4837 -0.0237  0.3635
  893MPD2    C513142   3.834   4.640   1.055  0.4715  0.3088 -0.3855
  893MPD2     H13143   3.843   4.382   1.342 -0.5953 -0.4313 -0.5745
  893MPD2    H113144   3.739   0.037   1.185 -0.4046 -0.0749 -2.2728
  893MPD2    H213145   3.952   4.521   0.942 -1.5342 -0.0322 -0.9728
  893MPD2    H313146   3.835   4.717   0.979 -0.4722  0.1958 -0.5094
  893MPD2     N13147   3.713   4.613   1.399 -0.5004 -0.0176 -0.4577
  893MPD2    H513148   3.661   4.700   1.399 -0.8423 -0.2252 -0.4118
  893MPD2    N113149   3.988   4.312   1.123  0.9564  0.2658 -0.2398
  893MPD2    H713150   4.013   4.288   1.028  0.9763  1.9259 -0.6661
  894MPD2     C13151   1.339   1.404   0.681 -0.2494 -0.2847  0.0679
  894MPD2    C113152   1.342   1.498   0.782 -0.2707  0.4305 -0.8632
  894MPD2    C213153   1.390   1.626   0.754  0.0418  0.3305  0.0703
  894MPD2    C313154   1.432   1.666   0.628  0.7457 -0.5161 -0.2499
  894MPD2    C413155   1.445   1.571   0.535  0.1870 -0.1570 -0.0200
  894MPD2    C513156   1.405   1.440   0.562 -0.4021  0.3412 -0.0043
  894MPD2     H13157   1.383   1.705   0.828  0.0321  0.5287 -0.1422
  894MPD2    H113158   1.464   1.589   0.430 -1.0214  2.1333  0.1541
  894MPD2    H213159   1.312   1.300   0.694  0.4638 -0.1010  3.0617
  894MPD2    H313160   1.411   1.369   0.480  0.0904  0.5591 -0.1567
  894MPD2     N13161   1.468   1.797   0.594  0.8494 -0.0753  0.0349
  894MPD2    H513162   1.509   1.811   0.502  2.0006  0.7956  0.6770
  894MPD2    N113163   1.291   1.462   0.913  0.3153  0.6871 -0.3328
  894MPD2    H713164   1.311   1.534   0.982  0.3391 -0.4925  0.8749
  895MPD2     C13165   0.974   0.233  13.778  1.4154  0.0099 -0.6314
  895MPD2    C113166   1.010   0.317  13.675  0.0947 -0.4555  0.1141
  895MPD2    C213167   1.019   0.267  13.547 -0.2456 -0.4248 -0.5085
  895MPD2    C313168   1.006   0.131  13.518 -0.0085  0.3083 -0.3582
  895MPD2    C413169   0.988   0.036  13.624 -0.1263 -0.4949  0.3997
  895MPD2    C513170   0.975   0.098  13.750  0.0269 -0.3350 -1.1083
  895MPD2     H13171   1.056   0.335  13.471  1.9344 -0.1349  0.8100
  895MPD2    H113172   0.981   4.668  13.611 -0.2674 -0.3924 -0.3776
  895MPD2    H213173   0.962   0.254  13.884 -0.1414  3.2399 -1.4444
  895MPD2    H313174   0.964   0.026  13.830  0.8629  0.1635 -0.5529
  895MPD2     N13175   1.014   0.089  13.385  0.5436  0.1413 -0.7235
  895MPD2    H513176   1.015   4.729  13.370  0.9324  0.3748 -2.3440
  895MPD2    N113177   1.026   0.461  13.690 -0.6766 -0.0399 -0.4917
  895MPD2    H713178   1.074   0.505  13.613  1.0021 -1.3432 -0.1833
  896MPD2     C13179   3.442   3.178   1.174  0.2356 -0.0489 -0.0812
  896MPD2    C113180   3.386   3.129   1.060 -0.2388  0.0446 -0.1159
  896MPD2    C213181   3.252   3.100   1.059  0.1480  0.3195  0.5508
  896MPD2    C313182   3.167   3.124   1.170  0.8809 -0.3823 -0.7475
  896MPD2    C413183   3.224   3.180   1.282 -0.0386  0.3983  0.4204
  896MPD2    C513184   3.363   3.207   1.281  0.3899 -0.4907 -0.3370
  896MPD2     H13185   3.203   3.062   0.970  1.0805  0.6934 -0.1218
  896MPD2    H113186   3.168   3.195   1.373  1.1901  3.5848  0.6417
  896MPD2    H213187   3.548   3.202   1.176 -0.1794  1.9592 -2.0007
  896MPD2    H313188   3.403   3.241   1.376  0.1504  0.7703 -0.6933
  896MPD2     N13189   3.028   3.090   1.158  0.4583  0.4657 -0.3828
  896MPD2    H513190   2.994   3.047   1.073 -1.5930  0.2505  0.5365
  896MPD2    N113191   3.462   3.121   0.947  0.3063  0.5224 -0.4073
  896MPD2    H713192   3.551   3.168   0.951  0.6159 -0.1335  0.3505
  897MPD2     C13193   4.441   3.923  10.758  0.3608 -0.8397  0.0853
  897MPD2    C113194   4.358   3.937  10.643  0.8160 -0.2555  0.3925
  897MPD2    C213195   4.222   3.957  10.661 -0.6635 -0.0829 -0.4471
  897MPD2    C313196   4.165   3.946  10.787  0.2365  0.1957  0.5278
  897MPD2    C413197   4.251   3.930  10.894 -0.0264 -0.2394  0.0065
  897MPD2    C513198   4.388   3.915  10.880  0.4321  0.4277 -0.3085
  897MPD2     H13199   4.158   3.973  10.575  0.4185  1.0358 -1.0397
  897MPD2    H113200   4.214   3.917  10.995 -1.6129  3.3837 -0.0885
  897MPD2    H213201   4.548   3.926  10.738  0.3148  1.1898  0.1047
  897MPD2    H313202   4.448   3.891  10.967 -0.0790 -4.0828 -1.2133
  897MPD2     N13203   4.022   3.950  10.793  0.3334  0.2560  0.5641
  897MPD2    H513204   3.974   3.977  10.708 -1.2898 -0.9069  1.1045
  897MPD2    N113205   4.429   3.947  10.519 -0.0992  0.3729 -0.0662
  897MPD2    H713206   4.530   3.957  10.512 -0.0974  0.3191 -0.1168
  898MPD2     C13207   1.058   0.146   0.084  0.4497 -0.3066  0.2628
  898MPD2    C113208   1.180   0.123   0.022  0.6566 -0.2700 -0.0832
  898MPD2    C213209   1.205   0.203  17.674  0.0473  0.8460  0.9263
  898MPD2    C313210   1.119   0.284  17.614  0.2385 -0.0639  0.9223
  898MPD2    C413211   0.991   0.300  17.674 -0.3101 -0.1781  0.9976
  898MPD2    C513212   0.958   0.227   0.030 -0.2691  0.0890  0.8643
  898MPD2     H13213   1.303   0.198  17.628  0.1756  1.1348  1.1664
  898MPD2    H113214   0.917   0.368  17.632 -0.2167 -0.3454  0.5672
  898MPD2    H213215   1.026   0.103   0.179 -0.4328 -0.4410 -0.0891
  898MPD2    H313216   0.861   0.240   0.076 -1.2755 -1.9520 -0.7179
  898MPD2     N13217   1.175   0.373  17.513 -0.7221 -0.0355  0.0487
  898MPD2    H513218   1.274   0.365  17.491 -0.4101  0.4162  1.2913
  898MPD2    N113219   1.280   0.047   0.085  0.0007 -0.1423 -0.0308
  898MPD2    H713220   1.377   0.050   0.055  0.2718 -0.2927  0.8122
  899MPD2     C13221   2.770   1.210  17.226 -0.1796  0.1043 -0.7201
  899MPD2    C113222   2.662   1.257  17.154  0.5369 -0.8223  0.8318
  899MPD2    C213223   2.537   1.211  17.190  0.0748 -0.1668 -0.6729
  899MPD2    C313224   2.516   1.118  17.290 -0.0400 -0.7418  0.1299
  899MPD2    C413225   2.628   1.079  17.353  0.0176  0.9220  0.1435
  899MPD2    C513226   2.758   1.114  17.316 -0.4287 -0.7898 -0.4701
  899MPD2     H13227   2.452   1.241  17.130  1.3034  0.3418 -2.1890
  899MPD2    H113228   2.628   0.998  17.425  2.2794  0.6897 -0.1173
  899MPD2    H213229   2.868   1.243  17.195  0.0122 -0.3728 -0.6221
  899MPD2    H313230   2.839   1.067  17.371 -1.3655 -0.0216  1.5862
  899MPD2     N13231   2.388   1.088  17.337  0.1633  0.5498 -0.1509
  899MPD2    H513232   2.315   1.109  17.270  1.3105  0.2485 -1.5014
  899MPD2    N113233   2.677   1.351  17.049  0.6378 -0.3784 -0.6606
  899MPD2    H713234   2.771   1.380  17.027  0.4266  1.1459  0.4184
  900MPD2     C13235   1.689   2.153  12.370 -0.2999 -0.9637 -0.4371
  900MPD2    C113236   1.590   2.054  12.369  0.0100  0.0724  0.3456
  900MPD2    C213237   1.467   2.078  12.308  0.2566 -0.5272 -0.2702
  900MPD2    C313238   1.445   2.204  12.243  0.1056 -0.4891  0.7183
  900MPD2    C413239   1.540   2.302  12.249 -0.8162  0.0722  0.4131
  900MPD2    C513240   1.662   2.275  12.314 -0.5948  0.2507 -0.3469
  900MPD2     H13241   1.389   2.002  12.306  1.3327 -1.6110 -2.1441
  900MPD2    H113242   1.521   2.407  12.229  0.9841  0.5796  1.4076
  900MPD2    H213243   1.772   2.142  12.439 -0.1540 -2.6677 -0.8657
  900MPD2    H313244   1.730   2.356  12.337 -0.7801  0.2029  0.3472
  900MPD2     N13245   1.317   2.237  12.189  0.3136 -0.5087  0.2961
  900MPD2    H513246   1.247   2.165  12.196  0.7784 -1.0900 -1.0215
  900MPD2    N113247   1.623   1.936  12.442 -0.4789  0.0384 -0.4639
  900MPD2    H713248   1.716   1.931  12.481 -1.6371  1.1676  2.4746
  901MPD2     C13249   1.589   1.145  11.923 -1.1830  0.2174  0.2122
  901MPD2    C113250   1.597   1.082  12.045  0.3811 -0.4008  0.3800
  901MPD2    C213251   1.582   1.165  12.162 -0.0714 -0.6381 -0.4141
  901MPD2    C313252   1.558   1.298  12.150  0.3995 -0.4981 -0.0243
  901MPD2    C413253   1.536   1.356  12.023 -0.8809 -0.0187  0.3968
  901MPD2    C513254   1.552   1.274  11.917  0.2718 -0.2969  0.0108
  901MPD2     H13255   1.580   1.126  12.264  1.6675  2.0191  0.6471
  901MPD2    H113256   1.522   1.463  12.016 -1.4141  0.0251  2.0540
  901MPD2    H213257   1.600   1.095  11.828  0.6744 -1.3637  1.2602
  901MPD2    H313258   1.553   1.331  11.825 -0.2293 -0.3571 -0.0327
  901MPD2     N13259   1.570   1.386  12.259 -0.6024 -0.2023  0.1234
  901MPD2    H513260   1.552   1.484  12.241  1.5543  0.6236  2.3584
  901MPD2    N113261   1.626   0.945  12.037 -0.3947 -0.3987 -0.4333
  901MPD2    H713262   1.648   0.905  11.947  1.3288 -0.4457  0.0036
  902MPD2     C13263   1.077   0.308  12.755 -0.0671  0.5743 -0.6846
  902MPD2    C113264   1.061   0.311  12.624 -0.0771 -0.8988  0.9193
  902MPD2    C213265   1.103   0.195  12.550  0.0233  0.8181  0.6929
  902MPD2    C313266   1.133   0.079  12.616 -0.1037 -0.5283  0.1791
  902MPD2    C413267   1.124   0.081  12.748  0.0169  0.2739  0.4921
  902MPD2    C513268   1.107   0.196  12.822 -0.6684 -0.2415  0.0010
  902MPD2     H13269   1.098   0.203  12.442  0.3339 -0.0770  0.6158
  902MPD2    H113270   1.142   4.728  12.802  0.7077  0.7820  1.1337
  902MPD2    H213271   1.061   0.398  12.814  0.2769  0.9450 -1.1510
  902MPD2    H313272   1.097   0.188  12.929  2.6229 -2.0060  0.1594
  902MPD2     N13273   1.179   4.705  12.549 -0.0091 -0.1173 -0.5982
  902MPD2    H513274   1.212   4.628  12.605  1.6974  2.0584  1.4106
  902MPD2    N113275   1.026   0.440  12.557 -0.7979  0.4540  0.6459
  902MPD2    H713276   1.002   0.514  12.622  0.8763  1.6356 -0.0813
  903MPD2     C13277   1.437   0.357  12.096  0.4217  0.0005 -0.2106
  903MPD2    C113278   1.382   0.237  12.069 -0.5710  0.4947  0.8037
  903MPD2    C213279   1.249   0.223  12.021 -0.6338  0.5075 -0.3482
  903MPD2    C313280   1.177   0.334  11.987  0.1652 -0.2453  0.4040
  903MPD2    C413281   1.242   0.460  11.991 -0.1147  0.0360 -0.0499
  903MPD2    C513282   1.371   0.466  12.046 -0.5577  0.3584  0.4256
  903MPD2     H13283   1.190   0.133  12.015 -0.2848  0.3193 -0.9234
  903MPD2    H113284   1.188   0.554  11.980 -0.1378  0.2612  1.9726
  903MPD2    H213285   1.531   0.378  12.147 -0.1092  1.5550  0.1341
  903MPD2    H313286   1.416   0.563  12.064  0.6538  0.1306 -1.3594
  903MPD2     N13287   1.037   0.317  11.959  0.2550 -0.7184 -0.0010
  903MPD2    H513288   1.000   0.226  11.985  0.3494 -0.6430  0.3971
  903MPD2    N113289   1.439   0.123  12.124 -0.1529 -0.1246 -0.7531
  903MPD2    H713290   1.495   0.123  12.208 -2.4631 -1.5818  0.7851
  904MPD2     C13291   0.766   4.617  14.082  0.0727 -0.8454 -0.2201
  904MPD2    C113292   0.791   0.015  14.087  0.5866 -0.2926 -0.1611
  904MPD2    C213293   0.885   0.062  14.177  0.7352 -0.0742  0.4886
  904MPD2    C313294   0.963   4.701  14.244 -0.4822  0.7235  0.2750
  904MPD2    C413295   0.939   4.571  14.232 -0.5560 -0.1929 -0.3268
  904MPD2    C513296   0.844   4.528  14.147  1.1690 -0.4955  0.0746
  904MPD2     H13297   0.904   0.168  14.181  2.3816 -0.3421 -0.1773
  904MPD2    H113298   0.987   4.488  14.282  1.3357  1.4249  0.5392
  904MPD2    H213299   0.685   4.592  14.015  1.1725 -2.0984 -1.0772
  904MPD2    H313300   0.825   4.422  14.136 -1.1527  0.0397 -1.1615
  904MPD2     N13301   1.061   0.001  14.339  0.1622 -0.2023 -0.7612
  904MPD2    H513302   1.074   0.102  14.349  1.0912 -0.3846 -0.1379
  904MPD2    N113303   0.707   0.113  14.025 -0.3405  0.4246 -0.2635
  904MPD2    H713304   0.741   0.204  14.053  0.2905 -0.5466  2.2017
  905MPD2     C13305   0.273   0.328  13.328 -0.2116 -0.2973  0.3813
  905MPD2    C113306   0.384   0.279  13.396  0.8419  0.9144 -0.4492
  905MPD2    C213307   0.492   0.230  13.321  0.1795 -0.3628  0.0188
  905MPD2    C313308   0.489   0.226  13.186 -0.2117 -0.0485  0.1609
  905MPD2    C413309   0.386   0.295  13.118 -0.7787  0.1482  0.8358
  905MPD2    C513310   0.285   0.349  13.193 -0.1821  0.0397 -0.0206
  905MPD2     H13311   0.574   0.199  13.385 -0.0006 -1.6212 -0.3597
  905MPD2    H113312   0.379   0.316  13.012 -0.3142  0.1047  0.7972
  905MPD2    H213313   0.179   0.357  13.372 -0.2463  1.4451 -0.8550
  905MPD2    H313314   0.198   0.387  13.141 -1.1092 -2.6474 -0.4440
  905MPD2     N13315   0.598   0.173  13.114 -0.2999 -0.1045  0.2740
  905MPD2    H513316   0.607   0.196  13.016  1.1029 -1.2039  0.1490
  905MPD2    N113317   0.389   0.271  13.538  0.5110  0.1387 -0.0988
  905MPD2    H713318   0.455   0.206  13.578  0.4002  0.2788  0.3120
  906MPD2     C13319   2.896   4.503  11.086 -0.6167 -0.0664  0.2557
  906MPD2    C113320   2.819   4.422  10.997 -0.2401  0.1414  0.1565
  906MPD2    C213321   2.746   4.319  11.048  0.1159  0.1067 -0.1125
  906MPD2    C313322   2.742   4.293  11.189  0.4511 -0.6259  1.0790
  906MPD2    C413323   2.808   4.376  11.277  0.7220 -0.2235 -0.0633
  906MPD2    C513324   2.888   4.475  11.217  0.3344 -0.3922  0.3417
  906MPD2     H13325   2.690   4.254  10.981  0.4454 -1.3204  0.9986
  906MPD2    H113326   2.799   4.368  11.385 -1.7546  2.6146 -0.0261
  906MPD2    H213327   2.956   4.592  11.064 -0.8043 -0.4395 -1.7974
  906MPD2    H313328   2.951   4.534  11.282 -0.6649  0.9354  0.0880
  906MPD2     N13329   2.668   4.188  11.245 -0.3805 -0.6291 -0.0145
  906MPD2    H513330   2.671   4.178  11.346 -0.8240 -0.9938 -0.0361
  906MPD2    N113331   2.830   4.436  10.859 -0.4984 -0.2716 -0.1063
  906MPD2    H713332   2.803   4.353  10.808  2.0339 -0.7182 -0.7167
  907MPD2     C13333   1.603   3.979  15.463 -0.5465 -0.3174  0.5724
  907MPD2    C113334   1.687   3.877  15.436  0.3769 -0.5930  0.2536
  907MPD2    C213335   1.749   3.812  15.541 -0.0462  0.0503  0.0174
  907MPD2    C313336   1.724   3.846  15.676  0.1794 -0.3509 -0.8867
  907MPD2    C413337   1.627   3.944  15.695 -0.4579 -0.5603 -0.2055
  907MPD2    C513338   1.576   4.008  15.591 -0.1256 -0.7131 -0.3257
  907MPD2     H13339   1.816   3.727  15.533 -0.4135 -0.1670 -0.7457
  907MPD2    H113340   1.582   3.966  15.791  0.5563  0.1781  0.1057
  907MPD2    H213341   1.553   4.039  15.388 -0.2773  0.9038  1.3611
  907MPD2    H313342   1.503   4.086  15.613 -0.3668 -0.9828 -0.1641
  907MPD2     N13343   1.796   3.772  15.771 -0.0759  0.2935  0.1796
  907MPD2    H513344   1.858   3.697  15.742  0.9676  1.0093  0.5787
  907MPD2    N113345   1.717   3.835  15.302  0.2156  0.0804 -0.0387
  907MPD2    H713346   1.778   3.754  15.294  0.5805  0.0744  2.7651
  908MPD2     C13347   4.219   3.894   9.525 -0.3968 -0.3239 -0.1872
  908MPD2    C113348   4.242   3.801   9.626 -0.6784 -0.3344 -0.5145
  908MPD2    C213349   4.279   3.845   9.753  0.2457 -0.5431  0.0508
  908MPD2    C313350   4.280   3.981   9.779  0.1951  0.0340 -0.3138
  908MPD2    C413351   4.249   4.077   9.681  0.3216  0.4702 -0.8838
  908MPD2    C513352   4.227   4.027   9.558  0.4610 -0.6599  0.4809
  908MPD2     H13353   4.321   3.779   9.828 -0.3807 -0.5385  0.4018
  908MPD2    H113354   4.260   4.183   9.698 -0.5467  0.6428 -1.3736
  908MPD2    H213355   4.193   3.862   9.424 -1.3874 -2.9186  0.8798
  908MPD2    H313356   4.201   4.102   9.484 -1.4637 -1.1875  0.6266
  908MPD2     N13357   4.332   4.013   9.906  0.1211  0.0744  0.4579
  908MPD2    H513358   4.341   3.935   9.971  0.5062  0.2508  0.6178
  908MPD2    N113359   4.235   3.666   9.585 -0.4916 -0.0948 -0.5278
  908MPD2    H713360   4.214   3.646   9.487  0.8092  0.5944 -0.9527
  909MPD2     C13361   4.495   2.234  11.478  0.1251 -0.5568 -0.3033
  909MPD2    C113362   4.440   2.342  11.414 -0.3033 -0.5321  0.1023
  909MPD2    C213363   4.347   2.419  11.479  0.3716 -0.1253 -0.4304
  909MPD2    C313364   4.310   2.391  11.611 -1.0116 -0.2528 -0.3023
  909MPD2    C413365   4.361   2.276  11.669 -0.5909 -0.1701 -0.1371
  909MPD2    C513366   4.452   2.200  11.605 -0.3528  0.7862 -0.3040
  909MPD2     H13367   4.309   2.507  11.429 -0.3839 -0.7063 -0.8831
  909MPD2    H113368   4.329   2.244  11.768 -0.6267  1.7627  0.4795
  909MPD2    H213369   4.569   2.167  11.434  1.7126  1.3858 -0.5787
  909MPD2    H313370   4.501   2.116  11.653 -0.0269  0.7981 -0.6110
  909MPD2     N13371   4.198   2.461  11.659  0.1859  0.2810  0.8291
  909MPD2    H513372   4.156   2.527  11.595 -0.1093  0.3013  1.0395
  909MPD2    N113373   4.475   2.383  11.283  0.0929 -0.1092 -0.2309
  909MPD2    H713374   4.402   2.441  11.242 -1.6994 -1.0909  1.5542
  910MPD2     C13375   0.605   4.405  15.816 -0.4152  0.4228  0.0631
  910MPD2    C113376   0.738   4.422  15.777 -1.0713  0.0969  0.7058
  910MPD2    C213377   0.771   4.513  15.677 -0.1585  1.0814  0.2686
  910MPD2    C313378   0.668   4.599  15.627 -0.8694 -0.2736  0.7036
  910MPD2    C413379   0.541   4.597  15.681 -0.7209 -0.2627 -1.0236
  910MPD2    C513380   0.510   4.492  15.767  0.6805 -0.3011  0.0630
  910MPD2     H13381   0.876   4.514  15.652 -0.2828  0.0578 -0.2987
  910MPD2    H113382   0.464   4.662  15.642 -1.5150 -0.1074  0.8190
  910MPD2    H213383   0.571   4.329  15.885 -0.7853  1.4467  1.0111
  910MPD2    H313384   0.407   4.485  15.800  0.7081 -0.1641  0.1784
  910MPD2     N13385   0.689   4.696  15.531  0.0356  0.2966 -0.0792
  910MPD2    H513386   0.608   0.012  15.508 -2.1801 -3.2582 -0.8482
  910MPD2    N113387   0.843   4.333  15.830  0.5469  0.1502  0.1983
  910MPD2    H713388   0.940   4.348  15.802  0.6828 -1.6867 -0.3437
  911MPD2     C13389   3.882   0.090  16.325  0.9500  0.1699  0.1495
  911MPD2    C113390   3.963   0.188  16.373 -0.4930  0.0354 -0.5909
  911MPD2    C213391   3.931   0.315  16.351  0.4121 -0.1885 -0.3643
  911MPD2    C313392   3.817   0.348  16.278 -0.0873 -0.3371 -0.4148
  911MPD2    C413393   3.738   0.252  16.217  0.0570 -0.3746  0.4531
  911MPD2    C513394   3.775   0.124  16.253  0.7150  0.1118 -0.2464
  911MPD2     H13395   3.994   0.393  16.393 -0.0423 -0.2500  0.4143
  911MPD2    H113396   3.652   0.264  16.152  1.9861 -0.0429 -2.0619
  911MPD2    H213397   3.893   4.725  16.352 -0.3872 -0.0122 -0.0078
  911MPD2    H313398   3.712   0.040  16.225  1.5455 -1.2144  1.9168
  911MPD2     N13399   3.792   0.482  16.247  0.0537  0.5002 -0.2978
  911MPD2    H513400   3.715   0.500  16.184 -0.7116  0.0099  0.5091
  911MPD2    N113401   4.081   0.137  16.440 -0.4959 -0.2346 -0.1152
  911MPD2    H713402   4.089   0.036  16.430  0.7898 -0.1919  0.5836
  912MPD2     C13403   3.449   0.593  15.629 -0.2414  0.4460 -0.3210
  912MPD2    C113404   3.495   0.538  15.743 -0.3183  0.4028  0.0028
  912MPD2    C213405   3.468   0.407  15.775 -0.3735  0.2227 -0.9021
  912MPD2    C313406   3.402   0.321  15.685 -0.6522  0.3325 -0.7718
  912MPD2    C413407   3.361   0.376  15.564 -0.1147  0.2361  0.1924
  912MPD2    C513408   3.386   0.511  15.540  0.4546 -0.0593 -0.0911
  912MPD2     H13409   3.506   0.352  15.860  1.1814  1.1175 -1.0079
  912MPD2    H113410   3.308   0.318  15.489 -0.5513  0.4218  0.3577
  912MPD2    H213411   3.458   0.699  15.610 -0.5890  0.7588  1.2297
  912MPD2    H313412   3.346   0.557  15.450  1.2217 -0.2572 -0.5266
  912MPD2     N13413   3.369   0.184  15.735 -0.1627 -0.6768  0.0452
  912MPD2    H513414   3.400   0.159  15.828  3.1703 -0.0848 -0.9341
  912MPD2    N113415   3.562   0.622  15.830  0.3816  0.2999  0.4087
  912MPD2    H713416   3.563   0.721  15.807  0.3815 -0.2690 -2.0493
  913MPD2     C13417   4.276   1.464  10.654 -0.5903  0.1589  1.2338
  913MPD2    C113418   4.228   1.337  10.664 -0.6043  0.6105  0.2206
  913MPD2    C213419   4.113   1.312  10.588  0.1639 -0.6806 -0.4377
  913MPD2    C313420   4.076   1.385  10.481 -0.1896  0.8645  0.3041
  913MPD2    C413421   4.134   1.512  10.465  0.3435 -0.0694 -0.5348
  913MPD2    C513422   4.232   1.554  10.558 -0.7764  0.3274 -0.7592
  913MPD2     H13423   4.058   1.223  10.618 -0.1461 -0.7806 -1.3001
  913MPD2    H113424   4.108   1.584  10.388  1.6692 -0.4640 -1.3450
  913MPD2    H213425   4.354   1.498  10.721 -0.2909 -0.0192  0.9744
  913MPD2    H313426   4.271   1.655  10.559  0.1239 -0.0174 -2.0318
  913MPD2     N13427   3.974   1.339  10.398 -0.1579 -0.0180  0.3049
  913MPD2    H513428   3.938   1.405  10.329 -1.0750  0.3013  1.0802
  913MPD2    N113429   4.269   1.250  10.771 -0.6532  0.5834  0.5433
  913MPD2    H713430   4.337   1.292  10.834 -0.8981  0.0408  1.1730
  914MPD2     C13431   2.378   1.063  12.138  0.4619  0.5207  0.1815
  914MPD2    C113432   2.265   1.082  12.214 -0.2999 -0.8736 -0.1830
  914MPD2    C213433   2.156   0.994  12.207 -0.2067 -0.5058  0.0687
  914MPD2    C313434   2.170   0.891  12.123 -0.1923 -0.4668 -0.4271
  914MPD2    C413435   2.274   0.886  12.036 -0.4525  0.2595  0.0686
  914MPD2    C513436   2.376   0.975  12.032  0.6562  0.3441 -0.7195
  914MPD2     H13437   2.074   0.996  12.278 -0.3594 -3.5442 -0.0309
  914MPD2    H113438   2.270   0.812  11.956 -1.6421  0.2085  0.1686
  914MPD2    H213439   2.473   1.111  12.160 -0.3848  1.6948  1.2024
  914MPD2    H313440   2.458   0.974  11.961  1.0413 -0.6784 -0.2673
  914MPD2     N13441   2.062   0.798  12.120  0.4403  0.3446 -0.4732
  914MPD2    H513442   1.986   0.831  12.179 -0.9775  0.5324 -2.3877
  914MPD2    N113443   2.270   1.188  12.307  0.4483  0.1354  0.1291
  914MPD2    H713444   2.349   1.252  12.299  0.9875 -0.6748 -1.0564
  915MPD2     C13445   4.446   1.479  15.442  0.3579 -0.6144  0.5681
  915MPD2    C113446   4.413   1.609  15.423  0.6706  0.2512  0.7262
  915MPD2    C213447   4.455   1.707  15.516 -0.3418  0.1721 -0.2225
  915MPD2    C313448   4.547   1.671  15.611  0.3224 -0.4282  0.8103
  915MPD2    C413449   4.599   1.541  15.616 -0.2537  0.8657  0.9638
  915MPD2    C513450   4.539   1.447  15.538 -0.4484  0.2219 -0.9217
  915MPD2     H13451   4.432   1.812  15.500 -1.0367  0.2687  1.4794
  915MPD2    H113452   4.676   1.518  15.689 -0.7365  1.2443  1.6025
  915MPD2    H213453   4.400   1.394  15.393  1.2525 -0.5516 -0.3970
  915MPD2    H313454   4.570   1.345  15.556 -1.2308  0.4906  1.8051
  915MPD2     N13455   4.590   1.778  15.697  0.4235  0.5395 -0.0678
  915MPD2    H513456   4.533   1.862  15.694 -1.7049 -0.9397 -0.8487
  915MPD2    N113457   4.339   1.646  15.313  0.3844  0.3757 -0.3884
  915MPD2    H713458   4.322   1.746  15.303 -0.4286  0.3265  0.4877
  916MPD2     C13459   2.803   4.378  15.772 -0.0479 -0.2848  0.1637
  916MPD2    C113460   2.840   4.298  15.877  0.2459 -0.4509  0.7276
  916MPD2    C213461   2.966   4.232  15.883 -0.1440 -0.5946 -1.1084
  916MPD2    C313462   3.053   4.232  15.773 -0.3051 -0.2006  0.4765
  916MPD2    C413463   3.013   4.311  15.673  0.7371 -0.1563  0.6494
  916MPD2    C513464   2.897   4.389  15.675 -0.3186 -0.3551  0.1685
  916MPD2     H13465   2.993   4.175  15.972 -1.0482  2.5997  1.1828
  916MPD2    H113466   3.080   4.333  15.590 -0.0924 -0.9806 -0.2340
  916MPD2    H213467   2.719   4.445  15.786  0.5517  0.2695  1.0744
  916MPD2    H313468   2.876   4.462  15.598 -0.1543 -1.1159 -0.5921
  916MPD2     N13469   3.174   4.155  15.770 -0.2820 -0.0081 -0.1755
  916MPD2    H513470   3.200   4.106  15.856 -1.8851 -1.1400 -0.3287
  916MPD2    N113471   2.744   4.304  15.979 -0.3083 -0.1331  0.0815
  916MPD2    H713472   2.652   4.342  15.960 -0.3746  0.0684  0.7924
  917MPD2     C13473   3.631   1.373  11.844  0.7501  0.4751  0.7329
  917MPD2    C113474   3.514   1.382  11.764  0.3050  0.4448 -0.2528
  917MPD2    C213475   3.526   1.416  11.628  0.2101  0.2342  0.2976
  917MPD2    C313476   3.656   1.443  11.572 -0.0220 -0.2512  0.6466
  917MPD2    C413477   3.762   1.442  11.656 -0.3641  0.2067 -0.0201
  917MPD2    C513478   3.754   1.397  11.787  0.2124 -0.7043 -0.7239
  917MPD2     H13479   3.439   1.438  11.567  1.1471  1.2068 -0.6842
  917MPD2    H113480   3.859   1.476  11.620 -0.0606 -0.4835  0.1480
  917MPD2    H213481   3.624   1.356  11.950 -2.6792  0.4611  0.4903
  917MPD2    H313482   3.845   1.377  11.843 -0.7799 -1.7018  0.5227
  917MPD2     N13483   3.671   1.499  11.440  0.3251  0.1013  0.2766
  917MPD2    H513484   3.762   1.533  11.411  0.2478  0.7781  0.8097
  917MPD2    N113485   3.384   1.357  11.824 -0.4477  0.1083 -0.1870
  917MPD2    H713486   3.379   1.370  11.924  2.3903 -1.2900  0.1457
  918MPD2     C13487   3.225   1.982  12.361  0.2155 -0.2035  0.2254
  918MPD2    C113488   3.243   1.985  12.223 -0.7234 -0.4618 -0.6155
  918MPD2    C213489   3.192   1.879  12.140  0.1406 -0.7114  0.2720
  918MPD2    C313490   3.148   1.762  12.199  0.2280  0.0648  0.5016
  918MPD2    C413491   3.114   1.766  12.337  0.2034 -0.3809  0.6300
  918MPD2    C513492   3.156   1.873  12.412 -0.0888 -0.4432  0.1048
  918MPD2     H13493   3.211   1.873  12.033 -2.9325  0.3640 -0.3558
  918MPD2    H113494   3.059   1.683  12.382  0.0394 -0.5397  0.1494
  918MPD2    H213495   3.279   2.041  12.434  0.1566 -1.9911  1.7199
  918MPD2    H313496   3.121   1.873  12.514 -0.0197  3.3691  0.1593
  918MPD2     N13497   3.132   1.650  12.112 -0.3875  0.1514  0.1236
  918MPD2    H513498   3.170   1.654  12.018  1.0030  1.7367  0.7617
  918MPD2    N113499   3.325   2.082  12.158  0.1517  0.1692  0.3087
  918MPD2    H713500   3.336   2.075  12.057  1.0591 -0.3977  0.4365
  919MPD2     C13501   3.943   0.704  11.917  0.2287  0.4750  0.5253
  919MPD2    C113502   3.982   0.578  11.876 -0.5103 -0.6115 -0.0155
  919MPD2    C213503   4.012   0.556  11.742  0.1637  0.0344  0.0689
  919MPD2    C313504   4.010   0.660  11.657 -0.1154  0.6256  0.4488
  919MPD2    C413505   3.961   0.781  11.696 -0.6006 -0.0858 -0.8495
  919MPD2    C513506   3.947   0.812  11.832 -0.4382 -0.3850 -0.2776
  919MPD2     H13507   4.037   0.460  11.698 -0.0190  0.9709 -2.0831
  919MPD2    H113508   3.931   0.859  11.627 -0.0341  0.4682 -0.4684
  919MPD2    H213509   3.914   0.721  12.020  2.4491  2.8297  0.7681
  919MPD2    H313510   3.906   0.908  11.864  2.1694  1.2095 -1.7201
  919MPD2     N13511   4.023   0.646  11.516  0.2814 -0.1734 -0.1399
  919MPD2    H513512   3.998   0.730  11.465 -3.1845 -1.4341 -0.5283
  919MPD2    N113513   3.990   0.462  11.965  0.0326  0.3833 -0.5483
  919MPD2    H713514   4.038   0.379  11.931  0.6806  0.5519 -0.0447
  920MPD2     C13515   3.730   1.090  10.685 -0.3251  0.4160 -0.3766
  920MPD2    C113516   3.649   0.982  10.708 -0.3513  0.5393  0.3882
  920MPD2    C213517   3.694   0.884  10.796  0.1624 -0.2492  0.1097
  920MPD2    C313518   3.802   0.900  10.879 -0.2736 -0.6871 -0.1191
  920MPD2    C413519   3.882   1.018  10.857  0.0193 -0.2277 -0.0785
  920MPD2    C513520   3.844   1.098  10.755 -0.4950  0.2661 -0.0400
  920MPD2     H13521   3.629   0.798  10.808  0.5415 -0.8446 -2.1067
  920MPD2    H113522   3.969   1.055  10.909 -0.9527  0.8293  0.8035
  920MPD2    H213523   3.706   1.173  10.619  0.9498  1.4676  0.4799
  920MPD2    H313524   3.903   1.185  10.729  0.7014 -0.3646  0.5048
  920MPD2     N13525   3.843   0.802  10.972  0.8499 -0.0819  0.3352
  920MPD2    H513526   3.787   0.718  10.980 -0.1302  0.4198 -1.4143
  920MPD2    N113527   3.523   0.961  10.642 -0.3667  0.3069 -0.1563
  920MPD2    H713528   3.468   0.881  10.672  1.2495 -0.1012  1.6995
  921MPD2     C13529   0.244   0.126  17.051  0.0447  0.2299  0.3670
  921MPD2    C113530   0.254   0.217  16.951 -0.2208  0.5073  0.1637
  921MPD2    C213531   0.157   0.225  16.853 -0.4151  0.0104  0.3646
  921MPD2    C313532   0.046   0.142  16.852  0.6379  0.5095 -0.4151
  921MPD2    C413533   0.035   0.050  16.951 -0.6013 -0.3033 -0.3103
  921MPD2    C513534   0.133   0.045  17.053 -0.2164  0.0312 -0.0240
  921MPD2     H13535   0.176   0.295  16.772 -0.0919  2.4561  2.5566
  921MPD2    H113536   4.685   4.730  16.961  0.5395 -1.9351  0.2068
  921MPD2    H213537   0.322   0.123  17.126  1.9532 -0.3350 -1.6365
  921MPD2    H313538   0.118   4.708  17.129 -2.6877  0.4032 -0.1496
  921MPD2     N13539   4.689   0.166  16.758  0.5284  0.3813 -0.0016
  921MPD2    H513540   4.692   0.255  16.710  2.1115 -0.9886 -2.4153
  921MPD2    N113541   0.369   0.295  16.957  0.0846  0.6857 -0.3191
  921MPD2    H713542   0.433   0.279  17.035 -0.4594 -0.5619 -0.1201
  922MPD2     C13543   0.642   2.673  16.843  0.6195 -0.0398  0.3643
  922MPD2    C113544   0.691   2.734  16.957 -0.4429  0.3420  0.0158
  922MPD2    C213545   0.630   2.710  17.076  0.1155  0.1991  0.9292
  922MPD2    C313546   0.518   2.638  17.080  0.3333 -0.1077 -0.4602
  922MPD2    C413547   0.463   2.581  16.967  0.7586 -0.4108  0.4186
  922MPD2    C513548   0.530   2.597  16.852  0.5548 -0.1575  0.6271
  922MPD2     H13549   0.681   2.743  17.167  0.3317 -0.6635  1.1242
  922MPD2    H113550   0.381   2.512  16.975 -0.1735  0.5452 -0.9748
  922MPD2    H213551   0.689   2.688  16.746  0.4133  1.5370  0.5008
  922MPD2    H313552   0.481   2.565  16.761  0.3212 -0.1317  0.7422
  922MPD2     N13553   0.434   2.621  17.194  0.7021 -0.2318  0.6438
  922MPD2    H513554   0.354   2.561  17.177 -0.2822  1.8169 -1.9636
  922MPD2    N113555   0.810   2.813  16.954  0.0632 -0.3624  0.8625
  922MPD2    H713556   0.814   2.882  17.029  1.5045  1.2978 -0.7525
  923MPD2     C13557   1.818   4.275   9.126 -0.1864 -0.2335 -0.1072
  923MPD2    C113558   1.867   4.347   9.236  0.7704 -0.3570  0.7536
  923MPD2    C213559   1.993   4.326   9.281 -0.1215  0.1767 -0.4046
  923MPD2    C313560   2.073   4.218   9.228  0.6391  0.4196  0.1337
  923MPD2    C413561   2.029   4.147   9.119  0.2119  0.2842 -0.1981
  923MPD2    C513562   1.895   4.170   9.077  0.3294 -0.1977  0.5439
  923MPD2     H13563   2.034   4.382   9.365  2.8287  0.3677 -1.9379
  923MPD2    H113564   2.085   4.071   9.066  1.5188 -0.5193  2.3798
  923MPD2    H213565   1.718   4.280   9.086  0.0118 -0.3696 -0.6177
  923MPD2    H313566   1.860   4.107   8.996  0.6010  1.9754 -1.2455
  923MPD2     N13567   2.198   4.188   9.275  0.8009  0.3119 -0.1582
  923MPD2    H513568   2.240   4.101   9.245  0.4037  0.7051 -1.8487
  923MPD2    N113569   1.781   4.442   9.289  0.0521  0.1503 -0.0325
  923MPD2    H713570   1.685   4.431   9.257 -0.2325  1.1548  0.4856
  924MPD2     C13571   2.152   3.027  15.733 -0.2414 -0.1006 -0.4241
  924MPD2    C113572   2.101   3.141  15.685 -0.3431  0.2174  0.1557
  924MPD2    C213573   2.106   3.252  15.764 -0.2320  0.1911 -0.7594
  924MPD2    C313574   2.162   3.252  15.891  0.4095  0.0254  0.4930
  924MPD2    C413575   2.210   3.135  15.939  0.5742  0.2850  0.0891
  924MPD2    C513576   2.201   3.024  15.863 -0.0823  0.1262  0.3551
  924MPD2     H13577   2.072   3.348  15.727  2.1257  1.0667 -0.6274
  924MPD2    H113578   2.247   3.122  16.040  1.3686 -2.1254 -0.5024
  924MPD2    H213579   2.147   2.939  15.669  0.9180  0.1047 -0.8187
  924MPD2    H313580   2.238   2.932  15.908 -1.8664 -1.5558 -1.6208
  924MPD2     N13581   2.170   3.367  15.970  0.3200 -0.2672  0.5475
  924MPD2    H513582   2.183   3.362  16.071 -1.0664 -1.5958  0.6673
  924MPD2    N113583   2.024   3.141  15.565 -0.2038 -0.1694 -0.0798
  924MPD2    H713584   2.011   3.052  15.518 -0.8888 -0.5126  0.7517
  925MPD2     C13585   0.546   1.320  14.524  0.2953 -0.6531 -0.7110
  925MPD2    C113586   0.659   1.250  14.541 -0.4308 -0.0574  0.0401
  925MPD2    C213587   0.700   1.227  14.670 -0.1330  0.5555  0.2600
  925MPD2    C313588   0.637   1.284  14.780 -0.8768 -0.1496  0.5146
  925MPD2    C413589   0.532   1.365  14.761  0.1997 -0.5488 -0.5397
  925MPD2    C513590   0.483   1.379  14.633  0.4072  0.0889 -0.1410
  925MPD2     H13591   0.788   1.167  14.690 -0.0938 -0.1694 -2.0758
  925MPD2    H113592   0.493   1.415  14.849 -0.3169  0.4522 -1.3273
  925MPD2    H213593   0.505   1.330  14.424  2.6531 -0.4117 -1.6462
  925MPD2    H313594   0.414   1.458  14.608 -0.1089  0.5309  2.7116
  925MPD2     N13595   0.668   1.242  14.910 -1.1472  0.1447  0.3437
  925MPD2    H513596   0.607   1.277  14.983 -0.0918  0.4620  1.0739
  925MPD2    N113597   0.710   1.182  14.435  0.0246 -0.2556 -0.1854
  925MPD2    H713598   0.656   1.197  14.350  0.9230  0.8597 -0.5545
  926MPD2     C13599   4.694   3.936  13.351  0.0624 -0.1958 -0.3521
  926MPD2    C113600   4.601   3.940  13.251  0.4008 -0.2390  0.4248
  926MPD2    C213601   4.637   3.964  13.120  0.3955 -0.1324  0.6209
  926MPD2    C313602   0.033   3.985  13.092  0.3589 -0.5104 -0.3780
  926MPD2    C413603   0.122   3.979  13.190  0.1053 -0.2636 -0.3291
  926MPD2    C513604   0.085   3.964  13.319  0.3734 -0.0772  0.4079
  926MPD2     H13605   4.566   3.949  13.040  0.6773 -1.7149  0.6843
  926MPD2    H113606   0.226   3.990  13.160  0.0662 -2.3704 -1.2336
  926MPD2    H213607   4.669   3.941  13.456  1.3915 -0.0199 -0.0478
  926MPD2    H313608   0.162   3.968  13.395  1.9103 -0.6843 -1.1435
  926MPD2     N13609   0.082   3.998  12.960 -0.2323  0.3379 -0.1194
  926MPD2    H513610   0.177   4.028  12.946  0.5024 -2.3584 -0.9570
  926MPD2    N113611   4.465   3.929  13.283 -0.4262 -0.1033 -0.7627
  926MPD2    H713612   4.404   3.967  13.211  0.7808  1.6553 -0.8621
  927MPD2     C13613   4.278   1.547  17.724 -0.2483  0.2507 -0.8607
  927MPD2    C113614   4.172   1.626  17.679  0.3404  0.5136  1.0992
  927MPD2    C213615   4.165   1.675  17.554 -0.1264 -0.5002 -0.0186
  927MPD2    C313616   4.285   1.662  17.480  0.0327  0.0396  0.1994
  927MPD2    C413617   4.391   1.586  17.520  0.5062 -0.2173 -0.3786
  927MPD2    C513618   4.389   1.535  17.646 -0.3430 -0.4491 -0.1390
  927MPD2     H13619   4.088   1.739  17.512  0.8118  1.2805  0.9787
  927MPD2    H113620   4.484   1.573  17.468  0.7121  0.6810 -0.2319
  927MPD2    H213621   4.278   1.503   0.066 -0.9177  0.8625 -0.5917
  927MPD2    H313622   4.467   1.472  17.687 -0.8276 -0.4510  0.7771
  927MPD2     N13623   4.279   1.722  17.352 -0.4804  0.0269  0.3816
  927MPD2    H513624   4.195   1.774  17.329 -0.7973 -0.6299  0.0531
  927MPD2    N113625   4.062   1.649   0.007  0.5330  0.0756 -0.7129
  927MPD2    H713626   4.071   1.598   0.094 -1.2238 -1.3228 -1.3671
  928MPD2     C13627   1.853   4.307   0.555 -0.0862  0.4492 -0.0537
  928MPD2    C113628   1.929   4.425   0.562  0.2922 -0.1773 -0.1950
  928MPD2    C213629   1.958   4.491   0.444 -0.8507  0.2709  0.5442
  928MPD2    C313630   1.895   4.453   0.321 -1.4463 -0.7605  0.3014
  928MPD2    C413631   1.829   4.336   0.320  0.0828  0.4681 -0.3806
  928MPD2    C513632   1.814   4.253   0.431 -0.1285  0.2198  0.8958
  928MPD2     H13633   2.007   4.584   0.468  1.0063 -0.4806 -0.3785
  928MPD2    H113634   1.804   4.305   0.219  0.5410 -1.6767  0.1581
  928MPD2    H213635   1.838   4.243   0.641  0.0712  1.6839  0.8935
  928MPD2    H313636   1.760   4.162   0.407 -0.2317  0.6585 -0.5915
  928MPD2     N13637   1.906   4.528   0.202  0.1276  0.2464 -0.0047
  928MPD2    H513638   1.839   4.505   0.129  0.7964 -0.5927 -0.3519
  928MPD2    N113639   1.980   4.475   0.679  0.1571 -0.1273 -0.3797
  928MPD2    H713640   2.029   4.564   0.670  0.2454 -0.1714 -0.3280
  929MPD2     C13641   2.154   3.991  10.450  0.1477 -0.7628 -0.0449
  929MPD2    C113642   2.040   3.914  10.465 -0.8946 -0.9876 -0.2211
  929MPD2    C213643   1.937   3.937  10.378  0.2243 -0.6518 -0.1150
  929MPD2    C313644   1.935   4.057  10.305  0.3653 -0.0163 -0.3178
  929MPD2    C413645   2.043   4.143  10.311 -0.1069  0.1447  0.0368
  929MPD2    C513646   2.158   4.100  10.368 -0.6032 -1.1618 -0.6052
  929MPD2     H13647   1.849   3.873  10.380 -1.7393  2.1310  1.6281
  929MPD2    H113648   2.040   4.240  10.264  0.3039  0.7153  1.1884
  929MPD2    H213649   2.244   3.960  10.503 -0.5994 -1.9712  0.5191
  929MPD2    H313650   2.256   4.138  10.341 -0.8000 -1.8503 -2.2511
  929MPD2     N13651   1.818   4.106  10.242  0.1374 -0.5307  0.4457
  929MPD2    H513652   1.819   4.205  10.218 -3.2474 -0.9660 -1.4618
  929MPD2    N113653   2.042   3.810  10.564 -0.3934  0.3208 -0.6313
  929MPD2    H713654   2.127   3.810  10.620 -0.7285  1.5242 -0.1182
  930MPD2     C13655   4.119   1.372  13.380  0.5527  0.1845 -0.2656
  930MPD2    C113656   4.078   1.490  13.338  0.3137  0.2598 -0.1947
  930MPD2    C213657   4.103   1.530  13.207 -0.4605  1.0673  0.8316
  930MPD2    C313658   4.173   1.454  13.123  0.7721  0.0210 -0.1299
  930MPD2    C413659   4.212   1.330  13.170  0.7436  0.3205 -0.8955
  930MPD2    C513660   4.187   1.287  13.301  0.2874 -0.6945 -1.1836
  930MPD2     H13661   4.072   1.629  13.175 -0.6762  0.3292 -1.2303
  930MPD2    H113662   4.276   1.269  13.108  1.0508  0.9920 -1.2391
  930MPD2    H213663   4.103   1.351  13.485  0.7629 -3.1149 -0.9121
  930MPD2    H313664   4.230   1.194  13.335 -1.0038 -0.6733  0.5449
  930MPD2     N13665   4.219   1.502  12.993 -0.0756 -0.2735 -0.4691
  930MPD2    H513666   4.303   1.459  12.956 -1.4376 -0.9150 -2.7735
  930MPD2    N113667   4.040   1.581  13.440  0.7031  0.0657 -0.0505
  930MPD2    H713668   4.048   1.548  13.536  0.6217 -2.5691 -0.9396
  931MPD2     C13669   4.122   1.510   0.549  0.1049  0.1882  0.3386
  931MPD2    C113670   3.991   1.565   0.567  0.2388  0.2508  0.1256
  931MPD2    C213671   3.929   1.560   0.692  0.4175 -0.3872 -0.2580
  931MPD2    C313672   3.993   1.490   0.794 -0.4106  0.3407  0.5551
  931MPD2    C413673   4.124   1.445   0.782 -0.1832 -0.1574  0.5544
  931MPD2    C513674   4.187   1.458   0.657 -0.0696  0.5576 -0.3296
  931MPD2     H13675   3.828   1.598   0.698  0.2206 -0.6249 -1.8950
  931MPD2    H113676   4.173   1.390   0.861  2.9726  1.2379 -0.4299
  931MPD2    H213677   4.168   1.504   0.451 -0.0351  0.5191  0.2522
  931MPD2    H313678   4.285   1.413   0.650 -0.4449 -0.3108  0.0374
  931MPD2     N13679   3.930   1.455   0.912 -0.1297  0.0648  0.2173
  931MPD2    H513680   3.974   1.376   0.958  1.9921  1.6421  0.8985
  931MPD2    N113681   3.930   1.605   0.449 -0.3590 -0.2591 -0.8045
  931MPD2    H713682   3.977   1.595   0.360  0.9434 -0.6362 -0.0743
  932MPD2     C13683   0.762   0.769  11.588  0.2394 -0.2139  0.0053
  932MPD2    C113684   0.846   0.756  11.479  0.0937  0.0906  0.2833
  932MPD2    C213685   0.870   0.627  11.424 -0.2569  0.6453  0.8691
  932MPD2    C313686   0.809   0.513  11.472  0.2548 -0.2250  0.1018
  932MPD2    C413687   0.722   0.531  11.576  0.2307 -0.0938 -0.0139
  932MPD2    C513688   0.702   0.657  11.629 -0.4317  0.3529  0.0041
  932MPD2     H13689   0.947   0.626  11.347 -1.1398 -0.1494 -0.0081
  932MPD2    H113690   0.666   0.451  11.622 -0.1890 -0.9489 -1.9827
  932MPD2    H213691   0.754   0.861  11.645 -3.0306  0.0314 -0.8201
  932MPD2    H313692   0.648   0.663  11.723 -0.4371 -1.9628  0.1548
  932MPD2     N13693   0.837   0.383  11.424  0.0828 -0.2187 -0.1745
  932MPD2    H513694   0.779   0.309  11.460 -1.4166  1.3904  0.7084
  932MPD2    N113695   0.924   0.856  11.426  0.2216  0.0140  0.0119
  932MPD2    H713696   0.982   0.827  11.349 -0.4067  5.0230 -2.3857
  933MPD2     C13697   1.992   0.327   1.274  0.0815 -0.8497  0.3143
  933MPD2    C113698   1.956   0.297   1.144 -0.5123  0.5549  0.0339
  933MPD2    C213699   1.864   0.372   1.078  0.3077  0.5662  1.0633
  933MPD2    C313700   1.808   0.491   1.127 -0.7328 -0.1508 -0.2729
  933MPD2    C413701   1.840   0.524   1.257 -0.0600 -0.1472 -0.3579
  933MPD2    C513702   1.936   0.441   1.327 -0.4035  0.3185  0.1763
  933MPD2     H13703   1.823   0.342   0.982  1.4941  0.7814  0.5003
  933MPD2    H113704   1.794   0.603   1.316 -0.2356 -0.1105 -0.5429
  933MPD2    H213705   2.071   0.274   1.327  2.0899  1.1086 -0.7100
  933MPD2    H313706   1.959   0.462   1.431 -0.0586 -0.7426  0.3067
  933MPD2     N13707   1.727   0.575   1.052 -0.1424  0.5308  0.3465
  933MPD2    H513708   1.707   0.546   0.957  0.9295  1.2936 -0.1131
  933MPD2    N113709   2.014   0.178   1.102  0.1564  0.7626  0.3591
  933MPD2    H713710   2.068   0.123   1.168  0.6957  1.1033  0.2016
  934MPD2     C13711   2.498   2.868   1.535  0.6237  0.3241 -0.3031
  934MPD2    C113712   2.599   2.789   1.481  0.5019 -0.0803 -0.6842
  934MPD2    C213713   2.559   2.683   1.398 -0.8701 -0.9466 -0.1611
  934MPD2    C313714   2.427   2.671   1.353 -0.4097  0.6577 -0.8376
  934MPD2    C413715   2.333   2.767   1.400 -0.0254 -0.4913  1.1200
  934MPD2    C513716   2.370   2.856   1.489  0.5698  0.0492  0.2040
  934MPD2     H13717   2.636   2.611   1.374  0.4448  0.3601  0.1965
  934MPD2    H113718   2.227   2.760   1.375  0.9042  2.0364 -3.5272
  934MPD2    H213719   2.526   2.938   1.613  0.1930  2.1756 -1.8022
  934MPD2    H313720   2.291   2.911   1.537 -0.0890  0.4502 -1.3538
  934MPD2     N13721   2.382   2.568   1.266 -0.0128 -0.0116 -0.1349
  934MPD2    H513722   2.285   2.570   1.236 -0.8825 -1.2829  2.6449
  934MPD2    N113723   2.736   2.804   1.515  0.4474  0.6340 -0.3315
  934MPD2    H713724   2.799   2.746   1.461 -1.3460 -1.6339  0.0080
  935MPD2     C13725   2.776   1.690   0.883 -0.2674 -0.2288  0.2046
  935MPD2    C113726   2.689   1.741   0.785 -0.5099  0.1981  0.2439
  935MPD2    C213727   2.624   1.856   0.809 -0.4199 -0.0919  0.0347
  935MPD2    C313728   2.627   1.915   0.938  0.4816 -0.0350  0.3482
  935MPD2    C413729   2.713   1.864   1.034  0.1752 -0.2627  0.2209
  935MPD2    C513730   2.787   1.749   1.006  0.5840  0.4361 -0.1479
  935MPD2     H13731   2.556   1.901   0.737  1.4898  1.2146 -0.9624
  935MPD2    H113732   2.739   1.901   1.132 -0.4501  1.0066 -0.0954
  935MPD2    H213733   2.833   1.598   0.882 -0.3548 -0.2895  1.2198
  935MPD2    H313734   2.859   1.713   1.079 -1.2289  1.0004  1.9389
  935MPD2     N13735   2.584   2.048   0.956 -0.3524  0.0016 -0.3735
  935MPD2    H513736   2.584   2.085   1.051  1.9047  0.4514 -0.5541
  935MPD2    N113737   2.668   1.674   0.661 -0.1956 -0.8398  0.0517
  935MPD2    H713738   2.603   1.721   0.598  2.2686 -1.4642 -2.9254
  936MPD2     C13739   1.549   4.254  12.517 -0.6118 -0.2590 -0.0813
  936MPD2    C113740   1.600   4.158  12.603 -0.7691 -0.1066 -0.2476
  936MPD2    C213741   1.696   4.202  12.688 -0.2412 -0.1170 -0.3749
  936MPD2    C313742   1.746   4.332  12.693 -0.5602 -0.0677 -0.8178
  936MPD2    C413743   1.683   4.431  12.614  0.3049  0.5407  0.0546
  936MPD2    C513744   1.587   4.386  12.528 -0.4890  0.3074  0.0504
  936MPD2     H13745   1.743   4.125  12.749 -1.3260  1.2776  2.2021
  936MPD2    H113746   1.738   4.524  12.601  1.5952 -0.3335 -0.7038
  936MPD2    H213747   1.482   4.228  12.437 -1.6504  1.3836  0.2609
  936MPD2    H313748   1.541   4.456  12.459  1.7165  1.3676 -0.3481
  936MPD2     N13749   1.853   4.357  12.784  0.1692 -0.5961  0.0119
  936MPD2    H513750   1.891   4.273  12.827  1.0720  0.1326  0.6393
  936MPD2    N113751   1.575   4.020  12.597 -0.3012  0.1127 -0.7586
  936MPD2    H713752   1.623   3.959  12.661 -2.4278 -0.6511  0.1215
  937MPD2     C13753   4.046   4.531  11.888 -0.1277 -0.3455 -0.4318
  937MPD2    C113754   4.123   4.641  11.885 -0.2682  0.1530 -0.7156
  937MPD2    C213755   4.200   4.666  11.778  0.4623 -0.0516  0.8715
  937MPD2    C313756   4.203   4.577  11.672 -0.8495  0.5366 -0.0221
  937MPD2    C413757   4.129   4.458  11.675 -0.0567 -0.7166 -0.6730
  937MPD2    C513758   4.054   4.444  11.784  0.5151 -0.2131 -0.1837
  937MPD2     H13759   4.253   0.020  11.773 -0.5210  0.3291 -2.4554
  937MPD2    H113760   4.104   4.408  11.582  0.8065 -1.8239 -0.3040
  937MPD2    H213761   3.980   4.511  11.971 -0.4984 -0.9860 -0.8762
  937MPD2    H313762   3.982   4.363  11.779  0.0386  0.2620 -1.2263
  937MPD2     N13763   4.277   4.608  11.559  0.2077  0.2088 -0.3807
  937MPD2    H513764   4.340   4.687  11.561  0.9039 -0.3899  1.3031
  937MPD2    N113765   4.093   0.011  11.973  0.0561 -0.2169 -0.3814
  937MPD2    H713766   4.129   0.103  11.949  1.2437 -0.5112  0.3015
  938MPD2     C13767   1.908   2.102   0.317  0.2872  0.1939 -0.3650
  938MPD2    C113768   1.897   2.120   0.459  0.4064  0.2685  0.0889
  938MPD2    C213769   1.878   2.011   0.547  0.1416 -0.2521 -0.1435
  938MPD2    C313770   1.859   1.882   0.498 -0.0346 -0.5805  0.9397
  938MPD2    C413771   1.857   1.863   0.362  0.2365 -0.5325 -0.4724
  938MPD2    C513772   1.892   1.969   0.280  0.6645 -0.5020 -0.2959
  938MPD2     H13773   1.897   2.020   0.653  0.0610 -2.0143  0.0172
  938MPD2    H113774   1.838   1.766   0.317 -0.8838 -0.7338  0.4226
  938MPD2    H213775   1.928   2.182   0.247  2.6143 -1.3255 -1.4073
  938MPD2    H313776   1.889   1.952   0.173  0.0327 -0.5595 -0.2738
  938MPD2     N13777   1.829   1.770   0.582  0.2160 -0.4895  0.2690
  938MPD2    H513778   1.818   1.680   0.536 -1.4145 -0.4727  0.6301
  938MPD2    N113779   1.913   2.250   0.505 -0.0668 -0.5010 -0.6814
  938MPD2    H713780   1.929   2.267   0.603 -2.2101 -0.0134 -0.4143
  939MPD2     C13781   3.130   3.602   0.217  1.0069 -0.4597 -0.1114
  939MPD2    C113782   3.122   3.491   0.300 -0.0581 -0.0963  0.7340
  939MPD2    C213783   3.090   3.374   0.226 -0.2678 -1.0730  0.3525
  939MPD2    C313784   3.092   3.360   0.089 -0.4587 -0.1989 -0.2423
  939MPD2    C413785   3.121   3.469   0.011  0.9368  0.6635  0.3756
  939MPD2    C513786   3.129   3.589   0.080 -0.4002 -0.1735 -0.4948
  939MPD2     H13787   3.082   3.282   0.281 -3.1711 -0.6144  0.6968
  939MPD2    H113788   3.109   3.469  17.661  0.4035  1.3339  0.4318
  939MPD2    H213789   3.168   3.695   0.259  1.3830 -0.2348 -0.9565
  939MPD2    H313790   3.130   3.685   0.030  0.0983 -0.8098 -1.7240
  939MPD2     N13791   3.073   3.224   0.035  0.1904  0.6190 -0.3599
  939MPD2    H513792   3.044   3.158   0.105  4.0610 -1.0018 -0.2685
  939MPD2    N113793   3.136   3.495   0.443  1.0097 -0.4386 -0.6099
  939MPD2    H713794   3.165   3.586   0.477 -1.3843  0.7417 -1.7450
  940MPD2     C13795   2.585   3.555  13.061  0.1535  0.9776 -0.0245
  940MPD2    C113796   2.508   3.451  13.033 -0.0497  0.0518  0.2748
  940MPD2    C213797   2.456   3.424  12.907  0.1646 -0.5980 -0.0873
  940MPD2    C313798   2.492   3.510  12.807  0.2028  0.0771  0.2125
  940MPD2    C413799   2.577   3.620  12.831  0.0613 -0.0512  0.2663
  940MPD2    C513800   2.622   3.632  12.957 -0.3002  0.3930  0.2117
  940MPD2     H13801   2.391   3.339  12.890 -0.8115  0.0423  0.4845
  940MPD2    H113802   2.623   3.685  12.758  1.4323 -0.5227  0.7133
  940MPD2    H213803   2.607   3.580  13.165  3.7552  0.5269 -0.6899
  940MPD2    H313804   2.692   3.714  12.973  0.6010 -0.2288 -0.5441
  940MPD2     N13805   2.455   3.495  12.674 -0.5668 -0.0685  0.2674
  940MPD2    H513806   2.490   3.564  12.608 -4.4904  0.2410 -1.4745
  940MPD2    N113807   2.455   3.370  13.134 -0.5200  0.2642  0.5708
  940MPD2    H713808   2.386   3.302  13.104 -0.5758  1.1924 -1.3894
  941MPD2     C13809   1.104   2.666   9.712 -0.3358  0.6409  0.0449
  941MPD2    C113810   1.218   2.615   9.767 -0.0136  0.3140  0.3266
  941MPD2    C213811   1.220   2.491   9.835 -0.1124 -0.8044  0.0237
  941MPD2    C313812   1.108   2.415   9.838 -0.7588 -0.2960  0.7429
  941MPD2    C413813   0.988   2.463   9.784  0.4734  0.1467  0.4421
  941MPD2    C513814   0.991   2.595   9.734 -0.1459  0.5176  0.3892
  941MPD2     H13815   1.312   2.454   9.880  0.2687  1.2640  0.9236
  941MPD2    H113816   0.895   2.409   9.796  0.5972 -0.0427  0.5468
  941MPD2    H213817   1.094   2.762   9.661  0.5278  1.2132  0.9725
  941MPD2    H313818   0.892   2.630   9.709 -0.4858 -1.4538 -1.0318
  941MPD2     N13819   1.106   2.284   9.897 -0.6676  0.2663  0.2484
  941MPD2    H513820   1.014   2.254   9.927 -0.7884 -0.1721 -0.5494
  941MPD2    N113821   1.342   2.683   9.766 -0.1192 -0.4545  0.1454
  941MPD2    H713822   1.418   2.652   9.826 -0.6686 -0.8879  0.6139
  942MPD2     C13823   0.815   0.328  10.012 -0.1537 -0.3095  0.0869
  942MPD2    C113824   0.758   0.197  10.008 -0.1963  0.6147  0.7250
  942MPD2    C213825   0.809   0.103   9.919 -0.6708  0.0515  0.3791
  942MPD2    C313826   0.920   0.130   9.838 -0.3795 -0.0828 -1.1186
  942MPD2    C413827   0.979   0.252   9.853 -0.0753 -0.3189  0.0297
  942MPD2    C513828   0.926   0.344   9.939  0.4874 -0.2183  0.4688
  942MPD2     H13829   0.772   0.002   9.924  0.3771 -0.2981  1.1853
  942MPD2    H113830   1.071   0.284   9.805  0.2901  0.9042  1.5334
  942MPD2    H213831   0.791   0.407  10.082 -0.0791  1.5414 -1.9686
  942MPD2    H313832   0.974   0.441   9.938  0.1749 -0.0684 -0.0967
  942MPD2     N13833   0.982   0.035   9.757 -0.1631  0.1035 -0.3433
  942MPD2    H513834   1.079   0.051   9.732  0.2158 -0.0856  1.0028
  942MPD2    N113835   0.641   0.167  10.088  0.2015  0.4919 -0.7824
  942MPD2    H713836   0.616   0.068  10.087  0.1721  0.4765  1.0805
  943MPD2     C13837   4.064   2.325   9.333  0.1470 -0.4260 -0.0613
  943MPD2    C113838   4.017   2.263   9.443  0.1544 -0.4457 -0.1735
  943MPD2    C213839   4.088   2.272   9.561  0.2782  1.0730 -0.2382
  943MPD2    C313840   4.207   2.334   9.567  0.1913  0.2688  0.0166
  943MPD2    C413841   4.257   2.398   9.454 -0.3996  0.5641 -0.2526
  943MPD2    C513842   4.181   2.398   9.340  0.1566  0.1321  0.1290
  943MPD2     H13843   4.052   2.225   9.652  4.9773 -0.0203  1.0844
  943MPD2    H113844   4.351   2.451   9.455  1.0946 -2.0877 -1.1459
  943MPD2    H213845   3.997   2.333   9.249  2.2635  0.4107 -1.6504
  943MPD2    H313846   4.205   2.463   9.257  0.8291 -0.8664 -0.4641
  943MPD2     N13847   4.272   2.331   9.689  0.4852 -0.3303 -0.1961
  943MPD2    H513848   4.220   2.284   9.763 -2.3080  1.5782 -0.9610
  943MPD2    N113849   3.894   2.193   9.441 -0.7190 -0.8428  0.6100
  943MPD2    H713850   3.843   2.213   9.356 -2.6769 -0.3591  1.8738
  944MPD2     C13851   4.648   1.739  11.015  0.0164 -0.2633 -0.1176
  944MPD2    C113852   4.581   1.731  11.135  0.3749 -0.4921  0.6426
  944MPD2    C213853   4.472   1.819  11.158  0.8496  0.1447 -0.3498
  944MPD2    C313854   4.451   1.917  11.063 -0.0645 -0.0358 -0.8708
  944MPD2    C413855   4.527   1.931  10.949  0.5890 -0.3155  0.8431
  944MPD2    C513856   4.629   1.845  10.935 -0.0441 -0.6008  0.5230
  944MPD2     H13857   4.409   1.820  11.245  1.7103 -1.1989  0.2971
  944MPD2    H113858   4.511   2.006  10.873 -0.8422 -0.5970  0.8713
  944MPD2    H213859   4.720   1.663  10.986  1.9450  1.6191 -0.2256
  944MPD2    H313860   4.680   1.855  10.840  2.0635 -0.5808  1.6516
  944MPD2     N13861   4.350   2.009  11.099  0.3968 -0.2093  0.7552
  944MPD2    H513862   4.298   1.978  11.181  0.3907 -0.9818  0.4573
  944MPD2    N113863   4.614   1.622  11.221  0.1699  0.3666  0.6467
  944MPD2    H713864   4.687   1.559  11.189  1.3645 -0.4608  4.9497
    1TMC1    C113865   2.912   2.032  14.255  0.0062 -0.0327 -0.1669
    1TMC1    C213866   2.883   1.920  14.330 -0.0105  0.3341 -0.1672
    1TMC1    C313867   2.777   1.846  14.292  0.5077 -0.4772  0.3889
    1TMC1    C413868   2.848   2.061  14.136 -0.5628 -1.4047 -0.2527
    1TMC1    C513869   2.740   1.987  14.100  0.7431  0.0839  0.3595
    1TMC1    C613870   2.700   1.882  14.181 -0.2067 -0.4839 -0.6013
    1TMC1     C13871   3.000   2.132  14.312 -0.0580 -0.1668 -0.6929
    1TMC1     O13872   3.061   2.097  14.412  0.4381  0.5920 -0.5929
    1TMC1     H13873   2.924   1.919  14.431 -0.8186  3.9931  0.2102
    1TMC1    H113874   2.892   2.131  14.067 -2.1835  0.1227  0.2560
    1TMC1    H213875   2.609   1.827  14.160  1.8646 -3.2521 -2.4153
    1TMC1    C713876   2.698   1.985  13.956 -0.2115 -0.5393  0.4108
    1TMC1    C813877   2.725   1.756  14.385  0.5226 -0.1847 -0.4624
    1TMC1    O113878   2.648   1.890  13.900  0.1176 -0.0166 -0.5522
    1TMC1    O213879   2.772   1.730  14.495 -0.0313  0.3490  0.8902
    1TMC1    O313880   2.727   2.102  13.895  0.2566 -0.3074  0.0317
    1TMC1    H313881   2.723   2.176  13.959  0.9484  0.4402 -0.7927
    1TMC1    O513882   2.666   1.662  14.309 -0.0480 -0.4501  0.1567
    1TMC1    H513883   2.663   1.678  14.212 -1.2301 -0.4204  0.2023
    2MPD2     C13884   3.212   2.595  14.353  0.0104  0.7230  0.0005
    2MPD2    C113885   3.086   2.621  14.299  0.3645 -0.4911 -0.5428
    2MPD2    C213886   3.024   2.508  14.255  0.2284 -0.6894 -0.3636
    2MPD2    C313887   3.066   2.374  14.298 -0.2192 -0.7830 -0.4112
    2MPD2    C413888   3.185   2.363  14.364 -0.3905 -0.5380  0.3281
    2MPD2    C513889   3.261   2.477  14.383 -0.6038 -0.1506 -0.2555
    2MPD2     H13890   2.930   2.510  14.202  0.1963  2.4928 -0.2162
    2MPD2    H113891   3.231   2.268  14.391  0.9187 -0.2616 -0.9244
    2MPD2    H213892   3.277   2.677  14.383 -2.1963  2.1242  0.9771
    2MPD2    H313893   3.364   2.476  14.418 -1.0607  0.4648  1.0946
    2MPD2     N13894   2.979   2.263  14.265 -0.1787 -0.0323  0.1564
    2MPD2    H513895   2.906   2.284  14.198  1.1930  2.0917 -0.6679
    2MPD2    N113896   3.041   2.751  14.274 -0.1334 -0.4609  0.2866
    2MPD2    H713897   3.100   2.828  14.303  2.5263 -2.3612 -0.0419
    3TMC2    C113898   2.890   2.925  14.214 -0.0058 -0.2591  0.7673
    3TMC2    C213899   2.971   2.984  14.120  0.0246  0.5709 -0.2707
    3TMC2    C313900   2.912   3.082  14.046  0.1424  0.1425  0.0690
    3TMC2    C413901   2.756   2.951  14.219  0.7481 -0.1783 -0.4801
    3TMC2    C513902   2.699   3.044  14.135  0.2289 -0.3320  0.5460
    3TMC2    C613903   2.782   3.119  14.054  0.0265 -0.4094  0.3326
    3TMC2     C13904   2.916   2.783  14.227 -0.2536  0.0524 -0.1195
    3TMC2     O13905   2.819   2.708  14.204  0.3214 -0.4069 -0.2206
    3TMC2     H13906   3.078   2.974  14.113  0.0082  0.0644  0.1651
    3TMC2    H113907   2.696   2.898  14.293  0.5391 -1.9176 -1.9114
    3TMC2    H213908   2.745   3.194  13.986 -3.2751 -0.7242  1.7573
    3TMC2    C713909   2.561   3.029  14.115 -0.1010  0.1410  1.3491
    3TMC2    C813910   2.988   3.160  13.945 -0.1917 -0.7210  0.1317
    3TMC2    O113911   2.513   2.919  14.129 -0.0036 -0.5807  0.3306
    3TMC2    O213912   2.969   3.279  13.946 -0.5751 -0.1338  0.7079
    3TMC2    O513913   2.963   3.088  13.828 -0.6344  0.1403 -0.4881
    3TMC2    H513914   2.973   2.990  13.825  0.4559  0.2119  1.0423
    4TMC2    C113915   1.910   3.800  13.988  1.0528 -0.1654 -0.2064
    4TMC2    C213916   1.955   3.893  14.072  0.2303  0.1071 -0.0230
    4TMC2    C313917   2.083   3.887  14.105  0.1736 -1.1154  0.3384
    4TMC2    C413918   1.977   3.685  13.952  0.2825 -0.4450 -0.2159
    4TMC2    C513919   2.098   3.672  13.999 -0.1874  0.3730  0.1758
    4TMC2    C613920   2.155   3.774  14.078 -0.6520  0.3078  0.0558
    4TMC2     C13921   1.766   3.798  13.967 -0.0246  0.1693 -0.4051
    4TMC2     O13922   1.699   3.849  14.054  0.1154  0.4293  0.1403
    4TMC2     H13923   1.908   3.990  14.083 -0.8393 -0.0597 -2.8945
    4TMC2    H113924   1.937   3.613  13.881 -0.3457 -1.8218  1.5460
    4TMC2    H213925   2.260   3.780  14.103 -1.2405  2.5098  2.0396
    4TMC2    C713926   2.179   3.561  13.967 -0.2541  0.6918 -0.4885
    4TMC2    C813927   2.144   3.991  14.185 -0.4339 -0.4475  0.3008
    4TMC2    O113928   2.295   3.591  13.981 -0.2057 -0.2865 -0.3294
    4TMC2    O213929   2.269   4.003  14.191 -0.2489  0.4331  0.1953
    4TMC2    O513930   2.067   4.027  14.292  0.0185 -0.2496 -0.2556
    4TMC2    H513931   1.973   3.999  14.283  0.1421 -0.5059 -0.7383
    5MPD2     C13932   1.378   3.697  13.650 -0.6070  0.2564  0.1927
    5MPD2    C113933   1.487   3.706  13.570  0.7791  0.2485  0.2252
    5MPD2    C213934   1.610   3.730  13.638  0.0570  0.1253 -0.1220
    5MPD2    C313935   1.621   3.754  13.775 -0.2436 -0.1611 -0.0036
    5MPD2    C413936   1.505   3.766  13.844  0.4353 -0.5102 -0.1988
    5MPD2    C513937   1.381   3.735  13.780  0.1664  0.0604 -0.6646
    5MPD2     H13938   1.704   3.712  13.588 -0.1144 -1.3084  0.0817
    5MPD2    H113939   1.509   3.796  13.949 -2.9701 -1.1242  0.1273
    5MPD2    H213940   1.277   3.676  13.614  0.1211 -1.0671 -1.0828
    5MPD2    H313941   1.290   3.735  13.839 -0.2016  0.1819 -1.2349
    5MPD2     N13942   1.749   3.768  13.835 -0.3613  0.6330  0.3608
    5MPD2    H513943   1.829   3.756  13.773 -2.6308 -1.0952 -2.2280
    5MPD2    N113944   1.473   3.662  13.438 -0.4412 -0.2188  0.2447
    5MPD2    H713945   1.380   3.663  13.396  0.1173  1.4995 -0.9283
    6MPD1     C13946   1.339   0.331  13.606 -0.1439 -0.5725 -0.0449
    6MPD1    C113947   1.331   0.366  13.475  0.4604 -0.3511 -0.4089
    6MPD1    C213948   1.354   0.274  13.379  0.7846 -0.0331  0.3053
    6MPD1    C313949   1.396   0.146  13.408  0.0151 -0.4002 -0.0875
    6MPD1    C413950   1.414   0.116  13.542 -0.3343  0.3492 -0.1729
    6MPD1    C513951   1.384   0.208  13.640  0.0630 -0.4115  0.0205
    6MPD1     H13952   1.338   0.298  13.274  0.1956 -0.5272  0.2793
    6MPD1    H113953   1.472   0.029  13.571 -0.5498 -0.3888 -1.9993
    6MPD1    H213954   1.320   0.403  13.685 -0.4515  0.1354 -0.7796
    6MPD1    H313955   1.411   0.174  13.740 -0.7210 -0.4022  0.2337
    6MPD1     N13956   1.426   0.054  13.311 -0.0237 -0.2045 -0.0664
    6MPD1    H513957   1.473   4.711  13.346  0.4997 -1.0947 -2.8353
    6MPD1    N113958   1.274   0.493  13.438  0.3686 -0.2358 -0.0716
    6MPD1    H613959   1.344   0.562  13.464 -0.2192 -0.7694  2.9344
    6MPD1    H713960   1.259   0.503  13.338 -1.6626  0.4738  0.2967
    7MPD2     C13961   1.235   4.225  12.696 -0.4548 -0.1324  0.4454
    7MPD2    C113962   1.297   4.219  12.821 -0.2191  0.7300  0.3737
    7MPD2    C213963   1.318   4.099  12.891 -0.8735 -0.3351  0.0357
    7MPD2    C313964   1.252   3.991  12.843 -0.3127 -0.3581  0.1598
    7MPD2    C413965   1.175   3.996  12.726  1.0852 -0.4529  0.0195
    7MPD2    C513966   1.172   4.112  12.652  0.1188  0.4280  0.4418
    7MPD2     H13967   1.387   4.095  12.974 -1.3532 -0.8148  0.4106
    7MPD2    H113968   1.128   3.904  12.694  1.0865 -1.3194  2.4923
    7MPD2    H213969   1.233   4.318  12.640  1.1498 -0.7129 -0.6010
    7MPD2    H313970   1.119   4.113  12.558 -0.4143  0.3026  0.7430
    7MPD2     N13971   1.259   3.864  12.906  0.2366  0.0792  0.2256
    7MPD2    H513972   1.244   3.786  12.843  1.5531  1.4772 -1.8295
    7MPD2    N113973   1.353   4.334  12.880  0.0739  0.0604 -0.2480
    7MPD2    H713974   1.399   4.317  12.969  1.6445 -0.6734 -1.2156
    8TMC3    C113975   1.397   3.724  13.046 -0.1475  0.0845  0.5594
    8TMC3    C213976   1.406   3.688  13.181  0.7752 -0.6846  0.0851
    8TMC3    C313977   1.532   3.638  13.214  0.2804  0.4143  0.0877
    8TMC3    C413978   1.500   3.716  12.955  0.2903  0.0651 -0.1802
    8TMC3    C513979   1.623   3.685  12.999  0.2877  0.4562 -0.3087
    8TMC3    C613980   1.637   3.626  13.124 -0.3836 -0.7053 -0.0631
    8TMC3     C13981   1.317   3.842  13.033 -0.0013 -0.2410  0.2364
    8TMC3     O13982   1.328   3.921  13.129 -0.2720 -0.3422 -0.2549
    8TMC3     H13983   1.333   3.727  13.251 -0.5701  0.3448 -1.9265
    8TMC3    H113984   1.493   3.743  12.850  0.9594  1.6292  0.1855
    8TMC3    H213985   1.741   3.607  13.150  0.3077  1.5945 -1.1227
    8TMC3    C713986   1.702   3.804  12.977  0.1399 -0.1643  0.2806
    8TMC3    C813987   1.578   3.662  13.351 -0.3367  0.2881 -0.7189
    8TMC3    O113988   1.654   3.888  12.899  0.1240  0.8004 -0.6181
    8TMC3    O213989   1.700   3.675  13.363  0.3282  0.4329 -0.2201
    9TMC3    C113990   1.455   4.696  13.090  0.1531 -0.4132 -0.1106
    9TMC3    C213991   1.568   4.638  13.139  0.5560 -0.1350  0.5068
    9TMC3    C313992   1.609   4.523  13.084 -0.1561 -0.1337  0.1898
    9TMC3    C413993   1.383   4.659  12.983  0.7282  0.5296 -0.3343
    9TMC3    C513994   1.437   4.548  12.927  0.3585 -0.4493 -0.2962
    9TMC3    C613995   1.542   4.475  12.977 -0.5345 -1.0424 -0.3780
    9TMC3     C13996   1.393   0.060  13.174  1.0241  0.3582  0.6352
    9TMC3     O13997   1.315   0.128  13.113 -0.0020  0.0849  0.3499
    9TMC3     H13998   1.638   4.675  13.213 -0.9107  2.3666  0.6389
    9TMC3    H113999   1.290   4.695  12.942  1.0271 -0.3927 -1.8255
    9TMC3    H214000   1.578   4.386  12.927 -0.2517 -0.3329 -1.4339
    9TMC3    C714001   1.348   4.467  12.847  0.0069 -0.0647  0.2519
    9TMC3    C814002   1.700   4.437  13.161  0.3675  0.4934 -0.4786
    9TMC3    O114003   1.293   4.523  12.753  0.2223  0.2807 -0.2728
    9TMC3    O214004   1.787   4.496  13.223 -0.1487 -0.0815  0.2102
   10MPD2     C14005   1.934   3.977  13.200  0.6888 -0.2487  0.2021
   10MPD2    C114006   1.817   3.962  13.134 -0.5363 -0.0811  0.3439
   10MPD2    C214007   1.739   4.073  13.117  0.1573 -0.8448  0.3759
   10MPD2    C314008   1.778   4.196  13.167 -0.9587  0.5863 -0.1807
   10MPD2    C414009   1.901   4.216  13.224 -0.1123  0.4112 -0.6605
   10MPD2    C514010   1.971   4.102  13.248 -0.2923  0.1735  0.5502
   10MPD2     H14011   1.644   4.067  13.066 -0.3147 -1.2032  1.2981
   10MPD2    H114012   1.942   4.313  13.249 -1.3067  0.8633 -0.4901
   10MPD2    H214013   2.007   3.898  13.209  0.2229 -0.4670  2.0164
   10MPD2    H314014   2.066   4.111  13.299  2.0407 -2.3529 -3.3483
   10MPD2     N14015   1.685   4.298  13.134 -0.0112 -0.0381  0.6484
   10MPD2    H514016   1.599   4.262  13.092  0.6637 -2.3781  1.2973
   10MPD2    N114017   1.787   3.829  13.083 -0.3532 -0.0045 -0.2182
   10MPD2    H714018   1.847   3.756  13.119 -1.1056  0.9270  3.0208
   11MPD2     C14019   2.277   3.053  14.032  0.4689  0.0793  0.0026
   11MPD2    C114020   2.367   3.159  14.040 -0.8439  0.9989  1.2481
   11MPD2    C214021   2.314   3.289  14.015 -0.0125  0.1852 -0.5898
   11MPD2    C314022   2.178   3.312  13.993 -0.7132 -0.5370 -0.3140
   11MPD2    C414023   2.100   3.203  13.981 -0.1208  0.2141  0.1517
   11MPD2    C514024   2.144   3.076  14.012  0.6680  0.1132  0.0261
   11MPD2     H14025   2.375   3.378  14.029 -1.3086  0.4429  3.2847
   11MPD2    H114026   1.993   3.208  13.961  0.1138 -1.0553 -1.3921
   11MPD2    H214027   2.301   2.948  14.050  1.2890  0.1545 -0.6425
   11MPD2    H314028   2.068   2.999  14.007  0.4714  0.3358 -0.4127
   11MPD2     N14029   2.117   3.440  13.970 -0.0086  0.3776 -0.2360
   11MPD2    H514030   2.016   3.445  13.978 -0.1913 -1.1451 -1.6442
   11MPD2    N114031   2.503   3.141  14.064  0.2298  0.7932 -0.0181
   11MPD2    H714032   2.557   3.227  14.060  1.0373  0.2815 -0.0223
    1MPD1     C14033   1.642   0.174  16.715  0.3496 -0.1204  0.1299
    1MPD1    C114034   1.751   0.229  16.778 -0.3110 -0.1099 -0.1657
    1MPD1    C214035   1.781   0.184  16.902  0.3065 -0.3103 -0.1600
    1MPD1    C314036   1.689   0.108  16.976 -0.3674 -0.1445  0.2340
    1MPD1    C414037   1.581   0.053  16.913 -0.0825  0.2395  0.2990
    1MPD1    C514038   1.561   0.082  16.779  0.3735 -0.2150  0.2904
    1MPD1     H14039   1.859   0.232  16.961  0.9101 -2.7589  1.0784
    1MPD1    H114040   1.508   4.731  16.965 -0.4144  0.3793 -0.0008
    1MPD1    H214041   1.613   0.194  16.612 -0.1202  0.9584  0.4733
    1MPD1    H314042   1.480   0.032  16.727  0.3865 -0.0091  0.0715
    1MPD1     N14043   1.702   0.076  17.115  0.2093  0.5178 -0.1993
    1MPD1    H514044   1.626   0.023  17.155 -0.7962  2.8719  0.9541
    1MPD1    N114045   1.847   0.315  16.713 -0.0913  0.7204 -0.0683
    1MPD1    H614046   1.906   0.368  16.778  1.8449 -0.2551 -1.0247
    1MPD1    H714047   1.800   0.376  16.646  3.6462  1.2468 -2.2037
    2MPD1     C14048   1.928   4.007  17.332 -0.0150  0.0355 -0.2186
    2MPD1    C114049   1.915   4.095  17.223  0.8202 -0.0187  0.6145
    2MPD1    C214050   1.870   4.224  17.244 -0.4724  0.0968 -0.2655
    2MPD1    C314051   1.809   4.265  17.364  0.2085 -0.5806  0.5285
    2MPD1    C414052   1.825   4.181  17.473  0.3679 -0.1188 -0.0622
    2MPD1    C514053   1.887   4.058  17.457 -0.3186 -0.4590 -0.5327
    2MPD1     H14054   1.873   4.299  17.167 -0.7430  1.5098  1.0987
    2MPD1    H114055   1.787   4.217  17.568 -1.8727 -0.1981 -0.9215
    2MPD1    H214056   1.960   3.904  17.334  0.6943  0.2727  0.6936
    2MPD1    H314057   1.904   3.999  17.546 -0.2622  1.3865  0.6769
    2MPD1     N14058   1.752   4.395  17.357 -0.1593  0.1063  0.2511
    2MPD1    H514059   1.745   4.431  17.262  0.3373 -0.6540 -0.0777
    2MPD1    N114060   1.975   4.062  17.100 -0.1941  1.0510 -0.4243
    2MPD1    H614061   1.981   3.962  17.082  0.4096  1.5648 -3.1315
    2MPD1    H714062   1.922   4.099  17.021  0.3962  0.9315 -0.8854
    3TMC3    C114063   1.703   4.611  17.433  0.1857 -0.9915 -1.0979
    3TMC3    C214064   1.639   4.683  17.529  0.4136  0.0159 -0.8320
    3TMC3    C314065   1.649   0.080  17.514 -0.0937 -0.2769 -0.2758
    3TMC3    C414066   1.763   4.669  17.330 -0.7859  0.1851  1.1754
    3TMC3    C514067   1.776   0.068  17.325 -0.4271  0.5181 -0.6197
    3TMC3    C614068   1.723   0.146  17.419 -0.1483 -0.5779  0.2829
    3TMC3     C14069   1.710   4.471  17.463  0.4376  0.1311 -0.3783
    3TMC3     O14070   1.677   4.430  17.570  0.1286  0.7072 -0.3667
    3TMC3     H14071   1.573   4.641  17.604  0.3170 -1.5607 -1.7923
    3TMC3    H114072   1.799   4.605  17.250  0.0813  4.6177 -1.9675
    3TMC3    H214073   1.722   0.252  17.396 -1.0894 -0.6767 -0.1169
    3TMC3    C714074   1.803   0.125  17.194 -0.2122  0.7857  0.5751
    3TMC3    C814075   1.583   0.157  17.613  0.2025 -0.3422 -0.2001
    3TMC3    O114076   1.898   0.202  17.179  0.1091  0.1895  0.1079
    3TMC3    O214077   1.557   0.101  17.723  0.1626  0.0433 -0.7430
    4MPD1     C14078   1.451   0.622   0.046 -0.0810 -0.1816 -0.0103
    4MPD1    C114079   1.513   0.633  17.683 -0.2872 -0.1151  0.2068
    4MPD1    C214080   1.537   0.521  17.607  0.2522 -0.1390  0.2249
    4MPD1    C314081   1.529   0.393  17.652 -0.4255 -0.5259 -0.5619
    4MPD1    C414082   1.477   0.386   0.021 -0.1533 -0.5131  0.3210
    4MPD1    C514083   1.434   0.501   0.097  0.4048  0.8687 -0.4710
    4MPD1     H14084   1.568   0.540  17.505 -3.9095  1.2836 -0.7511
    4MPD1    H114085   1.467   0.285   0.060  2.7369 -0.6371  0.7428
    4MPD1    H214086   1.428   0.711   0.104 -0.4118  1.0462 -2.0371
    4MPD1    H314087   1.408   0.498   0.203  2.2574 -1.1029 -0.0643
    4MPD1     N14088   1.567   0.285  17.575  0.7247 -0.3682  0.6026
    4MPD1    H514089   1.579   0.298  17.475 -1.9429  1.0447  0.4636
    4MPD1    N114090   1.514   0.750  17.614 -0.2854  0.1004 -0.0591
    4MPD1    H614091   1.521   0.831  17.676  1.2647  1.5626 -2.1174
    4MPD1    H714092   1.573   0.761  17.531 -1.8555  4.0402 -0.6389
    1TCq1    O114093   2.282   3.835  11.554  0.0257  0.3109  0.0839
    1TCq1    C114094   2.222   3.784  11.660 -0.5270 -0.5835  1.0347
    1TCq1    O214095   2.167   3.672  11.666  0.8473 -0.0996 -0.1733
    1TCq1    C214096   2.218   3.885  11.761  0.3980 -0.8415 -0.2655
    1TCq1    C314097   2.117   3.863  11.855  0.1558  0.4952 -0.4790
    1TCq1    C414098   2.132   3.902  11.982  0.2992 -0.3526  0.3089
    1TCq1    C514099   2.248   3.971  12.013 -0.2662 -0.1452  0.1402
    1TCq1    C614100   2.353   3.982  11.933 -0.6460  0.3136  0.1159
    1TCq1    C714101   2.341   3.933  11.803  0.0284  0.1892  0.7469
    1TCq1    C814102   2.486   4.030  11.973 -0.3290  1.1643 -0.6455
    1TCq1    O414103   2.570   4.053  11.884 -0.8466 -0.0141 -0.1516
    1TCq1    C914104   2.017   3.919  12.068 -0.5890  1.1693  0.2469
    1TCq1    O514105   1.905   3.884  12.023  0.2759  0.5257  0.2302
    1TCq1    O614106   2.040   3.980  12.174 -0.1828 -0.3615 -0.0450
    1TCq1    H114107   2.292   3.933  11.558 -1.6709  0.4108  1.7044
    1TCq1    H214108   2.020   3.835  11.817 -0.2819  2.6058 -0.9054
    1TCq1    H314109   2.258   4.003  12.116 -0.0192 -1.2112  0.4556
    1TCq1    H414110   2.423   3.949  11.734  0.8612 -1.2712  1.4124
    2MPD1     C14111   2.844   4.137  12.326  0.0695  1.2847  0.0116
    2MPD1    C114112   2.726   4.110  12.393 -0.2087  0.6939  0.2734
    2MPD1    C214113   2.612   4.082  12.311 -0.5641  0.5944  0.0271
    2MPD1    C314114   2.615   4.085  12.174 -0.1509 -0.4730 -0.3786
    2MPD1    C414115   2.735   4.104  12.107  0.0468  0.5915 -0.2411
    2MPD1    C514116   2.849   4.137  12.190 -0.1285  0.2338 -0.6750
    2MPD1     H14117   2.520   4.072  12.367 -1.1934 -1.8198 -1.4345
    2MPD1    H114118   2.754   4.088  12.001 -2.1230  1.5286 -0.7721
    2MPD1    H214119   2.938   4.150  12.379  0.1187 -1.3779  0.5900
    2MPD1    H314120   2.946   4.137  12.142  0.0924  2.0205 -0.2107
    2MPD1     N14121   2.492   4.047  12.111  0.1592  0.2140 -0.4468
    2MPD1    H514122   2.417   4.012  12.170  0.2785  1.3336  0.3630
    2MPD1    N114123   2.721   4.076  12.530 -0.1734 -0.3751 -0.0934
    2MPD1    H614124   2.623   4.082  12.558  0.9765  4.2568  2.8987
    2MPD1    H714125   2.772   4.142  12.588  0.6362 -0.1989 -1.0126
    1TMC1    C114126   4.471   4.607   1.801 -0.1496  0.3932  0.0906
    1TMC1    C214127   4.475   4.640   1.933  0.1536 -0.5410  0.8286
    1TMC1    C314128   4.568   4.588   2.022  0.6678 -0.1992  0.8878
    1TMC1    C414129   4.570   4.527   1.753  0.5352 -0.0261 -0.1312
    1TMC1    C514130   4.665   4.475   1.837  0.0540 -0.0847  0.1547
    1TMC1    C614131   4.657   4.496   1.971  0.2604  0.3782  0.7397
    1TMC1     C14132   4.388   4.690   1.718  0.4800 -0.0876  0.1683
    1TMC1     O14133   4.294   4.739   1.772 -0.2714  0.1697 -0.3359
    1TMC1     H14134   4.405   4.716   1.966  0.9200 -0.2028  1.6681
    1TMC1    H114135   4.579   4.500   1.649  1.0412  1.5814 -0.5094
    1TMC1    H214136   4.719   4.442   2.042  1.7687  2.5824  1.1141
    1TMC1    C714137   0.006   4.369   1.788 -0.2939 -0.0497  0.4909
    1TMC1    C814138   4.581   4.623   2.156 -0.2447  0.0273 -0.3402
    1TMC1    O114139   4.723   4.294   1.691  0.3731  0.7963  0.0473
    1TMC1    O214140   4.592   4.534   2.234  0.1465  0.2642 -0.4136
    1TMC1    O314141   0.118   4.373   1.866  0.1137 -0.7241  0.2081
    1TMC1    H314142   0.136   4.456   1.915 -2.1078  0.1342 -0.4542
    1TMC1    O514143   4.506   4.736   2.184 -0.4990 -0.3574  0.5612
    1TMC1    H514144   4.502   0.060   2.109 -1.9461 -0.3655  0.6286
    2MPD1     C14145   4.395   0.243   1.293  0.3132  0.0400 -0.9566
    2MPD1    C114146   4.499   0.151   1.286  0.0695 -0.7063  0.2180
    2MPD1    C214147   4.503   0.066   1.387  0.3665  0.6105 -0.0408
    2MPD1    C314148   4.418   0.060   1.494 -0.0076  0.2064 -0.0778
    2MPD1    C414149   4.311   0.141   1.493 -0.0759  0.2199  0.6473
    2MPD1    C514150   4.306   0.233   1.394 -0.1203  0.7143  0.4721
    2MPD1     H14151   4.563   4.715   1.382 -3.1307 -1.7204  0.5364
    2MPD1    H114152   4.244   0.148   1.579  0.3168 -0.6153  1.0221
    2MPD1    H214153   4.387   0.315   1.213 -0.8369  0.4373 -0.4854
    2MPD1    H314154   4.220   0.299   1.386 -0.9584 -0.7638 -2.8891
    2MPD1     N14155   4.441   4.699   1.589 -0.3627 -0.4088  0.7965
    2MPD1    H514156   4.529   4.653   1.570  0.7382  1.3245  1.7392
    2MPD1    N114157   4.583   0.134   1.174 -0.0512  0.7846  0.1499
    2MPD1    H614158   4.669   0.085   1.199 -0.7273 -0.9943 -1.0467
    2MPD1    H714159   4.605   0.221   1.125  1.3409  1.8312  2.6489
    1MPD1     C14160   2.668   0.234  11.961 -0.0818  0.3814 -0.3159
    1MPD1    C114161   2.760   0.323  11.906 -0.3024  0.2498 -0.7835
    1MPD1    C214162   2.887   0.335  11.960  0.5245  0.1354 -0.6689
    1MPD1    C314163   2.927   0.279  12.073 -0.0609 -0.1405 -0.5494
    1MPD1    C414164   2.828   0.207  12.140  0.5417  0.0576 -0.1270
    1MPD1    C514165   2.706   0.176  12.084  0.0811 -0.4526  0.3616
    1MPD1     H14166   2.957   0.387  11.895 -1.1706  3.1943 -0.0414
    1MPD1    H114167   2.855   0.159  12.234 -4.0480  0.8710  1.6152
    1MPD1    H214168   2.576   0.201  11.914  0.0786 -2.8771  1.6876
    1MPD1    H314169   2.630   0.121  12.138  0.0817 -0.4682  0.3465
    1MPD1     N14170   3.058   0.306  12.111 -0.6815 -0.2156 -0.4120
    1MPD1    H514171   3.113   0.377  12.063 -0.4068  0.4385  0.8620
    1MPD1    N114172   2.730   0.374  11.781 -0.3426 -0.2835 -0.2776
    1MPD1    H614173   2.635   0.408  11.768 -0.5801 -0.8012  0.1051
    1MPD1    H714174   2.785   0.459  11.775  2.0462 -1.7906  0.1630
    2MPD1     C14175   2.491   0.592  11.371 -0.3283  0.1529  0.0642
    2MPD1    C114176   2.428   0.534  11.256  0.3458 -0.3526  1.2715
    2MPD1    C214177   2.496   0.445  11.178 -0.0927 -0.2199 -0.0840
    2MPD1    C314178   2.631   0.422  11.202  0.2534  0.4127  0.3665
    2MPD1    C414179   2.681   0.454  11.325 -0.4772 -0.2260 -0.3690
    2MPD1    C514180   2.608   0.531  11.410  0.3751  0.0320 -0.0150
    2MPD1     H14181   2.446   0.409  11.089  1.1517 -0.6565 -0.6143
    2MPD1    H114182   2.783   0.426  11.349  0.1596  1.3802 -1.2525
    2MPD1    H214183   2.454   0.672  11.434 -0.2055 -0.0474  0.3898
    2MPD1    H314184   2.647   0.553  11.509 -0.1872  2.8341 -0.4350
    2MPD1     N14185   2.716   0.354  11.111  0.0266  0.7505  0.2369
    2MPD1    H514186   2.810   0.341  11.149 -0.2180 -1.1301  0.1671
    2MPD1    N114187   2.302   0.588  11.212  0.2051 -0.1532 -0.2986
    2MPD1    H614188   2.245   0.628  11.286 -1.1079 -1.6773 -0.4917
    2MPD1    H714189   2.247   0.541  11.141 -1.7482 -1.6104  2.1799
    3MPD1     C14190   2.670   4.569  10.205  0.0517  0.5444  0.5045
    3MPD1    C114191   2.572   4.587  10.297  0.3431 -0.3228 -0.1745
    3MPD1    C214192   2.615   4.663  10.406  0.4148 -0.4064 -0.1887
    3MPD1    C314193   2.737   4.725  10.422 -0.2757  0.4219 -0.5324
    3MPD1    C414194   2.826   4.711  10.312  0.0132  0.5833  0.8874
    3MPD1    C514195   2.787   4.642  10.205 -0.0249  0.0871 -0.2944
    3MPD1     H14196   2.560   4.668  10.500 -2.2700 -0.3711 -1.7772
    3MPD1    H114197   2.929   0.002  10.318  0.0330  0.5439  0.7396
    3MPD1    H214198   2.662   4.511  10.114 -1.3421 -0.2902  1.1473
    3MPD1    H314199   2.862   4.631  10.128 -0.2722  1.3391 -0.7188
    3MPD1     N14200   2.766   0.056  10.537 -0.1181  0.0425  0.2861
    3MPD1    H514201   2.694   0.056  10.608  1.0341 -2.2670  1.4546
    3MPD1    N114202   2.467   4.493  10.302  0.3759 -1.1009 -0.3165
    3MPD1    H614203   2.436   4.454  10.213 -0.6092 -1.9515  0.3906
    3MPD1    H714204   2.390   4.533  10.355  1.2959 -0.8275  0.8034
    4MPD2     C14205   3.505   0.657  11.853 -0.2408  0.7915  0.2407
    4MPD2    C114206   3.561   0.541  11.902  0.0045 -0.2582 -0.2252
    4MPD2    C214207   3.649   0.460  11.832 -0.0622 -0.6946  0.3330
    4MPD2    C314208   3.667   0.482  11.698  0.5026 -0.6890  0.9925
    4MPD2    C414209   3.599   0.586  11.643 -0.7896 -1.3691  0.2431
    4MPD2    C514210   3.521   0.679  11.714 -0.0127  0.0464  0.0743
    4MPD2     H14211   3.705   0.383  11.882  0.4784 -1.8907 -2.0858
    4MPD2    H114212   3.624   0.628  11.547  0.1750 -2.0919  0.1718
    4MPD2    H214213   3.453   0.736  11.906 -1.4569  0.3584 -0.2958
    4MPD2    H314214   3.471   0.763  11.667  0.0113  0.4749  0.8123
    4MPD2     N14215   3.731   0.387  11.611  0.5185  0.4990 -0.2139
    4MPD2    H514216   3.727   0.398  11.510  0.9605 -2.9920 -0.5831
    4MPD2    N114217   3.536   0.500  12.036  0.0920  0.0319 -0.0519
    4MPD2    H714218   3.593   0.418  12.060 -0.3247  0.1667  1.3917
    5TMC3    C114219   3.411   0.460  12.228  0.2620 -0.4235 -0.4202
    5TMC3    C214220   3.286   0.416  12.218  0.7643 -0.0468  0.0769
    5TMC3    C314221   3.256   0.286  12.242  0.5650  0.4730  0.6678
    5TMC3    C414222   3.517   0.377  12.250 -0.0536 -0.0760 -0.4687
    5TMC3    C514223   3.480   0.245  12.270 -0.3610  0.7190 -0.1330
    5TMC3    C614224   3.350   0.193  12.272 -0.2195  0.0642 -0.4301
    5TMC3     C14225   3.432   0.551  12.116  0.1532 -0.3046 -0.2295
    5TMC3     O14226   3.352   0.629  12.085 -0.2667 -0.4067  0.0773
    5TMC3     H14227   3.216   0.486  12.174 -0.0479 -1.7320 -1.3217
    5TMC3    H114228   3.614   0.423  12.265 -0.8491  2.3510 -2.8490
    5TMC3    H214229   3.325   0.088  12.278  0.2730 -0.0023  0.4442
    5TMC3    C714230   3.589   0.163  12.218 -0.3391  0.4037  0.2666
    5TMC3    C814231   3.121   0.235  12.217 -0.3027  0.3163  1.3820
    5TMC3    O114232   3.673   0.224  12.157  0.0596 -0.3160  0.7621
    5TMC3    O214233   3.089   0.131  12.279  0.0874 -0.5527  0.1060
    6TMC3    C114234   2.801   0.268  10.906 -0.5030  0.5356 -0.1839
    6TMC3    C214235   2.781   0.233  10.772  0.6447  0.3018  0.8453
    6TMC3    C314236   2.890   0.190  10.700  0.2537  0.0737 -0.1980
    6TMC3    C414237   2.922   0.245  10.965 -0.2255 -0.0668  0.1522
    6TMC3    C514238   3.030   0.206  10.885  0.5241 -0.3481  0.0744
    6TMC3    C614239   3.014   0.181  10.755 -0.3508  0.6111 -0.0541
    6TMC3     C14240   2.683   0.323  10.978  0.5814 -0.5889  0.3227
    6TMC3     O14241   2.573   0.328  10.927 -0.4835  0.5165  0.3546
    6TMC3     H14242   2.686   0.241  10.721  0.4085 -0.7295  1.1212
    6TMC3    H114243   2.942   0.258  11.071 -1.8642  2.5588  0.1350
    6TMC3    H214244   3.101   0.134  10.709 -0.5848 -0.4321  0.5580
    6TMC3    C714245   3.154   0.171  10.955 -0.2940  0.5936 -0.0232
    6TMC3    C814246   2.880   0.132  10.562 -0.0909  0.7876  0.3426
    6TMC3    O114247   3.210   0.251  11.028 -0.5339  0.2776 -0.1132
    6TMC3    O214248   2.986   0.150  10.497 -0.0456 -0.5580  0.0394
    7MPD2     C14249   3.678   4.487  11.934  0.4843  0.0868 -0.2137
    7MPD2    C114250   3.698   4.621  11.910 -0.1024 -0.2682 -0.0782
    7MPD2    C214251   3.666   4.711  12.006 -0.4578  0.4499 -0.4269
    7MPD2    C314252   3.611   4.671  12.129  0.6546  0.2491 -0.1543
    7MPD2    C414253   3.583   4.541  12.149  0.4606 -0.1671  0.3018
    7MPD2    C514254   3.605   4.451  12.046  0.6307  0.3220 -0.5495
    7MPD2     H14255   3.680   0.075  11.980  0.3880  0.0273 -1.6460
    7MPD2    H114256   3.516   4.520  12.231 -0.7311 -1.7508 -1.0760
    7MPD2    H214257   3.697   4.412  11.858 -0.2174 -1.0715  0.7583
    7MPD2    H314258   3.570   4.348  12.050 -2.0440  1.2479 -0.5301
    7MPD2     N14259   3.557   0.027  12.218  0.5034  0.5288 -1.0793
    7MPD2    H514260   3.489   0.001  12.289  3.2285 -0.9601  1.0135
    7MPD2    N114261   3.748   4.678  11.793  0.0355 -0.1484  0.0884
    7MPD2    H714262   3.757   0.039  11.788 -1.2817 -0.1261 -1.7645
    8TMC3    C114263   3.816   4.677  11.562 -0.1960  0.3409  0.0668
    8TMC3    C214264   3.727   4.674  11.460 -0.0434  0.1814 -0.0434
    8TMC3    C314265   3.701   0.057  11.397  0.6780  0.1771  0.5392
    8TMC3    C414266   3.875   0.054  11.608  0.3606  0.8843  0.2436
    8TMC3    C514267   3.834   0.174  11.547  0.0163  0.4690  0.5532
    8TMC3    C614268   3.761   0.179  11.437 -0.1353  0.5026  0.0738
    8TMC3     C14269   3.768   4.602  11.673 -0.2103 -0.8786 -0.1941
    8TMC3     O14270   3.740   4.485  11.646 -0.4528 -0.1775 -0.1958
    8TMC3     H14271   3.665   4.585  11.456 -1.1516  0.8492  2.1051
    8TMC3    H114272   3.938   0.054  11.696 -3.2813 -1.1248  2.8360
    8TMC3    H214273   3.707   0.268  11.404 -0.6574 -0.2925 -1.2530
    8TMC3    C714274   3.795   0.269  11.657  0.8625  0.0499  0.4025
    8TMC3    C814275   3.586   0.066  11.306 -0.0261  0.0274  0.3136
    8TMC3    O114276   3.817   0.223  11.766 -0.0785 -0.5869 -0.1602
    8TMC3    O214277   3.560   0.176  11.266 -0.0903 -0.3642 -0.4300
    9MPD2     C14278   3.454   4.526  11.118 -0.2830 -0.4521  0.0155
    9MPD2    C114279   3.458   4.657  11.154 -0.8567  0.4621 -0.7243
    9MPD2    C214280   3.374   0.010  11.089 -0.1873  0.2391  0.1941
    9MPD2    C314281   3.281   4.701  11.004 -0.5399 -0.1362 -0.9847
    9MPD2    C414282   3.278   4.564  10.982 -0.1146  0.3115  0.2248
    9MPD2    C514283   3.354   4.474  11.049 -0.2089 -0.0587  0.0577
    9MPD2     H14284   3.380   0.117  11.102  0.1343  0.3808 -1.0855
    9MPD2    H114285   3.218   4.525  10.900 -0.5650 -0.0408  0.7205
    9MPD2    H214286   3.533   4.470  11.168  1.4829  1.7124 -0.3784
    9MPD2    H314287   3.371   4.370  11.023 -0.3142  0.1949 -1.0237
    9MPD2     N14288   3.179   0.037  10.940  0.0607  0.4762 -0.2451
    9MPD2    H514289   3.104   4.723  10.897  1.9024 -0.4882 -2.2162
    9MPD2    N114290   3.557   4.683  11.254 -0.7978 -0.0735  0.1002
    9MPD2    H714291   3.608   4.600  11.282 -0.1896  0.4154  0.4664
    1MPD1     C14292   3.239   4.406  16.754  0.6763 -0.6162  0.0592
    1MPD1    C114293   3.269   4.348  16.632 -0.6475 -0.2146 -0.4975
    1MPD1    C214294   3.184   4.242  16.589  1.0576 -0.3370 -0.4430
    1MPD1    C314295   3.069   4.210  16.656 -0.1746  0.3199 -0.7784
    1MPD1    C414296   3.034   4.284  16.768 -0.4834  0.0778  0.4422
    1MPD1    C514297   3.126   4.372  16.825 -0.3926 -0.2529 -0.2598
    1MPD1     H14298   3.221   4.187  16.503  2.0002 -1.5276  0.7356
    1MPD1    H114299   2.940   4.263  16.819  0.3979 -1.2891  1.4976
    1MPD1    H214300   3.306   4.479  16.797 -0.4370  0.5032 -0.0970
    1MPD1    H314301   3.099   4.413  16.922  0.0374 -0.8144  0.0969
    1MPD1     N14302   2.984   4.109  16.618 -0.0292  0.0957 -0.2225
    1MPD1    H514303   2.904   4.095  16.680 -0.4091 -1.3773 -1.0651
    1MPD1    N114304   3.395   4.370  16.569  0.0379  0.4064 -0.0825
    1MPD1    H614305   3.428   4.465  16.586 -0.4537  0.6474 -0.4622
    1MPD1    H714306   3.398   4.340  16.472 -1.2637 -1.8485  0.5678
    2TMC2    C114307   2.788   3.798  16.345 -0.1609 -0.3604  0.1850
    2TMC2    C214308   2.714   3.737  16.444 -0.2291  0.0503  0.5727
    2TMC2    C314309   2.756   3.774  16.569  0.2660  0.0378 -0.8205
    2TMC2    C414310   2.872   3.895  16.367 -0.4632  0.0705  0.3481
    2TMC2    C514311   2.905   3.930  16.493  0.9230 -0.5007 -0.4839
    2TMC2    C614312   2.844   3.874  16.599 -0.5803  0.9250 -0.0387
    2TMC2     C14313   2.760   3.755  16.212 -0.8515  0.2658 -0.2063
    2TMC2     O14314   2.710   3.644  16.196  0.6266 -0.1793  0.0557
    2TMC2     H14315   2.654   3.649  16.424  1.8643 -0.8528 -1.7788
    2TMC2    H114316   2.924   3.946  16.286 -3.0930  1.0027 -0.7661
    2TMC2    H214317   2.896   3.882  16.694 -0.9967  1.8336  0.1083
    2TMC2    C714318   3.007   4.024  16.511  0.1125  0.6000 -0.3310
    2TMC2    C814319   2.681   3.719  16.672 -0.0133  0.3775 -0.0429
    2TMC2    O114320   3.088   4.033  16.420 -0.3613  0.2345 -0.2615
    2TMC2    O214321   2.635   3.606  16.670  0.4674 -0.4557 -0.0572
    2TMC2    O514322   2.682   3.796  16.781  0.0718 -0.2137 -0.1339
    2TMC2    H514323   2.709   3.888  16.763 -0.6594 -0.1054 -0.6610
    3MPD1     C14324   2.807   3.754  15.708  0.0825  0.2858 -0.2003
    3MPD1    C114325   2.788   3.885  15.744  0.0674 -0.5635  0.2388
    3MPD1    C214326   2.785   3.908  15.878  0.0378  0.6793  0.1394
    3MPD1    C314327   2.798   3.808  15.972 -0.0497  0.2092  0.0432
    3MPD1    C414328   2.809   3.679  15.930 -1.0335  0.5126  0.1119
    3MPD1    C514329   2.821   3.651  15.799  0.3243 -0.0736 -0.8756
    3MPD1     H14330   2.764   4.008  15.914  0.1035  0.2369  1.4043
    3MPD1    H114331   2.810   3.593  15.997  0.5790  1.4619  1.2905
    3MPD1    H214332   2.814   3.724  15.604  0.8284 -1.2974  0.3020
    3MPD1    H314333   2.835   3.554  15.752  0.9229  0.3854 -1.6492
    3MPD1     N14334   2.791   3.842  16.107  0.6634 -0.9399 -0.4485
    3MPD1    H514335   2.807   3.940  16.131 -1.1682  0.1385 -3.5624
    3MPD1    N114336   2.798   3.993  15.655 -0.3916 -0.1782  0.0101
    3MPD1    H614337   2.766   3.963  15.563  0.4832  0.7179 -0.5843
    3MPD1    H714338   2.754   4.081  15.682  0.4198 -0.1324  1.2067
    1TMC1    C114339   0.963   2.754  12.830  0.1897 -0.4707  0.3754
    1TMC1    C214340   0.911   2.790  12.953 -0.1970  0.6735  0.7857
    1TMC1    C314341   0.773   2.785  12.957  0.0762  0.2985 -0.1179
    1TMC1    C414342   0.893   2.711  12.721  0.0727 -0.0826 -0.1367
    1TMC1    C514343   0.761   2.717  12.736  0.2949 -1.3072  0.5269
    1TMC1    C614344   0.696   2.754  12.850 -1.0961  0.7355  1.5166
    1TMC1     C14345   1.111   2.758  12.802 -0.2637 -0.4564 -0.1286
    1TMC1     O14346   1.144   2.765  12.684  0.2458 -0.1097  0.4007
    1TMC1     H14347   0.977   2.812  13.036  0.1113 -0.0759  0.7377
    1TMC1    H114348   0.950   2.673  12.638  0.6056  1.1290 -0.3310
    1TMC1    H214349   0.588   2.762  12.856 -1.4531 -1.3535 -2.2335
    1TMC1    C714350   0.683   2.672  12.626 -0.0030  0.5784 -0.3707
    1TMC1    C814351   0.706   2.843  13.073  0.1273  0.0383  0.2481
    1TMC1    O114352   0.588   2.597  12.635 -0.2753  0.0609  0.1303
    1TMC1    O214353   0.745   2.950  13.116 -1.0139  0.1696 -0.0228
    1TMC1    O314354   0.728   2.741  12.524  0.5686 -0.1939 -0.4804
    1TMC1    H314355   0.800   2.803  12.550  0.9517 -0.5206 -0.7623
    1TMC1    O514356   0.595   2.770  13.100 -0.0105 -0.0191  0.6941
    1TMC1    H514357   0.620   2.676  13.086 -0.7017 -0.1868  0.5682
    2MPD2     C14358   1.409   2.811  12.811 -0.4107  0.1172 -0.4608
    2MPD2    C114359   1.335   2.747  12.910 -0.1885  0.4555  0.0587
    2MPD2    C214360   1.402   2.700  13.016 -0.0820  0.1117  0.2196
    2MPD2    C314361   1.542   2.693  13.014  0.4187 -0.2529 -0.3704
    2MPD2    C414362   1.612   2.740  12.906 -0.4089  0.1618 -0.3479
    2MPD2    C514363   1.542   2.811  12.811  0.1537  0.0710 -0.8327
    2MPD2     H14364   1.357   2.659  13.105 -1.5651 -0.9924 -1.0412
    2MPD2    H114365   1.720   2.741  12.897 -0.3331  0.8177  0.6100
    2MPD2    H214366   1.360   2.860  12.728 -0.8609  2.7251  1.3528
    2MPD2    H314367   1.598   2.859  12.732 -0.5759 -2.6137 -2.9745
    2MPD2     N14368   1.618   2.652  13.131 -0.8777  0.8300 -0.1152
    2MPD2    H514369   1.563   2.641  13.215 -1.4056  2.7292 -0.2040
    2MPD2    N114370   1.192   2.754  12.910  0.0055 -0.5240 -0.0796
    2MPD2    H714371   1.156   2.727  13.001  3.0844 -0.8199  1.0480
    3TCq1    O114372   2.135   2.324  13.445  0.6027 -0.1116 -0.4749
    3TCq1    C114373   2.114   2.433  13.365  0.1830 -0.2435 -0.8227
    3TCq1    O214374   2.199   2.486  13.294 -0.0192 -0.3341 -0.0944
    3TCq1    C214375   1.986   2.501  13.394  0.2605 -0.3894 -0.7285
    3TCq1    C314376   1.910   2.446  13.489  0.6842  0.3976  0.1605
    3TCq1    C414377   1.775   2.449  13.466 -0.0448  0.1337 -0.5654
    3TCq1    C514378   1.713   2.512  13.359  0.2322  0.3113 -0.2302
    3TCq1    C614379   1.795   2.577  13.264  0.2319 -0.5970 -0.3859
    3TCq1    C714380   1.933   2.568  13.286  0.7796  0.1235  0.5932
    3TCq1    C814381   1.751   2.634  13.134 -0.4376 -0.2285 -0.2390
    3TCq1    O414382   1.843   2.659  13.056 -0.2226  0.3270  0.1873
    3TCq1    C914383   1.684   2.376  13.557  0.0713  0.7207  0.5404
    3TCq1    O514384   1.566   2.415  13.559  0.0709 -0.3224  0.6496
    3TCq1    O614385   1.732   2.273  13.610  0.0923 -0.0227 -0.1912
    3TCq1    H114386   2.049   2.295  13.483  1.1509 -1.6281 -0.4123
    3TCq1    H214387   1.939   2.388  13.576 -1.5439  0.8703  1.1972
    3TCq1    H314388   1.613   2.478  13.334  0.5380 -0.5300 -0.3103
    3TCq1    H414389   2.000   2.613  13.212 -0.9386  0.1315 -0.9529
    1MPD2     C14390   0.479   4.559  14.354 -0.2277  0.6125 -0.0856
    1MPD2    C114391   0.605   4.572  14.413  0.0647 -0.6509  0.3268
    1MPD2    C214392   0.654   4.705  14.421 -0.4380  0.3345  0.4618
    1MPD2    C314393   0.583   0.077  14.381 -0.1972  0.4659  0.4521
    1MPD2    C414394   0.459   0.057  14.331 -0.3976 -0.0109  0.7922
    1MPD2    C514395   0.406   4.673  14.324  0.0921 -0.1446 -0.8140
    1MPD2     H14396   0.748   4.726  14.472  0.0113  2.7379 -1.3881
    1MPD2    H114397   0.393   0.138  14.305  1.8992  1.4401 -0.5322
    1MPD2    H214398   0.424   4.466  14.348  0.5771  0.1823 -0.7887
    1MPD2    H314399   0.302   4.661  14.296 -0.7905  3.0813  1.0122
    1MPD2     N14400   0.634   0.205  14.411 -0.4591 -0.4751  0.4607
    1MPD2    H514401   0.725   0.206  14.455 -0.2188  0.5455 -0.0889
    1MPD2    N114402   0.669   4.461  14.471 -0.1669 -0.7445 -0.4107
    1MPD2    H714403   0.625   4.370  14.457  0.7056 -1.2050 -0.1311
    2TMC3    C114404   0.833   4.342  14.602 -0.8896 -0.4408  0.0915
    2TMC3    C214405   0.962   4.360  14.641  0.5894 -0.6442  0.5883
    2TMC3    C314406   0.993   4.326  14.766  0.1436  0.0781 -0.1675
    2TMC3    C414407   0.743   4.289  14.685 -0.7063  0.9228 -0.4850
    2TMC3    C514408   0.790   4.249  14.808  0.2460 -0.2850  0.1790
    2TMC3    C614409   0.908   4.272  14.854 -0.6127  0.3003 -0.4354
    2TMC3     C14410   0.795   4.458  14.527 -0.6389  0.5306 -0.9116
    2TMC3     O14411   0.876   4.545  14.550 -0.2452  0.3369 -0.0676
    2TMC3     H14412   1.034   4.404  14.573 -0.9317  0.3185 -0.4200
    2TMC3    H114413   0.637   4.291  14.661 -0.8185  3.1391  0.1178
    2TMC3    H214414   0.950   4.243  14.950  1.7780  1.4589 -1.1247
    2TMC3    C714415   0.707   4.198  14.916  0.2023  0.5004 -0.1263
    2TMC3    C814416   1.087   4.418  14.829  0.2361 -0.4520  0.3394
    2TMC3    O114417   0.757   4.116  14.990 -0.1292 -0.7106  0.4599
    2TMC3    O214418   1.148   4.396  14.933  0.0935 -0.6953  0.1169
    3TCq1    O114419   4.395   4.477  15.372 -0.0218  0.0194 -0.1837
    3TCq1    C114420   4.425   4.601  15.319  0.2265 -0.5244 -0.2070
    3TCq1    O214421   4.427   4.702  15.382 -0.2964 -0.3258 -0.0707
    3TCq1    C214422   4.542   4.578  15.242  0.0975  0.5500 -1.0964
    3TCq1    C314423   4.579   4.675  15.154  0.2342 -0.1785 -0.0866
    3TCq1    C414424   4.667   4.641  15.048 -0.9435  0.2792 -0.4695
    3TCq1    C514425   4.719   4.516  15.039 -0.1854  0.3766 -0.7309
    3TCq1    C614426   4.689   4.430  15.135 -0.2166  0.1487 -0.2871
    3TCq1    C714427   4.599   4.455  15.231  0.1123 -0.0334 -0.2583
    3TCq1    C814428   0.023   4.302  15.139  0.4242 -0.3101  0.4195
    3TCq1    O414429   4.739   4.224  15.229  0.5425 -0.3747 -0.2549
    3TCq1    C914430   4.706   0.002  14.950  0.3068  0.5146 -0.1167
    3TCq1    O514431   0.072   4.725  14.878  0.1120  0.4293 -0.2036
    3TCq1    O614432   4.627   0.100  14.940  0.0143 -0.2645  0.0043
    3TCq1    H114433   4.405   4.399  15.313  1.5621 -1.0301  1.4792
    3TCq1    H214434   4.532   0.031  15.164  1.2605  0.6264 -2.9040
    3TCq1    H314435   0.038   4.494  14.950 -0.1948 -0.9838 -0.4005
    3TCq1    H414436   4.603   4.387  15.315 -0.3990  0.0487 -0.1673
    4MPD2     C14437   0.256   4.106  15.147  0.5550  0.0096  0.0684
    4MPD2    C114438   0.247   4.216  15.068  1.0536  0.1779 -0.4932
    4MPD2    C214439   0.354   4.252  14.988 -0.5107  0.2572 -0.4924
    4MPD2    C314440   0.479   4.185  14.990 -0.3979 -0.1233  0.0405
    4MPD2    C414441   0.491   4.070  15.073  0.0907  1.1959 -0.4213
    4MPD2    C514442   0.375   4.035  15.144 -0.8068 -0.0307 -0.3870
    4MPD2     H14443   0.337   4.333  14.919 -0.5939  0.0315 -0.7393
    4MPD2    H114444   0.577   4.005  15.067 -1.7398 -1.2096 -1.0442
    4MPD2    H214445   0.174   4.067  15.206 -0.3836 -2.2157 -2.7041
    4MPD2    H314446   0.387   3.950  15.210 -1.2895  1.8394  2.1121
    4MPD2     N14447   0.579   4.238  14.911  0.5788  0.6139  0.7721
    4MPD2    H514448   0.553   4.309  14.843 -0.5137 -0.7559 -0.2386
    4MPD2    N114449   0.135   4.305  15.058 -0.2923  0.2214  0.7561
    4MPD2    H714450   0.145   4.378  14.988  1.8560 -0.5204  0.2946
    5TMC2    C114451   0.832   0.399  14.620 -0.0538 -0.1205 -0.5040
    5TMC2    C214452   0.764   0.454  14.729  0.0069  0.2504  0.2978
    5TMC2    C314453   0.631   0.497  14.713  0.5205 -0.5049  0.0677
    5TMC2    C414454   0.770   0.392  14.500  0.1521  0.6426  0.2689
    5TMC2    C514455   0.639   0.428  14.489  1.1400  0.0636  0.2836
    5TMC2    C614456   0.570   0.485  14.591 -0.0458 -0.0196 -0.4412
    5TMC2     C14457   0.898   0.271  14.642 -0.4031 -0.8374  0.6086
    5TMC2     O14458   0.868   0.173  14.569 -0.6684  0.5275 -0.0695
    5TMC2     H14459   0.802   0.447  14.831 -0.6713  0.8446  0.5908
    5TMC2    H114460   0.825   0.342  14.422  0.9585 -0.8427  1.7893
    5TMC2    H214461   0.470   0.522  14.571  0.7833  2.6748  0.3763
    5TMC2    C714462   0.557   0.328  14.420 -0.5318  0.3083  1.0783
    5TMC2    C814463   0.549   0.523  14.822 -0.5765 -0.0950  0.2351
    5TMC2    O114464   0.432   0.349  14.430  0.1354  0.1604  0.1369
    5TMC2    O214465   0.507   0.635  14.841 -0.0538 -0.3425  0.0306
    5TMC2    O514466   0.469   0.416  14.816  0.0128 -0.1877 -0.0104
    5TMC2    H514467   0.495   0.325  14.789 -1.1016 -0.4136 -0.3050
    6MPD2     C14468   1.185   4.683  14.918  0.1346 -0.1944 -0.1539
    6MPD2    C114469   1.095   4.662  14.818 -0.5194 -0.1323 -0.0693
    6MPD2    C214470   1.029   0.031  14.759  0.2756 -0.6806  0.6688
    6MPD2    C314471   1.053   0.162  14.795  0.1095  0.8317 -0.2154
    6MPD2    C414472   1.148   0.179  14.887  0.8206  0.0560  0.4201
    6MPD2    C514473   1.215   0.075  14.947  0.3705 -0.2119 -1.3227
    6MPD2     H14474   0.950   0.005  14.689  1.3008 -0.5098 -0.5369
    6MPD2    H114475   1.168   0.275  14.933  0.8916 -0.1945  0.9132
    6MPD2    H214476   1.222   4.595  14.969  2.3346  0.5983 -0.4060
    6MPD2    H314477   1.286   0.106  15.023 -1.1619  0.2631 -0.1006
    6MPD2     N14478   0.981   0.276  14.749 -0.1853  0.7550 -0.0688
    6MPD2    H514479   1.003   0.365  14.793 -1.7110  0.0467  2.0696
    6MPD2    N114480   1.065   4.536  14.768  0.8878  0.2585 -0.1752
    6MPD2    H714481   0.998   4.541  14.692  1.7178  1.4493 -0.8205
  945NH4     N114482   1.070   3.210  17.656  0.0429  0.5871  0.4064
  945NH4     H214483   1.028   3.283  17.718  0.1170  0.4369  0.6339
  945NH4     H314484   1.007   3.211  17.573  0.5740  2.7954  0.0220
  945NH4     H414485   1.079   3.119  17.706  0.2460 -0.0935 -0.8641
  945NH4     H514486   1.168   3.238  17.637  0.2146  0.2300  0.7463
  946SOD     NA14487   0.862   4.531   5.222  0.1273  0.2878  0.0263
  947SOD     NA14488   0.170   0.160  14.758 -0.3577 -0.2190  0.1669
  948SOD     NA14489   1.972   4.323  15.194 -0.2968 -0.4579 -0.2955
  949SOD     NA14490   2.394   1.901  16.405  0.5556 -0.0918  0.3173
  950SOD     NA14491   1.222   2.727  11.311  0.0118  0.1119  0.2105
  951SOD     NA14492   4.412   3.487  12.362  0.2817  0.3234  0.6834
  952SOD     NA14493   2.071   1.739   6.593  0.1473 -0.2969 -0.0318
  953SOL     OW14494   2.810   4.100   2.602 -0.4001 -0.0161  0.0479
  953SOL    HW114495   2.893   4.077   2.560 -1.3747 -2.1541 -0.7205
  953SOL    HW214496   2.812   4.040   2.677  0.8619 -1.5736 -1.2389
  954SOL     OW14497   1.472   4.403   1.532  0.4423  0.2268  0.4595
  954SOL    HW114498   1.390   4.389   1.483  0.8801  1.3639 -0.6159
  954SOL    HW214499   1.442   4.368   1.616  0.7135  1.5457  1.1036
  955SOL     OW14500   4.658   4.248  17.602  0.4861  0.3052  0.1419
  955SOL    HW114501   4.588   4.185  17.585 -2.2453  3.6089 -0.8376
  955SOL    HW214502   4.737   4.201  17.574  0.2747 -1.2176  2.0751
  956SOL     OW14503   3.391   3.615   1.866  0.0412 -0.1220 -0.1797
  956SOL    HW114504   3.300   3.617   1.894 -0.2931 -2.7758 -1.0724
  956SOL    HW214505   3.432   3.549   1.922 -0.8717  1.3536  2.2178
  957SOL     OW14506   1.202   1.099   7.226  0.6932  0.0392  0.6139
  957SOL    HW114507   1.189   1.094   7.131 -0.7647 -0.5090  0.8383
  957SOL    HW214508   1.296   1.113   7.218  0.9979 -0.7536  2.7349
  958SOL     OW14509   3.001   3.739   1.153  0.3299  0.1185  0.1299
  958SOL    HW114510   2.907   3.746   1.138  0.3919 -0.4455 -0.5335
  958SOL    HW214511   3.002   3.643   1.157 -1.8728  0.0270 -1.4748
  959SOL     OW14512   2.580   4.184   5.375  0.0385 -0.0282 -0.1887
  959SOL    HW114513   2.673   4.201   5.366 -0.3473  2.4496  0.4732
  959SOL    HW214514   2.542   4.261   5.331  0.0337 -0.5161 -1.0320
  960SOL     OW14515   2.510   3.889   8.473  0.1391 -0.6238 -0.0106
  960SOL    HW114516   2.543   3.841   8.397  0.1188 -0.2795 -0.2384
  960SOL    HW214517   2.416   3.882   8.459  0.1741 -1.8376  0.3190
  961SOL     OW14518   3.006   3.624  13.687  0.3727  0.0476 -0.0801
  961SOL    HW114519   3.025   3.614  13.593  3.9511  1.5092  0.5130
  961SOL    HW214520   2.952   3.546  13.697  0.3441  0.1994  0.8687
  962SOL     OW14521   1.980   4.463   3.398 -0.0054 -0.4251 -0.0828
  962SOL    HW114522   1.996   4.556   3.384  0.2517 -0.7016 -1.5896
  962SOL    HW214523   1.998   4.453   3.492  1.2750  0.2397 -0.2736
  963SOL     OW14524   2.874   3.849  13.861 -0.2483 -0.6548 -0.2174
  963SOL    HW114525   2.883   3.787  13.790  3.3732 -1.2272  0.7488
  963SOL    HW214526   2.781   3.828  13.874 -0.4105  0.9933  1.3338
  964SOL     OW14527   0.446   0.865  16.831  0.6837 -0.9042  0.2044
  964SOL    HW114528   0.482   0.915  16.757 -1.2620 -0.2088 -0.2613
  964SOL    HW214529   0.531   0.840  16.868  1.8409  0.6208 -1.4145
  965SOL     OW14530   3.701   2.139   4.735 -0.3978  0.6357 -0.2535
  965SOL    HW114531   3.719   2.086   4.657 -1.4232 -2.0502  1.3440
  965SOL    HW214532   3.633   2.191   4.693 -1.6217  0.3726  1.4594
  966SOL     OW14533   4.255   0.763   4.794 -0.3982  0.1519 -0.3469
  966SOL    HW114534   4.194   0.829   4.829  1.0941  0.3502  1.8558
  966SOL    HW214535   4.264   0.777   4.700  0.7769 -0.3233 -0.3046
  967SOL     OW14536   1.711   4.338  15.506 -0.3817  0.3108  0.6341
  967SOL    HW114537   1.715   4.284  15.586  0.0597 -1.0587 -0.3070
  967SOL    HW214538   1.630   4.388  15.508  0.6489  2.0459 -2.9958
  968SOL     OW14539   0.606   4.346   4.534 -0.6370  0.6852  0.5849
  968SOL    HW114540   0.525   4.336   4.485  0.5719 -2.1127 -0.9089
  968SOL    HW214541   0.635   4.257   4.557 -0.8507  0.4456 -0.0453
  969SOL     OW14542   4.061   0.358  10.237 -0.1224  0.3903  0.3877
  969SOL    HW114543   4.001   0.295  10.277  3.4803 -2.6578  0.9774
  969SOL    HW214544   4.083   0.414  10.312  1.4822 -0.6852  0.7231
  970SOL     OW14545   0.732   3.114   4.890  0.9110 -0.0154  0.5988
  970SOL    HW114546   0.701   3.029   4.920  0.2979  0.3617  1.0405
  970SOL    HW214547   0.752   3.157   4.973 -3.5211  0.2557  1.5460
  971SOL     OW14548   4.209   0.281  11.887 -0.1364  0.0137  0.1669
  971SOL    HW114549   4.276   0.263  11.953 -0.0522 -1.6686 -0.3667
  971SOL    HW214550   4.260   0.307  11.810  0.2648  1.3553  0.8844
  972SOL     OW14551   0.447   1.418   1.769  0.1682 -0.2403  0.0388
  972SOL    HW114552   0.391   1.438   1.694 -0.2285 -0.8987  0.1616
  972SOL    HW214553   0.526   1.392   1.720 -0.0623 -2.0233  0.6468
  973SOL     OW14554   2.493   2.397   8.168 -0.0991 -0.0855  0.0946
  973SOL    HW114555   2.453   2.371   8.251 -1.3822 -1.3524 -0.9296
  973SOL    HW214556   2.435   2.471   8.149  0.7924 -0.2795 -3.3441
  974SOL     OW14557   3.427   4.332   9.581  0.5049 -0.4145 -0.4568
  974SOL    HW114558   3.410   4.365   9.669  0.4440  2.0949 -1.4256
  974SOL    HW214559   3.364   4.393   9.543 -1.7775 -2.3000  0.2825
  975SOL     OW14560   1.639   3.648   5.517  0.0672 -0.2256 -0.6886
  975SOL    HW114561   1.724   3.617   5.484  0.5502 -0.4853  0.7807
  975SOL    HW214562   1.584   3.574   5.491  0.2833 -0.3720 -0.7399
  976SOL     OW14563   0.686   4.339   4.137  0.1837  0.3634  0.0502
  976SOL    HW114564   0.645   4.305   4.217  2.6453 -1.4031  0.5690
  976SOL    HW214565   0.639   4.292   4.069  1.7317  0.1317 -0.8693
  977SOL     OW14566   2.589   0.082   8.415 -0.3335 -0.7591 -0.2057
  977SOL    HW114567   2.509   0.112   8.459 -0.7286 -0.9424 -0.7899
  977SOL    HW214568   2.654   0.085   8.485 -1.1248 -0.2804  0.5062
  978SOL     OW14569   3.330   2.170   8.427  0.6745  0.3499  0.1764
  978SOL    HW114570   3.387   2.233   8.471 -1.5856  0.7104  2.5725
  978SOL    HW214571   3.298   2.195   8.340 -1.7852 -1.1658  0.6652
  979SOL     OW14572   0.207   1.596  15.186 -0.4591  0.8957 -0.3674
  979SOL    HW114573   0.139   1.646  15.230 -0.5159  1.3444 -0.9662
  979SOL    HW214574   0.163   1.552  15.112  1.3983 -1.4169 -0.1027
  980SOL     OW14575   4.446   4.479   4.811  0.0958 -0.1609  0.5267
  980SOL    HW114576   4.363   4.457   4.853  0.1575  0.2669  0.8753
  980SOL    HW214577   4.513   4.424   4.851 -1.3230 -2.3081 -0.0251
  981SOL     OW14578   3.965   1.592  10.177  0.5430 -0.1408 -0.3339
  981SOL    HW114579   3.918   1.633  10.249  1.4576 -0.6508  0.5535
  981SOL    HW214580   3.909   1.597  10.100 -0.3765  2.8928  0.5456
  982SOL     OW14581   3.564   3.752   6.470 -0.4970  0.5616  0.1392
  982SOL    HW114582   3.579   3.671   6.421  1.6073 -0.4824  2.5337
  982SOL    HW214583   3.613   3.732   6.549 -0.5021 -0.9564 -0.2443
  983SOL     OW14584   4.724   2.026   4.959 -0.3529 -0.3471 -0.7088
  983SOL    HW114585   4.728   1.964   4.886  1.9935  0.5252 -1.3171
  983SOL    HW214586   4.638   2.002   4.995 -0.4553 -3.3085 -2.9112
  984SOL     OW14587   4.327   3.956   6.466 -0.2311  0.1732  0.0760
  984SOL    HW114588   4.249   3.931   6.516  0.0325 -1.6589 -0.4284
  984SOL    HW214589   4.373   3.872   6.477  0.5716  0.8098  1.6179
  985SOL     OW14590   1.140   0.720   1.666 -0.0606  0.0927  0.0199
  985SOL    HW114591   1.086   0.657   1.712 -1.3636  1.3939  0.2648
  985SOL    HW214592   1.097   0.717   1.580 -1.6062  0.7023  0.7720
  986SOL     OW14593   2.136   3.496   4.609  0.0108 -0.4291 -0.1646
  986SOL    HW114594   2.082   3.573   4.628 -1.1930 -1.7059  1.5113
  986SOL    HW214595   2.102   3.428   4.666  0.4009 -0.2065  0.3445
  987SOL     OW14596   3.724   2.245  14.812 -0.0052 -0.3834 -0.8299
  987SOL    HW114597   3.744   2.152  14.819  1.2770  0.0382  1.0370
  987SOL    HW214598   3.810   2.277  14.839 -0.8747  0.2618  1.2149
  988SOL     OW14599   1.905   2.330  15.015 -0.2594 -0.3362  0.4696
  988SOL    HW114600   1.945   2.295  15.094  3.9733 -0.5826 -1.7491
  988SOL    HW214601   1.988   2.353  14.972 -0.1870 -1.9237 -0.2241
  989SOL     OW14602   1.591   4.723  10.666 -0.1355  0.1726  0.8316
  989SOL    HW114603   1.682   4.733  10.637 -0.6372  2.1051 -0.1027
  989SOL    HW214604   1.595   4.651  10.729  1.8125 -0.4740 -0.0240
  990SOL     OW14605   0.302   1.961  14.288  0.1348  0.1822  0.1287
  990SOL    HW114606   0.279   2.053  14.289  0.2673  0.2399 -1.0226
  990SOL    HW214607   0.234   1.916  14.238  0.2720 -0.1831  0.2646
  991SOL     OW14608   0.559   4.721   9.426 -0.2548  0.0089 -0.0963
  991SOL    HW114609   0.463   4.717   9.420 -0.3203 -0.3999  1.3747
  991SOL    HW214610   0.561   0.008   9.518 -1.4734 -0.5161  0.0870
  992SOL     OW14611   1.473   0.138   5.881 -0.5663 -0.4474 -0.2570
  992SOL    HW114612   1.491   0.053   5.919 -0.6164 -0.0434  0.6766
  992SOL    HW214613   1.453   0.194   5.956  0.4191 -1.0776  0.4630
  993SOL     OW14614   1.518   4.540   7.244 -0.6281 -0.0296  0.8297
  993SOL    HW114615   1.455   4.471   7.260 -1.7268  0.3495 -1.8760
  993SOL    HW214616   1.470   4.617   7.276 -0.5041  0.0740  0.7711
  994SOL     OW14617   2.251   1.603  17.665 -0.4680 -0.1840 -0.4719
  994SOL    HW114618   2.192   1.646  17.726 -0.2229 -0.5129 -0.0083
  994SOL    HW214619   2.328   1.659  17.678 -0.4731 -0.0031 -1.1899
  995SOL     OW14620   4.708   2.184  13.151  0.3637  0.1875 -0.1875
  995SOL    HW114621   4.664   2.121  13.208  1.1217  0.5581  0.8170
  995SOL    HW214622   0.000   2.133  13.077  3.6301  1.8838  0.0670
  996SOL     OW14623   2.426   0.925   3.575 -0.4655 -0.2498  0.0279
  996SOL    HW114624   2.335   0.945   3.598 -0.9478 -0.4168 -1.7858
  996SOL    HW214625   2.465   0.943   3.661 -1.9219 -1.1407  0.8849
  997SOL     OW14626   0.001   4.301   8.433 -0.5776  0.3533 -0.1592
  997SOL    HW114627   4.647   4.320   8.435 -0.5096  0.7513 -1.1650
  997SOL    HW214628   0.041   4.379   8.471  1.9149 -1.4563  0.9318
  998SOL     OW14629   4.462   0.751   8.306 -0.0284  0.1444  0.1497
  998SOL    HW114630   4.437   0.842   8.294 -2.0417 -0.1575  1.9741
  998SOL    HW214631   4.542   0.744   8.254 -0.1024  0.1781  0.0326
  999SOL     OW14632   1.115   2.754   1.572 -0.0301  0.1043  0.0698
  999SOL    HW114633   1.042   2.778   1.516 -0.5464 -0.1245  0.6451
  999SOL    HW214634   1.145   2.673   1.531 -0.3934  1.5650 -3.0726
 1000SOL     OW14635   0.092   4.694  16.417 -0.0181  0.3181 -0.0585
 1000SOL    HW114636   0.147   4.691  16.495  0.8938  3.1250 -0.5868
 1000SOL    HW214637   0.112   4.607  16.382  2.1703  0.9848 -0.4773
 1001SOL     OW14638   0.665   1.736  10.031 -0.0345 -0.1251 -0.0981
 1001SOL    HW114639   0.671   1.821   9.988  1.6845 -1.8233 -3.1648
 1001SOL    HW214640   0.757   1.727  10.055  0.4313  1.1922 -1.4243
 1002SOL     OW14641   2.243   0.530   6.157  0.0256  0.1675  0.4583
 1002SOL    HW114642   2.320   0.561   6.205  0.6192 -0.5469 -0.0289
 1002SOL    HW214643   2.198   0.486   6.229  0.3263 -0.6106  0.1733
 1003SOL     OW14644   4.598   0.752   2.638 -0.3867 -0.6290  0.5639
 1003SOL    HW114645   4.570   0.666   2.607 -1.1002 -0.5956  1.1013
 1003SOL    HW214646   4.591   0.739   2.733  0.5483  1.9241  0.9753
 1004SOL     OW14647   3.449   1.358  14.525  0.0227  0.5768  0.4172
 1004SOL    HW114648   3.544   1.348  14.523  0.2127  2.8250 -1.2873
 1004SOL    HW214649   3.437   1.443  14.566 -0.5276  1.1047 -0.8198
 1005SOL     OW14650   4.038   1.598   2.349  0.9547  0.0234 -0.5331
 1005SOL    HW114651   4.037   1.669   2.414  1.5062 -0.3187 -0.1521
 1005SOL    HW214652   4.031   1.654   2.271 -0.6019  1.0047  0.3140
 1006SOL     OW14653   3.924   1.663  11.457 -0.1975  0.3644 -0.1745
 1006SOL    HW114654   3.925   1.707  11.542  0.1300 -0.2945  0.1681
 1006SOL    HW214655   4.007   1.697  11.423  0.5355 -0.1626  1.0541
 1007SOL     OW14656   2.714   2.184   5.330  0.7363 -0.1137 -0.1242
 1007SOL    HW114657   2.624   2.204   5.306  0.0108  1.4104  3.8413
 1007SOL    HW214658   2.740   2.121   5.263 -0.6157 -1.4524  0.6240
 1008SOL     OW14659   1.721   2.902   3.554  0.0808  0.5352 -0.0891
 1008SOL    HW114660   1.674   2.981   3.583  1.3370  0.9193  0.8741
 1008SOL    HW214661   1.648   2.865   3.505 -0.2340  1.0813 -0.0422
 1009SOL     OW14662   1.266   1.048   2.589  0.1037 -0.1881  0.3143
 1009SOL    HW114663   1.327   1.006   2.649  0.8239  1.7957  0.9618
 1009SOL    HW214664   1.319   1.106   2.535 -2.8547  1.5493 -0.7090
 1010SOL     OW14665   1.900   1.430   5.557 -0.2059  0.8681  0.0837
 1010SOL    HW114666   1.853   1.473   5.485 -0.9449 -0.1353 -0.0387
 1010SOL    HW214667   1.830   1.420   5.622 -0.2586 -1.0670 -0.2921
 1011SOL     OW14668   3.105   3.007   8.109 -0.0297 -0.3519 -0.2562
 1011SOL    HW114669   3.067   3.092   8.134 -2.6072 -1.0687 -1.7680
 1011SOL    HW214670   3.041   2.943   8.141  0.8136 -1.8990 -1.7109
 1012SOL     OW14671   1.569   2.963  11.269  0.3983  0.3752  0.0968
 1012SOL    HW114672   1.569   2.970  11.174  3.4483  1.3032  0.1613
 1012SOL    HW214673   1.572   2.868  11.286 -3.4575  0.1517 -0.4382
 1013SOL     OW14674   2.402   3.189   6.398  0.1940  0.2341 -0.7722
 1013SOL    HW114675   2.381   3.275   6.362  1.7972  0.0136 -2.2318
 1013SOL    HW214676   2.480   3.215   6.446 -0.2166 -1.5326  0.8562
 1014SOL     OW14677   1.468   0.712   9.619 -0.1717 -0.0568 -0.9112
 1014SOL    HW114678   1.526   0.636   9.629  0.4148  0.5508  0.2326
 1014SOL    HW214679   1.525   0.784   9.646 -3.3035  1.5092  1.4784
 1015SOL     OW14680   1.865   1.111   4.744  0.2023  0.2595  0.2194
 1015SOL    HW114681   1.827   1.147   4.824  0.4478  1.2972 -0.1284
 1015SOL    HW214682   1.815   1.145   4.670  1.4112  1.8393  0.1278
 1016SOL     OW14683   3.356   3.482   8.389  0.0915  0.0848 -0.4763
 1016SOL    HW114684   3.340   3.434   8.307 -0.3498  0.4775 -0.6172
 1016SOL    HW214685   3.283   3.543   8.379 -0.2554 -0.2233  0.1710
 1017SOL     OW14686   0.601   0.167   3.999  0.3529  0.7830  0.1130
 1017SOL    HW114687   0.675   0.181   3.940 -0.1044  2.3890 -0.0935
 1017SOL    HW214688   0.557   0.093   3.958  0.6898 -0.2489  1.6190
 1018SOL     OW14689   1.382   4.435   3.804 -0.0653  0.0866  0.0649
 1018SOL    HW114690   1.436   4.421   3.726  0.4439  0.5252  0.3428
 1018SOL    HW214691   1.298   4.450   3.761 -1.7077 -0.8255  2.9408
 1019SOL     OW14692   4.708   0.806  10.084 -0.2690  0.1193  0.7776
 1019SOL    HW114693   4.670   0.894  10.086 -4.2105 -1.5788  2.4829
 1019SOL    HW214694   0.038   0.823  10.147  0.6533  2.0223 -0.8001
 1020SOL     OW14695   4.693   2.098   0.090  0.3021 -0.2496  0.5769
 1020SOL    HW114696   0.027   2.039   0.077  2.2085  1.7009  2.5171
 1020SOL    HW214697   4.736   2.182   0.109 -2.0160  1.0945 -0.0924
 1021SOL     OW14698   0.006   0.221   9.776  0.0119 -0.0747 -0.3986
 1021SOL    HW114699   0.007   0.165   9.853  1.4905  0.7036  0.1318
 1021SOL    HW214700   0.089   0.190   9.740 -0.5042  0.8761 -2.4098
 1022SOL     OW14701   1.417   0.576   5.713  0.1716  0.2845 -0.6523
 1022SOL    HW114702   1.372   0.610   5.635 -0.9360  0.1355 -0.0827
 1022SOL    HW214703   1.359   0.504   5.736  0.3355  0.0325 -1.0392
 1023SOL     OW14704   4.511   0.493   3.636 -0.3023 -0.3747 -0.5776
 1023SOL    HW114705   4.480   0.440   3.562 -0.7639  3.0020 -2.8012
 1023SOL    HW214706   4.550   0.424   3.690 -0.2414 -0.2732 -0.4939
 1024SOL     OW14707   2.676   1.102   8.184  0.0186  0.4457 -0.4846
 1024SOL    HW114708   2.674   1.197   8.189  0.2307  0.3436  1.8090
 1024SOL    HW214709   2.628   1.076   8.263  0.4060  0.0533 -0.3766
 1025SOL     OW14710   1.003   3.997  17.701  0.8350  0.2016  0.4043
 1025SOL    HW114711   0.994   3.941  17.625  1.8646  0.9221 -0.2580
 1025SOL    HW214712   0.948   4.070  17.671 -0.0150 -0.8206 -0.5124
 1026SOL     OW14713   2.360   3.214   0.326 -0.0670 -0.0130 -0.4882
 1026SOL    HW114714   2.297   3.274   0.286 -0.9064 -0.1271  0.6785
 1026SOL    HW214715   2.336   3.135   0.276  0.0897 -0.1799 -0.2966
 1027SOL     OW14716   4.496   3.104   3.146 -0.2859 -0.5477 -0.1350
 1027SOL    HW114717   4.412   3.102   3.192  0.8305  2.6048  2.0252
 1027SOL    HW214718   4.478   3.045   3.072 -0.5300  0.3157 -0.7625
 1028SOL     OW14719   3.879   3.058   3.119 -0.1353 -0.0156 -0.4426
 1028SOL    HW114720   3.892   2.963   3.114 -0.1529  0.0050 -0.8769
 1028SOL    HW214721   3.795   3.073   3.163 -0.0856 -0.6194 -0.1323
 1029SOL     OW14722   3.750   4.611   5.660 -0.5928 -0.1948  0.2001
 1029SOL    HW114723   3.722   4.620   5.569  1.5327 -1.1828 -0.5390
 1029SOL    HW214724   3.676   4.649   5.707 -0.6710  0.1269 -0.1868
 1030SOL     OW14725   0.808   2.416   7.129 -0.0086  0.2847  0.0198
 1030SOL    HW114726   0.783   2.324   7.136  0.0855  0.2114 -0.5868
 1030SOL    HW214727   0.889   2.415   7.077 -1.6822 -1.0547 -2.5691
 1031SOL     OW14728   2.147   0.902  16.771  0.3207 -0.2131  0.1987
 1031SOL    HW114729   2.194   0.828  16.732 -1.5889 -1.0939 -0.4596
 1031SOL    HW214730   2.227   0.955  16.773  0.4809 -0.3875 -1.0587
 1032SOL     OW14731   3.565   1.882   7.132  0.0802  0.0525  0.4770
 1032SOL    HW114732   3.507   1.834   7.191  0.0436 -1.9715 -1.1979
 1032SOL    HW214733   3.629   1.915   7.195  1.3360 -2.9386  0.7564
 1033SOL     OW14734   4.057   4.640   9.564  0.0326  0.0325  0.5701
 1033SOL    HW114735   4.106   4.574   9.613  1.4749  0.6880 -0.0247
 1033SOL    HW214736   3.968   4.624   9.596 -0.9404  0.2916 -2.0413
 1034SOL     OW14737   2.975   4.404   2.408  0.2132 -0.0900  0.6548
 1034SOL    HW114738   3.043   4.358   2.458 -0.9293 -0.0695  2.2441
 1034SOL    HW214739   2.993   4.497   2.421  2.6634 -0.4652 -0.1283
 1035SOL     OW14740   2.667   1.172   0.006  0.2052 -0.4576 -0.3749
 1035SOL    HW114741   2.634   1.234  17.699  0.9373 -0.4791 -0.7615
 1035SOL    HW214742   2.761   1.164  17.747  0.0194  0.9982 -2.0059
 1036SOL     OW14743   1.834   1.519   2.548  0.1761  0.2316 -0.1569
 1036SOL    HW114744   1.903   1.584   2.537  0.8464  0.0634  3.0256
 1036SOL    HW214745   1.820   1.511   2.642 -1.3680  0.6381 -0.3514
 1037SOL     OW14746   4.223   0.225   2.982 -0.4387 -0.2253 -0.4656
 1037SOL    HW114747   4.204   0.313   2.950  1.3724  0.1522 -0.5149
 1037SOL    HW214748   4.165   0.170   2.930 -0.4106  0.1828 -0.9304
 1038SOL     OW14749   0.992   3.801   8.725 -0.0785  0.6069  0.5650
 1038SOL    HW114750   0.904   3.831   8.702 -0.7428  0.5279  3.0285
 1038SOL    HW214751   0.983   3.708   8.703  0.0955  0.6361  0.3596
 1039SOL     OW14752   0.835   1.456   4.053 -0.6136  0.0429 -0.3073
 1039SOL    HW114753   0.757   1.482   4.003 -1.1464 -0.4087  0.2898
 1039SOL    HW214754   0.908   1.486   3.998  0.0067  0.0124  0.5105
 1040SOL     OW14755   0.350   2.985   5.465  0.2813  0.8738 -0.7235
 1040SOL    HW114756   0.351   3.074   5.502  0.6117  0.5741 -0.0137
 1040SOL    HW214757   0.257   2.990   5.442  0.0619 -1.7639 -0.3499
 1041SOL     OW14758   1.774   3.767   1.314 -0.0796  0.0366 -0.5581
 1041SOL    HW114759   1.767   3.746   1.407 -2.1578 -2.6675 -1.3055
 1041SOL    HW214760   1.762   3.861   1.303 -0.4998  0.0077 -0.3447
 1042SOL     OW14761   0.012   4.577  14.682 -0.1066 -0.2837  0.4591
 1042SOL    HW114762   4.710   4.650  14.636  0.4934 -0.2770 -0.0840
 1042SOL    HW214763   0.043   4.621  14.761  1.4775  0.0642 -0.3586
 1043SOL     OW14764   4.685   2.265  12.224 -0.0277 -0.3446 -0.2218
 1043SOL    HW114765   4.636   2.309  12.294 -0.8566 -0.8122 -0.5177
 1043SOL    HW214766   0.017   2.230  12.277  0.5656  0.1143 -0.7299
 1044SOL     OW14767   4.419   1.822   3.593  0.3662 -0.8340 -0.2156
 1044SOL    HW114768   4.389   1.779   3.513 -0.5440  0.6408 -0.6608
 1044SOL    HW214769   4.368   1.903   3.598  0.2300 -0.9228 -0.1879
 1045SOL     OW14770   2.491   1.253  10.670  0.9953 -0.2010  0.0174
 1045SOL    HW114771   2.571   1.284  10.713 -0.2649  3.4525 -0.2896
 1045SOL    HW214772   2.485   1.314  10.597 -0.0545  1.2501  1.3060
 1046SOL     OW14773   1.422   2.559   7.185 -0.4574 -0.2189 -0.5093
 1046SOL    HW114774   1.493   2.513   7.231  0.3584  1.3271 -0.2089
 1046SOL    HW214775   1.465   2.645   7.178 -3.8853  1.4478 -0.7265
 1047SOL     OW14776   2.570   1.717   1.778 -0.0756  0.2012  0.0061
 1047SOL    HW114777   2.659   1.696   1.805 -0.5758  2.0312  3.1400
 1047SOL    HW214778   2.591   1.799   1.735  0.3489  2.2497  4.1147
 1048SOL     OW14779   1.559   2.344   5.040 -0.2590  0.1454  0.0759
 1048SOL    HW114780   1.501   2.374   5.110  0.4935 -1.4825  1.3890
 1048SOL    HW214781   1.647   2.372   5.067 -0.8547  0.1387  1.9930
 1049SOL     OW14782   0.801   2.198   6.809 -0.7783 -0.3736  0.1435
 1049SOL    HW114783   0.894   2.174   6.808 -0.4082  1.0233  1.3363
 1049SOL    HW214784   0.797   2.293   6.803 -0.5550 -0.3885 -0.2632
 1050SOL     OW14785   2.736   1.257   6.653  0.4770 -0.8802 -0.4537
 1050SOL    HW114786   2.768   1.347   6.658 -0.7235 -0.3902 -1.8097
 1050SOL    HW214787   2.653   1.265   6.606  1.2989 -2.8000 -2.2096
 1051SOL     OW14788   3.248   4.149   7.737 -0.3361 -0.1317  0.0123
 1051SOL    HW114789   3.318   4.106   7.686 -0.1080 -0.2924  0.4650
 1051SOL    HW214790   3.175   4.115   7.684 -0.3217  1.6320 -1.1375
 1052SOL     OW14791   4.301   1.250   2.140 -0.1463  0.3264 -0.3501
 1052SOL    HW114792   4.237   1.297   2.194 -0.1657 -0.7919  0.6053
 1052SOL    HW214793   4.255   1.242   2.057 -3.9510 -0.0732  1.8068
 1053SOL     OW14794   1.907   1.937  12.522 -0.5388 -0.4639  0.4704
 1053SOL    HW114795   1.990   1.899  12.491 -1.2978  0.0184 -2.1403
 1053SOL    HW214796   1.944   2.025  12.526 -1.8092  0.0285  1.2779
 1054SOL     OW14797   2.665   1.926  11.892  0.4510  0.0357 -0.3388
 1054SOL    HW114798   2.617   1.845  11.874  2.7953 -0.9303 -2.2420
 1054SOL    HW214799   2.717   1.922  11.812  0.7273 -1.0309 -0.1152
 1055SOL     OW14800   0.438   3.925   8.167  0.0321 -0.3615  0.0999
 1055SOL    HW114801   0.387   3.967   8.236 -1.0076 -1.0432 -0.2613
 1055SOL    HW214802   0.364   3.890   8.117 -1.0320  2.5277 -0.3668
 1056SOL     OW14803   3.128   1.920  14.624  0.4303 -0.3632 -0.3803
 1056SOL    HW114804   3.097   1.993  14.571  0.5536 -0.2708 -0.3252
 1056SOL    HW214805   3.051   1.866  14.638  0.7416 -0.5647  0.5253
 1057SOL     OW14806   1.510   4.249   3.015 -0.4082  0.2734 -0.4960
 1057SOL    HW114807   1.431   4.303   3.007 -1.3474 -1.3231 -2.0748
 1057SOL    HW214808   1.536   4.281   3.102 -0.4992 -1.2338  0.0837
 1058SOL     OW14809   1.892   0.064   6.960 -0.3124  0.9649  0.1953
 1058SOL    HW114810   1.900   0.094   7.050  0.8954 -2.0023  1.0773
 1058SOL    HW214811   1.835   4.728   6.967  1.9255 -0.8017 -0.7168
 1059SOL     OW14812   2.362   3.793   5.862  0.5195 -0.3304  0.6397
 1059SOL    HW114813   2.275   3.780   5.824  0.4575 -0.3054  0.7732
 1059SOL    HW214814   2.337   3.852   5.933  1.6332  1.4192 -0.4372
 1060SOL     OW14815   2.001   0.446  13.184  0.1306 -0.3681  0.3091
 1060SOL    HW114816   2.022   0.531  13.221  4.0223 -0.6355 -1.2424
 1060SOL    HW214817   1.906   0.437  13.182  0.0339  0.9149 -0.3944
 1061SOL     OW14818   2.226   3.975   8.846 -0.1098 -0.2324  0.0321
 1061SOL    HW114819   2.167   3.967   8.771  0.6809 -2.4705 -0.3578
 1061SOL    HW214820   2.211   4.068   8.865 -0.3570 -0.2676  0.0045
 1062SOL     OW14821   1.996   3.397   2.468 -0.0986 -0.0537 -0.4982
 1062SOL    HW114822   1.981   3.491   2.478 -1.1809 -0.3776  0.7981
 1062SOL    HW214823   1.976   3.385   2.375 -2.2614 -0.8038  0.0647
 1063SOL     OW14824   0.948   4.289   5.843  0.5013  0.1915 -0.1709
 1063SOL    HW114825   0.917   4.370   5.884  0.6768  2.0017 -3.6211
 1063SOL    HW214826   0.975   4.324   5.758  1.2095 -0.5687 -0.2514
 1064SOL     OW14827   0.833   2.329   1.250 -0.5633 -0.2829 -0.6140
 1064SOL    HW114828   0.907   2.283   1.210  1.7533  3.1967 -0.2740
 1064SOL    HW214829   0.873   2.415   1.259  0.7970 -1.0964  1.2196
 1065SOL     OW14830   0.390   2.794   3.292 -0.1136 -0.5169 -0.4046
 1065SOL    HW114831   0.439   2.857   3.240 -0.5032 -1.6471 -2.1344
 1065SOL    HW214832   0.453   2.781   3.363 -1.6522  0.3943  1.1326
 1066SOL     OW14833   0.087   1.812  14.184  0.4783 -0.7366 -0.4577
 1066SOL    HW114834   0.016   1.863  14.145  1.6530  0.5078 -0.9488
 1066SOL    HW214835   0.029   1.753  14.231  0.1159  0.8056  1.0221
 1067SOL     OW14836   2.094   0.817   9.154 -0.1510  0.6683  0.0499
 1067SOL    HW114837   2.187   0.805   9.173  0.1099  3.6155  0.5492
 1067SOL    HW214838   2.073   0.724   9.140 -0.7914  0.9343 -0.7872
 1068SOL     OW14839   4.316   2.779   2.636 -0.1183  0.4196 -0.4302
 1068SOL    HW114840   4.408   2.752   2.634  0.1980  1.2972  2.7837
 1068SOL    HW214841   4.314   2.854   2.696 -1.4701  1.1552 -1.4007
 1069SOL     OW14842   0.457   1.112   5.838 -0.1643  0.6507  0.1615
 1069SOL    HW114843   0.396   1.061   5.784 -0.8678  2.6613 -0.9935
 1069SOL    HW214844   0.500   1.162   5.769 -0.4162 -0.4590 -0.7913
 1070SOL     OW14845   3.959   4.083   2.395 -0.1450  0.4621 -0.2516
 1070SOL    HW114846   3.978   4.152   2.459 -2.7287 -1.8925  3.0920
 1070SOL    HW214847   4.045   4.049   2.371 -1.0674 -0.5451 -2.1234
 1071SOL     OW14848   1.367   3.615  15.956 -0.2844  0.0227 -0.3459
 1071SOL    HW114849   1.440   3.587  15.901 -0.5671 -1.4311  0.0290
 1071SOL    HW214850   1.340   3.535  16.001  3.2702 -0.9172  0.0614
 1072SOL     OW14851   2.444   4.537   2.134  0.3734  0.4259  0.0776
 1072SOL    HW114852   2.353   4.565   2.143  0.5991  1.8713 -2.3702
 1072SOL    HW214853   2.446   4.446   2.103 -1.9680  0.5210 -0.3599
 1073SOL     OW14854   4.325   2.484   3.522 -0.2369 -0.1028 -0.2197
 1073SOL    HW114855   4.413   2.507   3.491  1.0372 -1.2553  2.5887
 1073SOL    HW214856   4.333   2.524   3.608  0.2467 -0.0528 -0.2917
 1074SOL     OW14857   0.589   3.193  13.316  0.3221  0.3070  0.1150
 1074SOL    HW114858   0.524   3.188  13.387 -0.6957  2.0342 -0.6968
 1074SOL    HW214859   0.545   3.139  13.251 -1.3377  2.4438 -0.5342
 1075SOL     OW14860   4.685   4.565   2.494 -0.7824  0.1609  0.3011
 1075SOL    HW114861   4.697   4.653   2.530 -0.3892 -0.0262  0.6266
 1075SOL    HW214862   4.666   4.579   2.401 -0.0487  1.3260  0.3271
 1076SOL     OW14863   3.692   3.168   4.109  0.0749 -0.0302  0.1514
 1076SOL    HW114864   3.631   3.187   4.179 -2.4908 -1.5652 -1.6924
 1076SOL    HW214865   3.761   3.201   4.166  0.6323 -0.1802 -0.4267
 1077SOL     OW14866   4.647   3.504   7.055  0.5893  0.3319 -0.1314
 1077SOL    HW114867   4.712   3.440   7.025  0.3790 -0.0686  0.2729
 1077SOL    HW214868   4.579   3.449   7.093 -1.7054  1.7913 -2.1235
 1078SOL     OW14869   4.223   3.404  14.601 -0.1148  0.5010 -0.0747
 1078SOL    HW114870   4.182   3.490  14.599 -0.7255  0.2263  0.7387
 1078SOL    HW214871   4.307   3.416  14.646  0.5223 -0.8826 -0.9034
 1079SOL     OW14872   0.153   0.584  14.235  0.4568 -0.1495  0.2337
 1079SOL    HW114873   0.139   0.490  14.236  1.7884 -0.3514 -3.4696
 1079SOL    HW214874   0.230   0.588  14.179  1.2783 -2.7357  1.1730
 1080SOL     OW14875   3.285   2.594   5.884 -0.7232  0.3421 -0.6707
 1080SOL    HW114876   3.251   2.566   5.969  0.4278 -1.2021 -0.7133
 1080SOL    HW214877   3.207   2.619   5.834 -0.6321 -1.7397 -1.8437
 1081SOL     OW14878   3.929   1.468   7.104  0.4445 -0.0159  0.3283
 1081SOL    HW114879   3.880   1.528   7.047  0.9756 -1.3076 -1.4659
 1081SOL    HW214880   3.984   1.534   7.146  0.3828  0.1236  0.1935
 1082SOL     OW14881   3.959   3.460   7.170  0.5678  0.4329 -0.6884
 1082SOL    HW114882   3.898   3.394   7.203  1.7760  0.3954  1.4680
 1082SOL    HW214883   4.045   3.419   7.175  0.0403 -0.4193  1.4234
 1083SOL     OW14884   1.690   1.443   8.113 -0.5279 -0.2780 -0.3098
 1083SOL    HW114885   1.602   1.435   8.151 -0.8066 -2.0205 -1.3530
 1083SOL    HW214886   1.714   1.351   8.110 -0.2045 -0.1950 -0.2031
 1084SOL     OW14887   0.159   0.660   3.844 -0.1221  0.1587  0.4690
 1084SOL    HW114888   0.194   0.658   3.755 -1.7254 -1.5500 -0.1285
 1084SOL    HW214889   0.211   0.735   3.873 -1.2296  0.5469  1.4476
 1085SOL     OW14890   2.934   3.778   0.767  0.0197 -0.2758 -0.3994
 1085SOL    HW114891   2.897   3.720   0.700 -2.9438 -0.5723  1.4896
 1085SOL    HW214892   2.872   3.850   0.777 -0.3065 -0.8937  1.9853
 1086SOL     OW14893   0.218   1.225   0.752 -0.1223 -0.6668 -0.0106
 1086SOL    HW114894   0.238   1.217   0.845 -0.2106 -0.5418  0.0192
 1086SOL    HW214895   0.211   1.130   0.740  0.6583 -0.8189  0.7941
 1087SOL     OW14896   0.750   2.548  12.207  0.5391 -0.1815  0.2136
 1087SOL    HW114897   0.767   2.516  12.296  1.2840  1.8729  0.8234
 1087SOL    HW214898   0.823   2.610  12.200 -0.2857  0.9506  1.6553
 1088SOL     OW14899   4.289   1.000   8.529 -0.6943  0.0766 -0.1651
 1088SOL    HW114900   4.248   0.916   8.547 -0.6312  0.7479  3.0429
 1088SOL    HW214901   4.223   1.036   8.469  0.5431 -0.5271 -1.9146
 1089SOL     OW14902   0.527   0.662   3.361 -0.0463  0.3106  0.1993
 1089SOL    HW114903   0.464   0.728   3.331  0.5330 -0.4634 -2.8149
 1089SOL    HW214904   0.591   0.723   3.395  0.8871  0.3174 -1.5769
 1090SOL     OW14905   0.009   2.191   6.975  0.0280 -0.0811 -0.9725
 1090SOL    HW114906   0.044   2.210   7.062  0.0571 -2.2143 -0.5170
 1090SOL    HW214907   0.086   2.217   6.925  0.4683 -1.0365 -0.7872
 1091SOL     OW14908   4.697   2.956  16.079 -0.2966 -0.0289 -0.4360
 1091SOL    HW114909   4.611   2.984  16.050 -1.2123 -1.3023  1.0176
 1091SOL    HW214910   4.730   3.026  16.135 -1.5595  0.0436  0.2088
 1092SOL     OW14911   4.415   2.897   8.083 -0.1287 -0.0836 -0.0603
 1092SOL    HW114912   4.477   2.875   8.014 -1.1241 -1.6058 -0.4625
 1092SOL    HW214913   4.468   2.936   8.153  0.5225 -0.7961 -0.1653
 1093SOL     OW14914   4.719   3.939   8.699  0.0552  0.3667  0.1190
 1093SOL    HW114915   0.012   3.873   8.759 -0.1791 -0.0090 -0.1650
 1093SOL    HW214916   4.694   3.881   8.628 -1.5285  1.0477  0.1255
 1094SOL     OW14917   2.011   1.466   9.978 -0.4251 -0.0513  0.0174
 1094SOL    HW114918   1.956   1.536  10.014 -0.9138 -0.3915 -0.0636
 1094SOL    HW214919   1.947   1.398   9.958 -0.9451 -0.4728  3.1021
 1095SOL     OW14920   1.473   2.158   7.218 -0.1482  0.0306  0.0723
 1095SOL    HW114921   1.509   2.236   7.261 -0.3847  0.3977 -0.4006
 1095SOL    HW214922   1.443   2.193   7.134 -0.4631 -1.9414 -0.6377
 1096SOL     OW14923   1.050   3.807  10.260  0.1182 -0.1107 -0.1012
 1096SOL    HW114924   1.141   3.804  10.231  0.7005  0.8605  1.6285
 1096SOL    HW214925   1.059   3.875  10.326 -1.0056 -0.9885  0.9817
 1097SOL     OW14926   2.214   2.554   8.125  0.0605  0.1113  0.2562
 1097SOL    HW114927   2.199   2.542   8.219 -2.5727  1.2964 -0.0150
 1097SOL    HW214928   2.179   2.643   8.130  2.3083  0.8471  2.7877
 1098SOL     OW14929   2.840   4.720  12.750  0.2787  0.1247 -0.1206
 1098SOL    HW114930   2.844   4.641  12.804  1.6134  0.5242  0.3548
 1098SOL    HW214931   2.923   0.018  12.779 -0.4456  0.1423  1.8791
 1099SOL     OW14932   1.969   2.151  13.560  0.0584  0.3045 -0.0440
 1099SOL    HW114933   1.978   2.069  13.608  2.8200  0.9262  0.4953
 1099SOL    HW214934   1.880   2.172  13.589 -0.2677 -1.5041  0.2397
 1100SOL     OW14935   2.298   2.899   4.555  0.2541 -0.1713  0.6399
 1100SOL    HW114936   2.268   2.836   4.620  0.0898 -0.3041  0.4349
 1100SOL    HW214937   2.356   2.950   4.612 -0.6654 -0.3818  1.7602
 1101SOL     OW14938   3.899   0.209   2.429  0.0849 -0.8342  0.2036
 1101SOL    HW114939   3.945   0.128   2.405  0.5125 -0.4696 -0.1909
 1101SOL    HW214940   3.898   0.210   2.525 -1.2823  0.0671  0.1799
 1102SOL     OW14941   4.676   4.474   9.906 -0.1079  0.3014  0.1072
 1102SOL    HW114942   4.591   4.475   9.951  0.6111 -1.8355  1.5326
 1102SOL    HW214943   4.708   4.384   9.905 -0.7769  0.0631 -0.1755
 1103SOL     OW14944   2.515   4.429   5.961  0.2789 -0.1118  0.0581
 1103SOL    HW114945   2.569   4.507   5.972 -0.4978  0.5270 -0.7375
 1103SOL    HW214946   2.551   4.388   5.882 -0.6424 -2.8396  1.0499
 1104SOL     OW14947   2.222   1.672   8.048 -0.5557 -0.7424  0.0590
 1104SOL    HW114948   2.277   1.700   7.976 -1.6409  0.9732 -0.0988
 1104SOL    HW214949   2.286   1.696   8.115 -0.3787 -0.5153 -0.1948
 1105SOL     OW14950   4.216   4.028   2.342 -0.1044 -0.5229  0.1544
 1105SOL    HW114951   4.240   4.091   2.274 -1.1711  0.8082  1.0221
 1105SOL    HW214952   4.220   3.947   2.291  0.0001 -0.1520 -0.4261
 1106SOL     OW14953   2.367   3.391   8.312  0.0806  0.9959  0.1753
 1106SOL    HW114954   2.292   3.354   8.359 -1.3418  2.4813 -0.9133
 1106SOL    HW214955   2.337   3.412   8.224 -1.8770  0.4018  0.6834
 1107SOL     OW14956   4.183   0.879   6.697 -0.1163 -0.1249  0.3067
 1107SOL    HW114957   4.126   0.806   6.720 -1.3651  1.2399  1.5648
 1107SOL    HW214958   4.208   0.907   6.785  1.7328 -0.9114  0.0354
 1108SOL     OW14959   2.047   4.197   1.870 -0.1812  0.1021  0.5598
 1108SOL    HW114960   2.002   4.233   1.946 -0.7403  0.3584  0.1114
 1108SOL    HW214961   2.098   4.268   1.832 -1.1114  1.2418  1.4482
 1109SOL     OW14962   4.199   3.094  16.097  0.2324 -0.3570 -0.3237
 1109SOL    HW114963   4.285   3.122  16.129 -0.4663 -0.4022  1.5781
 1109SOL    HW214964   4.158   3.060  16.176 -1.7317  0.4067 -0.9929
 1110SOL     OW14965   2.501   1.881   8.076  0.2845  0.2804 -0.0660
 1110SOL    HW114966   2.464   1.846   8.157  0.9670  0.8067  0.4719
 1110SOL    HW214967   2.462   1.967   8.065  1.9273  0.8952 -1.0743
 1111SOL     OW14968   1.009   0.617   9.748  0.3367 -0.2199 -0.3156
 1111SOL    HW114969   0.969   0.668   9.819  2.1758  1.0446 -0.2026
 1111SOL    HW214970   1.079   0.573   9.796  1.0831  0.3115 -0.9210
 1112SOL     OW14971   4.720   3.732   6.271  0.2027  0.3517 -0.1086
 1112SOL    HW114972   4.640   3.758   6.226  0.1501 -2.5202 -1.6260
 1112SOL    HW214973   0.045   3.712   6.203  0.7671  0.3932  0.4183
 1113SOL     OW14974   1.957   0.644   5.368 -0.3550 -0.5284 -0.6168
 1113SOL    HW114975   1.894   0.714   5.379 -1.0983 -1.0922 -1.2702
 1113SOL    HW214976   1.933   0.584   5.439  1.3489 -3.5923 -2.6426
 1114SOL     OW14977   3.012   2.472  10.909  0.2519  0.1048 -0.0814
 1114SOL    HW114978   3.031   2.502  10.998 -1.4700  2.0218 -0.3448
 1114SOL    HW214979   2.945   2.410  10.938  0.5920 -1.2586 -2.2188
 1115SOL     OW14980   2.405   4.502   8.297  0.0974  0.1230 -0.1171
 1115SOL    HW114981   2.446   4.486   8.212  0.4802 -0.9587  0.2660
 1115SOL    HW214982   2.313   4.484   8.279 -0.8246  3.4190  1.2725
 1116SOL     OW14983   1.801   4.732   7.977 -0.0406 -0.8538 -0.0112
 1116SOL    HW114984   1.860   0.063   7.953 -1.2215  0.5281  1.1463
 1116SOL    HW214985   1.850   4.654   7.948 -0.3801 -0.1897 -2.4100
 1117SOL     OW14986   0.847   1.420   7.898  0.5675 -0.4544  0.8969
 1117SOL    HW114987   0.812   1.509   7.899  1.6485 -0.0364  2.0996
 1117SOL    HW214988   0.808   1.376   7.973  2.4979 -0.1854  2.0643
 1118SOL     OW14989   4.517   2.903   9.223 -0.0967  0.0685 -0.1907
 1118SOL    HW114990   4.525   2.965   9.150 -3.4284  1.7739  0.8473
 1118SOL    HW214991   4.529   2.969   9.291 -2.1514  1.3317 -1.0444
 1119SOL     OW14992   0.455   2.945   3.950  0.0668 -0.0867 -0.2873
 1119SOL    HW114993   0.463   3.030   3.908 -0.5015 -0.0163 -0.2647
 1119SOL    HW214994   0.438   2.891   3.873 -1.6599  0.0319 -0.0060
 1120SOL     OW14995   1.695   3.671   3.159  0.3117 -0.7024 -1.2510
 1120SOL    HW114996   1.674   3.580   3.137 -2.1362 -0.2834 -0.6775
 1120SOL    HW214997   1.630   3.688   3.226 -0.8567  1.3686 -2.9259
 1121SOL     OW14998   4.264   0.951   6.935  0.5311 -0.0772 -0.2028
 1121SOL    HW114999   4.280   0.911   7.020 -3.2043  1.3330  1.1776
 1121SOL    HW215000   4.300   1.037   6.957  0.4401  0.0127 -0.3979
 1122SOL     OW15001   4.251   4.506  15.976  0.0885  0.2006 -0.2838
 1122SOL    HW115002   4.327   4.561  15.994  0.4889 -0.2339 -0.6456
 1122SOL    HW215003   4.170   4.558  15.973  0.9902  1.5989 -0.4092
 1123SOL     OW15004   1.835   0.404   8.041 -0.4155 -0.5299 -0.0685
 1123SOL    HW115005   1.914   0.436   7.997 -1.2180  0.1609 -1.0141
 1123SOL    HW215006   1.785   0.367   7.968  0.9521 -1.3728 -0.5628
 1124SOL     OW15007   4.075   4.118  16.853 -0.2093  0.0414  0.9889
 1124SOL    HW115008   4.058   4.206  16.888  1.8291 -0.3151  2.8961
 1124SOL    HW215009   4.162   4.119  16.893 -0.0562  1.4562  0.5984
 1125SOL     OW15010   3.602   4.210   4.079 -0.0092 -0.9733  0.4553
 1125SOL    HW115011   3.644   4.297   4.082 -0.8028 -0.5772 -0.0128
 1125SOL    HW215012   3.673   4.151   4.104  0.8792  0.1761  0.6827
 1126SOL     OW15013   3.745   3.197   0.103 -0.2436  0.3386 -0.0372
 1126SOL    HW115014   3.653   3.171   0.111  0.4068 -2.3582 -1.3906
 1126SOL    HW215015   3.767   3.133   0.035  1.8704 -2.0950  2.9223
 1127SOL     OW15016   0.119   0.048   1.611 -0.2351 -0.4129  0.2864
 1127SOL    HW115017   0.120   4.709   1.557  0.9679  0.4077 -0.9003
 1127SOL    HW215018   0.194   0.092   1.571 -2.9963  1.2264 -2.9915
 1128SOL     OW15019   0.618   2.964   1.221  0.3220  0.0780  0.6389
 1128SOL    HW115020   0.621   3.027   1.293  1.6329 -0.0189  0.6669
 1128SOL    HW215021   0.532   2.934   1.251  0.6726 -3.0799 -1.5199
 1129SOL     OW15022   0.968   4.645   8.468  0.0750 -0.1197 -0.1676
 1129SOL    HW115023   0.984   4.599   8.386 -0.5824  0.7614 -0.7982
 1129SOL    HW215024   0.875   4.622   8.466 -0.2955  1.5357 -2.0513
 1130SOL     OW15025   2.388   4.382  10.048 -0.1034 -0.5183  0.1248
 1130SOL    HW115026   2.373   4.370   9.954 -0.0274 -0.9261  0.1652
 1130SOL    HW215027   2.428   4.301  10.079  0.8582 -0.1411 -0.1384
 1131SOL     OW15028   2.378   0.740  14.625 -0.1905  0.3686  0.2193
 1131SOL    HW115029   2.465   0.770  14.600 -0.8459  1.2315 -1.0152
 1131SOL    HW215030   2.399   0.695  14.707  0.6868 -0.7475 -0.6177
 1132SOL     OW15031   2.066   1.056   2.077 -0.8183  0.6918  0.4923
 1132SOL    HW115032   2.113   1.139   2.081  0.9179 -0.1489 -2.1888
 1132SOL    HW215033   2.100   1.002   2.006 -1.7390 -0.0982  0.6463
 1133SOL     OW15034   2.727   3.802   3.778 -0.0133 -0.6900  0.7973
 1133SOL    HW115035   2.802   3.796   3.836 -0.9388 -2.4602  1.7915
 1133SOL    HW215036   2.779   3.828   3.702  1.0664  0.1201  1.8203
 1134SOL     OW15037   0.259   1.982   7.311  0.6340 -0.5795  0.3149
 1134SOL    HW115038   0.328   1.917   7.310  2.0163  0.8459  4.0529
 1134SOL    HW215039   0.190   1.941   7.258  0.4921  0.3939 -0.2593
 1135SOL     OW15040   3.718   1.658  13.215  0.2931 -0.8209 -0.4690
 1135SOL    HW115041   3.706   1.604  13.293 -2.9965  1.4967  0.5902
 1135SOL    HW215042   3.811   1.683  13.218 -0.0025  0.2337 -0.1850
 1136SOL     OW15043   0.439   1.591   9.975  0.5559  0.6571 -0.1379
 1136SOL    HW115044   0.512   1.639  10.013 -0.3063  1.0422  1.0323
 1136SOL    HW215045   0.371   1.624  10.034 -0.1617  2.3882 -1.9298
 1137SOL     OW15046   0.514   1.280  15.936  0.2961 -0.5732  0.4218
 1137SOL    HW115047   0.492   1.304  15.846  1.0974  0.9103  0.6346
 1137SOL    HW215048   0.573   1.346  15.971  0.7898 -1.9999  2.2822
 1138SOL     OW15049   2.405   4.335  15.138 -0.1526  0.5408 -0.5346
 1138SOL    HW115050   2.412   4.378  15.053 -0.6013 -0.7414 -1.2211
 1138SOL    HW215051   2.494   4.345  15.172  0.4716  1.5254 -2.4587
 1139SOL     OW15052   4.007   0.682   3.566  0.0378  0.4032 -0.1383
 1139SOL    HW115053   4.078   0.619   3.572 -0.3698 -0.0903 -0.4251
 1139SOL    HW215054   3.928   0.632   3.589 -0.5197  1.3713  0.0966
 1140SOL     OW15055   1.758   2.486   2.377 -0.3794  0.6816 -0.1114
 1140SOL    HW115056   1.747   2.391   2.371 -2.2295  0.7263  2.8863
 1140SOL    HW215057   1.669   2.518   2.360 -0.6729 -1.4037 -2.5512
 1141SOL     OW15058   0.312   2.359   4.658 -0.1729 -0.3971  0.4367
 1141SOL    HW115059   0.255   2.315   4.595  1.7197 -1.4727 -0.5118
 1141SOL    HW215060   0.288   2.299   4.728  2.1964 -1.6969  0.1307
 1142SOL     OW15061   1.839   1.974   4.399  0.6126  0.4202 -0.0097
 1142SOL    HW115062   1.856   1.955   4.307 -0.9285  2.0479 -0.6226
 1142SOL    HW215063   1.926   2.012   4.417  1.2715 -1.1534  0.1171
 1143SOL     OW15064   1.782   0.279   8.302 -0.2261 -0.1814  0.3121
 1143SOL    HW115065   1.798   0.324   8.219 -4.2695 -3.8792 -2.4821
 1143SOL    HW215066   1.801   0.349   8.364 -0.5793 -0.9114  1.2322
 1144SOL     OW15067   0.103   0.370   9.104 -0.0823 -0.1376 -0.5800
 1144SOL    HW115068   0.178   0.408   9.149 -1.7562  3.0613 -0.4264
 1144SOL    HW215069   0.032   0.406   9.158  1.1702  0.9562  0.3247
 1145SOL     OW15070   4.610   0.097   6.921 -0.2122 -0.4627  0.3153
 1145SOL    HW115071   4.584   0.128   6.834 -2.1350 -1.0010  0.6887
 1145SOL    HW215072   4.557   0.019   6.934 -0.3168 -0.4831 -0.2353
 1146SOL     OW15073   1.213   0.203   4.510  0.1857 -0.0429  0.9845
 1146SOL    HW115074   1.240   0.113   4.528 -1.1217 -0.6847 -0.2844
 1146SOL    HW215075   1.192   0.228   4.600  0.9146 -1.2173  1.4750
 1147SOL     OW15076   2.053   1.956   8.241 -0.0224 -0.4268  0.4270
 1147SOL    HW115077   2.020   1.868   8.221  1.6706 -1.0376  0.3437
 1147SOL    HW215078   1.992   1.997   8.302  0.4488  0.6034  0.1989
 1148SOL     OW15079   0.378   3.816   6.634 -0.4526  0.2135  0.1660
 1148SOL    HW115080   0.417   3.745   6.685 -0.0670 -0.2806 -0.8068
 1148SOL    HW215081   0.404   3.887   6.693  1.4802  1.3900 -2.0900
 1149SOL     OW15082   2.172   0.489  15.705 -0.0896 -0.0484  0.5164
 1149SOL    HW115083   2.239   0.553  15.681  1.5531 -3.5167 -4.1532
 1149SOL    HW215084   2.127   0.529  15.779 -0.4553 -0.5433  0.5585
 1150SOL     OW15085   0.879   1.023   8.937  0.2519 -0.1521  0.4651
 1150SOL    HW115086   0.896   0.929   8.937  0.5980 -0.0776  3.0979
 1150SOL    HW215087   0.815   1.030   9.007  0.0485  0.4288  0.2242
 1151SOL     OW15088   1.988   2.447   5.377  0.0914  0.1452  0.2000
 1151SOL    HW115089   2.073   2.423   5.414  0.5339 -1.6238 -1.9517
 1151SOL    HW215090   1.928   2.453   5.451  0.5119  0.9233  0.4771
 1152SOL     OW15091   0.496   0.448   3.805 -0.3670  0.2953  0.5382
 1152SOL    HW115092   0.472   0.505   3.731 -0.0865 -1.9931 -1.3344
 1152SOL    HW215093   0.409   0.419   3.832 -0.9822  1.8570  0.2444
 1153SOL     OW15094   3.895   3.977   7.515 -0.5843 -1.0038  0.5059
 1153SOL    HW115095   3.951   3.933   7.578 -1.2099 -1.3532  0.8162
 1153SOL    HW215096   3.903   4.065   7.551  1.4193 -0.6755 -0.7497
 1154SOL     OW15097   1.655   4.283  10.480 -0.2729 -0.2226  0.2061
 1154SOL    HW115098   1.658   4.306  10.573 -0.3852  0.6531 -0.0087
 1154SOL    HW215099   1.564   4.259  10.463 -0.2111  0.1339 -0.6229
 1155SOL     OW15100   0.389   1.285  15.629  0.1145 -0.2175 -0.5459
 1155SOL    HW115101   0.303   1.325  15.627 -0.3976 -1.2456  0.8773
 1155SOL    HW215102   0.365   1.193  15.638 -0.7740  0.1159  0.4057
 1156SOL     OW15103   0.070   1.621  14.744 -0.6731 -0.2324 -0.1523
 1156SOL    HW115104   0.052   1.682  14.673  3.0533  2.9545  1.6617
 1156SOL    HW215105   4.723   1.581  14.739 -0.7443 -0.0583 -0.2764
 1157SOL     OW15106   0.406   1.524  11.097  0.3512 -0.3947 -0.2023
 1157SOL    HW115107   0.348   1.474  11.040  1.4296 -1.8330 -0.0583
 1157SOL    HW215108   0.441   1.585  11.033 -0.4498  0.7418  0.4590
 1158SOL     OW15109   4.579   2.145   0.362  0.0226  0.8363 -1.0175
 1158SOL    HW115110   4.626   2.124   0.281  0.9890 -1.4131  0.1229
 1158SOL    HW215111   4.506   2.083   0.353 -0.1866  0.7360  1.4339
 1159SOL     OW15112   0.402   3.982   4.785 -0.6439  0.4155  0.5350
 1159SOL    HW115113   0.445   3.921   4.845 -0.6775  1.1707  1.3309
 1159SOL    HW215114   0.324   3.932   4.761 -1.1012  0.5815  1.6779
 1160SOL     OW15115   4.347   1.431   5.649  0.7451 -0.6318 -0.2110
 1160SOL    HW115116   4.367   1.448   5.741  1.1424 -0.5028 -0.3216
 1160SOL    HW215117   4.335   1.336   5.658  1.1458 -0.6736 -0.1079
 1161SOL     OW15118   4.184   1.417   2.634 -0.1093  0.0374 -0.0747
 1161SOL    HW115119   4.190   1.511   2.616 -0.1685 -0.1523 -1.0896
 1161SOL    HW215120   4.237   1.373   2.568 -0.4713 -0.4709 -0.0287
 1162SOL     OW15121   2.153   2.560   4.918  0.0300 -0.1735 -0.3154
 1162SOL    HW115122   2.093   2.486   4.932  0.6616 -0.4996  0.6735
 1162SOL    HW215123   2.188   2.573   5.006  1.0800 -0.5260 -0.6807
 1163SOL     OW15124   0.623   4.496   3.306  0.1346  0.6716 -0.0388
 1163SOL    HW115125   0.549   4.555   3.323  0.2527  0.9359 -0.4430
 1163SOL    HW215126   0.578   4.416   3.280 -0.2631  0.6144  0.8066
 1164SOL     OW15127   2.707   1.661   4.111  0.6280  0.1670 -0.5143
 1164SOL    HW115128   2.690   1.597   4.042 -0.1395 -1.4281  1.1759
 1164SOL    HW215129   2.690   1.741   4.061 -2.3469 -0.3768 -0.3111
 1165SOL     OW15130   2.732   3.346   8.441 -0.0715 -0.0473 -0.8217
 1165SOL    HW115131   2.742   3.276   8.506  0.0857  0.7312 -0.0171
 1165SOL    HW215132   2.649   3.376   8.478 -0.0570 -2.8972  1.4902
 1166SOL     OW15133   1.553   4.385   7.924  0.0718 -0.2795 -0.2893
 1166SOL    HW115134   1.583   4.379   8.015 -0.9728 -1.2350 -0.0081
 1166SOL    HW215135   1.544   4.290   7.912  0.7580 -0.1337 -1.9513
 1167SOL     OW15136   3.066   0.965   5.219  0.2343  0.5505  0.0797
 1167SOL    HW115137   3.065   1.012   5.136  0.2739  2.6042  1.2400
 1167SOL    HW215138   2.971   0.965   5.227  0.1100 -0.5592 -1.3020
 1168SOL     OW15139   1.857   2.278   1.854  0.0158  0.7454  0.1597
 1168SOL    HW115140   1.885   2.235   1.934  1.6665 -0.5546 -1.1233
 1168SOL    HW215141   1.762   2.267   1.857 -0.0963  0.9357 -2.3048
 1169SOL     OW15142   3.400   0.441   8.230  0.0020  0.3053  0.2978
 1169SOL    HW115143   3.475   0.429   8.289 -0.8760 -2.6912  0.8495
 1169SOL    HW215144   3.329   0.408   8.285 -1.4361  2.1582 -0.4562
 1170SOL     OW15145   3.852   2.572   5.809 -0.2627 -0.3812 -0.0654
 1170SOL    HW115146   3.852   2.613   5.895  0.3936  0.2771 -0.3817
 1170SOL    HW215147   3.940   2.599   5.781 -0.4163 -1.4646 -1.5685
 1171SOL     OW15148   2.622   4.665   0.060 -0.5462 -0.5096  0.2265
 1171SOL    HW115149   2.663   4.659  17.731 -1.5258  0.7045 -0.3313
 1171SOL    HW215150   2.679   4.727   0.106  1.0353 -1.9145  0.1639
 1172SOL     OW15151   0.603   3.664  14.884  0.3802  0.6112 -0.3984
 1172SOL    HW115152   0.667   3.723  14.923  0.6572  0.0040  0.0604
 1172SOL    HW215153   0.663   3.634  14.815  1.1803 -0.5981  0.8406
 1173SOL     OW15154   0.039   4.033   7.331  0.1802 -0.2955  0.1129
 1173SOL    HW115155   4.714   4.074   7.273 -1.3687 -2.1020  0.5620
 1173SOL    HW215156   0.005   3.944   7.340  0.5152 -0.4351 -0.0366
 1174SOL     OW15157   3.348   1.223  11.217 -0.2334 -0.5006  0.2921
 1174SOL    HW115158   3.347   1.168  11.296  2.0110 -0.4240  0.3844
 1174SOL    HW215159   3.368   1.308  11.255 -3.1837  0.8952 -1.3281
 1175SOL     OW15160   1.991   0.483  13.620 -0.0921  0.7865  0.6619
 1175SOL    HW115161   2.028   0.397  13.598  1.0306  1.2115  0.8764
 1175SOL    HW215162   1.898   0.460  13.616  0.1386  0.5246 -3.0259
 1176SOL     OW15163   0.534   2.291   4.891 -0.2452 -0.1711  0.4097
 1176SOL    HW115164   0.611   2.318   4.840 -0.2309  0.0538  0.5540
 1176SOL    HW215165   0.467   2.306   4.825 -1.1095 -3.4598  0.5204
 1177SOL     OW15166   2.705   0.826   7.073 -0.1100  0.8486 -0.2959
 1177SOL    HW115167   2.659   0.905   7.044  0.1396  0.3851 -1.9505
 1177SOL    HW215168   2.663   0.764   7.013  1.8238 -0.5975 -0.1579
 1178SOL     OW15169   1.004   0.991   2.683 -0.1400  0.1250  0.6076
 1178SOL    HW115170   1.091   1.010   2.650 -0.2554 -1.0016 -0.3246
 1178SOL    HW215171   0.962   0.947   2.609  0.4557  1.3304 -0.4472
 1179SOL     OW15172   4.652   0.029   5.701 -0.0838  0.5840  0.1856
 1179SOL    HW115173   4.728   4.728   5.742 -0.8633 -0.9575  0.0882
 1179SOL    HW215174   4.684   0.118   5.682  2.1713 -0.1750  0.5035
 1180SOL     OW15175   3.855   3.106   8.765  0.4057 -0.0567 -0.0656
 1180SOL    HW115176   3.826   3.169   8.699 -2.6512 -1.5003 -0.1191
 1180SOL    HW215177   3.803   3.029   8.743 -1.1436  1.2116 -0.8986
 1181SOL     OW15178   0.326   2.746  16.669 -0.1301  0.6827 -0.4231
 1181SOL    HW115179   0.368   2.832  16.677 -0.2646  0.9421 -2.6600
 1181SOL    HW215180   0.307   2.723  16.760  0.4810  0.8335 -0.2560
 1182SOL     OW15181   2.653   2.118   1.249  0.3710  0.2068  0.6430
 1182SOL    HW115182   2.745   2.111   1.221 -0.4066 -0.7427 -1.7420
 1182SOL    HW215183   2.662   2.181   1.320 -1.2931 -0.5051  1.4756
 1183SOL     OW15184   1.085   0.083   0.476 -0.3595 -0.0870 -0.4565
 1183SOL    HW115185   1.103   0.013   0.413 -3.3407 -1.6138  0.3875
 1183SOL    HW215186   1.024   0.133   0.422  0.6322  1.3973 -0.1953
 1184SOL     OW15187   3.202   3.750   5.617 -0.2586  0.1092  0.7464
 1184SOL    HW115188   3.286   3.726   5.658  0.3896  1.6791  0.3118
 1184SOL    HW215189   3.159   3.671   5.651  0.3170  0.0125  1.2789
 1185SOL     OW15190   2.649   4.206   7.585  0.2969  0.5095 -0.3692
 1185SOL    HW115191   2.718   4.213   7.650  1.4156  0.1626 -1.5337
 1185SOL    HW215192   2.601   4.278   7.627  0.8579  0.0951  0.9570
 1186SOL     OW15193   4.466   3.492  10.928  0.1104 -0.1826 -0.6088
 1186SOL    HW115194   4.447   3.423  10.865 -0.1525  0.6309 -1.4240
 1186SOL    HW215195   4.560   3.500  10.911  0.1457  0.7426  0.0066
 1187SOL     OW15196   1.068   4.102   6.021 -0.3861 -0.4676 -0.2692
 1187SOL    HW115197   1.044   4.025   5.969  0.0072  0.1283 -1.3295
 1187SOL    HW215198   1.026   4.172   5.971  1.1568  0.7973  0.2047
 1188SOL     OW15199   1.568   3.474  15.836  0.2664  0.1014  0.4496
 1188SOL    HW115200   1.619   3.467  15.917 -2.2985 -2.7330  1.7987
 1188SOL    HW215201   1.542   3.383  15.820 -2.5233  0.8234  1.0200
 1189SOL     OW15202   1.392   1.793   0.027  0.0493 -0.3879  0.1079
 1189SOL    HW115203   1.319   1.820   0.083  0.1400  0.1225 -0.0256
 1189SOL    HW215204   1.466   1.825   0.078 -0.7040  2.1652 -0.4328
 1190SOL     OW15205   0.550   4.244   9.470 -0.0561  0.4339 -0.1726
 1190SOL    HW115206   0.621   4.192   9.432  0.1019  1.0591 -0.7280
 1190SOL    HW215207   0.567   4.334   9.443 -1.6566  0.8560  0.1981
 1191SOL     OW15208   2.808   1.919   6.382  1.2592 -0.3767 -0.4317
 1191SOL    HW115209   2.822   1.844   6.323 -0.3402 -0.6287 -0.4947
 1191SOL    HW215210   2.882   1.900   6.440 -0.1946 -2.1179  0.8588
 1192SOL     OW15211   2.062   0.255   2.885 -0.2952 -0.2418 -0.4428
 1192SOL    HW115212   2.131   0.311   2.851 -0.3628 -0.9280 -1.7310
 1192SOL    HW215213   2.052   0.196   2.810  0.8306 -0.9592 -0.0086
 1193SOL     OW15214   2.406   1.108   0.051 -0.2758  0.1942  0.4146
 1193SOL    HW115215   2.395   1.067  17.722 -1.0106  0.1260  0.5388
 1193SOL    HW215216   2.499   1.128   0.049  0.4461 -3.0804  1.8907
 1194SOL     OW15217   4.301   1.972  15.349 -0.2378 -0.1052 -0.0197
 1194SOL    HW115218   4.302   2.056  15.395 -0.7232 -0.6209  0.9231
 1194SOL    HW215219   4.389   1.960  15.313 -0.2702  1.3355 -0.5858
 1195SOL     OW15220   0.616   3.519   1.961  0.2908  0.3302 -0.3106
 1195SOL    HW115221   0.535   3.496   2.007  0.9622 -1.2962  0.0675
 1195SOL    HW215222   0.625   3.457   1.889  0.6094 -0.2093  0.1913
 1196SOL     OW15223   3.282   4.189   5.802  0.3410  0.1380 -0.4792
 1196SOL    HW115224   3.306   4.097   5.798 -0.2567 -0.0595  0.6850
 1196SOL    HW215225   3.295   4.222   5.713  1.0215 -1.9868 -1.1609
 1197SOL     OW15226   4.064   2.449  10.186 -0.4904 -0.1862  0.0256
 1197SOL    HW115227   4.083   2.389  10.113 -2.4410 -2.3641  1.3345
 1197SOL    HW215228   3.973   2.476  10.175 -0.1350  0.0368 -2.4547
 1198SOL     OW15229   1.727   1.053  16.983 -0.2038 -0.1439  0.0875
 1198SOL    HW115230   1.704   1.052  17.075 -0.0757  2.6511  0.1463
 1198SOL    HW215231   1.681   0.971  16.962 -1.8939  0.1019  2.8970
 1199SOL     OW15232   1.980   0.081  16.597  0.5483 -0.3079 -0.1821
 1199SOL    HW115233   1.916   0.103  16.666  0.2910  2.7337 -1.3684
 1199SOL    HW215234   2.061   0.102  16.642  0.7486  2.0779 -1.6650
 1200SOL     OW15235   1.918   1.022  10.156 -0.4322 -0.8582  0.2461
 1200SOL    HW115236   2.007   0.986  10.160 -0.4302 -0.9657 -0.6598
 1200SOL    HW215237   1.920   1.088  10.226  0.6386 -2.2307  1.4969
 1201SOL     OW15238   1.134   2.757  15.049 -0.1241  0.1665 -0.0749
 1201SOL    HW115239   1.170   2.754  15.137  2.9002 -0.5341 -1.3362
 1201SOL    HW215240   1.102   2.667  15.045 -0.9671  0.5990 -2.8687
 1202SOL     OW15241   2.622   0.124   5.513  0.1496  0.5207  0.0629
 1202SOL    HW115242   2.579   0.138   5.598 -0.9996 -0.7787 -0.3012
 1202SOL    HW215243   2.698   0.068   5.528 -0.3422 -0.3660 -0.7815
 1203SOL     OW15244   3.960   3.581  15.079  0.6249  0.2815 -0.0975
 1203SOL    HW115245   3.891   3.515  15.084  1.6013 -0.6603  0.8669
 1203SOL    HW215246   3.925   3.662  15.116 -1.9856  0.0522 -2.0857
 1204SOL     OW15247   4.591   1.290   0.001 -0.1470  0.1402 -0.1323
 1204SOL    HW115248   4.651   1.217   0.011 -0.3537 -0.0063  0.0491
 1204SOL    HW215249   4.653   1.337  17.703  1.3363  0.4390  1.7952
 1205SOL     OW15250   3.696   1.337   2.953  0.1345  0.0270 -0.3060
 1205SOL    HW115251   3.601   1.345   2.961  0.1403 -1.4820  1.2253
 1205SOL    HW215252   3.733   1.421   2.927 -1.8679  0.8162 -0.5820
 1206SOL     OW15253   3.203   1.235   6.634  0.2102  0.2912  0.6816
 1206SOL    HW115254   3.269   1.301   6.612  0.2841 -0.5370 -1.6629
 1206SOL    HW215255   3.173   1.217   6.545  0.9050  1.0479  0.2981
 1207SOL     OW15256   2.081   0.945  11.321  0.3418  0.2233 -0.0626
 1207SOL    HW115257   2.152   0.904  11.371  0.8379  0.2171 -0.7792
 1207SOL    HW215258   2.042   0.875  11.269 -1.4671  2.3412 -1.5592
 1208SOL     OW15259   3.588   3.238  11.095  0.0634 -0.1562  0.5377
 1208SOL    HW115260   3.680   3.212  11.085 -0.4168 -1.7253  0.1866
 1208SOL    HW215261   3.548   3.156  11.066  1.2994 -1.0606  1.3519
 1209SOL     OW15262   2.845   4.130  10.785  0.2008  0.3188  0.1160
 1209SOL    HW115263   2.821   4.055  10.840 -1.4195 -1.1430 -2.6241
 1209SOL    HW215264   2.783   4.111  10.715  1.9522 -3.3414 -0.4705
 1210SOL     OW15265   1.792   3.138   7.866 -0.0772 -0.4137 -0.4223
 1210SOL    HW115266   1.869   3.194   7.851 -1.0673  0.9223 -0.5604
 1210SOL    HW215267   1.845   3.062   7.889 -0.2842 -0.8939 -1.5302
 1211SOL     OW15268   1.058   3.569   9.408  0.3346  0.1161  0.4180
 1211SOL    HW115269   1.023   3.505   9.346 -0.0966  0.3479  0.4239
 1211SOL    HW215270   1.029   3.536   9.493 -0.7466  0.4958  0.1884
 1212SOL     OW15271   0.496   0.180  16.525  0.2144  0.2273  0.3091
 1212SOL    HW115272   0.554   0.215  16.458  2.2284 -1.1875  1.3399
 1212SOL    HW215273   0.414   0.229  16.515 -0.5907 -0.4699  3.6348
 1213SOL     OW15274   4.237   1.461   8.693  0.6409 -0.1711  0.3760
 1213SOL    HW115275   4.319   1.425   8.726  1.0199  0.6713  0.3668
 1213SOL    HW215276   4.174   1.391   8.702  2.5890 -1.6194  2.6716
 1214SOL     OW15277   3.908   0.399   8.321  0.0734 -0.6124  0.3694
 1214SOL    HW115278   3.972   0.402   8.392  1.6242  0.4581 -1.0577
 1214SOL    HW215279   3.911   0.490   8.289  0.5251 -0.8486 -0.2473
 1215SOL     OW15280   0.214   4.460   6.280 -0.5015  0.0584  0.0283
 1215SOL    HW115281   0.178   4.372   6.268 -1.2917  0.2920  0.6148
 1215SOL    HW215282   0.307   4.443   6.271 -0.5957  0.4719 -1.7475
 1216SOL     OW15283   3.319   4.209   2.027  0.3101 -0.0145  0.2534
 1216SOL    HW115284   3.274   4.277   2.078  0.6336  0.4927 -0.1421
 1216SOL    HW215285   3.304   4.244   1.940  0.9086 -0.1159  0.1140
 1217SOL     OW15286   0.710   3.554   5.432  0.3829  0.3584  0.2338
 1217SOL    HW115287   0.719   3.469   5.389  1.4713  1.8232 -2.4412
 1217SOL    HW215288   0.695   3.614   5.359  0.8702  0.7710  0.4755
 1218SOL     OW15289   2.988   4.093   2.203  0.2699  1.0766  0.3781
 1218SOL    HW115290   2.960   4.172   2.156  1.3116  1.3292  0.1923
 1218SOL    HW215291   2.914   4.033   2.190 -0.2498  1.9205 -0.5963
 1219SOL     OW15292   3.393   4.655   4.667 -0.4892  0.7703 -0.2511
 1219SOL    HW115293   3.360   4.598   4.597 -0.1623 -1.4936  1.4479
 1219SOL    HW215294   3.398   4.736   4.616 -1.2149  1.0736  0.1563
 1220SOL     OW15295   4.573   0.761   6.967 -0.2436  0.0869  0.3310
 1220SOL    HW115296   4.578   0.825   6.895  0.7893 -0.7936 -0.3792
 1220SOL    HW215297   4.591   0.816   7.043  0.0106 -0.7701  0.8819
 1221SOL     OW15298   2.624   2.480   7.542  1.0351 -0.5477 -0.0711
 1221SOL    HW115299   2.622   2.478   7.446 -3.2564  1.8425 -0.0247
 1221SOL    HW215300   2.533   2.493   7.570  0.3192 -1.0353 -2.1401
 1222SOL     OW15301   0.988   4.023  14.697 -0.0348  0.2238 -0.1251
 1222SOL    HW115302   1.077   4.018  14.662  0.2055  0.1650  0.4954
 1222SOL    HW215303   0.999   4.001  14.790  0.2090  0.8110 -0.0151
 1223SOL     OW15304   1.011   1.220   7.739 -0.4664  0.1247  0.0191
 1223SOL    HW115305   0.959   1.294   7.770 -0.6502  0.0943 -0.2136
 1223SOL    HW215306   0.944   1.180   7.683 -0.3776  0.6821 -0.4838
 1224SOL     OW15307   3.709   4.688   8.514  0.4550  0.1675  0.0375
 1224SOL    HW115308   3.785   4.726   8.559  0.6938  0.7496 -0.8622
 1224SOL    HW215309   3.686   0.020   8.455  0.1603 -0.4897 -0.6494
 1225SOL     OW15310   1.548   0.212  15.435  0.2433 -0.0918  0.1705
 1225SOL    HW115311   1.607   0.250  15.370 -2.9168 -0.0587 -2.6872
 1225SOL    HW215312   1.574   0.121  15.419  0.6232  0.4761 -2.4205
 1226SOL     OW15313   4.268   3.382   7.436  0.6682 -0.3236  0.9566
 1226SOL    HW115314   4.252   3.291   7.460  1.8925 -0.2146  2.1668
 1226SOL    HW215315   4.241   3.425   7.517 -0.3415  0.0751  0.4132
 1227SOL     OW15316   3.984   2.932   8.483  0.5970  0.2812 -0.3460
 1227SOL    HW115317   3.981   2.842   8.514  0.9158  0.2896 -0.2945
 1227SOL    HW215318   3.995   2.965   8.572  1.0369 -2.8825  0.7445
 1228SOL     OW15319   3.324   2.608   8.907  0.4225  0.1899 -0.4501
 1228SOL    HW115320   3.408   2.648   8.931 -0.2194  0.6631  1.0250
 1228SOL    HW215321   3.336   2.513   8.903  0.5906  0.0870  2.1507
 1229SOL     OW15322   2.423   1.880   9.362 -0.3970 -0.0294 -0.3112
 1229SOL    HW115323   2.360   1.901   9.293 -0.4740  0.3985 -0.1129
 1229SOL    HW215324   2.386   1.800   9.400  0.7425  0.3533  1.5902
 1230SOL     OW15325   4.655   4.656  15.819  0.6705  1.0074  0.5485
 1230SOL    HW115326   4.618   4.698  15.741  0.7508  0.8377  0.4177
 1230SOL    HW215327   4.574   4.642  15.867 -0.0207 -0.2043 -0.9815
 1231SOL     OW15328   1.523   4.074  11.280 -0.6471  0.0355  0.1701
 1231SOL    HW115329   1.557   4.034  11.361 -0.3830 -0.2612 -0.0861
 1231SOL    HW215330   1.581   4.150  11.278 -0.4536 -0.1272 -0.2305
 1232SOL     OW15331   2.274   0.276  17.284  0.5316 -0.1934  0.0164
 1232SOL    HW115332   2.329   0.268  17.206 -0.4666  1.4443 -0.8473
 1232SOL    HW215333   2.210   0.207  17.267  0.5696 -1.1531  3.8285
 1233SOL     OW15334   4.625   0.266  12.703  0.1311  0.6853 -0.0244
 1233SOL    HW115335   4.718   0.284  12.717  0.2768  0.0266 -0.1225
 1233SOL    HW215336   4.582   0.325  12.765  0.2468 -0.0823  0.7924
 1234SOL     OW15337   1.415   0.322   4.995 -0.1842 -0.0440 -0.0781
 1234SOL    HW115338   1.417   0.410   4.958 -1.5549  0.1705  0.3476
 1234SOL    HW215339   1.508   0.300   4.994 -0.6048 -1.8942  2.8984
 1235SOL     OW15340   3.551   4.718   3.384 -0.2967  0.2695  0.2593
 1235SOL    HW115341   3.510   4.649   3.332  1.7540 -0.1647 -0.7800
 1235SOL    HW215342   3.588   0.032   3.314  0.9134  0.3761  0.9780
 1236SOL     OW15343   4.011   2.565   2.075  0.2053 -0.1407  0.3097
 1236SOL    HW115344   3.974   2.653   2.074 -2.9695 -1.4844 -0.8850
 1236SOL    HW215345   4.077   2.571   2.144  1.0729  1.6370 -0.6865
 1237SOL     OW15346   2.524   3.733   0.741 -0.1972  0.1994  0.1133
 1237SOL    HW115347   2.543   3.653   0.692 -0.1866  1.0952 -1.3483
 1237SOL    HW215348   2.456   3.698   0.798  1.2502 -0.7118  1.2702
 1238SOL     OW15349   4.493   2.691  17.610  0.5682  0.3345 -1.0395
 1238SOL    HW115350   4.546   2.616  17.581  0.3786 -0.8566  1.7204
 1238SOL    HW215351   4.552   2.724  17.677 -2.4269 -0.5067  1.9784
 1239SOL     OW15352   0.968   3.810   6.201  0.0599 -0.0010 -0.6180
 1239SOL    HW115353   1.008   3.835   6.118  1.0516 -0.9647 -0.4237
 1239SOL    HW215354   0.948   3.718   6.183 -0.1842 -0.1751  0.5654
 1240SOL     OW15355   4.023   3.666   4.402 -0.0491 -0.5578 -0.1452
 1240SOL    HW115356   4.075   3.688   4.479 -2.0534  1.7959  0.5727
 1240SOL    HW215357   4.054   3.580   4.376  0.6175 -0.6891  1.0964
 1241SOL     OW15358   3.395   3.313   1.975 -0.7025  0.2488  0.3179
 1241SOL    HW115359   3.369   3.274   1.892  0.3447  0.1736  0.0173
 1241SOL    HW215360   3.319   3.293   2.029 -0.3228  0.1179  0.8048
 1242SOL     OW15361   1.226   1.540   7.527  0.3121 -0.2748  0.6314
 1242SOL    HW115362   1.150   1.486   7.502  0.4053  0.1687 -0.5980
 1242SOL    HW215363   1.294   1.508   7.468 -0.9788 -0.5873 -0.6900
 1243SOL     OW15364   4.086   4.565   8.414 -0.7475  0.0639 -0.0655
 1243SOL    HW115365   4.064   4.608   8.496  0.6035 -0.6740  0.6909
 1243SOL    HW215366   4.169   4.609   8.396 -0.8669  0.3140 -0.0048
 1244SOL     OW15367   4.414   0.472  11.857  0.6773 -0.5328  0.1648
 1244SOL    HW115368   4.418   0.441  11.766 -1.4472 -0.2287 -0.0377
 1244SOL    HW215369   4.374   0.558  11.847 -1.7067 -1.7330 -0.6950
 1245SOL     OW15370   0.093   2.646   4.940 -0.1980 -0.5134  1.0319
 1245SOL    HW115371   0.009   2.645   4.986 -0.7327  0.2828  0.0504
 1245SOL    HW215372   0.108   2.553   4.921  1.8348 -0.6960  3.5355
 1246SOL     OW15373   0.015   1.270   5.067 -0.4273  0.4799 -0.3279
 1246SOL    HW115374   4.707   1.297   4.989 -1.3533  1.8637  0.7267
 1246SOL    HW215375   4.724   1.180   5.057 -1.6074  0.7680  0.7265
 1247SOL     OW15376   1.510   2.873   1.016 -0.0873  0.2622  0.2484
 1247SOL    HW115377   1.414   2.865   1.015  0.0488 -1.2213 -1.1697
 1247SOL    HW215378   1.527   2.928   0.940  0.6529  1.5603  1.3626
 1248SOL     OW15379   2.505   3.163   8.626 -0.6015 -0.5396 -0.0647
 1248SOL    HW115380   2.539   3.148   8.715 -2.0720 -0.2555  0.5394
 1248SOL    HW215381   2.474   3.254   8.632 -0.4588 -0.5480  0.8671
 1249SOL     OW15382   1.788   3.865   2.077 -0.0825  0.2264 -0.3315
 1249SOL    HW115383   1.781   3.960   2.068 -0.1824  0.2759  0.2613
 1249SOL    HW215384   1.715   3.842   2.019  0.3372  1.4876 -1.3678
 1250SOL     OW15385   3.225   0.560   2.941  0.9225  0.2646  0.1560
 1250SOL    HW115386   3.147   0.576   2.888  2.0494 -0.1414 -1.6137
 1250SOL    HW215387   3.200   0.477   2.982  1.5911  0.1596  0.3434
 1251SOL     OW15388   2.929   4.082   9.649  0.2339 -0.1418  0.2468
 1251SOL    HW115389   2.919   4.106   9.741 -0.1256  1.5001 -0.2183
 1251SOL    HW215390   2.976   4.158   9.615  0.0279  0.4742  1.3127
 1252SOL     OW15391   1.372   2.721   4.556  0.3868  0.2215 -0.5177
 1252SOL    HW115392   1.424   2.789   4.512 -0.8258  2.2290  1.1212
 1252SOL    HW215393   1.288   2.765   4.543  0.1588  0.5286  2.0355
 1253SOL     OW15394   0.848   0.208   0.392  0.0289  0.2065 -0.1054
 1253SOL    HW115395   0.782   0.149   0.357 -0.8130  0.9288  0.2697
 1253SOL    HW215396   0.807   0.230   0.475  0.5455  4.3111 -0.9172
 1254SOL     OW15397   4.620   1.429   0.286 -0.0622 -0.2270 -0.3131
 1254SOL    HW115398   4.543   1.445   0.341 -0.4866 -0.9988 -0.6740
 1254SOL    HW215399   4.574   1.420   0.203 -2.3165  3.4836  0.5513
 1255SOL     OW15400   1.499   3.251  12.581  0.4608 -0.0925  0.5009
 1255SOL    HW115401   1.568   3.204  12.535  2.6953  1.3118  2.4629
 1255SOL    HW215402   1.535   3.240  12.669  2.0973  1.6552  0.0411
 1256SOL     OW15403   3.075   0.383   3.124  0.0140  0.1469 -0.0057
 1256SOL    HW115404   2.994   0.434   3.128  0.8628  1.5023 -0.0892
 1256SOL    HW215405   3.072   0.350   3.214  1.8252 -1.3268 -0.4753
 1257SOL     OW15406   1.217   4.002   7.311 -0.5190 -0.7964  0.4934
 1257SOL    HW115407   1.185   4.027   7.224 -1.4169  0.0536  1.0586
 1257SOL    HW215408   1.135   4.008   7.360 -0.5095  0.6939  0.3215
 1258SOL     OW15409   3.433   0.712   2.917 -0.0823  0.0284  0.5905
 1258SOL    HW115410   3.406   0.781   2.856 -0.4340 -1.1439 -0.5964
 1258SOL    HW215411   3.354   0.660   2.932 -1.4948  1.5358 -1.6077
 1259SOL     OW15412   1.955   1.117  16.841  0.4971  0.3446 -0.2586
 1259SOL    HW115413   1.927   1.057  16.909 -1.1561  0.5633 -0.7427
 1259SOL    HW215414   2.034   1.071  16.812 -0.0633 -1.3447  0.8963
 1260SOL     OW15415   4.438   3.529  15.291 -0.3234  0.1964 -0.2897
 1260SOL    HW115416   4.399   3.616  15.299  1.5581  0.9296  0.8134
 1260SOL    HW215417   4.372   3.462  15.276 -2.8185  2.5723 -0.0041
 1261SOL     OW15418   1.756   1.423   4.093  0.4673  0.5890  0.2775
 1261SOL    HW115419   1.840   1.403   4.135 -0.3542 -0.9670  1.1712
 1261SOL    HW215420   1.711   1.342   4.117  0.1422  0.6410 -0.1583
 1262SOL     OW15421   4.457   0.183   4.938 -0.1647 -0.5595 -0.0947
 1262SOL    HW115422   4.463   0.115   4.871 -1.5467 -1.7892  1.0235
 1262SOL    HW215423   4.482   0.261   4.889  0.8108 -0.5445  0.4206
 1263SOL     OW15424   4.416   2.272   1.293 -0.4092 -0.2788  0.2742
 1263SOL    HW115425   4.496   2.230   1.262 -0.2498 -0.9660  1.5935
 1263SOL    HW215426   4.367   2.200   1.333  0.5358 -1.0395  0.0513
 1264SOL     OW15427   4.033   3.231  10.726 -0.7099 -0.3223  0.0206
 1264SOL    HW115428   4.060   3.291  10.795 -1.4025  0.2690 -0.2216
 1264SOL    HW215429   4.083   3.256  10.649 -0.3208  0.2919  0.4790
 1265SOL     OW15430   1.092   0.932   1.247  0.2416 -0.1889  0.6315
 1265SOL    HW115431   1.106   0.995   1.317 -0.8263 -0.1246  0.7881
 1265SOL    HW215432   1.135   0.970   1.170 -1.2708  1.6872  0.7147
 1266SOL     OW15433   3.175   0.846   7.665 -0.2573 -0.1715 -0.5725
 1266SOL    HW115434   3.104   0.799   7.709  0.4668 -0.5091  0.2371
 1266SOL    HW215435   3.147   0.858   7.574  0.6178  1.7191 -0.5879
 1267SOL     OW15436   0.084   1.848  10.147 -0.3575 -1.0692 -0.3472
 1267SOL    HW115437   0.058   1.767  10.104 -1.8126 -1.0781  0.5744
 1267SOL    HW215438   0.075   1.818  10.237  0.9809  1.3426  0.6060
 1268SOL     OW15439   1.872   3.303   1.876 -0.0638  0.7013  0.6836
 1268SOL    HW115440   1.876   3.381   1.931 -1.0135  1.1165  0.1502
 1268SOL    HW215441   1.966   3.290   1.864  0.0775  2.2125  0.1431
 1269SOL     OW15442   2.224   3.518   3.012  0.4777  0.5283 -0.5468
 1269SOL    HW115443   2.294   3.564   2.965  0.7072 -0.7520 -1.4621
 1269SOL    HW215444   2.248   3.537   3.102 -0.9532  0.8418 -0.2366
 1270SOL     OW15445   2.612   0.393   7.977  0.1404  0.4339  0.0054
 1270SOL    HW115446   2.617   0.299   7.963 -0.5555  0.4108 -0.0794
 1270SOL    HW215447   2.571   0.397   8.064 -2.5134  1.1517 -1.2873
 1271SOL     OW15448   3.660   4.296  15.533 -0.9258  0.4902  0.2373
 1271SOL    HW115449   3.593   4.329  15.593 -2.5417  0.6302 -1.6631
 1271SOL    HW215450   3.700   4.378  15.504 -1.7664  1.4053  1.6538
 1272SOL     OW15451   1.604   4.120   3.620 -0.2626 -0.1699 -0.1312
 1272SOL    HW115452   1.553   4.084   3.548 -0.0974 -1.2820  0.3032
 1272SOL    HW215453   1.645   4.042   3.659  3.9738  2.8335  1.4283
 1273SOL     OW15454   0.772   0.919   2.348  0.4846  0.3929  0.1871
 1273SOL    HW115455   0.834   0.990   2.368 -0.3732  1.0270  0.5694
 1273SOL    HW215456   0.831   0.845   2.364  0.9871  0.1856 -2.7102
 1274SOL     OW15457   2.495   1.021   8.423  0.0972 -0.9810  0.4624
 1274SOL    HW115458   2.497   1.103   8.473  0.3102 -0.2703 -0.6881
 1274SOL    HW215459   2.570   0.973   8.459  1.9374  0.5799 -1.2309
 1275SOL     OW15460   1.638   1.644   2.762  0.0669 -0.5018  0.3298
 1275SOL    HW115461   1.692   1.573   2.795 -2.2413 -1.2158  2.5748
 1275SOL    HW215462   1.584   1.588   2.707 -0.0295 -0.2532  0.1710
 1276SOL     OW15463   1.820   1.787   3.916 -0.5753  0.0595 -0.1781
 1276SOL    HW115464   1.730   1.762   3.938 -0.0188 -0.5495  1.4221
 1276SOL    HW215465   1.815   1.785   3.821  0.7265 -1.2092 -0.2283
 1277SOL     OW15466   3.799   0.805   6.622 -0.0709  0.0333  0.6711
 1277SOL    HW115467   3.711   0.768   6.618 -0.0918 -0.1754  2.7469
 1277SOL    HW215468   3.785   0.895   6.594 -0.4646  0.3428  1.8714
 1278SOL     OW15469   4.700   0.323   3.739  0.1173 -0.8163 -0.2599
 1278SOL    HW115470   4.663   0.237   3.758  0.8688 -0.8650  0.9994
 1278SOL    HW215471   0.001   0.347   3.822 -2.6285  2.4291  0.1980
 1279SOL     OW15472   0.935   4.424   4.300 -0.0836 -0.0704  0.3578
 1279SOL    HW115473   0.850   4.379   4.297  0.2518 -0.6028 -0.9222
 1279SOL    HW215474   0.911   4.500   4.246 -1.9678 -0.3569  0.7942
 1280SOL     OW15475   1.508   3.548   1.700 -0.1753 -0.0231 -0.1376
 1280SOL    HW115476   1.557   3.514   1.625 -2.6852 -0.8977 -1.4203
 1280SOL    HW215477   1.515   3.640   1.676  0.2548 -0.3521 -1.2857
 1281SOL     OW15478   0.669   2.493  17.588  0.3866  0.0554  0.6875
 1281SOL    HW115479   0.585   2.448  17.586 -0.6287  2.0229 -1.2079
 1281SOL    HW215480   0.726   2.443  17.646  1.7255  0.7570 -0.0151
 1282SOL     OW15481   0.539   3.523   3.111  0.3829  0.1441  0.1196
 1282SOL    HW115482   0.599   3.502   3.183  1.2610  2.7097  0.1346
 1282SOL    HW215483   0.570   3.607   3.076  0.7655 -1.1997 -2.7500
 1283SOL     OW15484   4.048   2.113   3.333 -0.2491  0.7107 -0.4160
 1283SOL    HW115485   4.063   2.070   3.249  2.2432 -2.7815  1.7956
 1283SOL    HW215486   4.075   2.053   3.403  3.2951  0.7366 -1.7635
 1284SOL     OW15487   3.656   3.201   5.148  0.4187 -0.4003  0.2721
 1284SOL    HW115488   3.644   3.230   5.238  0.1418  2.3318 -0.6387
 1284SOL    HW215489   3.569   3.182   5.114  0.6570  0.0952 -0.6301
 1285SOL     OW15490   4.078   2.457   3.336  0.2165  0.5334 -0.0729
 1285SOL    HW115491   4.084   2.362   3.335  1.0328  0.5771  1.7981
 1285SOL    HW215492   4.158   2.493   3.375  0.7969 -0.6139 -0.2192
 1286SOL     OW15493   0.109   2.763   4.214 -0.0392  0.1894  0.3487
 1286SOL    HW115494   0.070   2.723   4.291  0.8180 -0.9650  0.1814
 1286SOL    HW215495   0.077   2.854   4.209 -1.0775 -0.1998 -0.2553
 1287SOL     OW15496   0.622   3.850   3.608 -0.1634  0.0640  0.1994
 1287SOL    HW115497   0.592   3.907   3.679  3.1896  1.2968  0.6281
 1287SOL    HW215498   0.711   3.885   3.602 -0.9931  2.0691 -0.5723
 1288SOL     OW15499   2.980   0.047   5.580 -0.1168 -0.4384  0.1493
 1288SOL    HW115500   2.936   4.702   5.568  2.6676 -1.9141  0.2863
 1288SOL    HW215501   3.057   0.016   5.628 -0.3839 -0.5094  0.5331
 1289SOL     OW15502   2.428   0.313   0.708  0.2731  0.2197  0.0888
 1289SOL    HW115503   2.432   0.266   0.624 -0.3191  1.0108 -0.3818
 1289SOL    HW215504   2.362   0.260   0.752 -0.5775  0.5448 -0.7874
 1290SOL     OW15505   0.523   1.246   0.737  0.2191 -0.1061  0.3367
 1290SOL    HW115506   0.467   1.208   0.805  0.2275 -0.5604  0.0906
 1290SOL    HW215507   0.469   1.285   0.668 -1.1701 -2.0913  0.2886
 1291SOL     OW15508   2.712   0.952   2.232 -0.1675 -0.0043 -0.9898
 1291SOL    HW115509   2.779   0.899   2.275  0.2551  0.3007 -1.2742
 1291SOL    HW215510   2.763   0.992   2.162  1.2831 -0.1622 -0.0171
 1292SOL     OW15511   3.874   3.589   9.213  0.3928  0.7282 -0.3308
 1292SOL    HW115512   3.929   3.665   9.234 -1.4042  1.7952  0.4173
 1292SOL    HW215513   3.864   3.603   9.119 -0.1162 -0.7533 -0.4801
 1293SOL     OW15514   3.255   1.084   6.053  0.1588  0.0359  0.3277
 1293SOL    HW115515   3.288   1.012   5.998  2.0875  1.4963 -0.4167
 1293SOL    HW215516   3.281   1.156   5.995 -0.5061 -0.9174 -1.1549
 1294SOL     OW15517   4.663   1.936   3.462  0.1494 -0.3144  0.1790
 1294SOL    HW115518   4.734   1.961   3.520 -0.4265 -2.0510  1.6077
 1294SOL    HW215519   4.597   1.890   3.515  2.9068 -2.0892  2.0475
 1295SOL     OW15520   2.699   3.231   6.587  0.1059  0.1772 -0.0487
 1295SOL    HW115521   2.676   3.318   6.555 -1.4241 -0.3418 -0.3540
 1295SOL    HW215522   2.780   3.258   6.631  0.7682 -3.5060  0.9808
 1296SOL     OW15523   1.971   2.101   2.458 -0.4004  0.3527  0.2648
 1296SOL    HW115524   1.973   2.174   2.521  2.1119  0.0080  0.5750
 1296SOL    HW215525   1.893   2.125   2.407 -0.6966  1.6264  1.2978
 1297SOL     OW15526   2.718   3.010  14.791 -0.3162 -0.5635  0.5352
 1297SOL    HW115527   2.730   2.943  14.723 -2.0621 -0.9732  0.6179
 1297SOL    HW215528   2.628   3.034  14.769 -0.6093 -0.0926  2.2794
 1298SOL     OW15529   1.918   2.869   5.141  0.0158 -0.4074 -0.0456
 1298SOL    HW115530   1.883   2.803   5.082 -0.4126  1.3025 -1.7024
 1298SOL    HW215531   1.976   2.818   5.198  1.7309  0.1091 -1.3595
 1299SOL     OW15532   3.913   2.252   2.659 -0.1842  0.2405  0.5796
 1299SOL    HW115533   4.004   2.273   2.640 -0.6589 -0.3272 -2.3752
 1299SOL    HW215534   3.876   2.308   2.590  2.1273  1.2942  0.1975
 1300SOL     OW15535   4.050   0.766   6.185  0.1432 -0.2250 -0.4145
 1300SOL    HW115536   4.054   0.788   6.278  0.7227 -0.0800 -0.4731
 1300SOL    HW215537   4.081   0.851   6.153 -2.4578 -0.2612 -2.9761
 1301SOL     OW15538   3.067   3.495  14.087  0.1480 -0.3068 -0.5360
 1301SOL    HW115539   3.066   3.400  14.075  1.8969 -0.1424 -1.9140
 1301SOL    HW215540   3.068   3.491  14.183 -0.1965 -3.4048 -0.6515
 1302SOL     OW15541   4.636   2.064   3.239 -0.3894 -0.1585  1.1330
 1302SOL    HW115542   4.619   2.004   3.311 -2.9921 -0.8380 -0.0260
 1302SOL    HW215543   4.586   2.141   3.264  2.3765  1.2860  2.2157
 1303SOL     OW15544   2.280   2.288   2.190 -0.7921 -0.3218 -0.4361
 1303SOL    HW115545   2.348   2.221   2.175  1.5009  1.7398  0.7004
 1303SOL    HW215546   2.329   2.366   2.163  2.5139 -2.1761  0.1568
 1304SOL     OW15547   3.290   3.195  14.960  0.6735 -0.1053 -0.1642
 1304SOL    HW115548   3.280   3.231  14.872  0.3899 -0.5035 -0.2943
 1304SOL    HW215549   3.204   3.222  14.993  0.4432 -1.6744  0.5301
 1305SOL     OW15550   2.339   3.441   7.918 -0.2200 -0.0896  0.1750
 1305SOL    HW115551   2.342   3.354   7.878  0.3596 -0.3192  0.7144
 1305SOL    HW215552   2.262   3.434   7.975 -0.2718 -1.8741 -0.1266
 1306SOL     OW15553   1.805   4.258   5.874  0.2264 -0.1881  0.7945
 1306SOL    HW115554   1.761   4.336   5.909 -0.5718 -0.2802 -0.0203
 1306SOL    HW215555   1.886   4.307   5.863  1.9500 -3.0535  0.9181
 1307SOL     OW15556   3.048   4.154  10.996 -0.2925 -0.0863  0.5545
 1307SOL    HW115557   3.059   4.199  10.912  1.6846  0.2324  0.9870
 1307SOL    HW215558   2.953   4.148  11.008 -0.1772 -1.9507  0.6180
 1308SOL     OW15559   3.515   3.753   2.905  0.7483  1.0309  0.2217
 1308SOL    HW115560   3.597   3.712   2.879 -0.1263  0.0127 -0.9189
 1308SOL    HW215561   3.457   3.711   2.842  0.0674 -0.0382  1.5623
 1309SOL     OW15562   2.841   2.629  15.005 -0.0710 -0.7190  0.7826
 1309SOL    HW115563   2.863   2.600  15.093  0.8684 -1.8796  0.1716
 1309SOL    HW215564   2.910   2.589  14.952 -1.1467 -1.8448  0.2286
 1310SOL     OW15565   1.845   1.992  14.821  0.1675 -0.5699  0.4612
 1310SOL    HW115566   1.816   2.018  14.734  2.1842  0.0521 -0.0353
 1310SOL    HW215567   1.790   2.052  14.871  1.5673  1.9673 -1.0251
 1311SOL     OW15568   1.962   2.375   4.416 -0.9019 -0.2439 -0.0068
 1311SOL    HW115569   1.954   2.340   4.505 -1.4925  0.4591  0.2234
 1311SOL    HW215570   2.052   2.406   4.424 -1.8298  2.8458 -1.3248
 1312SOL     OW15571   2.946   0.223   8.462 -0.2031 -0.0992 -0.5302
 1312SOL    HW115572   2.902   0.285   8.519  1.4125  2.3470 -1.9637
 1312SOL    HW215573   2.914   0.145   8.508  0.3592  0.5256  0.9238
 1313SOL     OW15574   4.338   4.532   4.280  0.4880 -0.0668  0.1119
 1313SOL    HW115575   4.419   4.482   4.281  0.4835 -0.1954 -3.9106
 1313SOL    HW215576   4.367   4.609   4.231 -0.6046 -0.0490 -0.5039
 1314SOL     OW15577   0.603   2.722   9.813 -0.3639 -0.4218  0.0661
 1314SOL    HW115578   0.617   2.650   9.751  1.6349 -0.2897  0.3591
 1314SOL    HW215579   0.689   2.764   9.804 -0.9470  0.5425 -1.1359
 1315SOL     OW15580   1.978   1.746   4.531  0.0121  0.9024  0.2535
 1315SOL    HW115581   1.922   1.822   4.544  0.3039  1.2742 -0.6865
 1315SOL    HW215582   1.949   1.722   4.443  0.2955 -1.4290  0.7865
 1316SOL     OW15583   0.211   1.529   1.881  0.3735  0.0325  0.2192
 1316SOL    HW115584   0.294   1.492   1.851  1.2190  1.7448  0.4563
 1316SOL    HW215585   0.234   1.583   1.956 -1.3740  0.1275  0.6939
 1317SOL     OW15586   0.296   3.659   9.515 -0.7513 -0.4615 -0.0129
 1317SOL    HW115587   0.255   3.687   9.597  1.3914 -1.8635  1.5332
 1317SOL    HW215588   0.388   3.685   9.519 -0.9765  0.2014  0.8149
 1318SOL     OW15589   2.561   2.429   2.264 -0.1628  0.1957  0.1899
 1318SOL    HW115590   2.521   2.491   2.203  0.8040  1.8756  1.2715
 1318SOL    HW215591   2.521   2.465   2.344 -0.6982 -0.2321  0.1138
 1319SOL     OW15592   2.935   2.008  14.862  0.3900 -0.2989 -0.5937
 1319SOL    HW115593   2.886   2.025  14.782 -0.7484 -0.6959  0.0101
 1319SOL    HW215594   2.967   1.925  14.826  0.9440 -0.5209  0.3991
 1320SOL     OW15595   1.839   2.222   4.063  0.1561  0.1971  0.7053
 1320SOL    HW115596   1.920   2.261   4.096  0.1963 -0.3974  1.3009
 1320SOL    HW215597   1.775   2.245   4.130  0.9241  0.1886  1.4333
 1321SOL     OW15598   0.209   3.661  11.474  0.0454  0.5235  0.2997
 1321SOL    HW115599   0.194   3.755  11.481 -1.4765  0.2373  0.7109
 1321SOL    HW215600   0.130   3.642  11.424 -1.0960  3.1048  1.1433
 1322SOL     OW15601   3.800   4.294   3.184 -0.3860  0.1587 -0.2042
 1322SOL    HW115602   3.841   4.363   3.236 -0.5558  0.1535 -0.0656
 1322SOL    HW215603   3.727   4.338   3.140 -0.7313  0.0484  0.2697
 1323SOL     OW15604   3.756   4.609   1.941 -0.0936 -0.3995  0.4741
 1323SOL    HW115605   3.845   4.574   1.948 -1.0487 -3.0770 -1.0100
 1323SOL    HW215606   3.700   4.533   1.948  0.0522 -0.6453 -0.9611
 1324SOL     OW15607   1.310   3.352  15.733 -0.3770 -0.1733 -0.0780
 1324SOL    HW115608   1.328   3.288  15.802 -2.8837 -2.9519 -1.9911
 1324SOL    HW215609   1.251   3.417  15.773 -0.7231 -1.7453  1.9515
 1325SOL     OW15610   0.859   0.266   3.884  0.4464  0.1393  0.4050
 1325SOL    HW115611   0.942   0.241   3.924  0.8577  2.0637  0.7573
 1325SOL    HW215612   0.846   0.358   3.905  0.3607  0.6033 -1.6787
 1326SOL     OW15613   0.391   3.867   7.609  0.0238  0.6274 -0.2883
 1326SOL    HW115614   0.367   3.774   7.597 -1.1395  0.6597  1.8176
 1326SOL    HW215615   0.461   3.857   7.673 -0.0543  0.1630 -0.2743
 1327SOL     OW15616   4.341   1.873   8.569 -0.4653  0.2772 -0.1328
 1327SOL    HW115617   4.334   1.830   8.654  0.5794  0.9283  0.2825
 1327SOL    HW215618   4.430   1.909   8.575 -0.4963  0.2607  0.4058
 1328SOL     OW15619   4.466   1.901   5.304  0.4080  0.2414 -0.0206
 1328SOL    HW115620   4.505   1.952   5.375  2.9374 -1.1430 -0.4235
 1328SOL    HW215621   4.521   1.826   5.325 -1.7635 -1.7864 -1.4903
 1329SOL     OW15622   3.386   3.597  10.720  0.1282 -0.0717  0.1521
 1329SOL    HW115623   3.306   3.641  10.750 -0.6218 -1.7749  0.6486
 1329SOL    HW215624   3.387   3.600  10.624  0.5401 -1.6311  0.1093
 1330SOL     OW15625   3.601   2.932  15.182  0.2762 -0.1309  0.4633
 1330SOL    HW115626   3.514   2.918  15.144  0.9493 -0.5874 -0.9211
 1330SOL    HW215627   3.660   2.893  15.117  0.1099 -0.4026  0.4743
 1331SOL     OW15628   3.041   1.403  16.647  0.2975  0.1815  0.2461
 1331SOL    HW115629   3.113   1.422  16.708  0.4526  2.0887 -0.5219
 1331SOL    HW215630   2.995   1.485  16.667  2.6739  2.1254 -2.3338
 1332SOL     OW15631   3.995   1.869  12.914 -0.3085 -0.0422 -0.3097
 1332SOL    HW115632   4.007   1.781  12.950 -0.7548  0.4352  1.0137
 1332SOL    HW215633   3.901   1.879  12.934 -0.4775  1.8017 -2.1025
 1333SOL     OW15634   2.137   3.737   8.998 -0.1641  0.3894 -0.3584
 1333SOL    HW115635   2.161   3.774   8.914  1.1384 -0.4912 -0.3725
 1333SOL    HW215636   2.042   3.743   8.994 -0.1204  1.3781 -0.0181
 1334SOL     OW15637   4.241   3.669   9.282 -0.1475  0.5833 -0.1016
 1334SOL    HW115638   4.174   3.736   9.294  1.5417  2.9127 -3.6513
 1334SOL    HW215639   4.237   3.656   9.187  1.1113 -1.2802  0.1081
 1335SOL     OW15640   0.328   2.606   4.551 -0.7285 -0.2749 -0.0964
 1335SOL    HW115641   0.313   2.521   4.592  2.6799 -1.5129 -1.5071
 1335SOL    HW215642   0.240   2.643   4.544 -0.2151  1.2016  1.2035
 1336SOL     OW15643   0.693   4.034   2.987  0.4850 -0.7782 -0.2010
 1336SOL    HW115644   0.684   4.051   2.893  0.2943 -2.7394 -0.5451
 1336SOL    HW215645   0.639   4.106   3.020 -0.0963 -1.4915  0.4052
 1337SOL     OW15646   0.928   2.465   8.776 -0.6553 -0.0280 -0.4242
 1337SOL    HW115647   0.932   2.529   8.848  0.9466 -0.9145  0.2766
 1337SOL    HW215648   0.883   2.387   8.807  0.5426 -0.1055  1.1324
 1338SOL     OW15649   1.269   3.225   6.613  0.0698  0.3875 -0.1308
 1338SOL    HW115650   1.183   3.201   6.646 -0.3942  1.7030 -0.3997
 1338SOL    HW215651   1.238   3.288   6.548  0.6076  1.0685  0.2757
 1339SOL     OW15652   4.255   3.377   5.430 -0.3603  0.1177  0.2003
 1339SOL    HW115653   4.343   3.399   5.399  0.5045  0.6997  3.1219
 1339SOL    HW215654   4.202   3.386   5.350 -2.7876  1.1344  1.9419
 1340SOL     OW15655   2.707   3.409   6.194  0.2078  0.2897  0.2215
 1340SOL    HW115656   2.664   3.432   6.276  0.4382  2.9816 -0.4097
 1340SOL    HW215657   2.753   3.327   6.214  2.1651  1.2279 -0.3981
 1341SOL     OW15658   2.181   0.059   7.012 -0.0420 -0.2878  0.3894
 1341SOL    HW115659   2.106   0.038   6.956  0.2854 -1.2348  0.2901
 1341SOL    HW215660   2.213   0.138   6.969 -1.4526  0.2215  0.2799
 1342SOL     OW15661   0.920   0.545   6.856 -0.1306  0.3844 -0.7392
 1342SOL    HW115662   0.867   0.613   6.898  2.8751  1.0568  1.9763
 1342SOL    HW215663   1.001   0.592   6.838 -0.2431  1.1368  0.7150
 1343SOL     OW15664   3.707   3.619   3.581 -0.0947  0.9570 -0.6176
 1343SOL    HW115665   3.676   3.580   3.662  0.0616 -1.5349 -1.7388
 1343SOL    HW215666   3.787   3.567   3.578 -0.1574  0.8693 -0.7991
 1344SOL     OW15667   0.575   3.305   3.562 -0.0550  0.4503 -0.4297
 1344SOL    HW115668   0.648   3.367   3.553  1.1284 -0.5913  1.8718
 1344SOL    HW215669   0.576   3.269   3.473 -0.1366 -0.1190 -0.2035
 1345SOL     OW15670   2.868   3.791   2.157 -0.0905 -0.2551 -0.0844
 1345SOL    HW115671   2.778   3.822   2.167  1.3569  4.3257 -1.1866
 1345SOL    HW215672   2.862   3.716   2.098  0.6444  0.7734 -1.4779
 1346SOL     OW15673   3.562   2.762   0.887 -0.2560 -0.4253  0.1009
 1346SOL    HW115674   3.555   2.680   0.936  0.7990 -0.5281  0.0739
 1346SOL    HW215675   3.606   2.811   0.956  0.0591  0.5965 -0.8225
 1347SOL     OW15676   1.100   3.478   3.384 -0.0150  0.4119 -0.3916
 1347SOL    HW115677   1.088   3.550   3.322  0.1786  0.9933  0.2480
 1347SOL    HW215678   1.139   3.404   3.339  1.9996  1.6411 -0.6836
 1348SOL     OW15679   1.788   0.048   2.731 -0.2361 -0.1663 -0.0609
 1348SOL    HW115680   1.828   4.703   2.714 -3.4366 -1.5752 -0.6241
 1348SOL    HW215681   1.855   0.095   2.781 -0.3419 -0.4865  0.3823
 1349SOL     OW15682   2.381   1.923   2.521 -0.1128 -0.2512  0.7742
 1349SOL    HW115683   2.338   1.845   2.487 -0.2674 -0.7218  2.0545
 1349SOL    HW215684   2.470   1.907   2.490 -0.7550 -0.4502 -0.9923
 1350SOL     OW15685   0.874   3.156   6.492  0.2283 -0.3343 -0.0893
 1350SOL    HW115686   0.837   3.077   6.452  1.0636 -0.7767  0.0057
 1350SOL    HW215687   0.926   3.121   6.564  1.9373 -0.8146 -1.5498
 1351SOL     OW15688   2.786   2.150  11.462 -0.1581  0.5077 -0.0406
 1351SOL    HW115689   2.768   2.217  11.397  1.8488  2.7384  1.6584
 1351SOL    HW215690   2.878   2.131  11.442 -0.4521 -0.2561 -0.6496
 1352SOL     OW15691   3.917   4.428   5.342  0.0052 -0.0554  0.7884
 1352SOL    HW115692   3.939   4.453   5.432 -1.4884  0.0106  1.1468
 1352SOL    HW215693   3.836   4.382   5.365 -0.4009  0.0024 -0.5267
 1353SOL     OW15694   0.046   1.764  16.874 -0.3302 -0.4422 -0.9186
 1353SOL    HW115695   0.047   1.681  16.826  0.2966 -0.9293 -0.0675
 1353SOL    HW215696   0.007   1.736  16.957  3.9377  1.3916  1.7358
 1354SOL     OW15697   1.248   1.027   6.636  0.5744  0.2651  0.1926
 1354SOL    HW115698   1.268   1.042   6.544  0.6959 -0.3301  0.1263
 1354SOL    HW215699   1.153   1.033   6.647  0.2798 -0.1170 -2.1848
 1355SOL     OW15700   0.338   2.081   6.101 -0.2684  0.3661 -0.1737
 1355SOL    HW115701   0.373   2.001   6.062 -1.3413 -0.8740  1.4159
 1355SOL    HW215702   0.322   2.142   6.028 -1.4445  0.8261  0.4668
 1356SOL     OW15703   3.444   3.888   5.115 -0.2470  0.2648 -0.4685
 1356SOL    HW115704   3.374   3.924   5.060 -1.6650 -1.3834  0.2506
 1356SOL    HW215705   3.521   3.878   5.060  0.0520  3.2795 -0.5959
 1357SOL     OW15706   0.604   1.993   9.906 -0.0007 -0.0674  0.1670
 1357SOL    HW115707   0.550   2.063   9.942 -0.7411 -0.3287 -0.4249
 1357SOL    HW215708   0.688   2.038   9.899  0.9895 -1.8739  0.4942
 1358SOL     OW15709   1.272   3.372   3.788 -0.5129  0.0115 -0.2062
 1358SOL    HW115710   1.181   3.399   3.778 -0.3765  0.1884 -1.0318
 1358SOL    HW215711   1.312   3.420   3.860 -2.1832 -1.9777  2.0421
 1359SOL     OW15712   4.333   0.355  11.589  0.2630 -0.5687  0.1576
 1359SOL    HW115713   4.396   0.389  11.524 -1.0155 -0.2866 -0.9389
 1359SOL    HW215714   4.249   0.387  11.556  0.7714  2.6601  1.9376
 1360SOL     OW15715   4.580   3.602   4.831  0.5368  0.1983 -0.4817
 1360SOL    HW115716   4.609   3.693   4.831 -2.3304  1.1084 -0.1186
 1360SOL    HW215717   4.640   3.561   4.893  0.0120 -0.4028 -0.3789
 1361SOL     OW15718   3.994   3.888   8.143 -0.5783 -0.3039  0.6244
 1361SOL    HW115719   3.951   3.806   8.118 -0.6066 -0.2610  0.5289
 1361SOL    HW215720   3.949   3.942   8.077 -0.4240 -0.9457 -0.0003
 1362SOL     OW15721   4.331   0.451   6.026 -0.0195  0.3997 -0.2702
 1362SOL    HW115722   4.300   0.360   6.024  3.1313 -0.7078  0.3910
 1362SOL    HW215723   4.279   0.491   6.096 -0.2276  1.0158 -0.7819
 1363SOL     OW15724   2.358   2.047   9.018  0.3164 -0.1485  0.1565
 1363SOL    HW115725   2.445   2.078   9.044  2.0725 -2.7418 -2.4966
 1363SOL    HW215726   2.310   2.030   9.099  3.4628 -2.3266  1.5859
 1364SOL     OW15727   0.125   0.045   7.607 -0.4492 -0.0406 -0.2032
 1364SOL    HW115728   0.079   0.072   7.528 -0.6975 -3.1179 -1.1183
 1364SOL    HW215729   0.113   0.122   7.663 -0.5720  0.1181 -0.4475
 1365SOL     OW15730   1.304   0.833   6.376 -0.4146 -0.0210 -0.2183
 1365SOL    HW115731   1.241   0.866   6.441 -0.4832 -1.9644  0.6977
 1365SOL    HW215732   1.244   0.791   6.315 -0.6779  0.0678 -0.0182
 1366SOL     OW15733   3.412   0.467   4.731 -0.0536 -0.7029 -0.3738
 1366SOL    HW115734   3.438   0.385   4.689 -0.7209 -0.4810 -1.2293
 1366SOL    HW215735   3.404   0.435   4.821  1.4649 -0.5279 -0.1793
 1367SOL     OW15736   3.163   3.965   8.524 -0.1671 -0.3347  0.3794
 1367SOL    HW115737   3.097   4.030   8.545  1.8524  2.4787 -2.0489
 1367SOL    HW215738   3.121   3.891   8.568 -0.7847 -1.4939 -2.1437
 1368SOL     OW15739   3.048   0.126  11.707 -0.0189 -0.1658  0.0413
 1368SOL    HW115740   3.115   0.088  11.651 -0.7575  0.9276 -1.5622
 1368SOL    HW215741   3.021   0.048  11.756  0.7180 -0.3057  0.2196
 1369SOL     OW15742   1.020   4.143  10.152  0.8096 -0.1940  0.5356
 1369SOL    HW115743   1.081   4.125  10.225  0.2789 -1.1168  0.7513
 1369SOL    HW215744   0.938   4.110  10.187  1.4644 -1.1950  1.1403
 1370SOL     OW15745   4.676   2.049   6.097  0.2295 -0.1066  0.0405
 1370SOL    HW115746   4.676   2.036   6.192 -0.1299  1.3676  0.2489
 1370SOL    HW215747   4.712   2.136   6.082 -1.9211  0.6635 -0.5987
 1371SOL     OW15748   0.238   1.666  14.001 -0.3881 -0.5740  0.1445
 1371SOL    HW115749   0.179   1.711  14.062  1.8747  1.2713  0.9937
 1371SOL    HW215750   0.321   1.712  14.020  0.0938 -2.0755  1.6759
 1372SOL     OW15751   2.659   4.129  15.219 -0.1345  0.7781  0.4984
 1372SOL    HW115752   2.643   4.214  15.260  0.5491  0.1490  2.0523
 1372SOL    HW215753   2.723   4.162  15.157  0.4782 -1.5305 -0.1206
 1373SOL     OW15754   0.136   0.189   6.940 -0.1094 -0.1377  1.3631
 1373SOL    HW115755   0.044   0.170   6.956  0.2611 -0.0929  3.5556
 1373SOL    HW215756   0.148   0.158   6.851  0.0100  1.5223  0.8040
 1374SOL     OW15757   1.406   2.747   1.729  0.1308 -0.2529  0.3556
 1374SOL    HW115758   1.335   2.811   1.726  0.0548 -0.3075  1.1186
 1374SOL    HW215759   1.468   2.794   1.785 -0.1863 -0.1815  0.6413
 1375SOL     OW15760   1.547   2.473   1.058  0.2759  0.4626 -0.0569
 1375SOL    HW115761   1.581   2.496   0.971  0.8836 -1.0750 -0.2259
 1375SOL    HW215762   1.618   2.417   1.089 -0.7268  1.1737  3.4895
 1376SOL     OW15763   3.928   4.449  16.257  0.7117  0.5466 -0.3857
 1376SOL    HW115764   3.859   4.412  16.312  2.9672 -0.5609  1.7058
 1376SOL    HW215765   3.888   4.451  16.170 -0.6931 -0.6013  0.2417
 1377SOL     OW15766   0.061   2.958   5.392 -0.3907  0.1503  0.1326
 1377SOL    HW115767   4.720   3.003   5.368  0.1929  0.8934 -0.4427
 1377SOL    HW215768   0.091   2.926   5.307 -0.2067  0.2590  0.1571
 1378SOL     OW15769   3.474   2.336   3.498 -0.5980 -0.2419 -0.0481
 1378SOL    HW115770   3.479   2.421   3.454 -2.3732  0.9252  1.9739
 1378SOL    HW215771   3.401   2.295   3.452 -1.3084  1.1381 -0.1809
 1379SOL     OW15772   3.269   3.927  16.271 -0.0822  0.1441  0.1604
 1379SOL    HW115773   3.183   3.941  16.311 -0.1976  0.6094 -0.2454
 1379SOL    HW215774   3.322   3.996  16.311 -1.9261  0.1633  2.5602
 1380SOL     OW15775   0.373   0.893  15.638  0.3827  0.5712  0.3747
 1380SOL    HW115776   0.419   0.898  15.554 -0.6876 -0.0556 -0.2570
 1380SOL    HW215777   0.312   0.967  15.635  0.4383  0.7096  2.6326
 1381SOL     OW15778   4.463   3.526   3.996 -0.3457  0.0861  0.1254
 1381SOL    HW115779   4.369   3.523   4.014 -0.2719  2.0962  0.8159
 1381SOL    HW215780   4.507   3.498   4.076 -0.6474  1.4852  0.7806
 1382SOL     OW15781   2.394   3.134   4.310  0.0121 -0.0559 -0.3846
 1382SOL    HW115782   2.307   3.095   4.306 -0.9155  1.9394  0.8233
 1382SOL    HW215783   2.378   3.227   4.325  0.5238 -0.1791  0.9722
 1383SOL     OW15784   1.850   1.031   6.338 -0.4979 -0.1094 -0.4227
 1383SOL    HW115785   1.846   0.971   6.264 -0.6227  1.7154 -1.9044
 1383SOL    HW215786   1.761   1.049   6.369  0.0886 -0.5900  1.5878
 1384SOL     OW15787   2.800   0.596   8.973 -0.2521  0.1543 -0.3181
 1384SOL    HW115788   2.817   0.677   9.020 -2.2850  1.1488 -1.3103
 1384SOL    HW215789   2.749   0.535   9.028 -0.5199 -1.0109 -1.8587
 1385SOL     OW15790   1.259   4.434  15.193 -0.0996 -0.1811  0.5348
 1385SOL    HW115791   1.248   4.352  15.241  0.4241 -1.2375 -1.1621
 1385SOL    HW215792   1.288   4.399  15.109 -1.8742 -1.7286  0.5563
 1386SOL     OW15793   0.620   4.715   1.439  0.1548  0.4764  0.5601
 1386SOL    HW115794   0.554   0.001   1.374  1.0373  2.3085  0.4048
 1386SOL    HW215795   0.579   4.630   1.456 -0.4105  0.7693  0.6490
 1387SOL     OW15796   3.273   0.598   4.368  0.7767  0.1812  0.5623
 1387SOL    HW115797   3.321   0.527   4.410 -0.5276 -1.0292  0.0117
 1387SOL    HW215798   3.187   0.602   4.410 -1.4100 -0.2079 -3.8719
 1388SOL     OW15799   0.638   2.217   9.718 -0.2574 -0.4949  0.1686
 1388SOL    HW115800   0.550   2.227   9.756 -0.3655  0.3804 -0.3203
 1388SOL    HW215801   0.616   2.180   9.632 -0.3680 -0.0774  0.0178
 1389SOL     OW15802   4.671   3.983   2.999  0.1198  0.2738  0.2141
 1389SOL    HW115803   4.634   3.993   3.087  0.0037 -0.7833  0.2794
 1389SOL    HW215804   4.716   3.898   3.006  1.3799  1.0975  2.3633
 1390SOL     OW15805   4.275   1.192   3.400  0.2000  0.1147 -0.5388
 1390SOL    HW115806   4.249   1.172   3.490  0.8344 -4.7314 -1.4202
 1390SOL    HW215807   4.320   1.109   3.380  0.8617  0.4846 -0.5764
 1391SOL     OW15808   0.967   3.767   1.672 -0.2766  0.4732 -0.1116
 1391SOL    HW115809   0.925   3.805   1.749 -0.7546  0.4829 -0.3808
 1391SOL    HW215810   1.059   3.752   1.695  0.9284  1.5946 -4.1752
 1392SOL     OW15811   1.073   0.358  14.273  0.2573 -0.1648  0.1114
 1392SOL    HW115812   1.118   0.372  14.356 -2.9282  0.0165  1.8018
 1392SOL    HW215813   1.146   0.320  14.224 -0.4284 -0.6196 -0.5386
 1393SOL     OW15814   4.495   1.111   8.390 -0.4198 -0.3401  0.1156
 1393SOL    HW115815   4.440   1.077   8.319 -1.2511  0.8891  0.1697
 1393SOL    HW215816   4.434   1.085   8.459 -1.2803 -0.4854 -0.6886
 1394SOL     OW15817   3.429   1.196   5.005  0.0513  0.1664 -0.1957
 1394SOL    HW115818   3.507   1.252   5.001  1.8925 -2.1773  2.8890
 1394SOL    HW215819   3.461   1.138   5.074  1.0331 -0.4826 -1.1981
 1395SOL     OW15820   3.402   2.339   5.305  0.3200  0.0212  0.3292
 1395SOL    HW115821   3.362   2.252   5.305  1.1825 -0.3764  0.5063
 1395SOL    HW215822   3.335   2.390   5.350 -1.2107  0.3741 -2.2764
 1396SOL     OW15823   0.544   1.933   7.888 -0.3554 -0.1593 -0.1418
 1396SOL    HW115824   0.509   2.021   7.900  1.6223  0.5228  0.5534
 1396SOL    HW215825   0.622   1.939   7.944 -0.4917  1.7381 -0.1595
 1397SOL     OW15826   3.573   1.221   7.068  0.7161  0.1446  0.0404
 1397SOL    HW115827   3.598   1.296   7.122  0.6117 -0.0353  0.3403
 1397SOL    HW215828   3.601   1.261   6.986 -0.1192  0.5516 -0.0364
 1398SOL     OW15829   2.919   0.704   3.170 -0.2300 -0.0652 -0.0690
 1398SOL    HW115830   2.889   0.734   3.256  0.3030  0.9017 -0.2171
 1398SOL    HW215831   2.992   0.761   3.143  1.7069 -2.5541 -0.0854
 1399SOL     OW15832   3.214   3.155   6.718 -0.0848  0.0365 -0.1697
 1399SOL    HW115833   3.224   3.063   6.744 -0.0188  0.4970  1.4064
 1399SOL    HW215834   3.120   3.165   6.701  0.7116  3.0731 -2.7289
 1400SOL     OW15835   1.780   4.730   7.631 -0.1429 -0.5526 -0.3191
 1400SOL    HW115836   1.872   0.015   7.631 -0.8497  1.9768 -1.2195
 1400SOL    HW215837   1.778   4.672   7.555 -0.9673  0.4160 -1.0349
 1401SOL     OW15838   3.376   2.064  13.845 -0.3487  0.3098  0.1883
 1401SOL    HW115839   3.377   1.983  13.795  0.4683  1.5858 -1.8467
 1401SOL    HW215840   3.398   2.138  13.789  0.3107 -0.4520 -0.5637
 1402SOL     OW15841   1.407   2.346  16.566  0.9854 -0.2678 -0.1447
 1402SOL    HW115842   1.374   2.360  16.477  1.3912  0.3545 -0.1965
 1402SOL    HW215843   1.321   2.340  16.607  0.3704  0.0420 -1.3642
 1403SOL     OW15844   1.945   1.649   7.879  0.0366  0.4526  1.1069
 1403SOL    HW115845   1.885   1.624   7.809  0.8474  0.7495  0.2985
 1403SOL    HW215846   1.893   1.628   7.956  0.0832  0.1044  1.0418
 1404SOL     OW15847   3.952   2.991   6.725  0.9853  0.4432  0.1304
 1404SOL    HW115848   3.870   3.005   6.677  0.2123 -3.1148  0.4059
 1404SOL    HW215849   3.953   3.061   6.790  0.0798  0.7064 -0.1323
 1405SOL     OW15850   2.481   1.011   8.009  0.3417 -0.3972  0.2930
 1405SOL    HW115851   2.530   1.018   8.091 -0.2590  1.2068  0.5005
 1405SOL    HW215852   2.407   1.072   8.006 -0.2530 -1.0502  1.5754
 1406SOL     OW15853   3.729   4.158   7.231  0.6869 -0.0638 -0.0780
 1406SOL    HW115854   3.788   4.216   7.280  0.6278  0.9831 -1.2440
 1406SOL    HW215855   3.793   4.092   7.202 -0.4057 -0.5139 -1.4752
 1407SOL     OW15856   4.130   0.436   7.976 -0.1218 -0.0796  0.4713
 1407SOL    HW115857   4.182   0.458   8.054  1.2303  0.5562 -0.6025
 1407SOL    HW215858   4.160   0.345   7.975  0.6033  0.1718 -1.2438
 1408SOL     OW15859   4.005   1.688   5.144 -0.1601  0.2044  0.1129
 1408SOL    HW115860   3.983   1.616   5.203  0.2611 -0.0033  0.0208
 1408SOL    HW215861   3.972   1.651   5.063 -0.3424 -0.7965  0.6448
 1409SOL     OW15862   1.073   4.389   3.710 -0.6634  0.7421  0.2428
 1409SOL    HW115863   1.017   4.459   3.743 -1.2492  0.1220  0.5719
 1409SOL    HW215864   1.079   4.424   3.621 -0.4356  2.3276  0.8773
 1410SOL     OW15865   2.003   4.374   2.822 -0.6132  0.1870 -0.3429
 1410SOL    HW115866   2.041   4.460   2.841  0.0963 -0.0827 -0.5378
 1410SOL    HW215867   2.074   4.324   2.861 -0.7187  1.0916  1.0108
 1411SOL     OW15868   2.211   2.673   4.287  0.7965 -0.1883  0.5354
 1411SOL    HW115869   2.123   2.652   4.257  1.1484  0.0245 -0.6211
 1411SOL    HW215870   2.226   2.622   4.367 -0.2785 -0.7327  0.3893
 1412SOL     OW15871   3.710   1.846  12.982 -0.4676 -0.1621 -0.2354
 1412SOL    HW115872   3.672   1.827  12.896  1.2783 -1.3837 -0.7278
 1412SOL    HW215873   3.701   1.764  13.029  1.0500 -0.7681 -0.9899
 1413SOL     OW15874   2.428   1.101   5.175 -0.3273  0.5787  0.1314
 1413SOL    HW115875   2.443   1.150   5.256  2.4092 -0.4253  0.2412
 1413SOL    HW215876   2.410   1.012   5.206  2.8499  0.5729  2.0171
 1414SOL     OW15877   1.613   2.154  11.970  0.2201 -0.3540 -0.4389
 1414SOL    HW115878   1.574   2.149  12.057  2.0440 -3.1893  0.2168
 1414SOL    HW215879   1.682   2.217  11.988 -2.3698  1.9041  1.5556
 1415SOL     OW15880   0.476   4.720   5.741  0.3342 -0.5069 -0.0293
 1415SOL    HW115881   0.467   4.631   5.704  0.9233 -0.3738 -0.4982
 1415SOL    HW215882   0.491   0.032   5.662 -0.9954  0.3960  0.3102
 1416SOL     OW15883   0.518   1.784   4.809 -0.7265 -0.4887 -0.0761
 1416SOL    HW115884   0.434   1.805   4.850  0.6031  1.5472  1.6052
 1416SOL    HW215885   0.547   1.875   4.797 -1.3893 -0.4572 -1.4614
 1417SOL     OW15886   3.123   4.583   6.740 -0.4894 -0.0165 -0.4699
 1417SOL    HW115887   3.053   4.520   6.756 -1.0030  0.5037 -0.6812
 1417SOL    HW215888   3.128   4.638   6.819  1.0075  1.9983 -1.9599
 1418SOL     OW15889   4.013   0.189   8.188  0.1494 -0.0375  0.0625
 1418SOL    HW115890   3.939   0.192   8.127 -0.1614 -0.3691  0.4201
 1418SOL    HW215891   3.986   0.262   8.244 -2.0528 -0.7940  0.0110
 1419SOL     OW15892   3.312   2.743   1.036 -0.3265 -0.0276 -0.0620
 1419SOL    HW115893   3.402   2.727   1.062 -0.1246  1.9750  0.4607
 1419SOL    HW215894   3.319   2.735   0.941  1.1656  0.7984 -0.0232
 1420SOL     OW15895   0.096   1.178   1.296  0.0793 -0.4604  0.2176
 1420SOL    HW115896   0.080   1.133   1.213  2.0548  1.3576 -1.1328
 1420SOL    HW215897   0.046   1.258   1.285  1.1945  0.4501  1.7148
 1421SOL     OW15898   4.216   2.848   5.922  0.4854 -0.1659  0.5972
 1421SOL    HW115899   4.299   2.845   5.874  1.3694 -2.1606  2.2252
 1421SOL    HW215900   4.257   2.855   6.009  1.8547  1.9185 -0.2098
 1422SOL     OW15901   3.788   4.216  11.679 -0.0195  0.0185  0.5730
 1422SOL    HW115902   3.835   4.213  11.762  0.0046  1.6042  0.6004
 1422SOL    HW215903   3.762   4.307  11.688  2.0109  0.7805 -1.1780
 1423SOL     OW15904   2.060   1.652  16.214 -0.2355  0.2934  0.4332
 1423SOL    HW115905   1.990   1.598  16.249  0.7349  0.5144  2.7530
 1423SOL    HW215906   2.092   1.594  16.145  3.1614 -1.1904  3.2248
 1424SOL     OW15907   3.623   2.981  11.530  0.0884 -0.3678 -0.2530
 1424SOL    HW115908   3.596   2.918  11.464 -1.7635  1.5060 -1.2863
 1424SOL    HW215909   3.717   2.996  11.522  0.2243 -0.5395  0.9403
 1425SOL     OW15910   0.313   4.266  17.424 -0.1763 -0.0559  0.3887
 1425SOL    HW115911   0.356   4.184  17.402  0.4900  0.9917 -2.2082
 1425SOL    HW215912   0.375   4.298  17.489  0.7319 -0.1308 -0.4329
 1426SOL     OW15913   3.804   1.607  10.445  0.4794  0.2541  0.0288
 1426SOL    HW115914   3.730   1.547  10.444  0.7840 -0.1175  0.4216
 1426SOL    HW215915   3.831   1.627  10.534 -0.4804  0.8084  0.2024
 1427SOL     OW15916   2.798   3.974   4.615  0.6459 -0.0486 -0.7721
 1427SOL    HW115917   2.719   3.920   4.609 -0.1514  0.9072  1.0459
 1427SOL    HW215918   2.852   3.923   4.556  2.5357 -1.2980  2.0318
 1428SOL     OW15919   1.879   1.117   1.094 -0.3166 -0.0847 -0.5097
 1428SOL    HW115920   1.971   1.133   1.112 -0.2498 -0.2063 -0.7439
 1428SOL    HW215921   1.885   1.060   1.017  0.7670  1.0457 -1.2628
 1429SOL     OW15922   2.967   0.921   2.575  0.1969  0.1492  0.4670
 1429SOL    HW115923   2.967   0.845   2.633 -0.4041 -0.6962 -0.6311
 1429SOL    HW215924   2.946   0.877   2.492 -1.0907 -0.1980  0.9765
 1430SOL     OW15925   3.288   3.425   3.167  0.5658  0.3602  0.4593
 1430SOL    HW115926   3.307   3.456   3.255  1.2313 -0.3856  0.5790
 1430SOL    HW215927   3.237   3.349   3.194 -0.7101  0.2827 -2.1050
 1431SOL     OW15928   0.841   1.703   1.232 -0.0529 -0.1436  0.1491
 1431SOL    HW115929   0.886   1.731   1.312  1.4264  1.8019 -1.3788
 1431SOL    HW215930   0.766   1.658   1.271 -1.2650  0.3346 -1.6515
 1432SOL     OW15931   0.037   3.549   3.701  0.9885 -0.1732 -0.6701
 1432SOL    HW115932   0.009   3.612   3.635  0.2744  2.7702  2.4284
 1432SOL    HW215933   0.119   3.517   3.664  1.8293  2.1688 -0.8232
 1433SOL     OW15934   2.977   1.862   3.894  0.2183  0.1139 -0.5393
 1433SOL    HW115935   2.947   1.771   3.887  1.4065 -0.3780  0.7523
 1433SOL    HW215936   2.950   1.877   3.984  1.6644 -1.2290  0.1182
 1434SOL     OW15937   3.249   3.566  10.343 -1.1324 -0.0364  0.0071
 1434SOL    HW115938   3.154   3.561  10.352 -1.2751  0.5420 -1.2213
 1434SOL    HW215939   3.270   3.532  10.430 -0.3053  0.1104 -0.1359
 1435SOL     OW15940   4.058   2.307   8.184 -0.5054 -0.3487  0.8380
 1435SOL    HW115941   4.032   2.399   8.192 -1.2040 -0.3214 -2.0083
 1435SOL    HW215942   3.981   2.266   8.224 -2.2277  1.7741 -0.2615
 1436SOL     OW15943   3.072   0.497   6.218  0.4534 -0.9131 -0.0710
 1436SOL    HW115944   3.092   0.520   6.309  2.7484  3.4213 -1.6891
 1436SOL    HW215945   3.099   0.573   6.167  1.6895 -1.0998  0.3014
 1437SOL     OW15946   4.675   0.266   4.402 -0.0827  0.4635 -0.0981
 1437SOL    HW115947   4.604   0.221   4.449  0.4944 -1.5695 -1.1685
 1437SOL    HW215948   4.635   0.350   4.383 -0.4722 -0.0513 -1.5496
 1438SOL     OW15949   0.485   1.902   8.299  0.2354 -0.4270 -0.2222
 1438SOL    HW115950   0.508   1.988   8.335  1.4973 -0.0069 -2.0003
 1438SOL    HW215951   0.473   1.850   8.378  0.8634 -0.4223 -0.1217
 1439SOL     OW15952   1.723   0.656   7.205 -0.0109  0.3688  0.0029
 1439SOL    HW115953   1.720   0.651   7.300 -0.6892 -1.4216 -0.1109
 1439SOL    HW215954   1.808   0.688   7.174  1.1598 -1.3435  1.3880
 1440SOL     OW15955   3.796   1.103   3.858  0.1948 -0.5481  0.2909
 1440SOL    HW115956   3.830   1.100   3.768 -1.6874 -2.0443 -0.3577
 1440SOL    HW215957   3.818   1.194   3.881 -2.1666  0.8126 -2.8336
 1441SOL     OW15958   0.524   2.738  12.255  0.1947 -0.1274 -0.0796
 1441SOL    HW115959   0.594   2.676  12.273 -0.6535 -1.0910 -0.0764
 1441SOL    HW215960   0.471   2.685  12.195  0.3281  0.1245 -0.4209
 1442SOL     OW15961   3.043   2.901   5.581  0.3564  0.2284 -0.2773
 1442SOL    HW115962   3.038   2.839   5.654 -0.9349  0.0008 -0.5611
 1442SOL    HW215963   2.988   2.970   5.618 -0.6290 -0.0376 -1.2599
 1443SOL     OW15964   1.871   0.530  16.522 -0.2235  0.2169  0.3399
 1443SOL    HW115965   1.821   0.605  16.553  0.1262  1.2808 -1.6987
 1443SOL    HW215966   1.848   0.529  16.429 -0.9418  0.4257  0.5232
 1444SOL     OW15967   3.447   3.378   7.484  0.1128 -0.1630  0.1245
 1444SOL    HW115968   3.481   3.456   7.441  1.2630 -0.2008  0.9528
 1444SOL    HW215969   3.446   3.397   7.578  0.3418 -0.4482  0.1870
 1445SOL     OW15970   2.456   3.741   8.851 -0.0171 -0.0136 -0.6197
 1445SOL    HW115971   2.416   3.666   8.897  1.2326  0.2972  0.9826
 1445SOL    HW215972   2.381   3.772   8.800  0.9350  1.2361 -1.2326
 1446SOL     OW15973   0.211   4.595   1.983  0.0556 -0.2137  0.3994
 1446SOL    HW115974   0.239   4.561   2.068  0.4173 -0.8130  0.0407
 1446SOL    HW215975   0.195   4.689   1.993  0.2457 -0.2715  1.2832
 1447SOL     OW15976   3.249   0.747   1.244  0.5841 -0.7234 -0.1302
 1447SOL    HW115977   3.173   0.693   1.267 -0.8424  0.9284 -0.9685
 1447SOL    HW215978   3.202   0.818   1.201  1.2764 -0.4386 -0.4035
 1448SOL     OW15979   3.971   3.817   8.699  0.1663 -0.1457 -0.2603
 1448SOL    HW115980   3.928   3.901   8.710  0.5528 -0.1083  0.9449
 1448SOL    HW215981   4.020   3.833   8.618 -0.4755 -0.4152 -0.7018
 1449SOL     OW15982   1.634   1.561   7.466 -0.4503  0.1937  0.7913
 1449SOL    HW115983   1.714   1.509   7.467 -0.3226  0.3277 -3.1428
 1449SOL    HW215984   1.572   1.491   7.446  1.4084 -0.4822 -2.6093
 1450SOL     OW15985   3.869   0.150   9.680  0.4810 -0.1154 -1.0960
 1450SOL    HW115986   3.943   0.171   9.622  0.6668 -2.1957 -1.6066
 1450SOL    HW215987   3.904   0.098   9.752  0.7521 -0.9861 -1.8535
 1451SOL     OW15988   2.843   2.691   4.756 -0.0837 -0.2960  0.1433
 1451SOL    HW115989   2.872   2.677   4.666  0.3845  1.3332  0.0432
 1451SOL    HW215990   2.808   2.779   4.747 -1.9140 -1.1121 -0.6656
 1452SOL     OW15991   3.660   3.413   6.872  0.9184  0.6485  0.3208
 1452SOL    HW115992   3.635   3.320   6.876  0.6086  0.8027  2.2001
 1452SOL    HW215993   3.732   3.410   6.810 -0.5729 -1.7712 -1.2955
 1453SOL     OW15994   3.290   0.825   9.215 -0.5858 -0.2532  0.0234
 1453SOL    HW115995   3.259   0.740   9.186  1.1930 -0.6996 -0.5517
 1453SOL    HW215996   3.222   0.884   9.182 -1.3149 -1.6431 -0.9496
 1454SOL     OW15997   4.089   0.552   0.853  0.0315 -0.0682 -0.2310
 1454SOL    HW115998   4.106   0.606   0.776 -0.8163 -0.1003 -0.4448
 1454SOL    HW215999   4.029   0.610   0.900  0.8920  0.0995  0.6629
 1455SOL     OW16000   1.458   2.492   0.226 -0.6515  0.4621  0.2878
 1455SOL    HW116001   1.363   2.482   0.214 -0.4808  0.0802 -0.7646
 1455SOL    HW216002   1.458   2.511   0.320  0.2999 -1.8571  0.7421
 1456SOL     OW16003   3.677   1.907   8.906 -0.8293  0.5229 -0.2607
 1456SOL    HW116004   3.595   1.861   8.924  0.0383 -0.4438  1.1989
 1456SOL    HW216005   3.727   1.828   8.926 -0.8448  0.4072 -0.6860
 1457SOL     OW16006   1.012   0.803   8.018  0.7836 -0.4848 -0.4553
 1457SOL    HW116007   1.087   0.787   8.076  0.0335  0.4591  0.7610
 1457SOL    HW216008   0.942   0.767   8.073 -0.4768 -0.0180 -1.7740
 1458SOL     OW16009   2.573   1.040   3.363  0.5434 -0.3502  0.0203
 1458SOL    HW116010   2.646   1.095   3.391  0.8103 -1.6115  1.7643
 1458SOL    HW216011   2.539   1.011   3.447 -1.2183  1.9885  0.1156
 1459SOL     OW16012   1.587   2.116   7.645 -0.0090  0.1606 -0.2357
 1459SOL    HW116013   1.535   2.064   7.706  1.3829  0.4117  1.2028
 1459SOL    HW216014   1.672   2.100   7.687 -0.3304  0.8608  0.6889
 1460SOL     OW16015   0.507   1.436   7.797  0.1857 -0.3627  0.8491
 1460SOL    HW116016   0.543   1.511   7.750 -0.7215 -0.2096  0.4000
 1460SOL    HW216017   0.541   1.444   7.886  3.2381 -0.6315 -0.2936
 1461SOL     OW16018   1.205   1.771   8.538  0.5113 -0.3775 -0.3794
 1461SOL    HW116019   1.159   1.713   8.478 -0.1709 -0.9669  0.7206
 1461SOL    HW216020   1.291   1.729   8.535  0.5250 -0.3748 -0.0432
 1462SOL     OW16021   3.894   3.436   3.827 -0.1256 -0.1822  0.8541
 1462SOL    HW116022   3.912   3.489   3.905 -1.8414 -0.0218  1.1288
 1462SOL    HW216023   3.804   3.465   3.814  0.4069 -0.2185 -3.0540
 1463SOL     OW16024   4.705   2.229   3.774 -0.1810 -0.3474  0.7473
 1463SOL    HW116025   0.040   2.281   3.803 -0.2911 -0.3631  1.0653
 1463SOL    HW216026   4.738   2.144   3.745  1.8990  0.1933  1.5690
 1464SOL     OW16027   3.128   4.258   2.577 -0.0681  0.0306  0.4657
 1464SOL    HW116028   3.123   4.171   2.537  2.6416 -0.5808  1.4631
 1464SOL    HW216029   3.123   4.233   2.669 -1.7994 -1.8746 -0.1498
 1465SOL     OW16030   2.991   1.944   7.423 -0.2900  0.1167 -0.4580
 1465SOL    HW116031   3.072   1.920   7.380 -1.6504 -1.5848 -2.0782
 1465SOL    HW216032   2.984   2.035   7.394  0.0855  0.5882  0.9102
 1466SOL     OW16033   3.802   3.375   1.925 -0.3936 -0.0609  0.5009
 1466SOL    HW116034   3.773   3.343   1.840  0.1844 -0.1786  0.3465
 1466SOL    HW216035   3.849   3.454   1.896 -0.7466  1.0193  2.8712
 1467SOL     OW16036   2.116   3.153   3.329 -0.3808  0.2883 -0.8873
 1467SOL    HW116037   2.049   3.221   3.341 -0.9386 -0.0543 -2.0774
 1467SOL    HW216038   2.072   3.069   3.319 -0.8090  0.2974  0.9477
 1468SOL     OW16039   2.728   2.842  12.887 -0.5281  0.0574  0.1631
 1468SOL    HW116040   2.768   2.926  12.911  0.5995 -0.0031 -1.5099
 1468SOL    HW216041   2.716   2.854  12.793  1.6199 -0.6067 -0.1720
 1469SOL     OW16042   3.689   2.890   1.076 -0.6112 -0.0667  0.7257
 1469SOL    HW116043   3.764   2.839   1.108 -0.9051  0.5225  2.3455
 1469SOL    HW216044   3.639   2.907   1.156 -2.5539  1.2152 -0.7437
 1470SOL     OW16045   3.370   0.857  15.263  0.2562  0.1730 -0.1799
 1470SOL    HW116046   3.301   0.886  15.204  1.4619  0.6911 -1.3325
 1470SOL    HW216047   3.400   0.941  15.297  0.0579 -0.5542  1.8050
 1471SOL     OW16048   2.928   3.050   8.974  0.3674 -0.0066 -0.0737
 1471SOL    HW116049   2.955   3.075   9.063 -1.0154 -0.8359  0.5886
 1471SOL    HW216050   3.001   3.085   8.924  0.1545  0.5059 -0.0270
 1472SOL     OW16051   0.667   2.830   4.915  0.0780 -0.7289 -0.2797
 1472SOL    HW116052   0.750   2.810   4.873  0.1830  1.8726 -1.3027
 1472SOL    HW216053   0.608   2.780   4.858  1.4290 -1.2975 -1.1685
 1473SOL     OW16054   2.172   1.460   3.719 -0.2689  0.4522 -0.8499
 1473SOL    HW116055   2.143   1.517   3.790  0.5327  1.1349 -1.0590
 1473SOL    HW216056   2.099   1.467   3.659  1.2176  0.3075 -2.6671
 1474SOL     OW16057   4.518   0.784  11.398  0.0063 -0.4109  0.0125
 1474SOL    HW116058   4.547   0.874  11.381  0.2256 -0.8288 -1.7622
 1474SOL    HW216059   4.469   0.805  11.478 -0.4954 -0.9531 -0.1511
 1475SOL     OW16060   2.479   2.371   1.906  0.7931  0.7378 -0.0309
 1475SOL    HW116061   2.496   2.291   1.857 -0.2321  0.8939 -0.6303
 1475SOL    HW216062   2.570   2.397   1.922  0.3309  1.6056  1.2366
 1476SOL     OW16063   2.432   3.261  16.996  0.1900 -0.4219 -0.2519
 1476SOL    HW116064   2.453   3.354  16.985 -0.8766 -0.3150 -1.2913
 1476SOL    HW216065   2.478   3.229  16.919  0.6785 -1.6508  0.5453
 1477SOL     OW16066   1.352   0.984  13.684  0.5629  0.0484  0.2559
 1477SOL    HW116067   1.291   1.040  13.732 -1.5236 -1.0998 -1.0269
 1477SOL    HW216068   1.394   1.051  13.630  0.6612  1.1464  1.7128
 1478SOL     OW16069   0.841   0.392  14.110 -0.0056  0.0306 -0.4533
 1478SOL    HW116070   0.888   0.421  14.032  1.1800 -2.0395 -0.5121
 1478SOL    HW216071   0.912   0.412  14.171 -1.1018 -0.6498  1.0704
 1479SOL     OW16072   3.212   1.723   2.615  0.1796  0.4309  0.3331
 1479SOL    HW116073   3.248   1.808   2.642  1.6479  0.0201 -0.3286
 1479SOL    HW216074   3.146   1.701   2.680  0.3625  1.4957  0.8749
 1480SOL     OW16075   2.478   3.856   2.568 -0.3731 -0.3570 -0.2318
 1480SOL    HW116076   2.513   3.921   2.507  0.7706 -2.1394 -1.4630
 1480SOL    HW216077   2.391   3.892   2.587 -0.7874 -1.4861 -0.0035
 1481SOL     OW16078   1.362   3.066   4.703 -0.3686 -0.6006 -0.3686
 1481SOL    HW116079   1.433   3.098   4.648  0.4182 -0.9515  0.4319
 1481SOL    HW216080   1.295   3.129   4.675 -1.7948 -0.9816  2.1650
 1482SOL     OW16081   2.691   3.170  12.756  0.1933 -0.0240  0.6264
 1482SOL    HW116082   2.730   3.257  12.754 -0.6275  0.3339 -0.0229
 1482SOL    HW216083   2.689   3.156  12.851 -0.3429  0.8959  0.7510
 1483SOL     OW16084   3.403   0.679   7.053 -0.2983  0.3134 -0.0628
 1483SOL    HW116085   3.369   0.675   7.142 -1.5995 -1.3816 -0.6354
 1483SOL    HW216086   3.462   0.754   7.054  2.0808 -1.5064 -1.9360
 1484SOL     OW16087   0.300   0.811   9.648 -0.3821 -0.6616  0.3041
 1484SOL    HW116088   0.266   0.762   9.573 -1.3940  1.0064 -0.3312
 1484SOL    HW216089   0.250   0.777   9.723 -3.2792 -1.1898 -1.8514
 1485SOL     OW16090   1.079   3.466  15.831  0.4166 -0.3874 -0.3802
 1485SOL    HW116091   1.071   3.489  15.923 -1.4881  0.0262 -0.6472
 1485SOL    HW216092   1.021   3.532  15.792  0.2707 -0.4698 -0.3030
 1486SOL     OW16093   2.066   4.022   8.615 -0.1988  0.5497 -0.2123
 1486SOL    HW116094   2.114   4.034   8.533 -3.3486 -0.8962 -2.2369
 1486SOL    HW216095   2.030   4.111   8.619  0.5258  0.8645 -0.6845
 1487SOL     OW16096   0.699   3.344   1.744  0.3542  0.1647 -0.0540
 1487SOL    HW116097   0.766   3.363   1.678  0.5377  0.0698  0.1043
 1487SOL    HW216098   0.631   3.291   1.703 -1.5900  1.4277  1.6004
 1488SOL     OW16099   0.785   3.585   0.979 -0.0485 -0.4234  0.8471
 1488SOL    HW116100   0.874   3.563   1.008 -0.7128 -0.5514  2.7743
 1488SOL    HW216101   0.771   3.655   1.042 -1.8985  0.4465 -0.5426
 1489SOL     OW16102   0.017   1.853   1.658 -0.2824  0.1066 -0.6589
 1489SOL    HW116103   0.028   1.758   1.654  0.0510  0.0626  1.2869
 1489SOL    HW216104   0.088   1.880   1.600  1.2044 -1.5050  0.4351
 1490SOL     OW16105   3.716   2.920   3.728  0.4115  0.9025  0.3046
 1490SOL    HW116106   3.672   2.929   3.644 -0.8597  0.0657  0.8724
 1490SOL    HW216107   3.697   3.002   3.773 -1.9783 -0.1974  1.3518
 1491SOL     OW16108   2.607   1.155   3.656 -0.3354  0.3410 -0.4001
 1491SOL    HW116109   2.673   1.195   3.599  0.6824 -3.2233 -1.7415
 1491SOL    HW216110   2.526   1.193   3.622 -2.3413 -1.2370  2.6518
 1492SOL     OW16111   1.251   2.834   0.988  0.3073 -0.0446 -0.2759
 1492SOL    HW116112   1.156   2.847   0.982  0.2605  0.3799  1.3596
 1492SOL    HW216113   1.267   2.863   1.078  1.5527  0.7682 -0.7635
 1493SOL     OW16114   1.289   0.321   2.012 -0.1161 -0.4044 -0.4431
 1493SOL    HW116115   1.225   0.309   1.941 -1.8487 -1.2326  1.2648
 1493SOL    HW216116   1.350   0.249   1.995  1.2945  1.0824 -1.5925
 1494SOL     OW16117   4.633   1.375   1.286 -0.0114 -0.1681  0.5033
 1494SOL    HW116118   4.617   1.444   1.351 -1.3618  1.3176 -1.3738
 1494SOL    HW216119   4.564   1.310   1.303  1.7263 -1.9564  0.6823
 1495SOL     OW16120   0.431   3.614  14.677  0.2961  0.2970 -0.1510
 1495SOL    HW116121   0.489   3.648  14.745 -2.4132 -1.0512  2.8347
 1495SOL    HW216122   0.433   3.688  14.616 -0.2807  0.9828  0.6570
 1496SOL     OW16123   0.419   0.646  15.694 -0.2195  0.2784 -0.0249
 1496SOL    HW116124   0.385   0.641  15.784 -1.5617 -1.2540 -0.6200
 1496SOL    HW216125   0.400   0.738  15.676  1.0935  0.6164  0.3270
 1497SOL     OW16126   1.284   1.751   7.072 -0.0559  0.0945  0.2875
 1497SOL    HW116127   1.318   1.674   7.027 -1.0414 -0.1883  0.0362
 1497SOL    HW216128   1.230   1.708   7.138 -1.4475 -0.0485 -0.9667
 1498SOL     OW16129   2.980   2.055   9.722  0.0164  0.3980 -0.0342
 1498SOL    HW116130   3.013   2.027   9.807  1.8102  2.0696 -0.1659
 1498SOL    HW216131   2.980   2.151   9.732 -0.5166  0.2331  1.4595
 1499SOL     OW16132   2.284   1.799   4.202 -0.2078  0.1657  0.3503
 1499SOL    HW116133   2.364   1.755   4.230 -0.7570  0.8765  2.9496
 1499SOL    HW216134   2.220   1.748   4.250 -1.9463  0.8938 -1.1972
 1500SOL     OW16135   2.766   2.139   2.020  0.3866  0.2180  0.3047
 1500SOL    HW116136   2.795   2.064   2.071  1.1457 -1.5189 -2.6985
 1500SOL    HW216137   2.799   2.117   1.933 -0.2760  0.9325 -0.1310
 1501SOL     OW16138   0.858   2.396   1.640  0.5426  0.2363 -0.0469
 1501SOL    HW116139   0.904   2.313   1.652  1.3350  0.5111 -1.1856
 1501SOL    HW216140   0.855   2.406   1.544 -0.9872 -0.3462 -0.0606
 1502SOL     OW16141   4.098   3.273  17.113 -0.0732 -0.5132  0.2103
 1502SOL    HW116142   4.152   3.286  17.191 -0.1282  1.4913 -0.0904
 1502SOL    HW216143   4.059   3.191  17.143  2.6906 -2.1263 -0.5796
 1503SOL     OW16144   0.962   0.274   3.365 -0.2963 -0.2782  0.5076
 1503SOL    HW116145   0.994   0.364   3.365 -0.7108 -0.1349  0.5821
 1503SOL    HW216146   1.047   0.228   3.368  0.6813  1.5529  0.8998
 1504SOL     OW16147   0.454   3.348  14.892 -0.0070  0.4127  0.1083
 1504SOL    HW116148   0.378   3.405  14.896 -1.1463 -1.2070  1.3608
 1504SOL    HW216149   0.458   3.335  14.987 -0.3156  1.3173  0.2500
 1505SOL     OW16150   0.890   3.381  10.328 -0.7260  0.3190 -0.3144
 1505SOL    HW116151   0.904   3.299  10.376 -2.2739 -0.3512 -1.0420
 1505SOL    HW216152   0.800   3.404  10.351 -1.1851  0.9769 -2.8334
 1506SOL     OW16153   2.787   0.946   1.491  0.4603 -0.2689 -0.1500
 1506SOL    HW116154   2.715   0.986   1.540 -1.0725 -0.5945 -2.1624
 1506SOL    HW216155   2.834   1.021   1.454 -1.3579  1.2819  0.6725
 1507SOL     OW16156   1.548   4.652   4.793 -0.1382 -0.2459 -0.1845
 1507SOL    HW116157   1.514   4.588   4.732  0.3851 -0.7047  0.0026
 1507SOL    HW216158   1.556   4.725   4.732 -0.1339 -1.1089 -1.2008
 1508SOL     OW16159   3.273   0.843   4.547 -1.0087  0.4675 -0.0957
 1508SOL    HW116160   3.339   0.783   4.513 -0.2587  2.6003 -2.4534
 1508SOL    HW216161   3.241   0.794   4.623  1.0957  0.9506  1.1174
 1509SOL     OW16162   4.156   2.358   2.571  0.2188 -0.0053  0.4095
 1509SOL    HW116163   4.217   2.376   2.643 -0.2222  4.6105 -0.3501
 1509SOL    HW216164   4.134   2.449   2.548  0.9012  0.3183  1.0206
 1510SOL     OW16165   4.031   3.054   5.931  0.0092 -0.0582  0.1975
 1510SOL    HW116166   4.092   2.983   5.948  1.1331  0.9551  0.4103
 1510SOL    HW216167   3.949   3.019   5.967 -0.3661 -1.5744 -2.1883
 1511SOL     OW16168   2.206   4.144  10.841  0.4484  0.0697 -0.1914
 1511SOL    HW116169   2.185   4.061  10.883  0.6060 -0.5054 -1.2717
 1511SOL    HW216170   2.289   4.175  10.878 -0.0892 -0.5697  1.5540
 1512SOL     OW16171   2.636   2.130   6.143 -0.1712  0.1136 -0.2953
 1512SOL    HW116172   2.549   2.120   6.106 -0.1794  0.9031 -0.5003
 1512SOL    HW216173   2.674   2.051   6.103  2.1719  1.1601 -0.1883
 1513SOL     OW16174   1.678   0.418   7.057  0.1201  0.1060  0.0184
 1513SOL    HW116175   1.698   0.509   7.079  3.0446 -1.2224  2.8529
 1513SOL    HW216176   1.684   0.425   6.961  0.8920  1.1437  0.1419
 1514SOL     OW16177   0.150   3.241   8.462 -0.4202 -0.0775  0.4402
 1514SOL    HW116178   0.096   3.301   8.513  0.6859  1.1948  0.1222
 1514SOL    HW216179   0.097   3.217   8.386  0.0494 -0.1791  0.1442
 1515SOL     OW16180   0.577   1.666   7.637 -0.3774 -0.1423  0.3809
 1515SOL    HW116181   0.492   1.701   7.610  0.0442  0.8151  0.2759
 1515SOL    HW216182   0.634   1.730   7.592 -2.5402 -0.6826 -3.0948
 1516SOL     OW16183   0.683   3.249   5.725 -0.4860  0.1480  0.0470
 1516SOL    HW116184   0.647   3.288   5.805  0.1729  2.0605 -0.5983
 1516SOL    HW216185   0.770   3.289   5.720  0.5103 -1.7341  2.0636
 1517SOL     OW16186   3.046   4.469   8.128  0.1500 -0.0552  0.0492
 1517SOL    HW116187   3.026   4.401   8.064 -0.8974  0.4815 -0.1818
 1517SOL    HW216188   3.142   4.475   8.133  0.2085 -0.2768 -0.8699
 1518SOL     OW16189   1.157   1.921   3.829 -0.2349 -0.1869  0.3206
 1518SOL    HW116190   1.138   1.847   3.771 -1.0879  1.1688 -1.1320
 1518SOL    HW216191   1.105   1.897   3.906 -0.5430  0.4150  0.2917
 1519SOL     OW16192   0.845   1.067   8.665 -0.6251 -0.0078 -0.0504
 1519SOL    HW116193   0.909   0.996   8.666 -0.3159  0.2395 -2.3144
 1519SOL    HW216194   0.845   1.100   8.754 -2.3686 -2.8191  1.0137
 1520SOL     OW16195   0.652   0.272  16.306 -0.3205 -0.3155  0.0565
 1520SOL    HW116196   0.696   0.228  16.233  2.3897  3.5681 -0.6772
 1520SOL    HW216197   0.713   0.330  16.352  0.2682 -0.7073 -0.2315
 1521SOL     OW16198   1.313   2.157  15.796  0.4347 -0.1338 -0.3237
 1521SOL    HW116199   1.250   2.226  15.773  0.6487  1.0307  2.6352
 1521SOL    HW216200   1.320   2.132  15.703 -3.2811 -0.5023 -0.5080
 1522SOL     OW16201   0.251   0.146   2.974 -0.4845  0.3214 -0.6155
 1522SOL    HW116202   0.331   0.127   2.925  0.5074 -0.7480  1.4368
 1522SOL    HW216203   0.283   0.213   3.034 -0.2352 -0.0895 -0.2907
 1523SOL     OW16204   1.678   2.086   9.176 -0.3870  0.6611  0.0551
 1523SOL    HW116205   1.614   2.015   9.168  0.0999  0.3498 -1.1389
 1523SOL    HW216206   1.642   2.135   9.250  2.7676  1.3284  1.1446
 1524SOL     OW16207   1.699   3.110   2.286 -0.3790  0.0829 -0.0383
 1524SOL    HW116208   1.626   3.074   2.337  0.3541 -1.1645  0.1142
 1524SOL    HW216209   1.777   3.091   2.338  0.1312 -0.1477 -0.8792
 1525SOL     OW16210   3.444   0.405   3.729  0.0326 -0.2289  0.4447
 1525SOL    HW116211   3.355   0.381   3.753  0.4416 -1.6526  0.5980
 1525SOL    HW216212   3.461   0.315   3.702 -0.7226 -0.5927  1.1789
 1526SOL     OW16213   2.488   2.758  10.475 -0.3014  0.1614 -0.3655
 1526SOL    HW116214   2.476   2.778  10.383  0.9113 -2.0771 -1.0164
 1526SOL    HW216215   2.457   2.668  10.483 -1.9483  0.7501 -0.2473
 1527SOL     OW16216   1.525   3.596   0.022  0.3086 -0.6107  0.2849
 1527SOL    HW116217   1.528   3.661   0.092 -1.2512 -2.2553  1.8834
 1527SOL    HW216218   1.518   3.521   0.082 -3.2624  0.1784  0.8180
 1528SOL     OW16219   1.982   3.450   6.200  0.0411  0.3400  0.3793
 1528SOL    HW116220   1.895   3.488   6.195  0.5823  1.5176 -0.3907
 1528SOL    HW216221   1.965   3.399   6.279 -1.4777 -0.2459 -0.3397
 1529SOL     OW16222   0.393   0.690   6.875  0.0103  0.1542 -0.1923
 1529SOL    HW116223   0.298   0.679   6.880  0.0916  1.3503  3.3627
 1529SOL    HW216224   0.407   0.603   6.836  0.7410 -0.3221  1.1466
 1530SOL     OW16225   3.763   0.910   4.060 -0.4385  0.3795  0.1751
 1530SOL    HW116226   3.826   0.963   4.107 -1.5343  0.2501  1.8007
 1530SOL    HW216227   3.749   0.962   3.981 -0.0584 -2.9862 -2.1268
 1531SOL     OW16228   2.901   3.060   0.232  0.1129 -0.2016  0.0239
 1531SOL    HW116229   2.818   3.063   0.280 -0.2501 -2.1065 -0.4978
 1531SOL    HW216230   2.957   3.049   0.310 -1.5621  0.8874  1.3749
 1532SOL     OW16231   4.042   3.967   4.775 -0.2825  0.3113  0.0703
 1532SOL    HW116232   4.115   3.954   4.714 -0.5646  0.9926 -0.4128
 1532SOL    HW216233   3.968   3.932   4.725 -1.5426 -0.6857  2.6488
 1533SOL     OW16234   1.513   0.198   8.331  0.2357 -0.1008 -0.2873
 1533SOL    HW116235   1.607   0.207   8.347 -0.0004  0.3999  0.8118
 1533SOL    HW216236   1.488   0.215   8.422 -0.8461  1.5134 -0.8744
 1534SOL     OW16237   2.193   1.657  14.435 -0.2228  0.0134  0.0422
 1534SOL    HW116238   2.136   1.597  14.482 -1.4230  0.1606 -1.2296
 1534SOL    HW216239   2.173   1.632  14.345 -0.7154 -0.3978  0.2627
 1535SOL     OW16240   4.506   3.625   2.138 -0.1451 -0.0117  0.2326
 1535SOL    HW116241   4.466   3.541   2.158  0.6417  0.0428  2.0433
 1535SOL    HW216242   4.463   3.645   2.055  0.3219 -0.0635 -0.0254
 1536SOL     OW16243   2.622   2.272   1.451  0.3770  0.0629  0.1942
 1536SOL    HW116244   2.691   2.331   1.482  1.6566 -1.9893  1.1950
 1536SOL    HW216245   2.550   2.334   1.442 -0.7519 -1.1302  1.0388
 1537SOL     OW16246   1.468   1.527   2.580  0.0986  0.4731 -0.0629
 1537SOL    HW116247   1.492   1.497   2.493  2.5819 -0.2804  0.8910
 1537SOL    HW216248   1.416   1.599   2.545  2.0574  1.7616 -0.3362
 1538SOL     OW16249   4.376   3.634   7.262 -0.0270 -0.4751 -0.0052
 1538SOL    HW116250   4.368   3.714   7.313 -0.4564  0.3395 -1.3481
 1538SOL    HW216251   4.413   3.681   7.187 -0.2030 -1.5234 -0.7530
 1539SOL     OW16252   1.029   3.411  11.674 -0.7703  0.2812  0.2168
 1539SOL    HW116253   1.016   3.364  11.592 -2.9514 -0.3241  0.9040
 1539SOL    HW216254   1.114   3.453  11.677 -1.2514  1.1570  1.4797
 1540SOL     OW16255   3.905   3.004  11.463 -0.5718  0.2895 -0.1618
 1540SOL    HW116256   3.890   3.080  11.407  1.5668 -0.3471 -1.5908
 1540SOL    HW216257   3.974   2.972  11.405 -0.8896  0.0651 -0.4117
 1541SOL     OW16258   4.155   3.608   8.513  0.7032  0.9112 -0.0650
 1541SOL    HW116259   4.100   3.675   8.472 -0.4167  1.3071  2.1018
 1541SOL    HW216260   4.208   3.651   8.579  0.2463 -0.5270  1.2331
 1542SOL     OW16261   3.489   1.272  15.839  0.7435 -0.2107  0.0643
 1542SOL    HW116262   3.426   1.315  15.896  1.8978  1.2618  0.2391
 1542SOL    HW216263   3.514   1.347  15.785  3.5668  0.4258  2.2338
 1543SOL     OW16264   1.462   3.473   4.103  0.4040 -0.3238 -0.1500
 1543SOL    HW116265   1.469   3.491   4.196 -1.2925 -0.1597 -0.0493
 1543SOL    HW216266   1.458   3.378   4.096 -5.6678 -0.0474 -0.3121
 1544SOL     OW16267   3.596   1.362   8.579 -0.3100 -0.4263  0.4748
 1544SOL    HW116268   3.656   1.339   8.509 -0.2753  2.3204 -0.3967
 1544SOL    HW216269   3.515   1.317   8.553 -0.1960 -1.5600  2.0784
 1545SOL     OW16270   3.277   0.675  13.644 -0.2986 -0.3458  0.2332
 1545SOL    HW116271   3.203   0.616  13.631 -1.4219  1.3725 -1.1841
 1545SOL    HW216272   3.280   0.686  13.739  1.9715  1.0118  0.0047
 1546SOL     OW16273   0.556   2.269   4.489  0.3357  0.1445  0.0992
 1546SOL    HW116274   0.533   2.315   4.570 -1.6414 -0.7996  0.0848
 1546SOL    HW216275   0.546   2.332   4.418 -1.1613 -0.0280  0.1490
 1547SOL     OW16276   1.048   1.731   3.256 -0.2824  0.2400 -0.4372
 1547SOL    HW116277   1.139   1.717   3.232  0.0459 -1.5124  1.9113
 1547SOL    HW216278   1.035   1.648   3.301 -2.1473  0.2665 -0.9357
 1548SOL     OW16279   2.548   0.401   9.354 -0.1406  0.2536 -0.0065
 1548SOL    HW116280   2.587   0.414   9.268 -1.7313 -0.4882 -0.8362
 1548SOL    HW216281   2.595   0.456   9.416 -0.6249 -0.1905  0.7650
 1549SOL     OW16282   4.159   1.429   4.488  0.0092  0.2604  0.1900
 1549SOL    HW116283   4.201   1.344   4.476 -0.5742  0.2477 -1.6907
 1549SOL    HW216284   4.090   1.425   4.423 -0.9719  1.0491  1.1706
 1550SOL     OW16285   1.291   3.294   3.239 -0.3872 -0.0669  0.2732
 1550SOL    HW116286   1.373   3.338   3.262  0.6171 -2.8141  1.8798
 1550SOL    HW216287   1.329   3.209   3.219 -1.2916  0.2759 -2.8453
 1551SOL     OW16288   3.509   0.738   5.679  0.3751  0.0988 -0.5811
 1551SOL    HW116289   3.420   0.705   5.692  0.7961  0.2377  2.7224
 1551SOL    HW216290   3.507   0.722   5.585 -1.4956  1.0515 -0.7122
 1552SOL     OW16291   1.275   3.122   0.994  0.3529 -0.4440  0.1005
 1552SOL    HW116292   1.214   3.181   1.039 -0.3186 -1.7003  0.8098
 1552SOL    HW216293   1.352   3.115   1.051  0.5476 -2.7249 -0.4790
 1553SOL     OW16294   1.609   1.691  13.523  0.2970  0.3406 -0.0357
 1553SOL    HW116295   1.538   1.751  13.546  0.1376  0.1537 -0.0352
 1553SOL    HW216296   1.605   1.639  13.603 -1.4670  1.6627  0.7356
 1554SOL     OW16297   3.623   1.091   7.355  0.0934 -1.3882  0.1296
 1554SOL    HW116298   3.570   1.052   7.286 -0.4933  1.8046 -1.2163
 1554SOL    HW216299   3.558   1.083   7.425 -1.7143  0.8050 -1.3045
 1555SOL     OW16300   3.446   1.399   6.646 -0.4649  0.0340 -0.1399
 1555SOL    HW116301   3.507   1.328   6.625 -1.1396  0.2526 -2.8945
 1555SOL    HW216302   3.472   1.413   6.736 -0.3206 -1.0781 -0.0060
 1556SOL     OW16303   3.846   4.132   0.433  0.1986  0.2730  0.2230
 1556SOL    HW116304   3.827   4.062   0.496 -1.7701  1.7398  1.2673
 1556SOL    HW216305   3.757   4.150   0.403 -0.1720 -0.8431  0.6383
 1557SOL     OW16306   2.986   4.210   5.702  0.1795  0.8743 -0.6600
 1557SOL    HW116307   3.029   4.124   5.710  1.0142  1.4457  1.0284
 1557SOL    HW216308   2.912   4.203   5.763  1.0758  1.4968  0.4798
 1558SOL     OW16309   3.290   2.654   4.365  0.2418  0.0433  0.2185
 1558SOL    HW116310   3.380   2.669   4.337  1.0225 -1.5658  1.8758
 1558SOL    HW216311   3.279   2.741   4.403  0.7496  0.0131  0.4393
 1559SOL     OW16312   0.667   3.922   6.297  1.2553  0.5736 -0.2518
 1559SOL    HW116313   0.571   3.928   6.294  1.2935  1.6877  0.9997
 1559SOL    HW216314   0.679   3.903   6.204  1.2634 -1.2072  0.0977
 1560SOL     OW16315   2.515   0.171   1.686 -0.4820 -0.2100 -0.3301
 1560SOL    HW116316   2.473   0.218   1.758 -2.0384 -0.5785 -1.0116
 1560SOL    HW216317   2.437   0.135   1.645  0.2444 -1.1059 -0.9286
 1561SOL     OW16318   0.413   3.992   4.307  0.3639  0.8495 -0.1366
 1561SOL    HW116319   0.369   3.927   4.252  1.5564 -1.9813  2.2551
 1561SOL    HW216320   0.425   4.062   4.244  1.9690  1.4167  0.8149
 1562SOL     OW16321   3.667   4.223   9.913  0.2317  0.2252 -0.4191
 1562SOL    HW116322   3.714   4.306   9.921 -0.3900  0.4729  0.5848
 1562SOL    HW216323   3.579   4.238   9.945  1.0700  1.7708  1.1132
 1563SOL     OW16324   1.338   1.232  13.889  0.8131  0.2614  0.1481
 1563SOL    HW116325   1.249   1.267  13.883  0.3764 -0.4467  2.4666
 1563SOL    HW216326   1.326   1.150  13.936 -1.5598  0.6901  0.3043
 1564SOL     OW16327   3.003   2.295  13.757  0.2490  0.3934 -0.5392
 1564SOL    HW116328   2.966   2.231  13.696 -0.0787 -0.0801  0.1620
 1564SOL    HW216329   3.046   2.238  13.821  0.4267  0.0671 -0.9457
 1565SOL     OW16330   2.236   4.083  10.025  0.3872 -0.5777  0.3612
 1565SOL    HW116331   2.210   4.005   9.976 -0.1650  1.1564 -2.0719
 1565SOL    HW216332   2.301   4.116   9.964 -1.3142  0.9673 -0.6048
 1566SOL     OW16333   3.475   2.698   0.177  0.1818  1.0558  0.2209
 1566SOL    HW116334   3.566   2.672   0.163 -0.6967 -0.2483 -3.0606
 1566SOL    HW216335   3.446   2.645   0.251  0.8330  1.5350  0.8220
 1567SOL     OW16336   1.680   3.199  12.101  0.4620 -0.6594 -0.4156
 1567SOL    HW116337   1.677   3.265  12.032 -1.1653 -0.4785 -0.1723
 1567SOL    HW216338   1.646   3.254  12.171  0.5631 -1.8146  0.5395
 1568SOL     OW16339   2.286   1.304  12.885  0.1393 -0.5608  0.0052
 1568SOL    HW116340   2.191   1.300  12.886  0.1544 -0.8649  0.2224
 1568SOL    HW216341   2.323   1.285  12.971 -1.0570 -0.1205  0.6089
 1569SOL     OW16342   4.629   1.827  13.274 -0.2896  0.4195 -0.6198
 1569SOL    HW116343   4.628   1.919  13.300 -1.9410 -0.3152  1.8879
 1569SOL    HW216344   4.563   1.789  13.332 -0.5254  1.2041 -0.3751
 1570SOL     OW16345   2.365   4.708   6.089 -0.2363  0.2793 -0.2014
 1570SOL    HW116346   2.352   0.056   6.053  1.3460  0.5899 -0.0179
 1570SOL    HW216347   2.460   4.704   6.078 -0.1796 -0.4715  0.5888
 1571SOL     OW16348   4.042   3.102  12.197 -0.2303 -0.2194  0.0015
 1571SOL    HW116349   4.054   3.055  12.280 -0.1844 -1.0226 -0.4606
 1571SOL    HW216350   4.116   3.162  12.197 -1.6572  1.5493  0.9772
 1572SOL     OW16351   0.307   2.346   9.703  0.4055 -0.2529 -0.0988
 1572SOL    HW116352   0.214   2.347   9.679  0.5589  0.7133 -0.6839
 1572SOL    HW216353   0.305   2.251   9.705 -0.0277 -0.2946 -2.1082
 1573SOL     OW16354   3.045   4.681  13.223 -0.1264  0.3268  0.2638
 1573SOL    HW116355   2.996   4.677  13.305 -1.9519 -0.4855 -0.8614
 1573SOL    HW216356   3.009   4.616  13.161  0.4184 -1.4517  1.8315
 1574SOL     OW16357   2.248   3.613  16.848  0.2855 -0.1913 -0.0403
 1574SOL    HW116358   2.234   3.595  16.940  0.8626 -1.0141 -0.1144
 1574SOL    HW216359   2.183   3.549  16.819  0.2643 -1.1999  2.2910
 1575SOL     OW16360   2.960   3.380  13.115  0.1352 -0.3319  0.6784
 1575SOL    HW116361   2.957   3.422  13.200  0.6023 -2.6085  1.8257
 1575SOL    HW216362   2.950   3.291  13.148 -0.1988 -0.5371  0.0360
 1576SOL     OW16363   2.650   2.224   3.930  0.2189  0.2484 -0.2995
 1576SOL    HW116364   2.583   2.227   3.861 -1.1150  0.2050  0.9932
 1576SOL    HW216365   2.726   2.263   3.888  0.6777  2.0889  2.2468
 1577SOL     OW16366   4.144   3.839   7.563  0.3010 -0.3616 -0.0209
 1577SOL    HW116367   4.180   3.858   7.649  0.6984  0.6886 -0.4189
 1577SOL    HW216368   4.213   3.815   7.500  1.1639  0.4071  0.6402
 1578SOL     OW16369   0.112   2.152   1.068 -0.5200  0.5972  0.4115
 1578SOL    HW116370   0.092   2.224   1.008 -3.3797  0.0420  0.7233
 1578SOL    HW216371   0.041   2.150   1.131 -0.6644  3.7301  0.3673
 1579SOL     OW16372   3.200   1.846   7.012  0.3410 -0.1387 -0.3890
 1579SOL    HW116373   3.123   1.801   6.976  0.4431  0.6855 -1.6220
 1579SOL    HW216374   3.244   1.883   6.936  0.1021 -0.6651 -0.7818
 1580SOL     OW16375   0.508   3.839   9.530 -0.0066  0.1100  0.2614
 1580SOL    HW116376   0.483   3.877   9.446  0.9136  0.1080 -0.0203
 1580SOL    HW216377   0.595   3.798   9.520 -0.2040 -0.1880 -0.2344
 1581SOL     OW16378   1.919   2.970   9.011  0.3182 -0.2162  0.0830
 1581SOL    HW116379   1.842   2.981   8.955  0.9145 -2.0892 -1.0727
 1581SOL    HW216380   1.952   3.060   9.003 -0.1944 -0.0661 -0.3640
 1582SOL     OW16381   3.771   0.812   9.516 -0.6588  0.8703 -0.0877
 1582SOL    HW116382   3.765   0.860   9.433  1.6398  2.4617  0.6736
 1582SOL    HW216383   3.720   0.733   9.502  1.2878 -0.6623  1.5511
 1583SOL     OW16384   0.912   2.408   3.791 -0.9029 -0.4606 -0.0415
 1583SOL    HW116385   0.930   2.408   3.697  1.3076  1.0560  0.3864
 1583SOL    HW216386   0.842   2.472   3.801  2.0333  2.8116 -0.5255
 1584SOL     OW16387   3.642   3.923   2.376  0.0684 -0.1384 -0.6811
 1584SOL    HW116388   3.566   3.890   2.424 -1.2755 -0.5672 -3.1341
 1584SOL    HW216389   3.605   4.003   2.340 -0.1997 -0.1623 -0.4654
 1585SOL     OW16390   0.947   0.026  16.275  0.0979  0.0546  0.2933
 1585SOL    HW116391   0.864   0.061  16.241  0.8223  2.2124  0.7289
 1585SOL    HW216392   0.991   0.108  16.299 -0.3730  0.1751  0.7529
 1586SOL     OW16393   3.898   3.267   4.282  0.0814 -0.0146  0.3496
 1586SOL    HW116394   3.948   3.270   4.201 -0.3333  0.5775  0.1078
 1586SOL    HW216395   3.957   3.221   4.341 -1.6799 -1.3155  1.1054
 1587SOL     OW16396   3.656   3.928   4.952 -0.0224 -0.4430 -0.2080
 1587SOL    HW116397   3.692   3.848   4.912  3.3580  0.6129  0.7683
 1587SOL    HW216398   3.736   3.974   4.975 -1.4329  1.9497 -0.0993
 1588SOL     OW16399   0.064   2.628   1.865 -0.1214 -0.3736 -0.1018
 1588SOL    HW116400   0.021   2.606   1.948  1.7732  0.2918  1.0686
 1588SOL    HW216401   0.100   2.542   1.843 -0.2207 -0.9715  2.0101
 1589SOL     OW16402   0.418   2.385  17.629 -0.2705  0.1365 -0.0818
 1589SOL    HW116403   0.367   2.317  17.585  0.1350 -1.0026  1.2115
 1589SOL    HW216404   0.360   2.422  17.696  0.1107 -0.6759  0.6952
 1590SOL     OW16405   2.945   3.375   5.231 -0.1872 -0.4169 -0.6435
 1590SOL    HW116406   2.988   3.296   5.264  0.4050  0.3249  0.3637
 1590SOL    HW216407   2.855   3.363   5.260  0.1315 -0.3184  0.3951
 1591SOL     OW16408   3.147   3.848  12.081 -0.3340  0.1196  0.1990
 1591SOL    HW116409   3.073   3.847  12.021 -0.5609 -2.7323  0.5480
 1591SOL    HW216410   3.174   3.757  12.071  1.5901  0.9279 -2.0956
 1592SOL     OW16411   4.365   3.408  10.364  0.4788 -0.6005  0.0360
 1592SOL    HW116412   4.380   3.417  10.270  0.8285 -0.3534  0.1185
 1592SOL    HW216413   4.319   3.487  10.391  0.1696 -0.0545 -2.1115
 1593SOL     OW16414   4.635   1.920   4.245  0.2848  0.4506  0.2252
 1593SOL    HW116415   4.592   2.004   4.236 -0.3392 -0.1486 -2.2350
 1593SOL    HW216416   4.671   1.942   4.331 -1.1643  1.0146  0.6936
 1594SOL     OW16417   3.214   3.329   4.661  0.3255 -0.4253  0.1288
 1594SOL    HW116418   3.134   3.294   4.701  0.1835 -0.1996  0.0441
 1594SOL    HW216419   3.215   3.411   4.711 -1.5477 -0.7729  0.7320
 1595SOL     OW16420   2.731   0.643   8.157 -0.6120 -0.2642  0.0752
 1595SOL    HW116421   2.812   0.691   8.142 -0.7435 -0.9429 -2.8382
 1595SOL    HW216422   2.757   0.566   8.106 -0.3518 -1.1533  1.5624
 1596SOL     OW16423   4.214   0.929   1.075  0.1918  0.7146  0.1772
 1596SOL    HW116424   4.224   0.950   1.168 -0.5666 -1.8826  0.8599
 1596SOL    HW216425   4.147   0.861   1.065 -0.3954  1.2139  0.6668
 1597SOL     OW16426   0.447   4.190   2.385 -0.2761  0.0725 -0.3063
 1597SOL    HW116427   0.507   4.224   2.319 -1.6422 -0.7698 -1.9820
 1597SOL    HW216428   0.472   4.098   2.394 -0.5663  0.1758  1.4589
 1598SOL     OW16429   1.814   4.005   5.390 -0.4326 -0.0682 -0.4448
 1598SOL    HW116430   1.775   4.066   5.453  1.6603  0.6238  0.1831
 1598SOL    HW216431   1.872   3.961   5.452  1.7649 -1.2930 -3.4107
 1599SOL     OW16432   2.548   1.693   3.505  0.6152 -0.1377 -0.1665
 1599SOL    HW116433   2.532   1.695   3.599 -1.4799  1.6109 -0.5685
 1599SOL    HW216434   2.480   1.757   3.482 -1.9511 -3.0201 -0.7007
 1600SOL     OW16435   0.708   1.098   3.278 -0.9027  0.4778 -0.2464
 1600SOL    HW116436   0.697   1.004   3.287 -1.9699  0.7441  1.1602
 1600SOL    HW216437   0.788   1.101   3.225  0.8067  0.3455  2.3202
 1601SOL     OW16438   2.680   3.844   3.067 -0.2869 -0.2869  0.8228
 1601SOL    HW116439   2.690   3.826   2.974  1.2698  2.6620  0.4283
 1601SOL    HW216440   2.589   3.873   3.072 -0.2010  0.1430 -0.2990
 1602SOL     OW16441   2.423   1.862   2.108 -0.1588 -0.0532 -0.1851
 1602SOL    HW116442   2.460   1.949   2.127 -0.8108  0.4010 -1.0257
 1602SOL    HW216443   2.441   1.849   2.015  3.1096 -0.4742  0.5076
 1603SOL     OW16444   4.185   2.886   6.793  0.2046  0.3530  0.2829
 1603SOL    HW116445   4.103   2.886   6.744  0.6128 -0.8524 -0.4109
 1603SOL    HW216446   4.230   2.819   6.741 -1.1551  0.7818 -1.4308
 1604SOL     OW16447   4.495   3.012   6.683  0.3360  0.4847  0.6674
 1604SOL    HW116448   4.477   3.088   6.629 -0.2949  0.2666  0.5685
 1604SOL    HW216449   4.503   3.059   6.766 -0.3365  0.1972  0.8928
 1605SOL     OW16450   2.998   1.895   4.558  0.1990  0.0985  0.4506
 1605SOL    HW116451   2.980   1.962   4.624 -0.5512 -1.3601  1.7252
 1605SOL    HW216452   3.010   1.946   4.478 -2.1010 -1.1922 -0.7414
 1606SOL     OW16453   4.642   1.635   9.780 -0.1717  0.2447  0.3837
 1606SOL    HW116454   4.669   1.718   9.818 -0.6057  0.4152  0.3209
 1606SOL    HW216455   4.636   1.649   9.686 -1.9049 -0.8690  0.3121
 1607SOL     OW16456   2.105   0.636   1.531 -0.0045 -0.3169  0.2766
 1607SOL    HW116457   2.148   0.689   1.598  0.5651 -0.5434  0.0926
 1607SOL    HW216458   2.130   0.679   1.449 -0.1687 -1.0478 -0.1592
 1608SOL     OW16459   3.190   0.777   3.570 -0.0235 -0.1171  0.1677
 1608SOL    HW116460   3.189   0.751   3.662  1.4072  0.4735  0.3516
 1608SOL    HW216461   3.247   0.707   3.537 -0.6390 -0.3232 -0.4371
 1609SOL     OW16462   0.466   4.441   7.794 -0.3573  0.2717  0.1360
 1609SOL    HW116463   0.401   4.460   7.862  0.2716 -0.3586  0.9107
 1609SOL    HW216464   0.507   4.365   7.835  0.6550  0.8147  0.1362
 1610SOL     OW16465   3.235   0.708   8.017 -0.0804  0.0544  0.5598
 1610SOL    HW116466   3.321   0.671   8.039  0.1179  0.4351  0.4143
 1610SOL    HW216467   3.233   0.698   7.922 -1.3041  1.6582  0.4261
 1611SOL     OW16468   2.801   3.905   8.191  0.5173 -0.3395  0.3941
 1611SOL    HW116469   2.794   3.990   8.234  1.8451  0.4622 -0.9783
 1611SOL    HW216470   2.893   3.887   8.206  0.7396  0.7806  0.3901
 1612SOL     OW16471   3.563   0.740   2.313 -0.1482 -0.1511  0.0260
 1612SOL    HW116472   3.469   0.747   2.330 -0.1051 -2.1431  1.0748
 1612SOL    HW216473   3.598   0.725   2.401  0.9858 -0.8381 -0.5508
 1613SOL     OW16474   1.300   3.854   1.544 -0.0239 -0.2242  0.8249
 1613SOL    HW116475   1.272   3.938   1.507  1.5448  0.3593  0.9640
 1613SOL    HW216476   1.393   3.870   1.526 -0.0068 -1.2588 -0.0212
 1614SOL     OW16477   1.445   4.485   4.588  0.4958  0.2100 -0.7127
 1614SOL    HW116478   1.351   4.488   4.568  0.3586  0.3509 -0.0623
 1614SOL    HW216479   1.489   4.502   4.504 -0.3846  1.8329 -0.8450
 1615SOL     OW16480   4.627   0.292  11.808 -0.1044 -0.0049 -0.8099
 1615SOL    HW116481   4.549   0.248  11.840 -0.5338  1.6728  0.4667
 1615SOL    HW216482   4.648   0.231  11.737 -1.1823  0.4918 -1.5583
 1616SOL     OW16483   0.997   2.991   2.911 -0.0350 -0.1415 -0.4339
 1616SOL    HW116484   1.032   3.075   2.940 -0.9269  0.6141 -1.5269
 1616SOL    HW216485   1.071   2.934   2.931 -0.1897 -0.1945 -0.0030
 1617SOL     OW16486   3.906   2.568   2.645 -0.0390  0.2417  0.2228
 1617SOL    HW116487   3.827   2.593   2.597 -0.3598  0.3396  0.8026
 1617SOL    HW216488   3.970   2.624   2.602  0.0818  2.3524  3.1065
 1618SOL     OW16489   4.549   4.048   0.821 -0.9536 -0.3169  0.1106
 1618SOL    HW116490   4.619   4.111   0.840  0.4042 -2.3526  1.8694
 1618SOL    HW216491   4.590   3.997   0.751 -1.1892 -0.3924  0.0295
 1619SOL     OW16492   0.992   2.770   2.491  0.0871 -0.0381  0.5058
 1619SOL    HW116493   0.972   2.702   2.427  0.7564  1.1855 -1.0128
 1619SOL    HW216494   0.917   2.758   2.549 -0.9737  2.0740 -0.4053
 1620SOL     OW16495   4.538   2.567   4.566  0.4284 -0.5080  0.0646
 1620SOL    HW116496   4.490   2.486   4.553  0.3989 -0.4860  0.0336
 1620SOL    HW216497   4.509   2.621   4.492  1.5271 -1.6704 -1.2140
 1621SOL     OW16498   1.692   4.560   5.262  0.7563  0.2473  0.1034
 1621SOL    HW116499   1.745   4.506   5.320  2.1919  2.2987  0.7088
 1621SOL    HW216500   1.606   4.524   5.279  0.1104  1.2229 -1.0584
 1622SOL     OW16501   0.791   0.594   5.955  1.2305 -0.2947 -0.0267
 1622SOL    HW116502   0.747   0.511   5.970  0.3732  0.4868  1.7019
 1622SOL    HW216503   0.877   0.565   5.922  1.0489 -0.2839 -0.5171
 1623SOL     OW16504   2.888   0.638   6.442  0.0378 -0.3972  0.2561
 1623SOL    HW116505   2.864   0.629   6.534 -1.4560  2.1178  0.1162
 1623SOL    HW216506   2.849   0.561   6.401 -1.7620  0.2329  0.7685
 1624SOL     OW16507   1.531   4.424   2.723 -0.6782 -0.3322  0.2183
 1624SOL    HW116508   1.517   4.518   2.734  1.6551  0.1231 -0.7565
 1624SOL    HW216509   1.608   4.425   2.780 -1.6037 -1.2172  1.4850
 1625SOL     OW16510   1.231   2.588   4.909  0.3294 -0.4826 -0.2345
 1625SOL    HW116511   1.311   2.603   4.859 -1.1540 -1.1606 -2.8501
 1625SOL    HW216512   1.206   2.676   4.938 -1.7204 -0.3083 -2.4715
 1626SOL     OW16513   0.412   2.856   9.417 -0.4413 -0.0346 -0.3290
 1626SOL    HW116514   0.418   2.832   9.509 -0.3173 -0.5691 -0.4794
 1626SOL    HW216515   0.473   2.930   9.421  0.0034 -0.3534 -1.2226
 1627SOL     OW16516   2.016   0.694   5.902  0.6587  0.0477 -0.2927
 1627SOL    HW116517   2.081   0.629   5.875 -2.3230 -1.8241 -3.0432
 1627SOL    HW216518   1.986   0.736   5.821 -3.4568  0.4344  1.4025
 1628SOL     OW16519   4.091   2.224   2.348  0.1880 -0.3452  0.0053
 1628SOL    HW116520   4.148   2.150   2.369 -1.4606 -1.7107 -0.3542
 1628SOL    HW216521   4.122   2.278   2.420 -0.9301 -1.4330  1.2928
 1629SOL     OW16522   0.243   2.408   3.545  0.3078  0.3990 -0.0602
 1629SOL    HW116523   0.267   2.379   3.457 -1.1381 -0.8563 -0.0431
 1629SOL    HW216524   0.225   2.501   3.537  1.0281  0.6076  0.8544
 1630SOL     OW16525   1.921   0.321   1.798  0.2685 -0.1068 -0.2877
 1630SOL    HW116526   1.883   0.286   1.879  0.7455 -1.3345 -0.6099
 1630SOL    HW216527   1.989   0.258   1.775  1.2151  0.7649  0.1137
 1631SOL     OW16528   2.098   0.112  16.840  0.3385  0.1378  0.2028
 1631SOL    HW116529   2.160   0.039  16.850  0.1114 -0.3372 -1.9327
 1631SOL    HW216530   2.022   0.083  16.892  0.3582 -0.5378 -0.1400
 1632SOL     OW16531   3.455   4.337  13.731  0.1921  0.0999  0.2482
 1632SOL    HW116532   3.531   4.293  13.694  0.0021  0.7458 -0.8986
 1632SOL    HW216533   3.404   4.255  13.732  0.5370 -0.1150  0.2733
 1633SOL     OW16534   2.310   2.821  17.627  0.0041 -0.6849 -0.1126
 1633SOL    HW116535   2.322   2.910  17.657  1.4267 -0.2081 -2.1167
 1633SOL    HW216536   2.349   2.810  17.541  0.3466 -1.0899  0.0946
 1634SOL     OW16537   2.299   3.771   1.804 -0.0524  0.0031  0.1933
 1634SOL    HW116538   2.338   3.796   1.888 -0.5849  1.3684  0.0438
 1634SOL    HW216539   2.349   3.691   1.791  2.8712  1.6846  0.9491
 1635SOL     OW16540   1.921   2.877   7.877  0.1031  0.9439 -0.0904
 1635SOL    HW116541   1.971   2.854   7.798  1.3752  0.0188  0.9956
 1635SOL    HW216542   1.844   2.821   7.880 -0.2003  1.4034  0.6193
 1636SOL     OW16543   4.487   0.019   9.754 -0.1272 -0.1198  0.4422
 1636SOL    HW116544   4.458   4.706   9.829  0.5237  1.4206  1.7710
 1636SOL    HW216545   4.562   0.070   9.783 -0.8063  0.8256  0.5233
 1637SOL     OW16546   3.944   2.814  10.063  0.2962 -0.3773  0.3165
 1637SOL    HW116547   3.979   2.903  10.057 -4.0070  1.2086 -1.2936
 1637SOL    HW216548   4.005   2.773  10.001 -0.1277  0.5832 -0.7421
 1638SOL     OW16549   1.965   4.175   1.055  0.3238  0.4283 -0.2683
 1638SOL    HW116550   1.950   4.223   0.974 -1.6343 -0.4133 -0.3929
 1638SOL    HW216551   2.032   4.109   1.037  0.7018  1.2861 -1.9649
 1639SOL     OW16552   4.250   3.853   7.815  0.2689  0.0985  0.5637
 1639SOL    HW116553   4.208   3.773   7.847  0.2703  1.1288  3.1341
 1639SOL    HW216554   4.338   3.850   7.852  0.8553  0.9227 -0.7454
 1640SOL     OW16555   2.349   1.839  13.733  0.2280 -0.3079 -0.2782
 1640SOL    HW116556   2.372   1.926  13.765  0.1333 -1.4513  2.9568
 1640SOL    HW216557   2.260   1.821  13.763  0.5716  0.8781  1.4627
 1641SOL     OW16558   0.997   2.744   3.273  0.0370 -0.3225 -0.5066
 1641SOL    HW116559   1.049   2.824   3.274  0.0240 -0.2962 -2.3186
 1641SOL    HW216560   0.963   2.753   3.362  2.0652 -2.2651  0.4664
 1642SOL     OW16561   3.066   1.711   0.683  0.3086  0.1825  0.0682
 1642SOL    HW116562   3.152   1.754   0.684  0.2799  0.2766 -2.2827
 1642SOL    HW216563   3.074   1.636   0.743 -0.3398  1.2079  1.4327
 1643SOL     OW16564   0.741   1.970   8.627  0.3652  0.0814  0.1232
 1643SOL    HW116565   0.758   1.975   8.721 -1.6287  1.2396  0.4241
 1643SOL    HW216566   0.751   2.061   8.597  0.2584 -0.3950 -1.3549
 1644SOL     OW16567   1.984   0.765  17.224  0.4645 -0.3266  0.2920
 1644SOL    HW116568   1.998   0.706  17.298  1.7350  0.0566  0.3510
 1644SOL    HW216569   1.948   0.705  17.158 -1.4009  2.3857 -1.1497
 1645SOL     OW16570   1.068   4.532   8.711 -0.6497  0.2182 -0.2765
 1645SOL    HW116571   1.048   4.590   8.638 -0.2130 -0.6194 -1.0595
 1645SOL    HW216572   1.014   4.572   8.780 -0.3613 -1.7542  1.1071
 1646SOL     OW16573   3.364   2.295  14.094 -0.5071  0.0688 -0.5905
 1646SOL    HW116574   3.336   2.384  14.076 -1.7791 -0.6079 -1.9471
 1646SOL    HW216575   3.450   2.315  14.132 -1.5439 -1.3408  2.5044
 1647SOL     OW16576   0.106   2.246   8.869  0.3221  0.1255 -0.6475
 1647SOL    HW116577   0.182   2.196   8.901 -0.4091 -0.4975  0.1156
 1647SOL    HW216578   0.053   2.178   8.829 -0.8071 -0.0415  1.1471
 1648SOL     OW16579   2.171   3.305   8.478  0.2069  0.1284  0.2109
 1648SOL    HW116580   2.092   3.257   8.503  0.4029 -0.1030  0.3920
 1648SOL    HW216581   2.165   3.376   8.541  0.7157 -1.5078  2.1169
 1649SOL     OW16582   4.321   1.893   3.087 -0.1809 -0.5086 -0.1120
 1649SOL    HW116583   4.308   1.948   3.009 -2.4370  0.1913  0.7535
 1649SOL    HW216584   4.340   1.806   3.053  0.4680 -0.5715  0.4191
 1650SOL     OW16585   4.581   1.156   4.013 -0.1295 -0.1150  0.5928
 1650SOL    HW116586   4.573   1.231   4.072  1.4566  0.6230 -0.1178
 1650SOL    HW216587   4.627   1.096   4.071  1.4236 -0.4616 -0.9899
 1651SOL     OW16588   1.717   3.987   5.698  0.2824 -0.0771 -0.2636
 1651SOL    HW116589   1.750   4.069   5.660  0.4762  0.3821  0.9054
 1651SOL    HW216590   1.793   3.959   5.748  0.4337  1.0982  0.1526
 1652SOL     OW16591   0.739   4.336  16.970 -0.0467  0.0866 -0.0642
 1652SOL    HW116592   0.831   4.324  16.994 -0.5904  1.6169  2.8372
 1652SOL    HW216593   0.728   4.431  16.974  0.2902  0.1200  0.1390
 1653SOL     OW16594   1.496   4.585   3.111 -0.1229 -0.1503 -0.1271
 1653SOL    HW116595   1.579   4.547   3.143  0.1849  0.5763 -0.0740
 1653SOL    HW216596   1.446   4.508   3.083  0.6803  0.7212 -3.8579
 1654SOL     OW16597   2.806   0.171   5.295  0.0803  0.7056  0.6193
 1654SOL    HW116598   2.789   0.264   5.279 -0.6160  0.2861 -1.1679
 1654SOL    HW216599   2.754   0.145   5.370  1.1481 -1.5469  0.5650
 1655SOL     OW16600   1.953   4.288   0.002  0.4119 -0.1345 -0.1650
 1655SOL    HW116601   1.879   4.230   0.022 -1.0846  1.0486 -2.1993
 1655SOL    HW216602   1.983   4.248  17.677  0.4724 -0.0403 -0.1879
 1656SOL     OW16603   2.971   3.835  14.384  0.0108  0.5471  0.2197
 1656SOL    HW116604   2.876   3.838  14.390  0.0509  0.6998  0.7359
 1656SOL    HW216605   2.987   3.830  14.289  0.6360 -0.2850  0.3627
 1657SOL     OW16606   2.600   1.481   7.897 -0.2988  0.2314  0.1198
 1657SOL    HW116607   2.643   1.551   7.847 -0.0780 -1.5832 -2.2296
 1657SOL    HW216608   2.667   1.413   7.897 -0.7028 -0.1633  2.6938
 1658SOL     OW16609   1.704   3.106  12.429  0.0556 -0.5217 -0.5381
 1658SOL    HW116610   1.699   3.197  12.400 -0.2132 -0.0090  1.0907
 1658SOL    HW216611   1.800   3.100  12.430  0.1040  0.0025 -2.4460
 1659SOL     OW16612   4.732   3.461   5.020 -0.3938 -0.9405  0.6722
 1659SOL    HW116613   4.670   3.390   5.039  2.5209 -3.6050  0.2486
 1659SOL    HW216614   0.037   3.475   5.103 -1.4747 -1.7982  1.4045
 1660SOL     OW16615   1.358   2.248   4.882  0.0480  0.0285 -0.1002
 1660SOL    HW116616   1.414   2.305   4.935  2.0526 -3.4664  1.5020
 1660SOL    HW216617   1.435   2.211   4.839 -0.0644 -0.4396  0.1054
 1661SOL     OW16618   1.713   0.377   4.609 -1.0895  0.1810 -0.1201
 1661SOL    HW116619   1.767   0.345   4.682  0.3366  0.3281 -1.1280
 1661SOL    HW216620   1.777   0.386   4.539 -1.7983  1.3929 -0.6067
 1662SOL     OW16621   0.730   0.808   0.342 -0.2090 -0.1224  0.0359
 1662SOL    HW116622   0.716   0.902   0.337 -0.5954 -0.1778  0.1118
 1662SOL    HW216623   0.744   0.786   0.250 -1.8510 -0.3246 -0.1645
 1663SOL     OW16624   3.953   4.138   7.760 -0.8749 -0.0981 -0.3007
 1663SOL    HW116625   3.891   4.075   7.797 -2.1962  0.6003 -1.3353
 1663SOL    HW216626   4.042   4.105   7.772 -0.6514  1.2434  1.6193
 1664SOL     OW16627   2.812   0.329   3.350 -0.2967  0.6256  0.4928
 1664SOL    HW116628   2.781   0.383   3.277 -0.0247 -1.1283 -0.9391
 1664SOL    HW216629   2.759   0.366   3.420 -0.2243  2.3835 -0.3891
 1665SOL     OW16630   2.668   2.698   7.333  0.0666 -0.2773 -0.4191
 1665SOL    HW116631   2.738   2.685   7.269  1.7283 -0.1966  1.3944
 1665SOL    HW216632   2.719   2.695   7.413 -1.5186 -0.3544  0.5958
 1666SOL     OW16633   1.162   4.384   4.476 -0.1601 -0.8264  0.7528
 1666SOL    HW116634   1.081   4.408   4.431 -0.0546  0.8736  1.4768
 1666SOL    HW216635   1.133   4.325   4.545 -1.6568 -2.0797 -0.9263
 1667SOL     OW16636   3.652   3.245   5.661 -0.5280 -0.0132  0.1638
 1667SOL    HW116637   3.745   3.223   5.666 -0.0751  1.6804 -0.5427
 1667SOL    HW216638   3.648   3.316   5.725 -0.0690 -0.1923  0.3914
 1668SOL     OW16639   0.259   4.231   1.528  0.1525  0.1326  0.0333
 1668SOL    HW116640   0.340   4.180   1.528 -0.5428 -0.9749 -0.9121
 1668SOL    HW216641   0.243   4.245   1.621 -1.4542  1.6490 -0.4619
 1669SOL     OW16642   1.070   0.928   3.437  0.2294  0.5873  0.2408
 1669SOL    HW116643   1.120   0.993   3.388  1.0920  0.7738  1.3648
 1669SOL    HW216644   1.142   0.906   3.496 -1.3063 -0.5608  1.6939
 1670SOL     OW16645   3.221   3.787   9.556 -0.1848 -0.5312 -0.1661
 1670SOL    HW116646   3.283   3.728   9.511  0.4725 -1.0378  1.4021
 1670SOL    HW216647   3.271   3.867   9.573 -0.9765 -0.0088 -0.3101
 1671SOL     OW16648   1.058   4.564   3.958  0.3714 -0.7679  0.2603
 1671SOL    HW116649   1.123   4.579   4.026  0.1034  1.0167  0.1141
 1671SOL    HW216650   1.084   4.614   3.880 -2.0046  0.7191  0.4203
 1672SOL     OW16651   4.179   3.424   5.941  0.7574 -0.8010 -0.1004
 1672SOL    HW116652   4.209   3.470   5.863  0.1107  0.8154  0.6082
 1672SOL    HW216653   4.220   3.342   5.913 -2.2037 -2.6824  1.0845
 1673SOL     OW16654   2.178   1.341   5.535  0.4697  0.3466 -0.5767
 1673SOL    HW116655   2.088   1.361   5.559 -0.5987 -3.1862 -1.6684
 1673SOL    HW216656   2.195   1.418   5.480 -0.5050  1.5036  0.7520
 1674SOL     OW16657   0.648   2.420   9.328  0.2942 -0.1828 -0.1839
 1674SOL    HW116658   0.556   2.420   9.356 -0.1951 -2.5952 -1.8287
 1674SOL    HW216659   0.688   2.340   9.362  2.5283  0.7769 -0.6064
 1675SOL     OW16660   4.488   3.715   2.848  0.3434 -0.4224  0.3394
 1675SOL    HW116661   4.513   3.709   2.940  1.1221 -2.0001  0.0157
 1675SOL    HW216662   4.478   3.810   2.843  2.4676 -0.3348 -1.9242
 1676SOL     OW16663   2.259   0.076   4.885  0.6068 -0.0451 -0.3094
 1676SOL    HW116664   2.250   0.164   4.922  1.2959 -0.3184  0.5304
 1676SOL    HW216665   2.189   0.023   4.922  0.4689 -0.3171 -0.9799
 1677SOL     OW16666   1.305   3.851   6.068 -0.3973  0.2365 -0.6684
 1677SOL    HW116667   1.303   3.762   6.105 -0.0612  0.5609  0.1285
 1677SOL    HW216668   1.396   3.842   6.040 -0.3133  1.0651 -0.6445
 1678SOL     OW16669   2.796   3.350   9.077 -0.1728  0.7540  0.1938
 1678SOL    HW116670   2.846   3.394   9.146 -0.1909  1.6634 -0.3748
 1678SOL    HW216671   2.722   3.318   9.128 -0.8695 -1.1036 -1.9735
 1679SOL     OW16672   2.848   1.381   5.006 -0.3469 -0.1054  0.0080
 1679SOL    HW116673   2.935   1.390   4.967 -0.9796 -0.6394 -1.5362
 1679SOL    HW216674   2.816   1.469   4.987  3.2759  0.4639 -3.3579
 1680SOL     OW16675   1.177   2.870   6.835  0.0311 -0.6764 -0.4742
 1680SOL    HW116676   1.137   2.833   6.914 -1.0047 -1.3555 -1.3218
 1680SOL    HW216677   1.259   2.908   6.867  1.2803 -2.7083 -1.2600
 1681SOL     OW16678   1.471   2.581   2.843  0.0178 -0.1134 -0.3913
 1681SOL    HW116679   1.447   2.621   2.759  1.6850  1.3520 -0.1630
 1681SOL    HW216680   1.519   2.504   2.811 -0.6497 -1.2479  1.3094
 1682SOL     OW16681   2.654   0.885  16.263 -0.6229 -0.0027  0.3690
 1682SOL    HW116682   2.682   0.957  16.319 -1.7388  0.7396 -0.0041
 1682SOL    HW216683   2.562   0.912  16.259 -0.9000 -0.8752  0.9818
 1683SOL     OW16684   0.046   2.733   4.546  0.4261  0.0333 -0.5285
 1683SOL    HW116685   4.708   2.678   4.543  0.1318  0.4090  0.2033
 1683SOL    HW216686   0.003   2.818   4.553 -0.2919 -0.3569 -0.1760
 1684SOL     OW16687   1.455   2.480   1.701 -0.6072 -0.3200  0.4925
 1684SOL    HW116688   1.472   2.574   1.711  0.1936 -0.5215  0.9926
 1684SOL    HW216689   1.474   2.471   1.608  1.4657  2.5039  0.6414
 1685SOL     OW16690   4.318   0.010   6.365 -0.8426 -0.0992 -0.1956
 1685SOL    HW116691   4.275   0.090   6.395 -0.4449  0.0310  0.0126
 1685SOL    HW216692   4.311   4.685   6.435  1.6184  0.3536  0.4591
 1686SOL     OW16693   3.932   4.402   7.721 -0.2224 -0.0696  0.1703
 1686SOL    HW116694   3.837   4.414   7.717 -0.2123  0.0248  0.2203
 1686SOL    HW216695   3.946   4.309   7.742 -0.5989 -0.5844 -1.8835
 1687SOL     OW16696   4.079   0.901   6.433 -0.2321 -0.3379  0.1153
 1687SOL    HW116697   4.128   0.897   6.516 -1.0374  1.4538  0.6817
 1687SOL    HW216698   3.995   0.940   6.456 -0.6310 -1.2012  0.1266
 1688SOL     OW16699   1.664   1.203   2.725  0.2731 -0.0877 -0.5595
 1688SOL    HW116700   1.755   1.232   2.724  0.1473  0.3347  1.6882
 1688SOL    HW216701   1.626   1.256   2.654  1.3698  1.9142  0.3662
 1689SOL     OW16702   2.317   3.485  15.266  0.6385 -0.2700 -0.1539
 1689SOL    HW116703   2.283   3.478  15.355  1.3246 -2.5522 -0.0774
 1689SOL    HW216704   2.279   3.407  15.225 -0.7882 -0.3113  1.2629
 1690SOL     OW16705   0.188   3.514   3.952  0.0070 -0.4528  0.1422
 1690SOL    HW116706   0.165   3.473   3.869 -4.2155  0.8310  0.6643
 1690SOL    HW216707   0.114   3.573   3.967  0.0017 -0.2413 -0.7011
 1691SOL     OW16708   2.845   4.343   2.912 -0.0700  0.7691 -0.0461
 1691SOL    HW116709   2.839   4.372   2.821  2.1707  0.8224 -0.1895
 1691SOL    HW216710   2.762   4.303   2.936  1.2776 -1.6138  0.6726
 1692SOL     OW16711   3.237   0.063   6.188 -0.1550 -0.2769 -0.6813
 1692SOL    HW116712   3.154   0.105   6.211  0.8198  1.5233 -0.4306
 1692SOL    HW216713   3.227   4.722   6.239 -1.5021 -0.3938 -1.1184
 1693SOL     OW16714   0.121   4.458  16.903  0.5840 -0.1196  0.7417
 1693SOL    HW116715   0.045   4.406  16.878  0.0060  0.7758  0.6221
 1693SOL    HW216716   0.127   4.450  16.998 -3.4160 -2.2238  0.8221
 1694SOL     OW16717   4.228   0.688  10.042 -0.0449 -0.0587  0.3801
 1694SOL    HW116718   4.318   0.665  10.020  0.0365 -0.7943  1.4737
 1694SOL    HW216719   4.205   0.737   9.963 -0.7689  0.1802  0.7343
 1695SOL     OW16720   4.167   2.515   6.893 -0.2126  0.0658 -0.4778
 1695SOL    HW116721   4.214   2.443   6.936  0.9995  0.6832 -0.7769
 1695SOL    HW216722   4.168   2.587   6.956 -2.1463  0.1012 -0.4750
 1696SOL     OW16723   3.449   2.544  11.813  0.5049  0.0798 -0.4689
 1696SOL    HW116724   3.515   2.597  11.768  0.1674 -0.2565 -1.3626
 1696SOL    HW216725   3.460   2.578  11.902 -0.3825  0.0089 -0.3406
 1697SOL     OW16726   2.452   2.657   4.483 -0.6250 -0.4777 -0.5058
 1697SOL    HW116727   2.543   2.659   4.453  0.2447 -2.2625  1.9943
 1697SOL    HW216728   2.414   2.744   4.475  0.9582  0.2301 -0.0743
 1698SOL     OW16729   0.188   2.553   6.438 -0.1465  0.1658  0.2863
 1698SOL    HW116730   0.193   2.648   6.449  0.9601  0.1427 -0.0411
 1698SOL    HW216731   0.253   2.541   6.369 -1.9440 -1.4903 -1.1573
 1699SOL     OW16732   0.462   4.270  11.551  0.0448  0.6983  0.3687
 1699SOL    HW116733   0.473   4.181  11.517  2.1553  0.3565  1.9940
 1699SOL    HW216734   0.545   4.288  11.594  0.6076  2.2108 -1.3130
 1700SOL     OW16735   0.246   4.248   2.795 -0.6034 -0.0330 -0.2038
 1700SOL    HW116736   0.213   4.292   2.717 -0.9247 -0.4860 -0.3263
 1700SOL    HW216737   0.180   4.260   2.862  0.4269 -0.5737  0.9079
 1701SOL     OW16738   0.902   1.382   6.826 -0.2570  0.2936 -0.0610
 1701SOL    HW116739   0.887   1.447   6.757 -0.7681  1.3627  1.0571
 1701SOL    HW216740   0.839   1.314   6.805  0.3978  0.3766 -2.3202
 1702SOL     OW16741   2.487   0.827   9.113  0.3460 -0.2246  0.5716
 1702SOL    HW116742   2.463   0.779   9.034  0.0114 -1.2928  1.3266
 1702SOL    HW216743   2.564   0.777   9.140  0.6928  0.7845  1.4508
 1703SOL     OW16744   3.275   3.825   4.328  0.0348 -0.4733 -0.5273
 1703SOL    HW116745   3.235   3.912   4.322 -0.3395 -0.4199  2.8771
 1703SOL    HW216746   3.368   3.842   4.338 -0.3449  1.1453  0.2886
 1704SOL     OW16747   2.825   1.581   5.967  0.0007 -0.7315  0.1968
 1704SOL    HW116748   2.730   1.575   5.970 -0.0786 -0.5425 -1.7110
 1704SOL    HW216749   2.844   1.576   5.873 -1.9138 -0.1253 -0.2214
 1705SOL     OW16750   0.733   3.660  12.588 -0.1448  0.0992  0.1404
 1705SOL    HW116751   0.824   3.658  12.560  0.2437 -0.2365  1.4501
 1705SOL    HW216752   0.726   3.568  12.613  1.1572  0.1214  0.5455
 1706SOL     OW16753   2.760   4.055  16.811 -0.1384  0.2123  0.0760
 1706SOL    HW116754   2.682   4.109  16.814 -0.8145 -0.8149  1.2285
 1706SOL    HW216755   2.772   4.027  16.902  3.0540  0.4033 -0.2713
 1707SOL     OW16756   2.323   1.075   6.822 -0.1224  0.2311 -0.0908
 1707SOL    HW116757   2.259   1.039   6.760 -0.7702  2.1016 -0.4978
 1707SOL    HW216758   2.279   1.055   6.905 -1.1383 -1.5564 -1.0458
 1708SOL     OW16759   2.518   0.346   6.032  0.6818 -0.5815  1.0032
 1708SOL    HW116760   2.599   0.313   5.994 -0.0036  0.1432 -1.0960
 1708SOL    HW216761   2.511   0.435   5.997  0.3495 -1.8985 -2.3142
 1709SOL     OW16762   1.957   2.302   8.690 -0.6707  0.2741 -0.0930
 1709SOL    HW116763   1.944   2.397   8.682 -2.3770 -0.1524 -2.3173
 1709SOL    HW216764   1.957   2.290   8.785 -0.6854  0.5790 -0.0530
 1710SOL     OW16765   0.306   3.623  16.395 -0.4475 -0.0860 -0.2300
 1710SOL    HW116766   0.242   3.684  16.431 -0.2270 -0.4377  0.7579
 1710SOL    HW216767   0.368   3.683  16.352 -0.0650 -0.0896  0.3130
 1711SOL     OW16768   1.851   3.167   4.477  0.8521  0.1355 -0.3860
 1711SOL    HW116769   1.874   3.078   4.451 -1.1128 -0.3415 -0.5431
 1711SOL    HW216770   1.769   3.150   4.525  0.7507 -0.0689 -0.6307
 1712SOL     OW16771   3.556   0.063  15.927  0.2446 -0.4737 -0.4004
 1712SOL    HW116772   3.646   0.031  15.917 -0.2018 -1.6604 -0.5808
 1712SOL    HW216773   3.580   0.138  15.981  0.3068 -1.2376  0.6313
 1713SOL     OW16774   2.354   1.149   6.116 -0.4599  0.4716  0.1086
 1713SOL    HW116775   2.387   1.118   6.032 -0.1329 -0.2581  0.5058
 1713SOL    HW216776   2.308   1.074   6.156  0.4080 -1.5143 -2.6248
 1714SOL     OW16777   3.261   3.837  17.620  0.0053  0.2693  0.4294
 1714SOL    HW116778   3.348   3.837  17.660  0.5129  2.0744 -0.6358
 1714SOL    HW216779   3.273   3.869  17.531 -1.5082 -4.5384 -1.4868
 1715SOL     OW16780   0.479   1.720   4.194 -0.1514 -0.5019  0.2623
 1715SOL    HW116781   0.405   1.741   4.137  1.9094 -0.7468 -2.5372
 1715SOL    HW216782   0.454   1.765   4.274 -1.1289 -1.3189  0.4130
 1716SOL     OW16783   2.516   0.286   6.313  0.0164 -0.2809  0.1909
 1716SOL    HW116784   2.526   0.297   6.218 -0.7688  0.7384  0.2240
 1716SOL    HW216785   2.520   0.378   6.336  2.0957  0.1309 -1.7767
 1717SOL     OW16786   3.010   0.418  11.261 -0.8707 -0.2907 -0.1248
 1717SOL    HW116787   3.101   0.399  11.238 -0.7345 -1.2895  1.2659
 1717SOL    HW216788   3.003   0.365  11.340  0.3897  1.1966  0.9971
 1718SOL     OW16789   0.209   3.631  11.749  0.0678  0.2644 -0.0188
 1718SOL    HW116790   0.214   3.725  11.770 -1.7710  0.6907 -1.4633
 1718SOL    HW216791   0.221   3.630  11.654 -2.7035  1.3033 -0.3864
 1719SOL     OW16792   3.642   1.478   8.977  0.4737  0.7667  0.0434
 1719SOL    HW116793   3.556   1.487   8.935 -0.5975 -0.0687  1.9999
 1719SOL    HW216794   3.634   1.391   9.016  0.8153  0.6984 -0.0430
 1720SOL     OW16795   2.863   4.021   9.386  0.3639  0.0803 -0.1630
 1720SOL    HW116796   2.946   4.008   9.340 -0.3053 -2.3225 -0.6523
 1720SOL    HW216797   2.890   4.070   9.464 -0.3945 -0.6165  0.5321
 1721SOL     OW16798   0.428   1.960  16.351  0.3643 -0.1057  0.1249
 1721SOL    HW116799   0.390   1.947  16.438 -1.3964  2.1281 -0.2946
 1721SOL    HW216800   0.362   1.930  16.288  1.1614  0.0180 -0.7639
 1722SOL     OW16801   2.485   3.681   4.917 -0.2526 -0.0886  0.5598
 1722SOL    HW116802   2.478   3.598   4.869  1.4181 -0.1054  0.3284
 1722SOL    HW216803   2.410   3.672   4.976 -0.0082  0.8072  1.0138
 1723SOL     OW16804   1.168   3.933   2.640 -0.3394  0.1249  0.2592
 1723SOL    HW116805   1.135   3.863   2.696 -1.3448 -0.5549 -1.1925
 1723SOL    HW216806   1.240   3.889   2.593  0.7019  0.9611  1.0870
 1724SOL     OW16807   0.226   0.679   1.157 -0.2106  0.2205  0.3194
 1724SOL    HW116808   0.205   0.688   1.064  0.0318 -0.7256  0.1681
 1724SOL    HW216809   0.317   0.707   1.165  0.3879 -1.8791  0.8034
 1725SOL     OW16810   2.665   1.530   9.178 -0.7705 -0.0983  0.0994
 1725SOL    HW116811   2.664   1.538   9.273  0.5199 -1.3753  0.2279
 1725SOL    HW216812   2.593   1.582   9.144 -1.2147  1.0137  2.7936
 1726SOL     OW16813   1.615   0.757  15.657 -0.2728  0.1309  0.0741
 1726SOL    HW116814   1.523   0.733  15.670 -0.2575 -0.2592 -0.5962
 1726SOL    HW216815   1.599   0.847  15.686  0.4285 -0.4543  2.2605
 1727SOL     OW16816   0.368   2.163   2.636  0.5613  0.2878 -0.1649
 1727SOL    HW116817   0.429   2.178   2.708  0.1448  1.7343 -0.1210
 1727SOL    HW216818   0.304   2.234   2.630  2.2571  1.7719 -0.5101
 1728SOL     OW16819   0.862   0.506  13.406 -0.6296  0.2749 -0.3660
 1728SOL    HW116820   0.846   0.554  13.325  1.5288 -0.4204 -1.1807
 1728SOL    HW216821   0.900   0.424  13.375 -1.3731 -0.0817 -0.3349
 1729SOL     OW16822   2.283   1.132   7.418  0.4379  0.0614  0.3947
 1729SOL    HW116823   2.201   1.161   7.457  0.7577  1.7136 -0.1308
 1729SOL    HW216824   2.343   1.145   7.492 -0.3234  0.6821  0.8986
 1730SOL     OW16825   3.985   2.026   6.070  0.6827 -0.4543  0.5791
 1730SOL    HW116826   3.989   2.121   6.075  0.6540 -0.3162 -1.8337
 1730SOL    HW216827   3.899   2.003   6.033  0.8781 -1.6781  0.8856
 1731SOL     OW16828   0.855   4.191  10.435 -0.1730  0.2618  0.0429
 1731SOL    HW116829   0.785   4.229  10.381  1.4330  0.8968 -1.5998
 1731SOL    HW216830   0.921   4.260  10.447 -0.6219  0.9413 -1.3941
 1732SOL     OW16831   0.835   0.157  17.346 -0.4384  0.3737  0.1329
 1732SOL    HW116832   0.771   0.086  17.342  2.2683 -2.0803  1.0176
 1732SOL    HW216833   0.838   0.176  17.252 -3.2484  0.3922  0.0321
 1733SOL     OW16834   3.345   0.233   6.812 -0.0242 -0.4174 -0.3499
 1733SOL    HW116835   3.324   0.288   6.887 -0.4821 -0.3902 -0.4975
 1733SOL    HW216836   3.436   0.207   6.826 -0.2078  0.7367  2.9270
 1734SOL     OW16837   0.809   0.794   6.384 -0.4471  0.7076  0.4157
 1734SOL    HW116838   0.829   0.701   6.385  0.8717  1.0024  0.5113
 1734SOL    HW216839   0.742   0.799   6.316  1.8994  2.0131 -1.7783
 1735SOL     OW16840   3.763   3.129   2.731 -0.0398 -0.2460 -0.5351
 1735SOL    HW116841   3.815   3.180   2.669 -0.2592  0.5982 -0.0223
 1735SOL    HW216842   3.704   3.196   2.765 -0.4325  0.2956 -2.2468
 1736SOL     OW16843   1.886   0.499   4.226  0.0044  0.3608 -0.0456
 1736SOL    HW116844   1.920   0.498   4.315 -0.2713  1.9310  0.0868
 1736SOL    HW216845   1.966   0.498   4.174 -0.3025 -1.7180 -0.4788
 1737SOL     OW16846   2.390   1.417   1.350  0.2373  0.9637 -0.0544
 1737SOL    HW116847   2.477   1.397   1.318  0.7463  2.2336  0.5089
 1737SOL    HW216848   2.417   1.457   1.433 -0.6672 -0.1919  0.8006
 1738SOL     OW16849   2.925   1.319   0.832 -0.2244  0.0021  0.3977
 1738SOL    HW116850   2.951   1.257   0.764 -0.4871 -1.0699  1.2647
 1738SOL    HW216851   2.867   1.373   0.779  0.0071 -0.0635  0.0774
 1739SOL     OW16852   1.586   4.723  11.005 -0.0043  0.3631  0.1775
 1739SOL    HW116853   1.635   4.643  10.993 -0.6069  0.4271 -2.7175
 1739SOL    HW216854   1.628   0.029  11.078 -1.3376 -0.7951  1.6849
 1740SOL     OW16855   2.690   0.958  14.316  0.2990  0.3007 -0.1111
 1740SOL    HW116856   2.626   0.908  14.266  0.9886  0.0032 -0.7112
 1740SOL    HW216857   2.662   0.918  14.398 -0.7920  0.8458 -0.2256
 1741SOL     OW16858   0.439   1.633   3.905 -0.0910  0.1824 -0.3017
 1741SOL    HW116859   0.455   1.714   3.856 -4.3867  2.4634  2.0276
 1741SOL    HW216860   0.367   1.665   3.961  0.3664 -0.5294  0.6966
 1742SOL     OW16861   1.990   2.682   4.686  0.2026 -0.4545 -0.7372
 1742SOL    HW116862   1.970   2.701   4.594 -0.8905  1.6031 -0.0824
 1742SOL    HW216863   2.064   2.623   4.674 -0.4676 -1.5378  0.4804
 1743SOL     OW16864   4.294   0.732   7.996 -0.3815  0.1192  0.4648
 1743SOL    HW116865   4.202   0.755   8.008 -1.1034 -2.3402 -0.2941
 1743SOL    HW216866   4.279   0.647   7.954  0.6752 -2.1409  4.7487
 1744SOL     OW16867   0.841   2.280   4.292  0.2374  0.0804  0.0252
 1744SOL    HW116868   0.902   2.287   4.218 -1.4502 -1.0446 -1.4555
 1744SOL    HW216869   0.856   2.186   4.299 -0.3213 -0.0603 -0.6927
 1745SOL     OW16870   1.994   2.409  12.436 -0.5155  0.3372 -0.5690
 1745SOL    HW116871   2.069   2.356  12.465 -0.4069  1.6465  1.5448
 1745SOL    HW216872   1.938   2.411  12.514  1.1495  0.2076  0.6385
 1746SOL     OW16873   1.094   0.864  15.665  0.4263  0.3994 -0.0776
 1746SOL    HW116874   1.139   0.852  15.581 -0.5721  1.7367 -0.7780
 1746SOL    HW216875   1.012   0.901  15.634 -2.2116 -3.5215  2.1367
 1747SOL     OW16876   4.715   1.954   4.521 -0.2647 -0.8228  0.3528
 1747SOL    HW116877   0.030   1.925   4.593 -2.0546 -1.6642  1.3581
 1747SOL    HW216878   4.686   2.042   4.546  1.4893  0.2412 -1.3054
 1748SOL     OW16879   0.232   4.497  14.562 -0.5279 -0.3583  0.8064
 1748SOL    HW116880   0.148   4.518  14.603 -0.2332 -1.3627  1.9156
 1748SOL    HW216881   0.251   4.407  14.587 -0.1722 -0.8228 -1.1886
 1749SOL     OW16882   0.981   2.163   1.707 -0.4920 -0.4582  0.2439
 1749SOL    HW116883   1.015   2.124   1.788  0.2160 -0.5423 -0.0970
 1749SOL    HW216884   1.044   2.127   1.645 -0.5060  0.9506 -0.5738
 1750SOL     OW16885   1.123   2.921  11.372 -0.0110 -0.1814  0.0679
 1750SOL    HW116886   1.028   2.914  11.383  0.3551 -1.8440  2.0486
 1750SOL    HW216887   1.152   2.976  11.445  1.3430 -0.4038 -0.2952
 1751SOL     OW16888   2.091   0.543   2.010  0.0216  0.1375  0.1200
 1751SOL    HW116889   2.001   0.520   1.986  0.0362 -0.2828  0.4583
 1751SOL    HW216890   2.105   0.636   1.995  1.0438 -0.5651 -3.2667
 1752SOL     OW16891   3.364   1.734   5.267  0.5196  0.2984  0.1421
 1752SOL    HW116892   3.332   1.650   5.299  2.2251  0.2394  1.6574
 1752SOL    HW216893   3.438   1.744   5.326  0.7979 -1.6452  0.1087
 1753SOL     OW16894   4.204   3.948  12.524 -0.1412  0.1998  0.6249
 1753SOL    HW116895   4.286   3.923  12.482  0.6338 -0.7615  2.6793
 1753SOL    HW216896   4.139   3.882  12.499 -1.7942  1.8123  0.7151
 1754SOL     OW16897   0.452   2.684   8.074  0.5769  0.1255 -0.3876
 1754SOL    HW116898   0.525   2.635   8.036  0.3815  0.2234 -0.8823
 1754SOL    HW216899   0.487   2.768   8.104  0.1115  0.2946 -0.3223
 1755SOL     OW16900   2.706   2.042  15.019 -0.2250 -0.4157 -0.3496
 1755SOL    HW116901   2.647   2.062  14.946 -1.1791  1.3592  0.8960
 1755SOL    HW216902   2.795   2.061  14.988 -0.0381 -1.5310 -0.4890
 1756SOL     OW16903   0.480   3.011  17.160  0.2179  0.5304 -0.1409
 1756SOL    HW116904   0.503   2.922  17.186 -1.1200  0.0461 -0.5819
 1756SOL    HW216905   0.513   3.056  17.238 -0.5415  2.0709 -0.6955
 1757SOL     OW16906   3.561   4.146  17.583  0.1585  0.0692 -0.4558
 1757SOL    HW116907   3.586   4.139  17.491 -1.6743 -0.3243 -0.9219
 1757SOL    HW216908   3.633   4.104  17.631 -0.3837  0.8474  1.0381
 1758SOL     OW16909   0.233   0.265  10.817  0.3379 -0.4096 -0.6753
 1758SOL    HW116910   0.205   0.268  10.725 -0.3786  1.3963 -0.4024
 1758SOL    HW216911   0.202   0.352  10.842 -0.9451 -1.0118 -0.1707
 1759SOL     OW16912   3.509   4.044   1.877 -0.2149  0.5325  0.3597
 1759SOL    HW116913   3.421   4.018   1.850  0.0075 -0.6554  0.7799
 1759SOL    HW216914   3.562   4.021   1.801 -3.1207  0.5856 -1.6984
 1760SOL     OW16915   1.866   3.522   5.423 -0.0879  0.5663 -0.0320
 1760SOL    HW116916   1.916   3.548   5.500  0.7094 -0.5596 -0.1680
 1760SOL    HW216917   1.903   3.435   5.406  2.6135  1.4163  1.6505
 1761SOL     OW16918   3.508   3.615   4.541  0.0722  0.2070 -0.0481
 1761SOL    HW116919   3.437   3.679   4.549  2.5325  3.0272 -0.9808
 1761SOL    HW216920   3.501   3.589   4.449 -0.5996 -1.3665  0.4386
 1762SOL     OW16921   3.540   4.237  12.945  0.0024 -0.0889 -0.0859
 1762SOL    HW116922   3.533   4.208  12.855 -0.4144 -1.1746  0.2938
 1762SOL    HW216923   3.625   4.278  12.932 -0.7394  1.8377  1.0475
 1763SOL     OW16924   2.951   2.050   1.800  0.4519 -0.4689 -0.3716
 1763SOL    HW116925   2.980   2.141   1.788 -1.2394  0.2731  1.0761
 1763SOL    HW216926   2.947   2.032   1.706  0.0336 -2.0531 -0.0362
 1764SOL     OW16927   2.993   1.348   5.940  0.1902  0.1543  0.8228
 1764SOL    HW116928   3.079   1.374   5.973  0.4248  0.9183 -0.3947
 1764SOL    HW216929   2.949   1.432   5.951  1.2526  0.8137  0.0147
 1765SOL     OW16930   2.991   1.023   0.962  0.3153 -0.7480  0.3917
 1765SOL    HW116931   3.019   0.931   0.965 -0.2225 -0.9037  0.5480
 1765SOL    HW216932   2.916   1.027   0.903  1.7060 -2.7416 -1.5354
 1766SOL     OW16933   0.774   4.198   3.803  0.2253 -0.3094 -0.3461
 1766SOL    HW116934   0.824   4.157   3.874  1.1785  0.0042 -0.8361
 1766SOL    HW216935   0.695   4.196   3.857 -0.0240 -0.5061 -0.7244
 1767SOL     OW16936   1.383   1.099   6.297 -0.2864  0.3661  0.3916
 1767SOL    HW116937   1.289   1.083   6.294 -0.4126  0.9645  1.1200
 1767SOL    HW216938   1.408   1.013   6.264 -0.5179 -0.8983  3.5660
 1768SOL     OW16939   2.736   2.390   1.982  0.1845  0.2280  0.1793
 1768SOL    HW116940   2.723   2.415   2.074 -2.4050 -2.0775  0.4499
 1768SOL    HW216941   2.750   2.296   1.990 -1.5442  0.0278  0.8317
 1769SOL     OW16942   1.013   0.853  15.088  0.1222 -0.6722  0.3683
 1769SOL    HW116943   0.975   0.776  15.045  0.5033 -1.4992  1.4954
 1769SOL    HW216944   1.039   0.911  15.016 -0.3469 -1.3127 -0.3193
 1770SOL     OW16945   2.366   3.455   3.463  0.0425  0.4636  0.0977
 1770SOL    HW116946   2.425   3.393   3.420  0.0556 -0.8430  1.9689
 1770SOL    HW216947   2.413   3.459   3.547  1.7018 -0.9641 -0.7716
 1771SOL     OW16948   0.320   0.586   1.823  0.4369 -0.3394 -0.3811
 1771SOL    HW116949   0.351   0.675   1.845 -1.7981 -0.2629  2.4497
 1771SOL    HW216950   0.272   0.611   1.744  0.4620 -0.1663 -0.3430
 1772SOL     OW16951   1.439   3.762   0.240  0.1073  0.2812  0.8876
 1772SOL    HW116952   1.433   3.696   0.309  0.4931 -0.1766  0.4767
 1772SOL    HW216953   1.350   3.797   0.249 -0.3655 -0.3066 -1.5076
 1773SOL     OW16954   2.542   0.969   4.961  1.0367  0.0729 -0.4245
 1773SOL    HW116955   2.476   1.003   4.901  1.7112  1.4573 -0.3652
 1773SOL    HW216956   2.504   1.010   5.039 -1.7671 -0.9938 -1.2237
 1774SOL     OW16957   4.321   2.153   9.165 -0.2075 -0.2802  0.0100
 1774SOL    HW116958   4.320   2.137   9.260  1.4136  1.8644  0.4004
 1774SOL    HW216959   4.412   2.126   9.150 -0.4022 -0.6617 -0.4558
 1775SOL     OW16960   1.621   3.374   2.331 -0.2710  0.4461 -0.1141
 1775SOL    HW116961   1.644   3.372   2.424  1.2047 -0.6380 -0.4880
 1775SOL    HW216962   1.664   3.297   2.294 -1.9842 -0.7149  0.3487
 1776SOL     OW16963   1.405   4.122   9.501  0.1586 -0.9511  0.3844
 1776SOL    HW116964   1.446   4.037   9.518  0.7439 -0.2732  2.4005
 1776SOL    HW216965   1.355   4.112   9.420  1.5253 -0.9160 -0.4601
 1777SOL     OW16966   2.912   3.853   3.608 -0.0413 -0.1593  0.0714
 1777SOL    HW116967   2.949   3.931   3.651  2.4611 -2.0309  1.2869
 1777SOL    HW216968   2.999   3.821   3.584  0.5922 -0.0452  2.1855
 1778SOL     OW16969   4.514   2.115   8.518  0.3605  0.1165 -0.3721
 1778SOL    HW116970   4.584   2.096   8.455  0.5341 -1.9300  0.4232
 1778SOL    HW216971   4.481   2.192   8.471 -1.2858 -0.5325 -0.2627
 1779SOL     OW16972   0.838   2.867  16.222  0.1870 -0.2944  0.5057
 1779SOL    HW116973   0.837   2.842  16.129 -1.6785 -1.1672  0.7441
 1779SOL    HW216974   0.925   2.906  16.227  0.0239  0.0221  0.8530
 1780SOL     OW16975   3.376   1.588   3.345  0.3048  0.1318  0.3334
 1780SOL    HW116976   3.352   1.497   3.329  0.3441 -0.1048  1.6386
 1780SOL    HW216977   3.470   1.591   3.365  0.9594  1.9496 -2.9586
 1781SOL     OW16978   1.208   2.806   5.288  0.8224 -0.5906  0.1528
 1781SOL    HW116979   1.113   2.804   5.283  0.9726  1.5364 -3.2946
 1781SOL    HW216980   1.220   2.743   5.360 -1.5002 -1.7043 -0.4261
 1782SOL     OW16981   1.564   4.395  16.788  0.4729 -0.0260 -0.2316
 1782SOL    HW116982   1.647   4.375  16.745  0.6180 -0.9336  0.4639
 1782SOL    HW216983   1.508   4.319  16.772 -0.1162  0.3619 -0.0204
 1783SOL     OW16984   0.442   3.347   9.732 -0.0783 -0.3603  0.0122
 1783SOL    HW116985   0.441   3.265   9.780  1.0867 -0.1363  0.4335
 1783SOL    HW216986   0.369   3.324   9.675 -0.4647  0.6348  0.1146
 1784SOL     OW16987   1.520   1.811   3.278  0.4474  0.5260  0.2500
 1784SOL    HW116988   1.550   1.815   3.187 -1.0024 -3.1519 -0.3746
 1784SOL    HW216989   1.534   1.898   3.315  0.2689 -0.0903  1.7650
 1785SOL     OW16990   3.160   2.951   7.823 -0.3184 -0.4283 -0.6765
 1785SOL    HW116991   3.154   2.995   7.908 -1.7088 -2.0513  0.0676
 1785SOL    HW216992   3.156   2.863   7.861  1.6216 -0.8761 -1.5261
 1786SOL     OW16993   0.277   1.894   2.647 -0.4324 -0.1463  0.5971
 1786SOL    HW116994   0.350   1.926   2.700 -0.6953  2.4172 -0.5567
 1786SOL    HW216995   0.237   1.979   2.625  0.5240 -0.2834 -1.6977
 1787SOL     OW16996   2.420   0.747  10.992  0.2324  0.2837  0.1813
 1787SOL    HW116997   2.395   0.712  11.078 -0.5470 -2.7024 -1.2435
 1787SOL    HW216998   2.397   0.675  10.934 -2.2824  0.5797  0.8199
 1788SOL     OW16999   1.614   3.279  11.704  0.0545 -0.4307 -0.2961
 1788SOL    HW117000   1.577   3.218  11.640 -0.3812 -0.2862 -0.1878
 1788SOL    HW217001   1.546   3.346  11.716  1.0263  0.6224 -0.6813
 1789SOL     OW17002   0.394   1.868   5.342  0.0237 -0.0610 -0.3901
 1789SOL    HW117003   0.327   1.919   5.298 -0.3762  0.8114  1.2207
 1789SOL    HW217004   0.463   1.927   5.371 -0.2464  0.2086 -0.2936
 1790SOL     OW17005   1.327   4.350   7.253  0.2594 -0.2591  0.3939
 1790SOL    HW117006   1.287   4.320   7.335 -0.7514 -0.0859 -0.0390
 1790SOL    HW217007   1.247   4.371   7.204 -0.6629 -1.5639  1.3259
 1791SOL     OW17008   1.588   1.383  12.798  0.9333  0.4763  0.1027
 1791SOL    HW117009   1.622   1.337  12.875  1.7676  1.6488  0.4317
 1791SOL    HW217010   1.610   1.474  12.817 -1.8097  1.0424  0.6798
 1792SOL     OW17011   0.583   1.946   4.022 -0.3998 -0.1252 -0.2585
 1792SOL    HW117012   0.590   1.851   4.036  1.2776  0.0162 -0.1687
 1792SOL    HW217013   0.507   1.973   4.074  1.4147  1.1771  1.7290
 1793SOL     OW17014   0.516   0.173   2.802 -0.0582 -0.1060 -0.0532
 1793SOL    HW117015   0.609   0.194   2.815  0.1073 -0.0673 -1.2583
 1793SOL    HW217016   0.525   0.142   2.712 -1.1504  1.8591 -0.8236
 1794SOL     OW17017   2.007   2.684   3.430  0.3310  0.2620 -0.7934
 1794SOL    HW117018   1.978   2.597   3.403 -1.2706  0.7021 -0.5137
 1794SOL    HW217019   1.953   2.690   3.508 -1.6307 -2.3119 -1.9513
 1795SOL     OW17020   1.456   1.974   1.880 -0.2003 -0.4062 -0.8686
 1795SOL    HW117021   1.450   1.883   1.852 -0.2920 -0.8591  0.6300
 1795SOL    HW217022   1.478   2.012   1.796 -0.7098  1.9298  0.0571
 1796SOL     OW17023   0.395   3.396   6.262  0.1610  0.6179 -0.5178
 1796SOL    HW117024   0.449   3.349   6.326 -1.5529  2.0257  1.9617
 1796SOL    HW217025   0.421   3.341   6.188 -0.8930 -2.2120  1.2252
 1797SOL     OW17026   1.940   4.261   8.667  0.0935 -0.0566 -0.0673
 1797SOL    HW117027   1.957   4.347   8.705  0.0952  0.4712 -1.2852
 1797SOL    HW217028   1.850   4.271   8.638  0.1662  2.0046  0.4746
 1798SOL     OW17029   2.556   3.345   2.581 -0.1202 -0.4117 -0.3397
 1798SOL    HW117030   2.516   3.260   2.601 -0.7314 -0.0764 -0.1189
 1798SOL    HW217031   2.620   3.350   2.653  0.7051 -3.9793 -0.8304
 1799SOL     OW17032   4.641   0.902   1.994 -0.7009 -0.4580  0.0267
 1799SOL    HW117033   4.669   0.933   1.908  1.2100 -3.7342 -0.5110
 1799SOL    HW217034   4.620   0.985   2.036  0.1727  0.1304 -0.7140
 1800SOL     OW17035   0.552   0.454   3.142  0.0137 -0.1283  0.0277
 1800SOL    HW117036   0.589   0.478   3.057 -1.7887  0.3839 -0.5979
 1800SOL    HW217037   0.524   0.542   3.167  3.8021  1.0964 -0.0563
 1801SOL     OW17038   1.822   0.209  14.716  0.4991  0.1557 -0.0323
 1801SOL    HW117039   1.773   0.140  14.671 -2.0907  0.9504  1.5859
 1801SOL    HW217040   1.832   0.182  14.807  1.9844 -0.6929 -0.4479
 1802SOL     OW17041   0.383   2.461   9.387  0.0155 -0.1930  0.1226
 1802SOL    HW117042   0.317   2.527   9.365  1.4807  0.9272 -0.8778
 1802SOL    HW217043   0.396   2.487   9.478  0.7807 -0.1313 -0.0065
 1803SOL     OW17044   0.914   0.737   8.970  0.7106  0.6582  0.0455
 1803SOL    HW117045   0.988   0.688   9.007 -0.0256 -1.5428 -1.4008
 1803SOL    HW217046   0.844   0.707   9.028  3.1145 -1.4058  1.8923
 1804SOL     OW17047   1.770   4.201  16.647  0.2083 -0.3847  0.3341
 1804SOL    HW117048   1.839   4.265  16.631  0.3332 -1.1853 -2.4016
 1804SOL    HW217049   1.721   4.205  16.565 -0.9989 -1.1145  1.0152
 1805SOL     OW17050   0.997   2.638  16.539 -0.3739  0.5003 -0.6425
 1805SOL    HW117051   0.958   2.658  16.624 -0.1256 -1.2947 -0.1207
 1805SOL    HW217052   0.943   2.689  16.479 -1.8295 -0.3689 -0.0462
 1806SOL     OW17053   4.060   1.311   3.268  0.2739 -0.0296 -0.7213
 1806SOL    HW117054   4.039   1.383   3.328  1.7937 -0.6108  0.5208
 1806SOL    HW217055   4.128   1.260   3.313  2.7486  2.5570 -1.4993
 1807SOL     OW17056   1.151   2.145   7.370 -0.0872  0.0604  0.4692
 1807SOL    HW117057   1.177   2.232   7.341 -1.6714  0.6902  0.8971
 1807SOL    HW217058   1.205   2.133   7.448 -1.3830  1.8327  1.6631
 1808SOL     OW17059   3.231   0.494  10.947 -0.0721 -0.0637  0.3900
 1808SOL    HW117060   3.249   0.403  10.970  0.4629  0.2134  1.0602
 1808SOL    HW217061   3.225   0.536  11.033  1.0333 -1.1890  1.0132
 1809SOL     OW17062   3.157   1.535   9.005  0.3590 -0.0795  0.1507
 1809SOL    HW117063   3.230   1.537   9.067  1.3126  0.0483 -0.9910
 1809SOL    HW217064   3.199   1.484   8.935  0.2165  0.5327 -0.3744
 1810SOL     OW17065   3.615   4.306   0.850 -0.2669  0.0591  0.2792
 1810SOL    HW117066   3.695   4.294   0.798  0.8188  3.0110  1.2974
 1810SOL    HW217067   3.634   4.242   0.918 -2.3994 -0.7031  0.1622
 1811SOL     OW17068   1.400   0.918   2.327 -0.4857 -0.4080 -0.0868
 1811SOL    HW117069   1.436   0.929   2.239  1.0628 -1.6400  0.3832
 1811SOL    HW217070   1.407   0.998   2.379  1.4309 -0.4507 -0.2851
 1812SOL     OW17071   2.776   1.237   3.472 -0.2537 -0.0637  0.2846
 1812SOL    HW117072   2.838   1.172   3.439  0.3860  0.4783  0.4326
 1812SOL    HW217073   2.832   1.314   3.460 -1.1640  0.2805 -1.6924
 1813SOL     OW17074   4.690   1.174   9.226 -1.1225  0.2889 -0.3071
 1813SOL    HW117075   4.728   1.247   9.178  0.0038 -0.2489 -0.2250
 1813SOL    HW217076   4.700   1.204   9.317  0.0406  0.6165 -0.5465
 1814SOL     OW17077   0.974   3.848  13.432  0.4485 -0.4578 -0.5861
 1814SOL    HW117078   0.965   3.857  13.526 -2.6995 -1.5771 -0.7954
 1814SOL    HW217079   0.956   3.755  13.420  0.8706 -0.7285  0.9276
 1815SOL     OW17080   4.475   2.518   2.380  0.0510  0.0148  0.1446
 1815SOL    HW117081   4.431   2.434   2.394 -0.7530  0.1114 -1.8194
 1815SOL    HW217082   4.564   2.486   2.391 -0.0277 -0.4164 -0.4894
 1816SOL     OW17083   2.416   0.754   9.436  0.0455 -0.7042  0.1701
 1816SOL    HW117084   2.491   0.730   9.491  0.4876 -1.2474 -0.6586
 1816SOL    HW217085   2.420   0.849   9.432  0.9306 -0.6763  1.5598
 1817SOL     OW17086   3.653   0.067  17.502  0.1105  0.3242 -0.0100
 1817SOL    HW117087   3.637   4.718  17.470  1.6583 -0.0562  0.2805
 1817SOL    HW217088   3.587   0.110  17.447 -1.0686  0.9297  1.8824
 1818SOL     OW17089   2.545   2.383   4.632 -0.4122 -0.3385 -0.0912
 1818SOL    HW117090   2.555   2.368   4.538  0.9431 -0.3135  0.0450
 1818SOL    HW217091   2.600   2.459   4.652 -0.2864  0.4997 -3.7049
 1819SOL     OW17092   0.206   0.125   3.773 -0.7619  0.2049  0.9567
 1819SOL    HW117093   0.290   0.084   3.797  0.5534  2.5580  0.3861
 1819SOL    HW217094   0.203   0.201   3.830 -0.4946 -0.1769  1.4828
 1820SOL     OW17095   1.537   2.091   1.621 -0.5206  0.4092  0.3934
 1820SOL    HW117096   1.563   2.159   1.559 -1.5070 -0.8046 -1.3458
 1820SOL    HW217097   1.570   2.012   1.577 -0.4824  0.5136  0.2359
 1821SOL     OW17098   2.581   3.507   7.190  0.0897 -0.2575 -0.3474
 1821SOL    HW117099   2.553   3.452   7.117  1.4536 -0.0439 -1.0163
 1821SOL    HW217100   2.655   3.457   7.225  1.1449  0.6313 -1.3158
 1822SOL     OW17101   1.709   3.593   6.598  0.0931  0.4435  0.5586
 1822SOL    HW117102   1.675   3.592   6.687 -0.8332 -3.3261  0.1632
 1822SOL    HW217103   1.793   3.556   6.624  1.3803  2.2746 -0.9515
 1823SOL     OW17104   0.603   0.451   1.989  0.0711  0.2306  0.1183
 1823SOL    HW117105   0.635   0.370   2.030 -0.7737  1.0047  2.3250
 1823SOL    HW217106   0.645   0.448   1.903 -1.6183  1.4116 -0.7272
 1824SOL     OW17107   4.095   3.246   0.936  0.3246 -0.0556  0.0657
 1824SOL    HW117108   4.062   3.334   0.922 -0.2200 -0.2393  0.1947
 1824SOL    HW217109   4.026   3.198   0.891  0.1511  1.4239 -1.2445
 1825SOL     OW17110   1.228   3.145   7.704  0.2171  0.3587  0.5252
 1825SOL    HW117111   1.158   3.098   7.750  0.2468 -1.3001 -1.1476
 1825SOL    HW217112   1.185   3.222   7.667 -0.9417 -1.0751 -1.1032
 1826SOL     OW17113   3.990   4.351  13.028 -0.0699  0.1973  0.3872
 1826SOL    HW117114   4.070   4.390  12.992 -1.4031  0.8800 -1.8264
 1826SOL    HW217115   4.023   4.315  13.110  0.5278 -0.5628 -0.1916
 1827SOL     OW17116   1.293   4.065   9.204 -0.2960  0.3642  0.1668
 1827SOL    HW117117   1.223   4.031   9.258  1.0972  0.1927  1.8542
 1827SOL    HW217118   1.245   4.066   9.121  2.9800  0.8183 -1.7304
 1828SOL     OW17119   2.625   0.190   4.615  0.1460  0.0778 -0.0283
 1828SOL    HW117120   2.537   0.226   4.621  0.1859  0.3085 -0.9096
 1828SOL    HW217121   2.624   0.134   4.538 -1.8852  1.7856 -1.2497
 1829SOL     OW17122   3.408   0.766   9.451  0.1229 -0.4583 -0.4987
 1829SOL    HW117123   3.371   0.806   9.372 -0.6509 -0.2750 -0.0447
 1829SOL    HW217124   3.474   0.706   9.418 -0.0168 -0.1140 -1.4032
 1830SOL     OW17125   1.010   3.861   5.909 -0.0066  0.0150 -0.5418
 1830SOL    HW117126   1.006   3.880   5.815  0.2914 -0.3712 -0.6325
 1830SOL    HW217127   1.053   3.776   5.914  0.8240  0.5863  2.2179
 1831SOL     OW17128   0.725   3.473  17.645  0.2767  0.2658 -0.6617
 1831SOL    HW117129   0.642   3.426  17.634  1.2826 -1.4248 -1.1145
 1831SOL    HW217130   0.682   3.548  17.686  1.0531 -0.2460  1.1331
 1832SOL     OW17131   3.517   3.774  12.702  0.2687 -0.1066  0.1001
 1832SOL    HW117132   3.502   3.682  12.681 -5.0998  0.4792  1.2252
 1832SOL    HW217133   3.445   3.817  12.655  0.8040  0.3548 -0.2929
 1833SOL     OW17134   1.389   3.527   0.690 -0.1121  0.1135 -0.1008
 1833SOL    HW117135   1.346   3.585   0.753  0.9646 -1.7252  2.3493
 1833SOL    HW217136   1.405   3.454   0.750  2.1689 -1.6408 -2.8946
 1834SOL     OW17137   0.612   1.762  12.932  0.5148  0.4469  0.0830
 1834SOL    HW117138   0.645   1.721  12.852  0.1552 -1.4559  0.9101
 1834SOL    HW217139   0.682   1.820  12.960 -0.0195  1.8684 -1.5247
 1835SOL     OW17140   2.032   2.515   3.759  0.6791  0.3599  0.1056
 1835SOL    HW117141   1.948   2.560   3.769  0.6457  0.3791 -0.2652
 1835SOL    HW217142   2.005   2.446   3.698  0.4353  1.8594 -1.4645
 1836SOL     OW17143   0.177   3.642   3.319 -0.5765  0.4453 -0.2293
 1836SOL    HW117144   0.146   3.653   3.229  1.5164  2.1364 -0.7339
 1836SOL    HW217145   0.098   3.656   3.370 -0.3183 -0.8941  0.5399
 1837SOL     OW17146   3.078   1.446   4.620  0.7915 -0.5957 -0.2456
 1837SOL    HW117147   3.168   1.440   4.589  1.3158  0.6856  1.0320
 1837SOL    HW217148   3.030   1.492   4.551 -0.1034 -1.4568 -0.1943
 1838SOL     OW17149   3.855   4.295  16.472  0.0053 -1.0046  0.0990
 1838SOL    HW117150   3.916   4.226  16.499  1.5656  0.7418  1.0440
 1838SOL    HW217151   3.783   4.290  16.535 -0.0325 -2.3335 -0.0377
 1839SOL     OW17152   4.046   3.264  13.797  1.1041  0.1956  0.1489
 1839SOL    HW117153   4.100   3.336  13.764 -1.7104  1.3363 -1.9648
 1839SOL    HW217154   3.965   3.291  13.755  0.6149 -1.7006 -0.1040
 1840SOL     OW17155   2.892   2.673  16.260 -0.0398 -0.2452 -0.3685
 1840SOL    HW117156   2.981   2.671  16.225 -0.8719  1.3206 -2.5576
 1840SOL    HW217157   2.912   2.636  16.346 -1.3733  0.4708  0.2618
 1841SOL     OW17158   3.151   2.397   8.628  0.0416 -0.6746  0.0891
 1841SOL    HW117159   3.069   2.385   8.580  2.2287 -0.9517 -3.5646
 1841SOL    HW217160   3.114   2.465   8.684  0.2209 -1.7292  1.4868
 1842SOL     OW17161   1.836   2.710   4.906 -0.0578  0.2958  0.0982
 1842SOL    HW117162   1.753   2.681   4.867  0.2536 -0.1182 -0.2592
 1842SOL    HW217163   1.898   2.692   4.835  0.6567  1.4499  0.4301
 1843SOL     OW17164   4.138   4.044   6.078 -0.0439 -0.0344 -0.2680
 1843SOL    HW117165   4.113   4.089   6.158 -0.7057 -1.5686  0.3844
 1843SOL    HW217166   4.224   4.010   6.104  0.4505  0.7045 -0.9208
 1844SOL     OW17167   1.807   1.254   8.888  0.0512 -0.4828  0.6674
 1844SOL    HW117168   1.812   1.320   8.818 -2.2339 -1.1854 -0.1724
 1844SOL    HW217169   1.900   1.253   8.910  0.0198  0.7425  0.9014
 1845SOL     OW17170   0.308   4.161   4.099 -0.4548  0.4848  0.1048
 1845SOL    HW117171   0.256   4.241   4.099  1.1500  1.5405  1.2489
 1845SOL    HW217172   0.248   4.113   4.042  0.1780  1.7034 -1.5854
 1846SOL     OW17173   1.153   1.439   8.770  0.0137 -0.1295 -0.5065
 1846SOL    HW117174   1.132   1.369   8.708  0.0648  0.7559 -1.5224
 1846SOL    HW217175   1.120   1.392   8.846  2.1249 -0.1250  0.4139
 1847SOL     OW17176   4.278   2.811   1.777  0.1045 -0.0556  0.2685
 1847SOL    HW117177   4.355   2.857   1.743  0.2208 -0.1894  0.3473
 1847SOL    HW217178   4.324   2.754   1.839  1.4677 -1.4394 -2.0066
 1848SOL     OW17179   2.666   0.761   9.847 -0.1828 -0.1908  0.6401
 1848SOL    HW117180   2.682   0.671   9.820  2.0458  0.6166 -0.7344
 1848SOL    HW217181   2.648   0.744   9.939  0.7944 -1.3901  0.6084
 1849SOL     OW17182   2.065   4.351  10.717  1.2000  0.2229 -0.2280
 1849SOL    HW117183   2.132   4.288  10.745  2.1320  0.1125 -2.7576
 1849SOL    HW217184   2.017   4.299  10.652  3.2005  0.0193 -1.5292
 1850SOL     OW17185   3.138   3.734   7.513  0.1742  0.0679  0.0956
 1850SOL    HW117186   3.224   3.715   7.550  0.4739  1.9388  0.3446
 1850SOL    HW217187   3.161   3.714   7.422  1.1811 -0.6894  0.5114
 1851SOL     OW17188   4.676   4.270   3.956 -0.0581  0.6102  0.1670
 1851SOL    HW117189   0.026   4.247   3.935 -0.9436 -1.3823 -1.3880
 1851SOL    HW217190   4.690   4.357   3.994 -2.5947  1.3440 -0.5922
 1852SOL     OW17191   4.443   3.228   7.134 -0.8747  0.1759  0.2799
 1852SOL    HW117192   4.406   3.173   7.065 -0.2021  0.7243 -0.5187
 1852SOL    HW217193   4.369   3.282   7.163 -0.3646  0.5976  0.7966
 1853SOL     OW17194   4.270   4.716   3.455  0.2781  1.2341  0.3356
 1853SOL    HW117195   4.348   0.012   3.413  0.0737  1.5752  0.2517
 1853SOL    HW217196   4.299   4.645   3.513  0.8991 -0.0857 -1.5824
 1854SOL     OW17197   0.060   2.416  12.710 -0.3613  0.2377  0.2585
 1854SOL    HW117198   0.149   2.401  12.741 -1.2044 -3.2540  0.9556
 1854SOL    HW217199   0.008   2.338  12.729  0.8271 -0.7644 -0.6293
 1855SOL     OW17200   1.822   0.093   5.416  0.0337 -0.3338 -0.1989
 1855SOL    HW117201   1.917   0.085   5.408 -0.3190 -3.2721 -1.3944
 1855SOL    HW217202   1.792   0.041   5.342 -0.5816 -0.3684  0.0801
 1856SOL     OW17203   0.258   1.077   9.573  0.5043 -0.1204  0.7941
 1856SOL    HW117204   0.214   1.060   9.490  1.6623  0.8301 -0.0168
 1856SOL    HW217205   0.282   0.989   9.600 -0.3003 -0.7581 -0.5655
 1857SOL     OW17206   0.866   1.453   4.718  0.0266  0.3548  0.1382
 1857SOL    HW117207   0.901   1.437   4.630 -2.0512 -3.1472 -0.0386
 1857SOL    HW217208   0.870   1.548   4.732 -2.2547 -0.1060  3.8910
 1858SOL     OW17209   3.761   4.723   8.921  0.9907  1.1207 -0.0316
 1858SOL    HW117210   3.764   4.659   8.992  0.0833  2.3154  1.0888
 1858SOL    HW217211   3.716   0.053   8.969  1.0138  0.8859  0.3342
 1859SOL     OW17212   3.834   4.430   4.250 -0.5992 -0.3138 -0.0649
 1859SOL    HW117213   3.856   4.341   4.276 -0.6726 -0.2289  0.2916
 1859SOL    HW217214   3.845   4.478   4.333 -0.1015  1.6487 -1.2618
 1860SOL     OW17215   2.271   0.193   1.525  0.3217  0.2661  0.5525
 1860SOL    HW117216   2.351   0.224   1.483 -0.6747  1.4857 -0.4534
 1860SOL    HW217217   2.225   0.271   1.558 -0.8441 -0.5782  0.9472
 1861SOL     OW17218   3.989   4.299   6.816  0.3504  0.0636 -0.1452
 1861SOL    HW117219   3.991   4.209   6.848  0.4431  0.1882  0.1975
 1861SOL    HW217220   4.022   4.352   6.888  0.1615 -0.6814  0.4925
 1862SOL     OW17221   2.953   1.125   6.779 -0.1697  0.4377 -0.5548
 1862SOL    HW117222   2.878   1.165   6.736 -1.5294 -0.5600  0.9189
 1862SOL    HW217223   3.029   1.157   6.730  1.0553 -2.1517 -0.3557
 1863SOL     OW17224   1.025   0.781   5.992  0.4090 -0.0369  0.6448
 1863SOL    HW117225   0.987   0.861   5.957  0.1961  0.4312  1.9711
 1863SOL    HW217226   1.007   0.715   5.925 -1.4409  1.4589 -0.3164
 1864SOL     OW17227   1.622   1.939   7.341 -0.0385  0.5226  0.0303
 1864SOL    HW117228   1.568   1.904   7.411  2.4208  0.7940  2.0756
 1864SOL    HW217229   1.565   2.011   7.314 -0.3779  0.3727  0.3578
 1865SOL     OW17230   2.715   3.681   2.415  0.8672  0.4591  0.4560
 1865SOL    HW117231   2.777   3.689   2.487  2.8672  1.3573 -1.3574
 1865SOL    HW217232   2.719   3.587   2.396 -2.5095  0.0322  1.9708
 1866SOL     OW17233   3.958   0.750   5.364 -0.2589  0.2020  0.1707
 1866SOL    HW117234   3.883   0.805   5.346 -0.7309 -0.5827 -0.2834
 1866SOL    HW217235   3.966   0.767   5.457 -0.6697 -0.2207  0.2833
 1867SOL     OW17236   1.508   1.007  14.146  0.4573 -0.0433  0.0839
 1867SOL    HW117237   1.446   1.071  14.180  1.0305  0.1799  0.6909
 1867SOL    HW217238   1.492   0.928  14.198  1.7456  0.4953  1.2649
 1868SOL     OW17239   2.365   0.847   7.441 -0.4381  0.1418 -0.3601
 1868SOL    HW117240   2.350   0.853   7.536 -1.1506  0.0959 -0.4676
 1868SOL    HW217241   2.318   0.924   7.407  0.7042  0.7366 -0.6007
 1869SOL     OW17242   1.177   4.304  16.830 -0.4214 -0.7494 -0.2837
 1869SOL    HW117243   1.237   4.240  16.792  1.2715  0.8585 -0.3031
 1869SOL    HW217244   1.155   4.345  16.746 -1.6378 -1.0802 -0.1301
 1870SOL     OW17245   0.919   2.052   7.501  0.3160  0.4948 -0.0128
 1870SOL    HW117246   0.991   2.077   7.444 -0.4025 -0.9338 -1.5774
 1870SOL    HW217247   0.866   2.131   7.498 -1.4709 -0.7034 -0.4041
 1871SOL     OW17248   0.784   0.769   5.265  0.2983 -0.5330 -0.0935
 1871SOL    HW117249   0.822   0.776   5.178  1.9164  1.2934  0.7548
 1871SOL    HW217250   0.708   0.714   5.247 -1.1678  1.7549 -0.7996
 1872SOL     OW17251   1.070   2.403   7.046  0.2969  0.4491 -0.3487
 1872SOL    HW117252   1.111   2.485   7.019  0.3125  1.3828  2.4868
 1872SOL    HW217253   1.104   2.375   7.132 -3.0357  2.7327  1.7119
 1873SOL     OW17254   2.536   3.884  13.734 -0.1989 -0.1456  0.2768
 1873SOL    HW117255   2.548   3.793  13.764 -0.6337  0.7456  3.1784
 1873SOL    HW217256   2.523   3.928  13.818  0.5337  2.5058 -1.0222
 1874SOL     OW17257   2.909   4.206  13.739  0.3074  0.2008 -0.2162
 1874SOL    HW117258   2.994   4.244  13.716 -0.3076  1.4640 -0.4065
 1874SOL    HW217259   2.853   4.247  13.673 -1.6263 -1.8144  0.1801
 1875SOL     OW17260   0.278   4.449   2.222  0.1984 -0.1296 -1.0841
 1875SOL    HW117261   0.217   4.375   2.219 -0.5153  0.3887  0.3122
 1875SOL    HW217262   0.286   4.451   2.317 -0.5505 -0.0691 -1.0201
 1876SOL     OW17263   2.933   0.560   9.324  0.3443 -0.5593 -0.4925
 1876SOL    HW117264   2.951   0.635   9.382  0.0271 -1.8536  1.2646
 1876SOL    HW217265   2.838   0.564   9.328  0.5826  3.3144  2.1639
 1877SOL     OW17266   0.676   3.812  15.324  0.5054  0.6072  0.4890
 1877SOL    HW117267   0.641   3.837  15.238 -3.6756 -0.6470  1.7891
 1877SOL    HW217268   0.602   3.835  15.380 -0.2258 -1.2893  0.3104
 1878SOL     OW17269   0.912   3.062  15.953 -0.2455 -0.8546  0.2916
 1878SOL    HW117270   0.841   3.074  15.890  1.2084  2.7505 -0.6370
 1878SOL    HW217271   0.902   2.968  15.971 -1.9435 -0.7848 -0.2713
 1879SOL     OW17272   0.150   4.518  15.845 -0.1761 -0.9000 -0.0562
 1879SOL    HW117273   0.147   4.484  15.756 -3.3620  1.2720 -0.7855
 1879SOL    HW217274   0.079   4.581  15.834  0.1599 -1.0408 -3.1685
 1880SOL     OW17275   0.942   3.657   7.660 -0.6166  0.0103 -0.3527
 1880SOL    HW117276   1.036   3.641   7.652 -0.7087 -0.5743 -0.2124
 1880SOL    HW217277   0.924   3.659   7.754 -1.6908  2.0207 -0.5779
 1881SOL     OW17278   0.218   3.383   0.122 -0.1046  0.5763  0.3715
 1881SOL    HW117279   0.138   3.338   0.095  0.9441 -0.9588 -0.1692
 1881SOL    HW217280   0.181   3.470   0.106 -1.2606 -0.1133 -0.7297
 1882SOL     OW17281   4.502   0.295   8.768 -0.1872  0.4481 -0.2659
 1882SOL    HW117282   4.550   0.223   8.810 -0.6327  0.3312  0.0536
 1882SOL    HW217283   4.476   0.345   8.845  2.0364 -1.4117  1.6900
 1883SOL     OW17284   2.615   0.622  12.427 -0.0482 -0.3840 -0.6635
 1883SOL    HW117285   2.644   0.532  12.408  1.2662  0.0836 -0.8966
 1883SOL    HW217286   2.684   0.648  12.488  1.4669 -1.6946 -1.8067
 1884SOL     OW17287   0.579   0.740   7.071 -0.3609 -0.3473  0.0222
 1884SOL    HW117288   0.520   0.735   6.995  1.0772  1.3007 -1.1915
 1884SOL    HW217289   0.522   0.687   7.128 -1.1790  0.2353 -0.2558
 1885SOL     OW17290   0.282   0.768   5.351 -0.4619 -0.4737 -0.1660
 1885SOL    HW117291   0.336   0.750   5.274  1.3277 -0.1767  1.0103
 1885SOL    HW217292   0.193   0.776   5.316 -1.0405  0.6749  1.5570
 1886SOL     OW17293   4.072   4.381  17.000 -0.4067  0.5483  0.1325
 1886SOL    HW117294   4.092   4.365  17.093 -1.4574  3.5068  0.8797
 1886SOL    HW217295   4.124   4.459  16.981  2.4200 -1.8418 -1.9045
 1887SOL     OW17296   0.134   3.980   6.307 -0.3826 -0.1861  0.5524
 1887SOL    HW117297   0.087   4.063   6.318  0.9783  0.6566 -0.0686
 1887SOL    HW217298   0.077   3.914   6.346 -0.3976  1.7777  3.9467
 1888SOL     OW17299   4.207   3.453   4.330 -0.0903  0.1744 -0.1844
 1888SOL    HW117300   4.211   3.481   4.239  0.8959 -0.9799 -0.5021
 1888SOL    HW217301   4.257   3.372   4.336 -1.6268 -0.4952  3.8888
 1889SOL     OW17302   4.713   1.310   5.648 -0.0861 -0.4948 -0.1401
 1889SOL    HW117303   4.650   1.341   5.584  1.6083 -0.3060 -1.7155
 1889SOL    HW217304   0.000   1.227   5.608  1.4365 -0.2379  0.3593
 1890SOL     OW17305   2.416   1.425  11.869 -0.4736 -0.9584  0.2745
 1890SOL    HW117306   2.369   1.413  11.951 -1.6375 -1.1781 -0.4222
 1890SOL    HW217307   2.350   1.476  11.821 -0.5292  1.4946  2.9702
 1891SOL     OW17308   3.448   1.059   9.210 -0.2310 -0.3145  0.4443
 1891SOL    HW117309   3.423   0.967   9.205 -0.5236 -0.0773 -2.1193
 1891SOL    HW217310   3.361   1.093   9.231 -0.8175 -3.3407  2.8772
 1892SOL     OW17311   1.600   0.118   4.107 -0.1876 -0.0808 -0.6159
 1892SOL    HW117312   1.688   0.156   4.115 -0.2120  0.1232 -1.3504
 1892SOL    HW217313   1.610   0.069   4.026  1.2578  0.3117 -0.6862
 1893SOL     OW17314   3.729   1.372   9.634 -0.1437  0.5452  0.1775
 1893SOL    HW117315   3.799   1.419   9.678  1.5223  1.1155 -3.1157
 1893SOL    HW217316   3.775   1.314   9.573 -0.6318  1.3512 -0.9686
 1894SOL     OW17317   4.667   1.213  12.050 -0.0540 -0.1704 -0.2485
 1894SOL    HW117318   4.662   1.260  11.966  0.9521 -1.2484 -0.9145
 1894SOL    HW217319   0.006   1.166  12.024  0.3388  0.4617 -0.2000
 1895SOL     OW17320   0.941   4.588   1.039 -0.9273  0.4506  0.5153
 1895SOL    HW117321   0.865   4.646   1.034 -0.8268  0.4616 -0.9896
 1895SOL    HW217322   1.024   4.635   1.024  0.7866 -3.4420 -2.1502
 1896SOL     OW17323   0.397   3.190  15.808  0.4479  0.3525  0.0205
 1896SOL    HW117324   0.314   3.203  15.763  0.1233  0.1688  0.5662
 1896SOL    HW217325   0.408   3.271  15.859  2.1520  1.5261 -2.2376
 1897SOL     OW17326   0.405   0.378   4.950  0.3035  0.0623 -0.3107
 1897SOL    HW117327   0.311   0.370   4.966  0.7362  0.0473  2.1202
 1897SOL    HW217328   0.452   0.352   5.029  0.9317 -0.0792 -0.7221
 1898SOL     OW17329   0.493   1.452   4.213 -0.3732 -0.2847  0.2699
 1898SOL    HW117330   0.537   1.445   4.298  1.5958 -0.7360 -0.7687
 1898SOL    HW217331   0.488   1.545   4.193  0.4963 -0.5398 -1.1839
 1899SOL     OW17332   4.010   1.212   0.553 -0.7120 -0.0326  0.0583
 1899SOL    HW117333   4.089   1.174   0.514  0.1396  0.5559  1.2150
 1899SOL    HW217334   4.013   1.307   0.539  1.6465 -0.2166 -0.8243
 1900SOL     OW17335   2.074   2.878   0.960  0.3873  0.3247 -0.0802
 1900SOL    HW117336   2.095   2.838   0.876 -2.3610 -2.9185  0.7345
 1900SOL    HW217337   2.039   2.963   0.932  0.7994  1.2081  2.0809
 1901SOL     OW17338   4.650   1.021   6.888  0.0150 -0.6880 -0.1497
 1901SOL    HW117339   4.726   1.018   6.946 -0.5675 -0.8946  0.6147
 1901SOL    HW217340   4.674   1.077   6.815 -2.2396  0.8516  0.2809
 1902SOL     OW17341   2.613   1.831  10.015 -0.1474  0.0219  0.7839
 1902SOL    HW117342   2.601   1.904   9.954  0.9880 -0.3697  0.0906
 1902SOL    HW217343   2.646   1.875  10.093 -0.8896  2.3075 -0.1870
 1903SOL     OW17344   3.285   2.152   6.171  0.2832  0.6511  0.3490
 1903SOL    HW117345   3.312   2.235   6.132 -2.5411  2.3126  1.9008
 1903SOL    HW217346   3.221   2.182   6.235  0.4425  0.0010  0.8124
 1904SOL     OW17347   4.216   0.540  16.141 -0.5489  0.2317 -0.2903
 1904SOL    HW117348   4.251   0.628  16.125  0.3328 -0.6468 -3.1896
 1904SOL    HW217349   4.152   0.562  16.209 -0.5199 -0.5027 -0.0252
 1905SOL     OW17350   0.168   4.475   9.750  0.2561  0.1246 -0.0866
 1905SOL    HW117351   0.080   4.455   9.782 -0.0715  1.0761 -0.4036
 1905SOL    HW217352   0.187   4.540   9.817 -0.3590 -0.5757  0.7763
 1906SOL     OW17353   4.077   2.208   9.889 -0.0478  0.3212 -0.6750
 1906SOL    HW117354   4.004   2.227   9.948 -1.2496 -1.7898 -1.5009
 1906SOL    HW217355   4.047   2.132   9.840 -0.3992  0.0243 -0.0035
 1907SOL     OW17356   3.417   2.852   8.397 -0.0229 -0.1580  0.3825
 1907SOL    HW117357   3.371   2.810   8.470 -1.5158  1.9535  0.6713
 1907SOL    HW217358   3.466   2.776   8.368 -0.8849 -0.6167  0.1275
 1908SOL     OW17359   1.850   3.561  16.736  0.0349 -1.0950 -0.4708
 1908SOL    HW117360   1.917   3.628  16.747 -1.0104 -0.1268 -0.0557
 1908SOL    HW217361   1.907   3.488  16.712  0.7215 -0.5743 -0.4446
 1909SOL     OW17362   2.208   1.060   1.805 -0.2946 -0.1501 -0.1415
 1909SOL    HW117363   2.184   1.148   1.775 -1.7295 -0.5087 -0.0263
 1909SOL    HW217364   2.300   1.062   1.778 -0.1064 -1.0245  0.4465
 1910SOL     OW17365   3.797   4.533   6.419 -0.1818  0.1748 -0.3265
 1910SOL    HW117366   3.719   4.506   6.370 -0.7977  1.5604 -0.1204
 1910SOL    HW217367   3.838   4.448   6.434 -0.2023  0.1169 -0.6003
 1911SOL     OW17368   1.302   1.628   6.539 -0.2283 -0.0565  0.0657
 1911SOL    HW117369   1.284   1.686   6.613 -0.8541 -0.9835  0.6411
 1911SOL    HW217370   1.297   1.684   6.462  1.3615  0.6993  0.5282
 1912SOL     OW17371   4.354   3.018  10.649  0.0771  0.2591 -0.1967
 1912SOL    HW117372   4.302   3.037  10.571 -1.5487  1.7564  1.2461
 1912SOL    HW217373   4.439   3.019  10.605  0.2335  0.2255  0.1021
 1913SOL     OW17374   1.071   1.848   8.754 -0.4955 -0.3095 -0.1729
 1913SOL    HW117375   1.129   1.812   8.686  0.5936  0.8096  0.1714
 1913SOL    HW217376   0.983   1.832   8.720 -0.5619  1.7928 -0.9426
 1914SOL     OW17377   0.585   1.788   5.783  0.4311 -0.1449 -0.0065
 1914SOL    HW117378   0.528   1.853   5.742  1.0699  0.9767  0.8864
 1914SOL    HW217379   0.589   1.830   5.869 -1.5233 -0.8615  0.4253
 1915SOL     OW17380   3.849   2.237   7.858 -0.3484  0.1902 -0.2375
 1915SOL    HW117381   3.855   2.311   7.918  1.1942 -0.0233 -0.1220
 1915SOL    HW217382   3.940   2.210   7.848 -0.3346 -0.5842  2.0105
 1916SOL     OW17383   0.017   2.209   2.968  0.3105 -0.1509  0.8058
 1916SOL    HW117384   0.031   2.115   2.970  4.2768  0.3754 -0.8096
 1916SOL    HW217385   0.102   2.251   2.984  1.1516 -0.6135 -2.6034
 1917SOL     OW17386   4.403   2.298   8.349  0.3832 -0.6191  0.0037
 1917SOL    HW117387   4.400   2.278   8.255 -0.5128  1.0662 -0.3317
 1917SOL    HW217388   4.322   2.255   8.377  0.5998 -1.5906 -0.8476
 1918SOL     OW17389   0.262   0.221   6.003 -0.0548  0.3186  0.9329
 1918SOL    HW117390   0.182   0.222   5.950  0.4201  0.3860  0.2064
 1918SOL    HW217391   0.272   0.128   6.022 -1.4441  0.0286  0.2345
 1919SOL     OW17392   2.381   0.870   2.442 -0.2988  0.6442  0.3114
 1919SOL    HW117393   2.293   0.867   2.406  0.3131 -1.5978 -0.9849
 1919SOL    HW217394   2.419   0.937   2.385 -1.2623  1.2030  0.3240
 1920SOL     OW17395   2.823   2.323   9.033  0.1047  0.5029 -0.2696
 1920SOL    HW117396   2.916   2.317   9.057 -0.7307  1.0722  3.0844
 1920SOL    HW217397   2.789   2.283   9.112 -0.0418 -0.5415 -0.8710
 1921SOL     OW17398   0.180   1.825   9.686 -0.3245 -0.2437  0.4488
 1921SOL    HW117399   0.209   1.738   9.659 -0.7366  0.8508 -3.4446
 1921SOL    HW217400   0.271   1.854   9.689  0.6738 -3.1975 -1.5047
 1922SOL     OW17401   3.675   1.447  13.376  0.0990  0.3717  0.0978
 1922SOL    HW117402   3.679   1.377  13.441  2.6400 -0.4544 -0.9166
 1922SOL    HW217403   3.687   1.401  13.293  0.0764  1.6986 -0.6305
 1923SOL     OW17404   3.508   2.724  10.483  0.6093 -0.3080  0.0356
 1923SOL    HW117405   3.520   2.635  10.515  0.6547 -1.1979 -2.4616
 1923SOL    HW217406   3.491   2.766  10.567  1.6554 -1.9099  1.0401
 1924SOL     OW17407   3.066   0.850   4.884 -0.4298  0.1637  0.1641
 1924SOL    HW117408   3.160   0.833   4.889 -0.7539 -0.7215  2.8702
 1924SOL    HW217409   3.044   0.757   4.887  2.7904 -0.6368 -1.0086
 1925SOL     OW17410   2.208   3.293   5.904  0.2021  0.2214 -0.5258
 1925SOL    HW117411   2.130   3.341   5.876  0.8487  1.8998  0.5276
 1925SOL    HW217412   2.165   3.229   5.961  0.5680  1.0479  0.6776
 1926SOL     OW17413   3.093   1.010   1.563 -0.1795 -0.1048  0.3633
 1926SOL    HW117414   3.137   1.095   1.562 -1.1194  0.4450  4.3453
 1926SOL    HW217415   3.027   1.035   1.497  0.1472 -1.5563 -0.5279
 1927SOL     OW17416   1.461   1.506   3.653 -0.7327  0.1599 -0.4526
 1927SOL    HW117417   1.375   1.489   3.615  0.2151 -0.3428 -2.3390
 1927SOL    HW217418   1.489   1.556   3.577  1.1416  0.6349  0.5533
 1928SOL     OW17419   3.717   2.541  15.353 -0.2174 -0.1167 -0.2785
 1928SOL    HW117420   3.728   2.529  15.447 -0.2018 -1.9585 -0.5233
 1928SOL    HW217421   3.789   2.604  15.343 -0.8744  0.8251  1.0470
 1929SOL     OW17422   0.670   0.044   5.024  0.9106 -0.1079  0.2757
 1929SOL    HW117423   0.726   0.006   5.091 -1.0508 -0.0897  1.9391
 1929SOL    HW217424   0.609   0.101   5.073 -0.7340 -2.1148  0.5457
 1930SOL     OW17425   2.091   2.905   5.477 -0.3318 -0.4286 -0.0592
 1930SOL    HW117426   2.087   2.840   5.407 -4.5093 -1.3448  1.0540
 1930SOL    HW217427   2.166   2.866   5.524  0.0909  1.9028  1.2230
 1931SOL     OW17428   2.516   0.121   5.780 -0.0048  0.7431  0.2495
 1931SOL    HW117429   2.554   0.168   5.854  0.8959  0.0638  0.2083
 1931SOL    HW217430   2.435   0.171   5.767 -1.1332 -1.2899 -0.4501
 1932SOL     OW17431   3.194   1.494  14.846 -0.3738  0.1029 -0.1223
 1932SOL    HW117432   3.241   1.577  14.835 -0.9004  0.6341  1.5454
 1932SOL    HW217433   3.139   1.494  14.768 -0.9860  0.0707  0.3101
 1933SOL     OW17434   1.212   4.177   5.297 -0.0469  0.0311 -0.0417
 1933SOL    HW117435   1.303   4.176   5.269  0.2742 -3.0188  1.1464
 1933SOL    HW217436   1.169   4.123   5.230 -0.5939 -1.6656  1.6928
 1934SOL     OW17437   3.607   1.619  13.549 -0.2956 -0.0714  0.6266
 1934SOL    HW117438   3.642   1.567  13.477  1.8005  1.4550  0.5518
 1934SOL    HW217439   3.521   1.640  13.511  0.8418 -0.1636 -2.0190
 1935SOL     OW17440   3.960   3.403   1.268  0.3897  0.3674 -0.3980
 1935SOL    HW117441   3.969   3.384   1.362  1.0794 -0.9552 -0.7313
 1935SOL    HW217442   3.865   3.398   1.256  0.2212  1.4441  0.4710
 1936SOL     OW17443   3.779   3.906   3.612  0.1759 -0.1879 -0.4636
 1936SOL    HW117444   3.778   3.813   3.636  0.4369 -0.2378 -0.6451
 1936SOL    HW217445   3.841   3.916   3.540  1.8878  3.2184  1.4524
 1937SOL     OW17446   3.714   1.739   4.213  0.5742 -0.2505  0.2353
 1937SOL    HW117447   3.662   1.767   4.288  1.4023 -1.4989  1.2625
 1937SOL    HW217448   3.665   1.754   4.132 -0.6470  0.6373  1.1455
 1938SOL     OW17449   3.586   3.136   6.844  0.1675  0.3561 -0.3094
 1938SOL    HW117450   3.611   3.113   6.934 -0.0131 -2.1101 -0.9014
 1938SOL    HW217451   3.570   3.051   6.804  0.0741  1.1642 -1.9549
 1939SOL     OW17452   0.287   3.201   1.517 -0.5682  0.7017 -0.6628
 1939SOL    HW117453   0.331   3.167   1.439 -1.1381  0.3330 -0.8236
 1939SOL    HW217454   0.307   3.136   1.584 -1.6104  1.5847  0.5185
 1940SOL     OW17455   3.153   1.892   1.964  0.1367 -0.0763  0.1227
 1940SOL    HW117456   3.095   1.961   1.931  0.4447  0.7151  1.2582
 1940SOL    HW217457   3.092   1.819   1.974  1.3119 -1.0569  0.1416
 1941SOL     OW17458   2.704   2.640   7.752 -0.3603 -0.0676  0.1565
 1941SOL    HW117459   2.648   2.579   7.704  0.0133  0.4871 -0.9965
 1941SOL    HW217460   2.776   2.641   7.689 -0.7078 -1.7102 -0.2732
 1942SOL     OW17461   3.567   2.645   6.355 -0.4945 -0.5839  0.1032
 1942SOL    HW117462   3.633   2.677   6.417  0.4319 -2.3103  0.0139
 1942SOL    HW217463   3.534   2.571   6.406 -2.2223  0.3452  0.3205
 1943SOL     OW17464   4.361   1.038   1.720 -1.0828 -0.3183  0.1156
 1943SOL    HW117465   4.320   0.965   1.675 -1.0271 -0.8941  0.9842
 1943SOL    HW217466   4.432   0.995   1.768 -0.0686 -0.5052 -1.5374
 1944SOL     OW17467   2.127   1.750   6.000  0.1293  0.5908 -0.1498
 1944SOL    HW117468   2.119   1.812   5.928  1.6204 -0.0934 -0.9033
 1944SOL    HW217469   2.106   1.667   5.958 -2.3703  0.1063  2.0085
 1945SOL     OW17470   2.277   0.621   5.640  0.2199 -0.7544  0.1061
 1945SOL    HW117471   2.243   0.588   5.723 -0.2665 -0.6358 -0.0404
 1945SOL    HW217472   2.365   0.586   5.644  1.7712  3.3334  1.4098
 1946SOL     OW17473   1.649   2.825  14.991  0.0969  0.7205  0.7126
 1946SOL    HW117474   1.661   2.860  14.903  1.2137 -0.4954  0.3783
 1946SOL    HW217475   1.559   2.854  15.007 -0.8997 -1.5026 -0.7992
 1947SOL     OW17476   1.787   4.232   5.576 -0.2039 -0.1179 -0.0159
 1947SOL    HW117477   1.821   4.306   5.526  0.2390  0.5238  1.2375
 1947SOL    HW217478   1.792   4.257   5.668  1.3334  1.1991 -0.4641
 1948SOL     OW17479   1.627   1.299   6.943  0.7338 -0.2237 -0.3439
 1948SOL    HW117480   1.586   1.269   6.862 -1.2612  0.2366  0.4796
 1948SOL    HW217481   1.698   1.355   6.912  2.4255 -0.9235  2.2798
 1949SOL     OW17482   1.057   3.205   3.081 -0.0027  0.0991 -0.0490
 1949SOL    HW117483   1.077   3.280   3.024 -1.2432 -0.3960 -1.1464
 1949SOL    HW217484   1.125   3.221   3.146  0.9333 -0.7987 -0.8097
 1950SOL     OW17485   3.294   1.086   4.614  0.3373  0.3401 -0.0128
 1950SOL    HW117486   3.277   1.002   4.571 -0.0364 -0.1770  1.1392
 1950SOL    HW217487   3.361   1.049   4.673  2.2597  1.0953 -1.7345
 1951SOL     OW17488   1.677   0.531   6.796  0.1608 -0.7587  0.1932
 1951SOL    HW117489   1.601   0.567   6.750 -1.3502 -3.0858  0.8749
 1951SOL    HW217490   1.694   0.460   6.734  0.8584  0.9596 -1.5641
 1952SOL     OW17491   1.983   2.696   4.128 -0.4277 -0.2857  0.2907
 1952SOL    HW117492   2.023   2.729   4.048  0.8380 -2.5934 -0.0241
 1952SOL    HW217493   1.902   2.747   4.133  0.6521  1.4376  0.2649
 1953SOL     OW17494   2.236   3.136   7.517  0.0547 -0.2112 -0.0838
 1953SOL    HW117495   2.190   3.053   7.504 -1.9754  1.5217 -3.9403
 1953SOL    HW217496   2.200   3.182   7.441  3.2909 -0.6100 -1.8687
 1954SOL     OW17497   1.520   3.000   0.772  0.1968  0.5851 -0.3575
 1954SOL    HW117498   1.584   2.965   0.711  0.8823 -0.3683  0.9099
 1954SOL    HW217499   1.435   2.968   0.740 -0.7504  1.4363  1.2659
 1955SOL     OW17500   4.438   1.873   8.121 -0.2526  0.2969 -0.5266
 1955SOL    HW117501   4.404   1.785   8.106  1.0750 -0.3325  0.1460
 1955SOL    HW217502   4.456   1.888   8.028  1.1805 -0.5391 -0.3869
 1956SOL     OW17503   4.096   0.520   6.280  0.0855 -0.1059  0.1770
 1956SOL    HW117504   4.040   0.447   6.257  1.0148  0.2316 -3.1259
 1956SOL    HW217505   4.064   0.599   6.236  1.0931  0.0637 -0.2703
 1957SOL     OW17506   2.779   0.777   5.781  0.0972  0.7978 -0.4473
 1957SOL    HW117507   2.780   0.742   5.870 -1.3065  1.2208 -0.2587
 1957SOL    HW217508   2.859   0.829   5.785  0.4043  0.3911 -1.4054
 1958SOL     OW17509   1.497   0.197  14.027  0.1044  0.0311  0.3293
 1958SOL    HW117510   1.554   0.128  13.992  1.0957  0.5750  0.8476
 1958SOL    HW217511   1.540   0.276  13.993 -1.6656  0.3787 -1.1249
 1959SOL     OW17512   2.321   2.857  15.525  0.7177 -0.4022 -0.1805
 1959SOL    HW117513   2.399   2.912  15.534  0.7047 -0.3923 -0.1278
 1959SOL    HW217514   2.300   2.875  15.433 -2.6413 -1.8251  0.3420
 1960SOL     OW17515   4.708   1.426   2.104  0.7720 -0.2738 -0.3723
 1960SOL    HW117516   4.670   1.469   2.027  1.4613  1.3767  0.2058
 1960SOL    HW217517   4.705   1.495   2.171 -0.0816  0.1173 -0.8136
 1961SOL     OW17518   0.534   4.622   6.740 -0.0724  0.5396  0.0902
 1961SOL    HW117519   0.466   4.555   6.751  1.4743 -0.8260  1.3547
 1961SOL    HW217520   0.527   4.669   6.823  1.8410  0.2768  0.3927
 1962SOL     OW17521   3.457   2.994  14.842  0.4334 -0.2415  0.1375
 1962SOL    HW117522   3.425   3.065  14.898  1.5232  0.0188  0.4271
 1962SOL    HW217523   3.410   2.922  14.884 -0.5425 -1.0082 -2.2551
 1963SOL     OW17524   2.906   0.261   2.511  0.1460  0.0896  0.1787
 1963SOL    HW117525   2.920   0.194   2.578 -0.3465  2.2972  2.4826
 1963SOL    HW217526   2.848   0.317   2.562  0.6339  0.2644  0.5420
 1964SOL     OW17527   3.590   3.345   2.776  0.2640  0.0675 -0.0816
 1964SOL    HW117528   3.524   3.308   2.835  0.7936  0.0285  0.4880
 1964SOL    HW217529   3.611   3.422   2.828  0.4853 -1.2729  1.8193
 1965SOL     OW17530   0.271   1.714  14.424  0.5208  0.2089  0.8837
 1965SOL    HW117531   0.328   1.647  14.388 -0.9620 -0.8167  0.4497
 1965SOL    HW217532   0.285   1.788  14.365 -0.1137 -2.0861 -2.1038
 1966SOL     OW17533   4.369   1.270   5.355 -0.4308 -0.3070  0.5467
 1966SOL    HW117534   4.324   1.341   5.402 -1.5395 -1.2840  0.9411
 1966SOL    HW217535   4.406   1.229   5.432 -1.9795 -0.0232  1.4528
 1967SOL     OW17536   2.181   4.363   6.900 -0.0645 -0.4610 -0.8088
 1967SOL    HW117537   2.091   4.392   6.883 -0.9835 -2.2984  0.9575
 1967SOL    HW217538   2.224   4.448   6.894 -0.0082 -0.5565 -1.6634
 1968SOL     OW17539   4.506   1.162   2.461  0.0273  0.8363  0.3695
 1968SOL    HW117540   4.577   1.225   2.455 -0.4844  1.4130  0.3543
 1968SOL    HW217541   4.513   1.113   2.379 -0.7217  0.3116  0.6127
 1969SOL     OW17542   4.281   2.827   0.213  0.0608  0.0117 -0.4506
 1969SOL    HW117543   4.235   2.791   0.289 -0.0028 -1.2206 -1.0627
 1969SOL    HW217544   4.253   2.918   0.220  1.9529  0.5430  0.1035
 1970SOL     OW17545   3.847   0.476   8.030  0.0014 -0.1765 -0.1325
 1970SOL    HW117546   3.817   0.393   7.994 -2.5363  0.7948 -0.2007
 1970SOL    HW217547   3.940   0.463   8.008  0.2657  0.4989  0.5879
 1971SOL     OW17548   0.127   2.270   5.238  0.0866 -0.1173  0.4346
 1971SOL    HW117549   0.136   2.311   5.324  1.4188  3.3298 -1.3703
 1971SOL    HW217550   0.215   2.286   5.205  0.7022  0.4463  2.3514
 1972SOL     OW17551   1.243   0.683   8.450 -0.0883 -0.2184 -0.0326
 1972SOL    HW117552   1.282   0.608   8.405 -2.8516 -1.7678  0.1535
 1972SOL    HW217553   1.289   0.688   8.534  1.1293  0.5807 -0.7362
 1973SOL     OW17554   2.586   0.035   6.730 -0.0931 -0.5082  0.3741
 1973SOL    HW117555   2.544   0.035   6.644  0.9258 -0.4865 -0.1153
 1973SOL    HW217556   2.676   0.053   6.703 -0.2348  0.6234  0.6730
 1974SOL     OW17557   3.160   0.382   3.800  0.3364 -0.5705 -0.1516
 1974SOL    HW117558   3.130   0.331   3.875 -1.5699  1.3110  0.3727
 1974SOL    HW217559   3.179   0.473   3.826 -2.2201 -0.6580  1.9913
 1975SOL     OW17560   2.131   2.496   8.548  0.8062  1.0989  0.3304
 1975SOL    HW117561   2.090   2.458   8.470 -0.0806  0.3315  1.1759
 1975SOL    HW217562   2.084   2.579   8.554 -0.2497  0.6655 -2.3003
 1976SOL     OW17563   1.001   3.250  11.441 -0.5131 -1.0302 -0.3793
 1976SOL    HW117564   1.070   3.203  11.488  0.8051  0.4204 -0.8528
 1976SOL    HW217565   0.935   3.180  11.445 -0.0726 -1.3369  1.6212
 1977SOL     OW17566   2.645   1.236   9.457 -0.2596 -0.3535  0.2679
 1977SOL    HW117567   2.734   1.245   9.423 -0.5292 -1.2522 -0.7070
 1977SOL    HW217568   2.627   1.330   9.465 -0.9417 -0.6702  2.3662
 1978SOL     OW17569   0.654   1.698  13.259  0.2359 -0.1864  0.3524
 1978SOL    HW117570   0.561   1.686  13.240 -0.0704  0.9666  1.1250
 1978SOL    HW217571   0.690   1.614  13.229 -0.9653 -0.5837  0.0287
 1979SOL     OW17572   4.162   1.937   4.288  0.3586 -0.3582  0.1485
 1979SOL    HW117573   4.211   1.855   4.290 -0.1392 -0.6086  1.9461
 1979SOL    HW217574   4.130   1.932   4.198 -0.5263 -1.7417  0.5528
 1980SOL     OW17575   0.955   3.428   7.311  0.2823  0.5899 -0.0204
 1980SOL    HW117576   0.900   3.452   7.386 -0.3141  1.0867 -0.6185
 1980SOL    HW217577   0.997   3.511   7.289  0.8283  0.4105  0.3232
 1981SOL     OW17578   3.990   0.365   5.993 -0.7238 -0.0241  0.1259
 1981SOL    HW117579   3.939   0.327   6.064 -1.2207  1.0830  0.3695
 1981SOL    HW217580   4.049   0.293   5.970  0.2759  0.8604 -0.0743
 1982SOL     OW17581   0.878   4.256   0.286  0.7043 -0.5242  0.0966
 1982SOL    HW117582   0.872   4.214   0.372 -3.2800 -1.2571 -0.5508
 1982SOL    HW217583   0.862   4.346   0.315 -1.5804 -0.5324 -1.1299
 1983SOL     OW17584   0.505   2.948   5.243  0.0699  0.1311 -0.4553
 1983SOL    HW117585   0.457   2.969   5.323  1.7057  0.0099  0.5718
 1983SOL    HW217586   0.493   3.030   5.195  0.2531  0.0593 -0.6229
 1984SOL     OW17587   2.008   3.676   2.475  0.4899  0.4604  0.2493
 1984SOL    HW117588   2.051   3.744   2.422  2.4996 -0.2844  0.9411
 1984SOL    HW217589   1.926   3.700   2.433  0.5962  0.2352 -0.0859
 1985SOL     OW17590   2.043   1.096   3.758  0.0398 -0.4745  0.0511
 1985SOL    HW117591   2.130   1.062   3.737  0.4884  0.5596  0.2235
 1985SOL    HW217592   1.991   1.031   3.805 -1.8558  0.1212 -1.2525
 1986SOL     OW17593   4.184   3.453   3.053 -0.0037  0.0504  0.5004
 1986SOL    HW117594   4.166   3.364   3.083  2.3055 -0.7422 -0.4247
 1986SOL    HW217595   4.280   3.460   3.054  0.0636 -0.8761  0.4627
 1987SOL     OW17596   4.486   4.004  11.224  0.3371 -1.2052 -0.0043
 1987SOL    HW117597   4.540   3.973  11.297  0.0803 -0.2867  0.5707
 1987SOL    HW217598   4.416   3.938  11.232 -1.9716  1.2480 -0.0626
 1988SOL     OW17599   4.657   3.377  15.363 -0.3790  0.0102 -0.0174
 1988SOL    HW117600   4.661   3.375  15.267 -3.9875  0.2683 -0.1716
 1988SOL    HW217601   4.587   3.442  15.366 -0.9304 -0.5348 -0.9160
 1989SOL     OW17602   0.643   4.152   2.734 -0.2393 -0.3668 -0.5477
 1989SOL    HW117603   0.607   4.088   2.674  1.0715 -1.2969 -0.3377
 1989SOL    HW217604   0.590   4.230   2.716 -2.1061 -0.7795  3.0670
 1990SOL     OW17605   1.847   0.946   9.094  0.3776  0.1487 -0.1329
 1990SOL    HW117606   1.842   0.907   9.007  2.0750  2.4429 -1.2492
 1990SOL    HW217607   1.927   0.901   9.123 -1.4755 -1.6356  2.2125
 1991SOL     OW17608   4.060   1.678   1.281  0.3942  0.1943 -0.6166
 1991SOL    HW117609   4.010   1.597   1.268  0.9454 -0.0881 -0.9934
 1991SOL    HW217610   4.144   1.660   1.239  0.6715  0.5444 -0.2060
 1992SOL     OW17611   2.145   1.302   6.218 -0.6205  0.5325 -0.1196
 1992SOL    HW117612   2.199   1.251   6.157 -0.5486 -0.9107  1.1483
 1992SOL    HW217613   2.204   1.367   6.257 -0.6841  2.3728 -3.0565
 1993SOL     OW17614   1.641   1.005  10.357 -0.5356  0.4460  0.2213
 1993SOL    HW117615   1.629   1.074  10.423  1.4888  2.2617 -1.3152
 1993SOL    HW217616   1.690   0.937  10.404 -2.3703 -0.5179  0.7375
 1994SOL     OW17617   0.528   2.459   2.476 -0.2117  0.5356  0.4029
 1994SOL    HW117618   0.550   2.371   2.445 -0.2039 -0.2098  2.5948
 1994SOL    HW217619   0.592   2.452   2.547  0.6546 -1.5611 -0.5854
 1995SOL     OW17620   0.159   0.735   6.558 -0.2229 -0.6533 -0.0249
 1995SOL    HW117621   0.064   0.727   6.550 -0.4603  1.2903  0.7094
 1995SOL    HW217622   0.173   0.734   6.653  1.5273 -0.6482 -0.2811
 1996SOL     OW17623   2.202   3.239  14.662  0.0431  0.1958  0.2724
 1996SOL    HW117624   2.269   3.192  14.612 -2.4589 -1.5749 -1.4230
 1996SOL    HW217625   2.229   3.324  14.629  3.3723 -0.2153  1.9711
 1997SOL     OW17626   3.551   2.754   5.622 -0.2960  0.3013  0.2310
 1997SOL    HW117627   3.538   2.849   5.619  2.1076  0.6408  0.6318
 1997SOL    HW217628   3.502   2.744   5.540 -1.7765 -0.9273  1.2616
 1998SOL     OW17629   3.277   2.120   6.564 -0.2397 -0.0791  0.3099
 1998SOL    HW117630   3.257   2.201   6.612  2.0660  0.1694  0.8382
 1998SOL    HW217631   3.367   2.128   6.535  0.0127  2.2869  1.7402
 1999SOL     OW17632   1.592   0.714  14.855 -0.3055  0.0436 -0.0272
 1999SOL    HW117633   1.648   0.638  14.868  0.6334  0.5348 -1.1960
 1999SOL    HW217634   1.637   0.748  14.777 -1.7724 -0.8595 -1.2818
 2000SOL     OW17635   1.123   0.133   0.747 -0.7494 -0.2199  0.1011
 2000SOL    HW117636   1.147   0.114   0.656  2.5623  3.6109  0.1702
 2000SOL    HW217637   1.029   0.117   0.746 -0.5035 -1.5843 -0.9753
 2001SOL     OW17638   3.102   1.587  15.925  0.4324  0.4046  0.6301
 2001SOL    HW117639   3.163   1.638  15.978  0.6750  0.4858  0.2701
 2001SOL    HW217640   3.142   1.500  15.935  1.9111  0.7686 -2.0431
 2002SOL     OW17641   4.627   0.629   4.635 -0.3116  0.5516  0.4321
 2002SOL    HW117642   4.625   0.724   4.634  0.6762  0.5469 -0.8050
 2002SOL    HW217643   4.711   0.611   4.679 -0.2297 -0.3643 -0.0984
 2003SOL     OW17644   2.050   0.145   9.096 -0.0419 -0.1264  0.5748
 2003SOL    HW117645   2.116   0.084   9.128 -1.1382 -0.9579  1.2246
 2003SOL    HW217646   2.054   0.126   9.002 -1.8231  0.1299  0.4518
 2004SOL     OW17647   4.021   1.457   5.290  0.6536 -0.4733  0.1632
 2004SOL    HW117648   4.021   1.378   5.236 -1.0860  0.2432 -0.8909
 2004SOL    HW217649   3.984   1.415   5.367  1.7063 -2.1460 -0.2595
 2005SOL     OW17650   1.933   3.931   6.650 -0.2360 -0.2071  0.1707
 2005SOL    HW117651   1.968   4.015   6.618  0.9960 -0.9744 -0.5010
 2005SOL    HW217652   1.955   3.922   6.742 -0.2227 -2.0550 -0.0156
 2006SOL     OW17653   3.436   3.637   2.677 -0.5114  0.1341 -0.1464
 2006SOL    HW117654   3.368   3.571   2.691 -1.2254  1.1115  0.9154
 2006SOL    HW217655   3.496   3.596   2.615 -0.0732 -1.6829  1.4673
 2007SOL     OW17656   4.364   3.504   2.759  0.5302 -0.0320 -0.5725
 2007SOL    HW117657   4.418   3.577   2.792 -2.0108  1.0682  1.1312
 2007SOL    HW217658   4.379   3.447   2.835 -0.0296 -0.8364 -1.0758
 2008SOL     OW17659   2.623   3.354   7.815  0.7219 -0.6358 -0.5664
 2008SOL    HW117660   2.592   3.445   7.818  0.7087 -0.5552 -3.3969
 2008SOL    HW217661   2.581   3.309   7.742 -1.9451  1.9169 -0.5747
 2009SOL     OW17662   1.523   3.901   5.493  0.5507 -0.5355  0.4633
 2009SOL    HW117663   1.572   3.908   5.575 -1.0805 -0.9686  1.4573
 2009SOL    HW217664   1.580   3.847   5.439 -1.0975 -1.8883  0.0799
 2010SOL     OW17665   1.629   3.332   5.547 -0.8361 -0.0754  0.5642
 2010SOL    HW117666   1.595   3.389   5.478 -0.7483 -0.1275  0.4773
 2010SOL    HW217667   1.607   3.251   5.502  1.3876 -1.0020  1.1401
 2011SOL     OW17668   2.776   1.238   6.998 -0.0898  0.2973  0.1650
 2011SOL    HW117669   2.711   1.268   6.935  0.0619 -0.5428 -0.3810
 2011SOL    HW217670   2.715   1.189   7.052 -1.9677  1.2998 -1.0500
 2012SOL     OW17671   4.304   2.347   6.619 -0.3065 -0.4545  0.2818
 2012SOL    HW117672   4.299   2.253   6.605 -0.6394 -0.6610  1.7633
 2012SOL    HW217673   4.273   2.337   6.709 -1.0692  0.7009  0.1475
 2013SOL     OW17674   4.181   0.006  14.896  0.1985 -0.5106 -0.0331
 2013SOL    HW117675   4.107   0.052  14.937  0.3575 -0.1878 -0.1093
 2013SOL    HW217676   4.250   0.073  14.892 -0.8629  0.6747  1.2235
 2014SOL     OW17677   4.683   1.981   0.569 -1.0173 -0.0960 -0.2039
 2014SOL    HW117678   4.666   1.893   0.535  0.6171 -1.4166  2.3710
 2014SOL    HW217679   4.654   2.038   0.498 -1.2233 -0.3849 -0.3514
 2015SOL     OW17680   0.546   2.804   0.945 -0.5732  0.0017  0.1764
 2015SOL    HW117681   0.616   2.798   1.010 -1.1252  0.0115  0.7758
 2015SOL    HW217682   0.592   2.776   0.866  1.2074 -1.9242  1.9095
 2016SOL     OW17683   2.090   0.205  13.266 -0.0941  0.0685  0.0357
 2016SOL    HW117684   2.119   0.236  13.352 -3.6529  1.8968  0.5686
 2016SOL    HW217685   2.051   0.284  13.229 -1.0124 -0.0433  0.7823
 2017SOL     OW17686   3.006   3.427   4.966  0.4506 -0.4145 -0.0153
 2017SOL    HW117687   3.082   3.369   4.957  0.4495 -0.6376  1.3913
 2017SOL    HW217688   2.995   3.427   5.061  1.2045  1.2579  0.0676
 2018SOL     OW17689   2.450   1.123   1.675 -0.2594 -0.2835  0.8069
 2018SOL    HW117690   2.488   1.037   1.689  3.2011  1.1706  0.4678
 2018SOL    HW217691   2.452   1.129   1.579 -2.9580 -2.0026  0.6309
 2019SOL     OW17692   4.464   0.990   2.687  0.1164 -0.0898  0.5828
 2019SOL    HW117693   4.512   0.924   2.638  0.9369 -0.2965  1.6507
 2019SOL    HW217694   4.475   1.063   2.626  0.5707  0.3848  1.2314
 2020SOL     OW17695   2.265   3.155   9.479 -0.0925 -1.1154 -0.1868
 2020SOL    HW117696   2.240   3.093   9.548  3.2366 -0.6888  1.4346
 2020SOL    HW217697   2.182   3.162   9.432 -0.6788  3.1725  1.5991
 2021SOL     OW17698   2.345   2.152   6.752 -0.0382  0.1781 -0.1136
 2021SOL    HW117699   2.350   2.067   6.708 -2.2534  0.0521 -0.1416
 2021SOL    HW217700   2.272   2.189   6.701 -1.3669  1.3134  2.5904
 2022SOL     OW17701   4.676   3.320   2.145 -0.2839 -0.1551 -0.1044
 2022SOL    HW117702   4.585   3.317   2.174 -0.3969  0.4228 -0.3853
 2022SOL    HW217703   4.665   3.379   2.070 -0.9908  0.0855  0.1886
 2023SOL     OW17704   0.211   0.695  13.175  0.0470 -0.0157 -0.2725
 2023SOL    HW117705   0.144   0.706  13.242 -1.2081 -0.1964 -1.4964
 2023SOL    HW217706   0.165   0.722  13.096 -1.2000 -2.6009 -0.4179
 2024SOL     OW17707   4.285   1.564   9.143  0.6074 -0.2243  0.2789
 2024SOL    HW117708   4.261   1.641   9.092 -2.4029 -3.0160 -2.4854
 2024SOL    HW217709   4.379   1.577   9.144  0.8276 -1.8053  0.7003
 2025SOL     OW17710   2.421   0.311   5.028 -0.0432  0.4325  0.2990
 2025SOL    HW117711   2.493   0.311   4.966  0.6258  0.3429  1.0796
 2025SOL    HW217712   2.449   0.259   5.103  1.4364 -0.0795 -0.6209
 2026SOL     OW17713   1.730   2.968   8.781  0.6530  0.4819 -0.2351
 2026SOL    HW117714   1.723   2.877   8.754  0.6857  0.6141 -0.6848
 2026SOL    HW217715   1.710   3.020   8.703  1.2628 -0.0442 -0.7367
 2027SOL     OW17716   2.924   2.664   1.354  0.1897  0.3902 -0.2422
 2027SOL    HW117717   2.862   2.608   1.307  1.7359  1.4217 -3.4580
 2027SOL    HW217718   2.996   2.669   1.292 -0.5842 -0.5662 -1.2201
 2028SOL     OW17719   2.430   2.822  17.402  0.1429  0.0931 -0.1542
 2028SOL    HW117720   2.459   2.731  17.397  0.7340  0.4192 -2.7405
 2028SOL    HW217721   2.512   2.868  17.382  0.9923 -0.8813  1.1058
 2029SOL     OW17722   2.052   4.504  17.177 -0.3082 -0.0438 -0.2365
 2029SOL    HW117723   2.041   4.510  17.272 -2.0926 -2.0327 -0.3237
 2029SOL    HW217724   2.117   4.434  17.176  0.3250  0.5498 -1.8671
 2030SOL     OW17725   2.089   3.552   3.469  0.2380  0.0914  0.1257
 2030SOL    HW117726   2.070   3.527   3.379 -1.6937 -2.8622  1.3618
 2030SOL    HW217727   2.179   3.523   3.486 -0.6589 -2.4607  0.5341
 2031SOL     OW17728   0.442   4.325  16.495  0.7853 -0.3952  0.5550
 2031SOL    HW117729   0.536   4.314  16.481  0.5495  0.6005 -1.8004
 2031SOL    HW217730   0.440   4.366  16.581  1.3737  0.4566  0.1614
 2032SOL     OW17731   4.115   1.391  12.130 -0.0773  0.1423  0.2405
 2032SOL    HW117732   4.204   1.415  12.155  0.7394 -3.1991  0.5214
 2032SOL    HW217733   4.138   1.337  12.054  1.4085 -0.1283  0.8976
 2033SOL     OW17734   4.527   3.962   2.388  0.3270 -0.0011 -0.1528
 2033SOL    HW117735   4.439   3.939   2.419  1.0630 -1.1681  1.1001
 2033SOL    HW217736   4.512   3.949   2.294 -0.7022 -2.0598  0.2973
 2034SOL     OW17737   4.537   3.472   7.498 -0.3825 -0.2395  0.0504
 2034SOL    HW117738   4.528   3.548   7.557 -0.3185 -1.2403  1.3556
 2034SOL    HW217739   4.447   3.443   7.491 -1.1883  1.5738  2.5487
 2035SOL     OW17740   0.153   3.810   4.963 -0.2979 -0.1280 -0.2157
 2035SOL    HW117741   0.217   3.774   4.901 -2.4296 -0.1185 -2.4061
 2035SOL    HW217742   0.100   3.856   4.898 -2.0945  0.4352  1.6814
 2036SOL     OW17743   2.646   1.144   2.443 -0.1293 -0.0423  0.4438
 2036SOL    HW117744   2.650   1.073   2.379 -0.9768 -1.6790  2.1833
 2036SOL    HW217745   2.679   1.218   2.393  0.1610  0.1685  0.9362
 2037SOL     OW17746   4.459   0.141   2.842 -0.1705  0.4225 -0.0616
 2037SOL    HW117747   4.494   0.222   2.807 -0.2685 -1.0835 -3.6056
 2037SOL    HW217748   4.388   0.181   2.893 -0.3079  0.0421  0.0541
 2038SOL     OW17749   2.957   1.165   1.386 -0.1129  0.3579 -0.1705
 2038SOL    HW117750   2.883   1.227   1.386 -0.7684 -0.4251 -0.6231
 2038SOL    HW217751   3.015   1.196   1.317  0.8627 -1.0788  0.0176
 2039SOL     OW17752   1.016   1.311  16.029 -0.1911  0.0343 -0.8414
 2039SOL    HW117753   1.061   1.395  16.027  2.3803 -1.3350 -0.0844
 2039SOL    HW217754   0.925   1.335  16.012 -0.0291  0.7061 -0.7656
 2040SOL     OW17755   2.311   1.352   1.699  0.5378 -0.2561  0.1624
 2040SOL    HW117756   2.234   1.346   1.642  1.2063 -2.3714 -0.5234
 2040SOL    HW217757   2.363   1.272   1.693 -0.9289 -1.2397  0.8432
 2041SOL     OW17758   2.805   3.040   1.947  0.7658  0.6656  0.0861
 2041SOL    HW117759   2.871   2.970   1.949  0.4434  0.3923  1.1150
 2041SOL    HW217760   2.790   3.050   1.853  1.5438 -0.1253 -0.1221
 2042SOL     OW17761   2.749   2.217   9.598 -0.1708  0.0621  0.3531
 2042SOL    HW117762   2.694   2.141   9.619  0.5852 -0.5544  0.1241
 2042SOL    HW217763   2.822   2.206   9.660  0.2309 -1.0514 -0.3218
 2043SOL     OW17764   3.529   2.408   6.456  0.5469 -0.0061  0.4299
 2043SOL    HW117765   3.437   2.423   6.476  0.6459 -1.7914  2.1854
 2043SOL    HW217766   3.568   2.369   6.534  0.5727 -1.0479 -0.1026
 2044SOL     OW17767   0.522   0.676   4.410  0.3796  0.1865  0.0839
 2044SOL    HW117768   0.469   0.596   4.417  0.3257 -0.0130 -2.6696
 2044SOL    HW217769   0.462   0.739   4.451 -0.1708  0.1566 -0.6743
 2045SOL     OW17770   0.249   0.887   3.555 -0.4355 -0.5435  0.3255
 2045SOL    HW117771   0.220   0.855   3.470 -1.5419 -1.3266  0.9972
 2045SOL    HW217772   0.260   0.980   3.536 -0.9682 -0.6768 -0.6295
 2046SOL     OW17773   3.471   4.734  10.204  0.3125  0.0572 -0.2062
 2046SOL    HW117774   3.449   4.739  10.297 -1.4614  0.5200 -0.6314
 2046SOL    HW217775   3.544   4.673  10.210 -1.3038 -1.8395  0.3212
 2047SOL     OW17776   1.964   2.983  10.228  0.6724  0.7052 -0.4765
 2047SOL    HW117777   1.980   3.016  10.316  0.9179 -1.4879  0.2859
 2047SOL    HW217778   1.979   2.894  10.259  0.5944  0.1948 -1.8921
 2048SOL     OW17779   2.185   4.026   2.067  0.3020  0.2228  0.1792
 2048SOL    HW117780   2.261   4.076   2.097  0.0840 -0.7361  2.2552
 2048SOL    HW217781   2.148   4.084   2.000 -0.8024  0.2921  0.8536
 2049SOL     OW17782   4.037   3.774   5.633 -0.2113  0.1007 -0.1754
 2049SOL    HW117783   3.990   3.708   5.583  1.1173 -1.2092  0.3123
 2049SOL    HW217784   3.968   3.811   5.688 -0.0943  0.2587 -0.1340
 2050SOL     OW17785   3.233   0.977   7.168  0.3674  0.0800  0.1950
 2050SOL    HW117786   3.300   0.995   7.103  0.0642  0.6085  0.0280
 2050SOL    HW217787   3.156   0.978   7.111  0.3766 -1.5251  0.1569
 2051SOL     OW17788   1.875   2.321   7.017 -0.5436 -0.1282 -0.1787
 2051SOL    HW117789   1.955   2.274   6.996  1.7312  2.8614  1.8027
 2051SOL    HW217790   1.817   2.286   6.949 -1.8125 -0.8623  1.2587
 2052SOL     OW17791   0.726   1.167   6.770  0.0504 -0.2881  0.2572
 2052SOL    HW117792   0.681   1.132   6.847 -0.8111 -0.8534 -0.4976
 2052SOL    HW217793   0.669   1.127   6.704 -0.7182  0.0721  0.6969
 2053SOL     OW17794   3.642   0.350   6.032 -0.5285  0.1649 -0.0840
 2053SOL    HW117795   3.548   0.346   6.053 -0.3122 -1.6531  0.5606
 2053SOL    HW217796   3.643   0.308   5.946  1.4733 -0.7206  0.3898
 2054SOL     OW17797   2.898   2.992   2.853  0.4141  0.1074 -0.0773
 2054SOL    HW117798   2.993   2.994   2.865  0.4589 -1.6814 -0.1160
 2054SOL    HW217799   2.882   2.911   2.901 -1.3786 -0.9327 -2.4290
 2055SOL     OW17800   3.881   4.124   3.870 -0.0377 -0.2636  0.2345
 2055SOL    HW117801   3.899   4.207   3.825 -1.8636  0.1396  0.2197
 2055SOL    HW217802   3.964   4.129   3.916  0.9160  0.6545 -1.5684
 2056SOL     OW17803   1.611   3.629   3.453  0.3463 -0.2806 -0.4756
 2056SOL    HW117804   1.695   3.672   3.469 -0.3569  1.2684 -0.8906
 2056SOL    HW217805   1.597   3.569   3.526 -0.7993  1.1761  0.5008
 2057SOL     OW17806   0.749   2.951   4.242  0.1291 -0.2099 -0.1093
 2057SOL    HW117807   0.660   2.915   4.246 -0.1318  0.4511 -0.0126
 2057SOL    HW217808   0.793   2.870   4.268 -1.2199 -0.8269  0.2858
 2058SOL     OW17809   2.008   4.512   7.340 -0.0793  0.9314 -0.3739
 2058SOL    HW117810   2.009   4.603   7.310  1.4417  0.9233 -0.3421
 2058SOL    HW217811   1.921   4.506   7.378  0.1901  0.0423  0.0930
 2059SOL     OW17812   1.435   4.465  16.479 -0.5473  0.4051  0.2640
 2059SOL    HW117813   1.384   4.409  16.420  1.6038 -1.3073  0.0382
 2059SOL    HW217814   1.410   4.556  16.461 -0.6133  1.1767  4.2780
 2060SOL     OW17815   3.216   4.477   9.188  0.3436  0.2582  0.3564
 2060SOL    HW117816   3.240   4.570   9.186  1.5640 -0.0926 -1.5953
 2060SOL    HW217817   3.287   4.450   9.130  1.3474  0.4528  1.4843
 2061SOL     OW17818   2.503   3.465  13.754  0.6152  1.2173  0.3061
 2061SOL    HW117819   2.413   3.495  13.763  0.6529  1.0883  1.1174
 2061SOL    HW217820   2.553   3.519  13.815  0.7673  0.6859  0.6497
 2062SOL     OW17821   3.447   2.275  15.990 -0.1647 -0.2066  0.0499
 2062SOL    HW117822   3.469   2.284  15.897 -1.3611 -1.9664 -0.4072
 2062SOL    HW217823   3.443   2.368  16.012  1.2426 -0.1018 -0.1288
 2063SOL     OW17824   3.073   1.950   5.580 -0.6913 -0.4396 -0.0099
 2063SOL    HW117825   3.063   1.937   5.675 -0.4785 -1.3066 -0.1033
 2063SOL    HW217826   3.150   1.897   5.563 -0.7145  0.0640 -1.6272
 2064SOL     OW17827   2.864   3.232  14.410  0.0245 -0.2643  0.0909
 2064SOL    HW117828   2.913   3.301  14.455 -0.4217  1.8547 -2.6279
 2064SOL    HW217829   2.903   3.157  14.455  2.9832  0.5159 -1.1867
 2065SOL     OW17830   4.120   3.669  10.714 -0.2333  0.1623 -0.0619
 2065SOL    HW117831   4.155   3.742  10.766 -0.9805  0.0354  0.6095
 2065SOL    HW217832   4.099   3.617  10.791  0.6689 -0.1291 -0.0157
 2066SOL     OW17833   2.563   0.650   4.872  0.2042  0.1369 -0.6629
 2066SOL    HW117834   2.569   0.720   4.807  0.9562  0.8658  0.2113
 2066SOL    HW217835   2.492   0.683   4.927  1.3962  1.1167  0.2910
 2067SOL     OW17836   0.729   0.321  12.554 -0.0314 -0.2317  0.2125
 2067SOL    HW117837   0.698   0.325  12.464  0.0834 -1.8991  0.0933
 2067SOL    HW217838   0.809   0.269  12.552 -0.6392 -1.1823  0.4675
 2068SOL     OW17839   0.929   1.127   8.252 -0.6626  0.1868 -0.1595
 2068SOL    HW117840   1.022   1.152   8.251  0.0805 -2.5249  0.2823
 2068SOL    HW217841   0.907   1.129   8.159  0.8579 -1.0072 -0.5479
 2069SOL     OW17842   3.157   0.734   8.720 -0.6239 -0.1563 -0.0362
 2069SOL    HW117843   3.182   0.826   8.712 -0.1284 -0.4001 -1.2685
 2069SOL    HW217844   3.228   0.708   8.661 -0.5796 -1.6935  0.6906
 2070SOL     OW17845   4.325   2.592   3.763 -0.4196  0.1801 -0.2365
 2070SOL    HW117846   4.329   2.687   3.750  1.0594  0.3290  1.3733
 2070SOL    HW217847   4.364   2.588   3.850 -3.0649  1.0370  0.9886
 2071SOL     OW17848   4.610   1.814   6.636 -0.8836  0.1719 -0.7303
 2071SOL    HW117849   4.557   1.852   6.566 -1.1756  0.6163 -0.2714
 2071SOL    HW217850   4.634   1.894   6.683 -0.1962 -0.5440  0.1228
 2072SOL     OW17851   2.931   3.526   4.147 -0.4561 -0.4398  0.4911
 2072SOL    HW117852   2.932   3.599   4.085  1.9190  0.5146  1.6411
 2072SOL    HW217853   2.996   3.554   4.211  0.8641  1.4139 -1.6611
 2073SOL     OW17854   3.365   1.205   8.511 -0.3141 -0.1741 -0.1491
 2073SOL    HW117855   3.324   1.193   8.425 -0.5967 -0.7246  0.0655
 2073SOL    HW217856   3.308   1.267   8.556  1.0135 -0.2240  1.5818
 2074SOL     OW17857   3.620   4.126  17.336 -0.2716  0.2876 -0.0692
 2074SOL    HW117858   3.577   4.163  17.259  1.4838 -1.0533 -1.7059
 2074SOL    HW217859   3.693   4.073  17.302  0.3711  1.0910  0.0428
 2075SOL     OW17860   0.224   1.759   7.609  0.2817  0.2532 -0.1094
 2075SOL    HW117861   0.185   1.679   7.574 -0.2863 -0.5480  2.3891
 2075SOL    HW217862   0.195   1.826   7.547 -1.1278 -0.5867 -0.3483
 2076SOL     OW17863   3.600   1.156   8.107  0.3502 -0.1630 -0.0356
 2076SOL    HW117864   3.522   1.208   8.084 -0.0836 -0.7646  0.0738
 2076SOL    HW217865   3.555   1.072   8.118  2.2323 -1.0687  0.6404
 2077SOL     OW17866   4.401   2.630   6.084 -0.6770  0.4915 -0.0734
 2077SOL    HW117867   4.381   2.711   6.131  1.8251  1.1363 -0.1380
 2077SOL    HW217868   4.471   2.647   6.022 -0.1435  0.0728  0.4091
 2078SOL     OW17869   1.106   2.170   4.484  0.9031  0.6023  0.1360
 2078SOL    HW117870   1.160   2.196   4.409 -2.0303 -0.7872 -2.4448
 2078SOL    HW217871   1.145   2.224   4.554  0.5010  1.5116 -0.3389
 2079SOL     OW17872   0.126   4.310  16.582 -0.7148 -0.3699 -0.8168
 2079SOL    HW117873   0.127   4.356  16.499 -0.3976 -0.4898 -0.8759
 2079SOL    HW217874   0.041   4.335  16.619  0.2639 -1.7062  2.3081
 2080SOL     OW17875   1.875   3.620   4.935  0.7095 -0.5197  0.5223
 2080SOL    HW117876   1.849   3.594   5.023  0.7913 -1.6176  0.2264
 2080SOL    HW217877   1.942   3.686   4.946 -0.6710  0.8306  0.8462
 2081SOL     OW17878   1.017   1.259   8.576 -0.3268  0.1348  0.1425
 2081SOL    HW117879   0.964   1.184   8.600 -0.6333  0.8455  1.6913
 2081SOL    HW217880   0.976   1.291   8.495 -0.2995  0.8135  0.3914
 2082SOL     OW17881   0.067   3.937   4.701 -0.6515  0.5488  0.1040
 2082SOL    HW117882   0.107   3.969   4.620 -1.1613  1.0808  0.0691
 2082SOL    HW217883   4.724   3.984   4.696 -1.2287 -0.4152  0.6776
 2083SOL     OW17884   4.625   1.090   0.513 -0.1473  0.1550  0.2534
 2083SOL    HW117885   4.695   1.143   0.477 -0.1522 -1.1686 -1.7067
 2083SOL    HW217886   4.634   1.005   0.469 -0.1096 -0.2157  0.9734
 2084SOL     OW17887   1.411   3.108   7.511 -0.7090  0.2106  0.5876
 2084SOL    HW117888   1.334   3.123   7.566 -1.1558 -0.7872  0.2341
 2084SOL    HW217889   1.475   3.129   7.579 -0.6425  2.6717 -0.2365
 2085SOL     OW17890   2.637   2.548   3.430 -0.2880 -0.0067  0.2132
 2085SOL    HW117891   2.565   2.489   3.453 -1.4490  0.8162 -1.2739
 2085SOL    HW217892   2.630   2.618   3.496 -2.6820 -0.2363  0.2216
 2086SOL     OW17893   3.070   4.032   2.453  0.1758 -0.2689  0.3498
 2086SOL    HW117894   3.038   4.056   2.366  0.3829  0.9121  0.5897
 2086SOL    HW217895   3.128   3.960   2.429  0.1365  0.0018 -0.5515
 2087SOL     OW17896   4.103   2.665  11.460  0.1817 -0.2010  0.6827
 2087SOL    HW117897   4.098   2.760  11.461 -2.2568 -0.3290 -0.3728
 2087SOL    HW217898   4.148   2.653  11.377  1.1252  1.8530  0.9175
 2088SOL     OW17899   3.101   4.369   4.033 -0.5061  0.1880  0.0450
 2088SOL    HW117900   3.155   4.320   4.095  0.1031  1.8797  0.8566
 2088SOL    HW217901   3.167   4.412   3.979 -0.8388 -0.9200 -1.2350
 2089SOL     OW17902   3.125   3.395  12.550  0.1754 -0.4012 -0.8031
 2089SOL    HW117903   3.049   3.440  12.588 -0.4458 -2.6939  0.6583
 2089SOL    HW217904   3.081   3.312  12.533  0.7917 -1.4469  2.5762
 2090SOL     OW17905   0.228   4.427  17.172 -0.0382  0.4316  0.0526
 2090SOL    HW117906   0.250   4.362  17.238  1.0380  0.2782 -0.4618
 2090SOL    HW217907   0.176   4.492  17.219 -0.7971  1.8901 -2.7978
 2091SOL     OW17908   3.224   1.672  15.324 -0.0191 -0.1262  0.1735
 2091SOL    HW117909   3.193   1.701  15.238 -0.0118  2.2453  0.9807
 2091SOL    HW217910   3.286   1.741  15.349 -0.3256  0.6220 -1.1398
 2092SOL     OW17911   2.813   0.190   3.624  0.0290  0.2113  0.6426
 2092SOL    HW117912   2.799   0.267   3.679 -0.9625 -0.8171  1.8108
 2092SOL    HW217913   2.887   0.222   3.572 -0.2673  0.4258  0.3539
 2093SOL     OW17914   3.123   0.124   4.649 -0.0934  0.0406  0.1671
 2093SOL    HW117915   3.065   0.127   4.724  1.8335  1.6221  1.5821
 2093SOL    HW217916   3.120   0.029   4.637  0.6028  0.3105 -2.2946
 2094SOL     OW17917   4.107   2.620   5.739  0.0820  0.6183 -0.6238
 2094SOL    HW117918   4.156   2.701   5.751 -0.5950  0.5414  2.6588
 2094SOL    HW217919   4.144   2.564   5.808 -3.3190 -0.3234  0.4522
 2095SOL     OW17920   4.238   2.966  14.876  0.4974 -0.0313  0.3948
 2095SOL    HW117921   4.269   3.031  14.939 -0.9464  0.3776  0.6886
 2095SOL    HW217922   4.219   3.025  14.803 -1.9233 -0.0220  1.0278
 2096SOL     OW17923   1.224   0.528   2.219 -0.4193  0.0394  0.2112
 2096SOL    HW117924   1.313   0.527   2.184  0.0919  1.7741  1.4386
 2096SOL    HW217925   1.229   0.589   2.292  0.1210 -0.9587  1.0161
 2097SOL     OW17926   0.340   2.105   4.393 -0.3938 -0.0166  0.2411
 2097SOL    HW117927   0.403   2.171   4.422  0.8280  0.0285 -2.5854
 2097SOL    HW217928   0.253   2.145   4.395 -0.6346 -0.4901 -1.2724
 2098SOL     OW17929   1.611   3.164   7.339 -0.2513  0.2235  0.1556
 2098SOL    HW117930   1.686   3.174   7.397  0.0066  0.1384 -0.1646
 2098SOL    HW217931   1.541   3.155   7.404 -0.8525 -1.6168 -0.7509
 2099SOL     OW17932   3.617   1.688  14.923 -0.6105 -0.6660  0.0551
 2099SOL    HW117933   3.615   1.598  14.958 -0.3263  0.3269  2.6304
 2099SOL    HW217934   3.702   1.699  14.881 -0.5260 -2.1808 -0.1956
 2100SOL     OW17935   0.174   3.946  11.450 -0.1874 -0.7675 -0.1495
 2100SOL    HW117936   0.204   3.991  11.372  0.0126 -0.4392  0.1178
 2100SOL    HW217937   0.186   4.011  11.519  1.2208 -0.9797 -0.1950
 2101SOL     OW17938   2.057   4.648   6.658  0.0393 -0.0232 -0.3520
 2101SOL    HW117939   2.132   4.588   6.649  0.3407  0.1543  1.0369
 2101SOL    HW217940   1.992   4.594   6.703 -0.6075  0.9165 -0.1572
 2102SOL     OW17941   1.727   0.343  13.890  0.1756 -0.6288  0.1471
 2102SOL    HW117942   1.731   0.356  13.796  1.3655 -0.9174  0.1531
 2102SOL    HW217943   1.732   0.436  13.911 -0.4953 -0.1946 -1.6703
 2103SOL     OW17944   3.300   3.372  12.755  0.6204 -0.4218 -0.6649
 2103SOL    HW117945   3.379   3.422  12.731  0.5716 -0.2064 -0.3755
 2103SOL    HW217946   3.243   3.396  12.681  1.2409  0.1917 -0.9508
 2104SOL     OW17947   2.107   2.975   8.031  0.7258 -0.6196 -0.2627
 2104SOL    HW117948   2.061   2.981   8.114  1.7116  0.5757  0.1929
 2104SOL    HW217949   2.041   2.922   7.986  0.0515 -1.9816  2.3555
 2105SOL     OW17950   2.910   3.712  11.710  0.3881  0.5019 -0.6283
 2105SOL    HW117951   2.844   3.773  11.677  1.3174  1.4141 -0.7793
 2105SOL    HW217952   2.970   3.773  11.752 -0.0413  1.5139 -1.5033
 2106SOL     OW17953   0.857   4.434  10.176 -0.1321 -0.3076 -0.1477
 2106SOL    HW117954   0.804   4.354  10.167  0.8774 -0.9860 -0.0458
 2106SOL    HW217955   0.947   4.407  10.193  0.3548  0.9326 -0.7629
 2107SOL     OW17956   2.526   3.195   2.873  0.5249 -0.3067 -0.0685
 2107SOL    HW117957   2.441   3.240   2.878  1.4879  1.4443  0.6649
 2107SOL    HW217958   2.495   3.109   2.847  2.3268 -0.6783 -0.9839
 2108SOL     OW17959   3.681   0.973  13.388 -0.3763  0.0089 -0.6771
 2108SOL    HW117960   3.616   0.936  13.449  0.7239 -2.1455 -0.7958
 2108SOL    HW217961   3.694   1.061  13.424  1.2779 -0.1135 -0.9865
 2109SOL     OW17962   2.724   3.316   0.582 -0.4034  1.0381  0.2271
 2109SOL    HW117963   2.691   3.277   0.501 -2.3008  2.2218  0.4557
 2109SOL    HW217964   2.744   3.235   0.631 -0.9882  0.0518 -1.1726
 2110SOL     OW17965   4.016   0.918   4.816  0.2796 -0.2950  0.0181
 2110SOL    HW117966   3.981   0.848   4.871  0.0459  0.7906  1.2340
 2110SOL    HW217967   3.957   0.991   4.833 -1.4552 -1.7389  0.1217
 2111SOL     OW17968   2.966   4.610   7.004  0.4294 -0.3643 -0.2040
 2111SOL    HW117969   2.955   4.705   7.002 -1.4274 -0.5738  0.0351
 2111SOL    HW217970   3.030   4.607   7.075  0.7638  0.3809 -0.4779
 2112SOL     OW17971   2.967   2.171   6.099  0.0887 -0.0924  0.6196
 2112SOL    HW117972   2.918   2.175   6.182 -0.8464 -0.7298  0.0941
 2112SOL    HW217973   3.039   2.116   6.129  0.5776  0.4281  0.3853
 2113SOL     OW17974   0.646   0.406  17.509  0.3487 -0.6744 -0.1247
 2113SOL    HW117975   0.645   0.327  17.562 -0.6142 -1.2556 -1.0231
 2113SOL    HW217976   0.653   0.360  17.426  0.9701 -0.4492 -0.2008
 2114SOL     OW17977   4.522   0.035   7.901  0.5591  0.0439 -0.3377
 2114SOL    HW117978   4.494   0.081   7.822  0.7206  1.0161  0.1661
 2114SOL    HW217979   4.450   0.038   7.964  0.8698 -1.1538  0.0753
 2115SOL     OW17980   0.331   4.406   3.269  0.4352  0.0210 -0.4030
 2115SOL    HW117981   0.247   4.360   3.267  0.7969 -0.5446 -2.1487
 2115SOL    HW217982   0.327   4.442   3.358 -1.4457 -0.1502 -0.4266
 2116SOL     OW17983   4.344   1.365   1.012  0.5355 -0.3122 -0.3344
 2116SOL    HW117984   4.294   1.435   1.053 -0.5872 -0.3793 -1.6150
 2116SOL    HW217985   4.433   1.398   1.027  0.3307  0.3502 -0.6022
 2117SOL     OW17986   4.258   1.726   9.586 -0.2734 -0.4700  0.3324
 2117SOL    HW117987   4.212   1.671   9.649 -2.2528 -0.3927 -1.0423
 2117SOL    HW217988   4.294   1.660   9.527 -0.0531 -0.5490  0.5565
 2118SOL     OW17989   2.356   0.739   3.355 -0.3012 -0.0342 -0.6243
 2118SOL    HW117990   2.394   0.814   3.401  0.0519 -1.0044  0.6381
 2118SOL    HW217991   2.273   0.732   3.401  0.9658  0.5300  1.7280
 2119SOL     OW17992   4.619   2.853   3.500 -0.0316  0.8824  0.0470
 2119SOL    HW117993   4.674   2.918   3.544  1.3065 -1.1902  1.3883
 2119SOL    HW217994   4.644   2.874   3.410  0.5727  0.5677  0.1431
 2120SOL     OW17995   2.148   3.580   1.572 -0.5280 -0.1437  0.1125
 2120SOL    HW117996   2.100   3.635   1.510 -0.6790  0.8169  1.0856
 2120SOL    HW217997   2.241   3.591   1.554 -0.2807 -3.6551 -0.7406
 2121SOL     OW17998   3.242   1.369   4.250 -0.2999  0.5855 -0.1144
 2121SOL    HW117999   3.326   1.329   4.225 -0.3555 -0.7129  1.7993
 2121SOL    HW218000   3.191   1.323   4.182 -0.7300 -0.3504  0.8430
 2122SOL     OW18001   3.371   2.515   4.771 -0.3114 -0.0283  0.1797
 2122SOL    HW118002   3.403   2.475   4.852 -0.5512  0.1476  0.3611
 2122SOL    HW218003   3.412   2.602   4.774 -1.9227  0.7112  0.5185
 2123SOL     OW18004   1.718   3.357  10.135  0.0431 -0.4205  0.2244
 2123SOL    HW118005   1.717   3.419  10.209  0.8838 -2.4494  1.9313
 2123SOL    HW218006   1.813   3.349  10.129  0.2920  1.8613  0.9463
 2124SOL     OW18007   4.286   3.521   3.586 -0.5882  0.1885 -0.4644
 2124SOL    HW118008   4.238   3.468   3.650  1.1480 -0.1027  0.6044
 2124SOL    HW218009   4.375   3.499   3.614 -0.2358  0.4781 -1.3482
 2125SOL     OW18010   1.653   3.208   8.099 -0.3074  0.3977  0.1186
 2125SOL    HW118011   1.670   3.188   8.006  0.0333 -0.3739  0.3480
 2125SOL    HW218012   1.605   3.290   8.086  0.6483  0.5318 -2.7085
 2126SOL     OW18013   0.946   2.859   6.088  0.1267 -0.5704  0.7220
 2126SOL    HW118014   1.006   2.870   6.015 -0.8056 -0.6269 -0.0530
 2126SOL    HW218015   0.976   2.771   6.112  2.5095 -0.1436 -0.6871
 2127SOL     OW18016   2.112   2.661   1.655 -0.4297 -0.3076 -0.3186
 2127SOL    HW118017   2.087   2.626   1.741  0.5071 -0.3929 -0.0831
 2127SOL    HW218018   2.193   2.613   1.638 -0.2912 -0.3869  0.5219
 2128SOL     OW18019   3.350   0.496   3.484 -0.0317  0.2614  0.3326
 2128SOL    HW118020   3.385   0.456   3.563  3.2352  0.9767 -0.7524
 2128SOL    HW218021   3.297   0.428   3.444  0.0559 -0.5391  1.5943
 2129SOL     OW18022   0.136   0.200   7.278 -0.0262 -0.0334  0.0028
 2129SOL    HW118023   0.193   0.148   7.222 -1.2050 -1.8160  0.4809
 2129SOL    HW218024   0.095   0.260   7.215 -0.4991 -0.6674 -0.2935
 2130SOL     OW18025   2.737   0.459   4.119  0.4049  0.3653  0.4272
 2130SOL    HW118026   2.693   0.421   4.195  1.8796 -2.1857  0.0114
 2130SOL    HW218027   2.790   0.517   4.174 -0.7838  0.6547  1.2627
 2131SOL     OW18028   4.029   0.798   4.567 -0.1214  0.3220 -0.9974
 2131SOL    HW118029   4.008   0.847   4.647 -1.7004 -1.6298 -0.2144
 2131SOL    HW218030   4.015   0.863   4.498  0.7110  1.2246 -0.3191
 2132SOL     OW18031   4.557   3.062   5.403 -0.1841 -0.0612  0.2586
 2132SOL    HW118032   4.488   2.997   5.413  1.4323 -1.6106  1.2180
 2132SOL    HW218033   4.541   3.105   5.487  0.8074  2.2376 -0.7221
 2133SOL     OW18034   2.408   3.722   7.995  0.3841  0.4666  0.0555
 2133SOL    HW118035   2.391   3.633   7.963 -0.0396  1.1487 -1.6164
 2133SOL    HW218036   2.469   3.694   8.063  0.6448  1.0683  0.0711
 2134SOL     OW18037   2.275   0.760  12.982  0.4998  0.2393  0.3982
 2134SOL    HW118038   2.251   0.689  12.922  1.5512 -1.5614  2.0963
 2134SOL    HW218039   2.199   0.816  12.995 -0.7056 -1.7310  1.7744
 2135SOL     OW18040   2.318   3.248   0.642  0.1792 -0.2662  0.3900
 2135SOL    HW118041   2.316   3.250   0.546 -0.8834  0.9113  0.4407
 2135SOL    HW218042   2.329   3.154   0.657  1.2271 -0.1212  0.5038
 2136SOL     OW18043   4.539   3.142   9.083  0.7430 -0.2406  0.1065
 2136SOL    HW118044   4.479   3.211   9.113  0.7915  0.5712 -1.6944
 2136SOL    HW218045   4.498   3.133   8.997 -1.8144  3.2084  0.9598
 2137SOL     OW18046   0.091   4.226   2.179  0.5688  0.0677  0.5819
 2137SOL    HW118047   0.102   4.131   2.177  0.3377  0.0639 -0.6952
 2137SOL    HW218048   0.049   4.231   2.093  2.1844  1.7880 -0.1227
 2138SOL     OW18049   0.093   1.595  16.641  0.7845 -0.3233  0.3032
 2138SOL    HW118050   0.139   1.656  16.583  0.0564  0.5573  0.6576
 2138SOL    HW218051   0.085   1.531  16.569  1.1135 -1.1732  1.0256
 2139SOL     OW18052   0.629   0.943   7.381 -0.0442  0.0406  0.0570
 2139SOL    HW118053   0.694   0.979   7.442 -1.4074  0.6331  1.1495
 2139SOL    HW218054   0.555   0.943   7.441  1.1116  2.6016  1.5125
 2140SOL     OW18055   1.693   3.968   9.471 -0.0874 -0.1287  0.0428
 2140SOL    HW118056   1.638   3.934   9.400 -2.4174 -0.8206  2.1968
 2140SOL    HW218057   1.642   3.947   9.550 -0.5106 -0.4205 -0.3071
 2141SOL     OW18058   3.958   0.369   3.375 -0.8456 -0.5807  0.2668
 2141SOL    HW118059   3.995   0.310   3.309 -3.5162  0.2571 -2.0032
 2141SOL    HW218060   3.886   0.408   3.325 -0.3323 -0.9033 -0.7158
 2142SOL     OW18061   4.489   2.770   1.208 -0.1885 -0.2569  1.4593
 2142SOL    HW118062   4.416   2.794   1.151  0.0467  2.1821  2.1990
 2142SOL    HW218063   4.521   2.859   1.222  0.1491 -0.1321 -0.0823
 2143SOL     OW18064   4.283   3.608  16.043  0.5703  0.1727 -0.2503
 2143SOL    HW118065   4.310   3.686  15.994  0.2811  1.1706  1.1858
 2143SOL    HW218066   4.214   3.649  16.095  2.7026  0.0766  2.6209
 2144SOL     OW18067   4.049   2.469   4.449 -0.2888 -0.0721 -0.3514
 2144SOL    HW118068   4.012   2.550   4.484  2.0935  0.3748  1.0943
 2144SOL    HW218069   4.013   2.410   4.516 -2.0971  1.2217 -0.1832
 2145SOL     OW18070   4.078   0.653   2.552  0.0794 -0.0782 -0.4672
 2145SOL    HW118071   4.022   0.669   2.475  0.6455  1.8453 -0.4794
 2145SOL    HW218072   4.152   0.603   2.518 -0.7570  0.3442 -2.9631
 2146SOL     OW18073   3.115   2.580   8.149  0.0470  0.5241 -0.3859
 2146SOL    HW118074   3.075   2.606   8.233  0.6452 -0.5425  0.2305
 2146SOL    HW218075   3.034   2.577   8.098 -1.0517 -1.8270  1.4509
 2147SOL     OW18076   0.826   4.663   4.138 -0.2850  0.4385  0.0711
 2147SOL    HW118077   0.888   4.644   4.068 -0.2400 -1.4457  0.6229
 2147SOL    HW218078   0.845   0.012   4.170 -2.5659  0.4316  1.5047
 2148SOL     OW18079   2.796   2.923   6.380 -0.2888  0.2394  0.3173
 2148SOL    HW118080   2.716   2.899   6.333 -0.3665  0.9547  0.0745
 2148SOL    HW218081   2.806   2.843   6.431 -0.7960 -0.1949 -0.2602
 2149SOL     OW18082   3.903   1.164   8.147 -0.3592  0.2903 -0.1605
 2149SOL    HW118083   3.819   1.175   8.103  0.7882  0.2142 -2.3305
 2149SOL    HW218084   3.961   1.156   8.071  1.2952  1.8043  0.9517
 2150SOL     OW18085   0.397   4.433   5.522  0.5096  0.7918  0.3249
 2150SOL    HW118086   0.340   4.356   5.520  2.4176 -0.6323  0.4392
 2150SOL    HW218087   0.335   4.506   5.518 -1.6673 -1.1226 -0.7481
 2151SOL     OW18088   2.234   0.769   1.320 -0.2799  0.3318 -0.1905
 2151SOL    HW118089   2.247   0.707   1.248  0.4743 -0.0971  0.3093
 2151SOL    HW218090   2.160   0.817   1.285  0.0487 -1.4726 -3.3711
 2152SOL     OW18091   1.657   3.337   2.588  0.0316  0.3890  0.4320
 2152SOL    HW118092   1.572   3.325   2.630  0.1176 -0.1469  0.4563
 2152SOL    HW218093   1.694   3.388   2.660  0.2959  0.7551  0.0364
 2153SOL     OW18094   2.091   1.763   7.351 -0.7019  0.0355  0.2641
 2153SOL    HW118095   2.025   1.820   7.390 -1.0048  0.5574 -1.0069
 2153SOL    HW218096   2.084   1.681   7.400 -1.1748 -0.7178 -1.0668
 2154SOL     OW18097   0.122   3.047   1.849 -0.4146 -0.1027 -0.1659
 2154SOL    HW118098   0.141   3.140   1.855  0.7950 -0.3613  0.0897
 2154SOL    HW218099   0.177   3.010   1.780  0.2696 -0.7270  0.7152
 2155SOL     OW18100   2.939   2.922  16.396 -0.5630 -0.7043 -0.6083
 2155SOL    HW118101   2.904   2.841  16.360 -1.1376 -2.0065  2.9177
 2155SOL    HW218102   2.919   2.991  16.332 -2.0643  0.0103  0.6355
 2156SOL     OW18103   0.451   0.971   3.726 -0.1503  0.0386 -0.4805
 2156SOL    HW118104   0.444   1.061   3.757  1.8776  0.0834 -0.1718
 2156SOL    HW218105   0.366   0.966   3.682 -0.2365 -0.4533 -0.2502
 2157SOL     OW18106   0.765   2.624   3.801  0.3563 -0.2237  0.0287
 2157SOL    HW118107   0.748   2.704   3.850  0.0788 -2.3106  3.3313
 2157SOL    HW218108   0.690   2.566   3.814  1.7161 -1.9506  0.1262
 2158SOL     OW18109   0.563   4.383   5.893 -0.1778 -0.1588 -0.0938
 2158SOL    HW118110   0.586   4.328   5.969  0.7095 -0.2064 -0.3934
 2158SOL    HW218111   0.556   4.469   5.933 -1.6338 -1.2313  1.9642
 2159SOL     OW18112   3.136   0.376   8.344  0.1129 -0.1048 -0.4918
 2159SOL    HW118113   3.099   0.464   8.336 -0.9967 -0.6135 -0.9375
 2159SOL    HW218114   3.076   0.323   8.396  0.0115  0.0680 -0.4355
 2160SOL     OW18115   1.209   1.224   8.207  0.1368  1.0164  0.1878
 2160SOL    HW118116   1.231   1.209   8.299 -1.4248 -1.0423  0.2205
 2160SOL    HW218117   1.262   1.162   8.156  1.3046  0.8988  1.5631
 2161SOL     OW18118   2.848   3.609  12.150 -0.5930 -0.6846  0.5337
 2161SOL    HW118119   2.820   3.544  12.085 -0.2458 -0.1010 -0.1999
 2161SOL    HW218120   2.940   3.583  12.163 -0.5331  0.9735  3.4512
 2162SOL     OW18121   0.869   0.563   3.586  0.6303 -0.8549 -0.2290
 2162SOL    HW118122   0.868   0.658   3.595 -0.7028 -0.8737 -0.1415
 2162SOL    HW218123   0.836   0.540   3.673 -0.7873  2.5432  0.1559
 2163SOL     OW18124   0.172   2.149   2.274 -0.0965 -0.0990 -0.0557
 2163SOL    HW118125   0.128   2.093   2.338  0.0738  2.0356  1.9359
 2163SOL    HW218126   0.141   2.230   2.314  0.1713 -0.9210  1.8158
 2164SOL     OW18127   2.502   3.099   5.212  0.2074 -0.2120  0.4793
 2164SOL    HW118128   2.486   3.115   5.305  0.9005 -0.8639  0.7122
 2164SOL    HW218129   2.412   3.080   5.189  0.0095 -0.0577  1.1066
 2165SOL     OW18130   2.813   3.839   9.632 -0.3696  0.3578  0.7411
 2165SOL    HW118131   2.736   3.879   9.672 -1.4921 -0.8231 -0.2297
 2165SOL    HW218132   2.869   3.914   9.614  0.0298 -0.2083 -0.3570
 2166SOL     OW18133   0.493   2.764   5.526 -0.2570 -0.1310 -0.1348
 2166SOL    HW118134   0.425   2.831   5.518 -1.3563 -1.1416  0.7227
 2166SOL    HW218135   0.570   2.821   5.523 -1.0826  0.9198 -1.4331
 2167SOL     OW18136   4.169   0.805   7.452  0.0092 -0.6582 -0.3606
 2167SOL    HW118137   4.115   0.726   7.445 -2.4123  0.9980 -0.4540
 2167SOL    HW218138   4.124   0.876   7.406  0.1169  0.2287  0.8840
 2168SOL     OW18139   1.170   1.795   1.100  0.4659 -0.2462  0.0172
 2168SOL    HW118140   1.190   1.861   1.034  0.6744 -1.5126 -1.2021
 2168SOL    HW218141   1.160   1.860   1.169  0.1357 -0.4140  0.1265
 2169SOL     OW18142   0.148   3.016   0.213 -0.2229  0.0191 -0.2295
 2169SOL    HW118143   0.053   3.010   0.203 -0.4239  3.5128 -0.4655
 2169SOL    HW218144   0.156   3.096   0.266 -0.3512  0.1519 -0.4089
 2170SOL     OW18145   1.875   3.191   4.157 -0.1689 -0.1103 -0.2028
 2170SOL    HW118146   1.946   3.131   4.132 -1.0895 -0.5647 -1.7025
 2170SOL    HW218147   1.809   3.126   4.182  0.8623 -0.5705  1.3112
 2171SOL     OW18148   0.298   1.741   1.292  0.2877  0.3210 -0.0318
 2171SOL    HW118149   0.378   1.744   1.239 -0.2526 -0.3331 -0.8897
 2171SOL    HW218150   0.323   1.673   1.355  0.3382 -0.5203 -0.9636
 2172SOL     OW18151   2.666   1.358   9.829 -0.3450  0.0595 -0.4072
 2172SOL    HW118152   2.737   1.365   9.893 -0.9617 -1.3159  0.4391
 2172SOL    HW218153   2.646   1.264   9.829 -2.3097  0.4850  0.2005
 2173SOL     OW18154   4.614   1.404  14.370  0.3069 -0.7281 -0.1701
 2173SOL    HW118155   4.621   1.499  14.364 -1.1305 -0.5878  0.4221
 2173SOL    HW218156   4.618   1.384  14.276  0.2246 -3.9007  0.4778
 2174SOL     OW18157   3.945   4.119  17.361 -0.0114  0.3969 -0.2557
 2174SOL    HW118158   3.989   4.199  17.332  0.1254  1.4195  2.7309
 2174SOL    HW218159   3.898   4.085  17.286 -0.6391 -2.1026  1.2687
 2175SOL     OW18160   2.328   3.650   3.272 -0.7154 -0.0908 -0.5672
 2175SOL    HW118161   2.344   3.576   3.331 -0.4874  1.2097  1.0154
 2175SOL    HW218162   2.340   3.719   3.337  2.4255 -0.7666 -0.4436
 2176SOL     OW18163   3.523   3.372   9.050 -0.8728  0.2935 -0.4494
 2176SOL    HW118164   3.538   3.362   8.956  1.6090  1.5719 -0.1903
 2176SOL    HW218165   3.456   3.439   9.062  0.2192  1.4113 -0.5048
 2177SOL     OW18166   3.267   1.425  15.446 -0.3899 -0.4502 -0.4623
 2177SOL    HW118167   3.312   1.394  15.367  0.5351  1.2298 -0.5963
 2177SOL    HW218168   3.247   1.512  15.409 -4.4136 -1.0104  0.3881
 2178SOL     OW18169   4.263   1.617   2.990 -0.5343  0.4925 -0.6129
 2178SOL    HW118170   4.201   1.622   3.063  0.2472  1.5344 -0.0251
 2178SOL    HW218171   4.233   1.534   2.951 -1.7964  0.9258 -0.5631
 2179SOL     OW18172   3.799   0.595  10.171  0.1838 -0.4001 -0.4095
 2179SOL    HW118173   3.836   0.682  10.159  1.4988 -0.8776  0.1674
 2179SOL    HW218174   3.816   0.579  10.264  1.1996  0.3124 -0.4726
 2180SOL     OW18175   0.362   0.931  15.929  0.4773  0.0302  0.4270
 2180SOL    HW118176   0.346   0.838  15.946  1.0260  0.1109  1.4029
 2180SOL    HW218177   0.373   0.918  15.835  0.8024 -1.7186  0.6920
 2181SOL     OW18178   4.740   1.449   7.751  0.3218 -0.0698 -0.4767
 2181SOL    HW118179   0.011   1.358   7.725  1.5043 -0.6557  2.0352
 2181SOL    HW218180   0.084   1.461   7.796 -0.4273  1.5270  0.5181
 2182SOL     OW18181   1.949   1.474  17.670  0.4347  0.3780  0.0633
 2182SOL    HW118182   1.988   1.423  17.599 -0.8931 -0.4634 -0.0686
 2182SOL    HW218183   1.872   1.423  17.697 -0.2122  0.3811 -1.7576
 2183SOL     OW18184   1.476   1.898   6.097  0.3550 -0.1848  0.3541
 2183SOL    HW118185   1.498   1.957   6.169  1.4352  0.0961 -0.2048
 2183SOL    HW218186   1.414   1.846   6.148  0.8889 -0.5069  0.6694
 2184SOL     OW18187   2.643   0.131   3.073 -0.1627 -0.1733 -0.2663
 2184SOL    HW118188   2.715   0.132   3.136 -1.0776  1.8034  0.7590
 2184SOL    HW218189   2.662   0.056   3.018 -2.2725 -1.4888  0.7799
 2185SOL     OW18190   0.827   1.110  13.330  0.1031 -0.0849  0.4330
 2185SOL    HW118191   0.878   1.030  13.340 -1.3691 -1.1569 -0.6040
 2185SOL    HW218192   0.894   1.167  13.291 -0.4707  1.8251  2.2149
 2186SOL     OW18193   3.806   2.895   4.109  0.4562  0.2343  0.7668
 2186SOL    HW118194   3.798   2.863   4.019 -0.2741  0.3948  0.7749
 2186SOL    HW218195   3.801   2.991   4.101  2.5575  0.2288 -0.4683
 2187SOL     OW18196   1.534   4.511   3.471 -0.4534 -0.7830 -0.5958
 2187SOL    HW118197   1.560   4.466   3.551  0.6370 -0.1211 -0.5873
 2187SOL    HW218198   1.568   4.450   3.406  0.2669 -0.0921 -0.8668
 2188SOL     OW18199   3.202   0.029  10.432 -0.4949 -0.4983  0.4612
 2188SOL    HW118200   3.114   0.058  10.457 -0.5565 -0.9316  0.7454
 2188SOL    HW218201   3.224   0.090  10.361  1.0945  0.6011  1.9114
 2189SOL     OW18202   4.337   3.156  11.670 -0.1219 -0.3449 -0.5198
 2189SOL    HW118203   4.334   3.184  11.579 -0.1273 -0.3632 -0.5251
 2189SOL    HW218204   4.259   3.101  11.675 -0.6695  0.5115  0.4471
 2190SOL     OW18205   1.874   1.149  13.216 -0.0922 -0.2814  0.0317
 2190SOL    HW118206   1.882   1.159  13.311  0.3292 -0.7055  0.0425
 2190SOL    HW218207   1.889   1.239  13.187  2.1197 -0.5323  0.4015
 2191SOL     OW18208   2.395   1.841   8.839  0.2830 -0.4077  0.8266
 2191SOL    HW118209   2.354   1.884   8.764  2.0471 -0.8970 -0.4276
 2191SOL    HW218210   2.381   1.903   8.910  0.7503 -1.2801  1.6828
 2192SOL     OW18211   1.251   0.318   5.445  0.2642  0.0577 -0.0297
 2192SOL    HW118212   1.327   0.376   5.432  2.7482 -2.4738  3.2696
 2192SOL    HW218213   1.286   0.236   5.410  2.3669  0.1899  1.7587
 2193SOL     OW18214   0.189   4.128  14.750 -0.0860  0.1716  0.1000
 2193SOL    HW118215   0.131   4.203  14.740  1.4048  1.2322 -0.6905
 2193SOL    HW218216   0.145   4.078  14.819  0.7043  0.2714  0.6905
 2194SOL     OW18217   4.417   1.043   4.671  0.2564  0.5906  0.6204
 2194SOL    HW118218   4.387   1.050   4.762 -2.2742  0.6287 -0.2195
 2194SOL    HW218219   4.330   1.036   4.632 -0.7365 -0.0027  2.8957
 2195SOL     OW18220   2.725   2.468  17.529 -0.4069 -0.7720 -0.0549
 2195SOL    HW118221   2.755   2.557  17.550 -0.0851 -0.9558  0.2652
 2195SOL    HW218222   2.800   2.409  17.528  0.2362  0.0306  0.4503
 2196SOL     OW18223   0.497   3.196   3.865  0.4641 -0.2289 -0.3234
 2196SOL    HW118224   0.582   3.229   3.838  0.3450 -0.0266 -0.4536
 2196SOL    HW218225   0.443   3.270   3.836 -0.3462 -1.0081 -0.8027
 2197SOL     OW18226   3.611   1.024   2.297 -0.2646 -0.1967 -0.3481
 2197SOL    HW118227   3.642   0.967   2.366  0.3790  0.5667  0.0004
 2197SOL    HW218228   3.574   1.090   2.356  0.6552 -0.3365  0.3852
 2198SOL     OW18229   1.951   4.014   6.210 -0.0371  0.1833  0.1214
 2198SOL    HW118230   1.885   4.047   6.271 -0.1244 -2.6350  1.5807
 2198SOL    HW218231   1.987   3.941   6.262  1.7627 -1.9255 -4.0649
 2199SOL     OW18232   1.237   4.333   5.500 -0.0531  0.6502  0.4311
 2199SOL    HW118233   1.218   4.300   5.412  1.4108 -2.4808  1.3155
 2199SOL    HW218234   1.296   4.264   5.530 -0.3899 -0.4718 -1.4606
 2200SOL     OW18235   3.656   0.530  17.386  0.5898  0.4073  0.4595
 2200SOL    HW118236   3.678   0.586  17.311  1.4767 -0.8704 -0.2413
 2200SOL    HW218237   3.735   0.479  17.402  0.8164  1.1122  1.5352
 2201SOL     OW18238   2.324   2.920   6.465  0.3183 -0.4702 -0.2489
 2201SOL    HW118239   2.356   2.941   6.552  2.0489 -1.2895 -0.6965
 2201SOL    HW218240   2.355   2.997   6.418 -1.3736  0.5943  0.4026
 2202SOL     OW18241   0.604   2.683   5.890 -0.2021 -0.1044  0.0237
 2202SOL    HW118242   0.639   2.595   5.877  0.5373  0.0848  0.7179
 2202SOL    HW218243   0.512   2.666   5.871 -0.6513  0.4377  1.7447
 2203SOL     OW18244   3.988   0.008   7.580 -0.1432 -0.0088 -0.1314
 2203SOL    HW118245   3.998   0.090   7.530 -3.4245  0.1141 -0.5982
 2203SOL    HW218246   3.907   4.710   7.546 -0.7228  0.9790  0.1447
 2204SOL     OW18247   1.533   4.126  17.696  0.1846 -0.4157 -0.5175
 2204SOL    HW118248   1.455   4.078  17.723  0.0660 -0.1681 -0.4216
 2204SOL    HW218249   1.517   4.151  17.605  1.1081  1.4702 -0.1703
 2205SOL     OW18250   1.499   3.141   1.139  0.1647 -0.0058  0.4484
 2205SOL    HW118251   1.505   3.144   1.235  0.0453  2.0211  0.3805
 2205SOL    HW218252   1.550   3.061   1.124  2.2057  1.6216 -1.2201
 2206SOL     OW18253   1.201   1.873   7.857  0.4240  0.1284 -0.2139
 2206SOL    HW118254   1.117   1.895   7.898  1.1460 -0.5915  1.6259
 2206SOL    HW218255   1.167   1.836   7.775 -0.4142 -2.9009  1.5110
 2207SOL     OW18256   3.386   1.353   9.677  0.2272 -0.7133  0.3424
 2207SOL    HW118257   3.444   1.276   9.679 -1.1757 -1.7493  0.7354
 2207SOL    HW218258   3.418   1.383   9.762  1.6582 -1.7122  0.1739
 2208SOL     OW18259   0.514   3.957   3.844 -0.2678  0.3439 -0.3566
 2208SOL    HW118260   0.528   3.987   3.934 -0.6200 -2.0833  0.5122
 2208SOL    HW218261   0.464   3.877   3.861  1.1789  0.0156  2.3850
 2209SOL     OW18262   2.314   2.203   2.641 -0.6636  0.2208 -0.6555
 2209SOL    HW118263   2.314   2.126   2.584  1.6033 -0.5964  0.4389
 2209SOL    HW218264   2.269   2.163   2.716 -1.6278 -1.8565 -2.3370
 2210SOL     OW18265   2.848   4.040   4.886 -0.2190  0.0659  0.0231
 2210SOL    HW118266   2.852   4.006   4.796 -2.6992  1.8128 -0.7529
 2210SOL    HW218267   2.803   3.961   4.917  0.2090  0.4260  1.5629
 2211SOL     OW18268   2.689   3.775   7.095  0.1799 -0.3478 -0.2432
 2211SOL    HW118269   2.643   3.784   7.179  0.4275  0.9503 -0.2428
 2211SOL    HW218270   2.639   3.707   7.049 -3.4166  1.9754  0.1822
 2212SOL     OW18271   2.449   2.098  10.119 -0.1932  0.4448 -0.0073
 2212SOL    HW118272   2.472   2.164  10.054 -0.1592 -1.4179 -1.8764
 2212SOL    HW218273   2.370   2.135  10.159  1.6878  1.3781  2.8216
 2213SOL     OW18274   1.525   4.510  14.881 -0.1379  0.1261 -1.1680
 2213SOL    HW118275   1.515   4.440  14.946  0.5453  0.2857 -0.8850
 2213SOL    HW218276   1.621   4.508  14.881 -0.1216  0.4772  0.3413
 2214SOL     OW18277   0.389   2.997   9.927  0.2142  0.9544  0.0036
 2214SOL    HW118278   0.455   3.053   9.968  1.3649  0.1287 -0.7100
 2214SOL    HW218279   0.314   3.020   9.983  0.3274  0.4587  0.3657
 2215SOL     OW18280   4.636   3.031   0.196 -0.6439  0.1086 -0.4116
 2215SOL    HW118281   4.554   3.061   0.235 -0.7074  1.0455 -1.2718
 2215SOL    HW218282   4.623   2.940   0.166  0.9938 -0.2159 -0.1421
 2216SOL     OW18283   2.518   0.795   6.506 -0.6617 -0.1535  0.1146
 2216SOL    HW118284   2.605   0.832   6.491 -1.2025  0.4157 -1.6406
 2216SOL    HW218285   2.517   0.805   6.601 -0.4132 -0.6413  0.1669
 2217SOL     OW18286   2.346   3.798  10.668  0.1145  0.4241 -0.1922
 2217SOL    HW118287   2.403   3.841  10.604 -0.9348  2.0630 -0.0336
 2217SOL    HW218288   2.405   3.818  10.741 -0.5341  0.2212  0.3850
 2218SOL     OW18289   1.468   2.111   1.013  0.6717  0.0091 -0.0977
 2218SOL    HW118290   1.525   2.088   0.940 -0.2160  0.5322 -0.9479
 2218SOL    HW218291   1.525   2.179   1.049  0.8562 -0.9696  1.4619
 2219SOL     OW18292   2.086   3.050   6.733  0.1812  0.0238 -0.2907
 2219SOL    HW118293   2.180   3.032   6.745  0.2067  0.9185  0.8742
 2219SOL    HW218294   2.050   2.963   6.750 -0.3319  0.3472  0.2877
 2220SOL     OW18295   4.300   2.899   4.131 -0.1013 -0.1494 -0.3930
 2220SOL    HW118296   4.272   2.962   4.065 -0.0015  0.1875 -0.1140
 2220SOL    HW218297   4.372   2.849   4.094 -2.2358 -3.5799  0.0466
 2221SOL     OW18298   1.635   4.284   7.521 -0.1172 -0.2188  0.6565
 2221SOL    HW118299   1.663   4.222   7.589  2.8929  0.5416  0.1228
 2221SOL    HW218300   1.592   4.351   7.574 -0.0708  0.6105 -0.3555
 2222SOL     OW18301   2.344   3.726   0.221 -0.1350 -0.0947  0.0065
 2222SOL    HW118302   2.390   3.708   0.303 -3.2469  2.3208  2.2370
 2222SOL    HW218303   2.259   3.751   0.258  0.9645  0.9512  1.8209
 2223SOL     OW18304   0.515   2.224   2.859  0.4386  0.6331 -0.2270
 2223SOL    HW118305   0.572   2.300   2.848  1.4889  0.2787  2.6407
 2223SOL    HW218306   0.556   2.185   2.936  0.1575 -0.6162 -0.7063
 2224SOL     OW18307   3.741   2.434   3.859  0.0097  0.1486 -0.2346
 2224SOL    HW118308   3.829   2.456   3.890  0.1238  1.0407 -1.1905
 2224SOL    HW218309   3.715   2.516   3.815 -0.2071 -0.0976 -0.5626
 2225SOL     OW18310   2.607   0.676   1.336  0.2897  0.4060 -0.8183
 2225SOL    HW118311   2.552   0.691   1.412  0.9905  0.8922 -0.4104
 2225SOL    HW218312   2.686   0.638   1.373 -0.4778  0.7873  1.1943
 2226SOL     OW18313   3.192   2.726  16.513 -0.6748 -0.4288 -0.1668
 2226SOL    HW118314   3.222   2.701  16.601  0.4506  0.4915 -0.2926
 2226SOL    HW218315   3.098   2.738  16.527 -0.6913  0.7110 -1.2610
 2227SOL     OW18316   2.443   3.905  17.556  0.6861 -0.2336  0.7118
 2227SOL    HW118317   2.494   3.953  17.621 -0.6395  1.8984  0.1571
 2227SOL    HW218318   2.506   3.873  17.492 -1.8856 -0.4270 -1.7531
 2228SOL     OW18319   4.126   4.386   4.106 -0.6100  0.8272 -0.1547
 2228SOL    HW118320   4.066   4.433   4.049 -0.4095  0.5558 -0.5930
 2228SOL    HW218321   4.190   4.450   4.138  0.8224 -0.5772 -0.1724
 2229SOL     OW18322   3.336   1.920   6.792  0.1979 -0.0755  0.4232
 2229SOL    HW118323   3.415   1.876   6.761  0.4492  0.2265  0.6379
 2229SOL    HW218324   3.311   1.971   6.715  2.1171  0.5922  0.2438
 2230SOL     OW18325   1.689   4.611   7.011  0.1748 -0.4679 -0.0174
 2230SOL    HW118326   1.632   4.599   7.088  0.1058 -0.0693 -0.0082
 2230SOL    HW218327   1.655   4.542   6.955  1.7851 -0.9711 -0.3757
 2231SOL     OW18328   0.944   3.824  17.501  0.1807  0.0599  0.7476
 2231SOL    HW118329   0.855   3.854  17.480  0.6219  0.0179 -1.1685
 2231SOL    HW218330   0.993   3.840  17.421 -1.1460  2.0528  0.3203
 2232SOL     OW18331   1.029   3.717   7.258  0.0126 -0.0182 -0.1326
 2232SOL    HW118332   1.098   3.737   7.194  1.6283 -1.0835  1.2796
 2232SOL    HW218333   0.955   3.770   7.228 -1.3482 -0.3860  2.5749
 2233SOL     OW18334   4.670   0.325   0.304  0.6525 -0.6738 -0.8087
 2233SOL    HW118335   4.594   0.332   0.246 -0.8359 -4.0162  0.7959
 2233SOL    HW218336   4.658   0.252   0.364 -1.9578  0.0833 -0.4432
 2234SOL     OW18337   0.291   3.001   6.258 -0.1079 -0.3034  0.2462
 2234SOL    HW118338   0.237   3.076   6.282  0.5001 -0.0800  0.9129
 2234SOL    HW218339   0.231   2.934   6.224 -0.5039  1.6891 -2.9751
 2235SOL     OW18340   2.240   1.448   2.105  0.1184 -0.5553 -0.0533
 2235SOL    HW118341   2.162   1.499   2.128  0.5777  0.4798 -0.7810
 2235SOL    HW218342   2.288   1.509   2.049  0.2896 -0.2792  0.3983
 2236SOL     OW18343   1.747   1.089   3.161 -0.3454  0.3406  0.5064
 2236SOL    HW118344   1.673   1.101   3.101  0.8241 -1.6595 -1.3220
 2236SOL    HW218345   1.803   1.044   3.098  0.8490 -0.7960  2.3970
 2237SOL     OW18346   2.510   3.493   0.643 -0.1721 -0.3267  0.0821
 2237SOL    HW118347   2.569   3.421   0.623 -1.4947 -1.1975 -0.6301
 2237SOL    HW218348   2.446   3.456   0.703  1.0864  1.3403  2.4612
 2238SOL     OW18349   1.594   1.812   8.334  0.0625 -1.4295 -0.2468
 2238SOL    HW118350   1.543   1.806   8.253 -0.7233 -1.0775  0.2156
 2238SOL    HW218351   1.571   1.737   8.388 -0.6545 -0.4704  0.7941
 2239SOL     OW18352   2.094   3.944   1.331 -0.0803 -0.0537  0.2678
 2239SOL    HW118353   2.001   3.961   1.343  0.2942  1.6295  0.7733
 2239SOL    HW218354   2.129   3.951   1.420  0.5322  2.4315 -0.1620
 2240SOL     OW18355   2.435   2.837  13.867 -0.2223 -0.5939 -0.6775
 2240SOL    HW118356   2.390   2.882  13.795 -0.2885 -0.1449 -0.3591
 2240SOL    HW218357   2.440   2.906  13.934  0.9315  1.3718 -2.7571
 2241SOL     OW18358   2.266   1.345   9.629  0.2782  0.0723  0.2362
 2241SOL    HW118359   2.327   1.344   9.703  0.0460  0.7815  0.4402
 2241SOL    HW218360   2.218   1.425   9.651 -2.1814 -1.4227  0.4249
 2242SOL     OW18361   0.010   1.397  10.310 -0.0352  0.5268 -0.3457
 2242SOL    HW118362   4.658   1.408  10.336 -0.1975  0.5884 -0.9535
 2242SOL    HW218363   0.002   1.364  10.221  0.4025  0.2882 -0.2934
 2243SOL     OW18364   0.168   4.430   5.034  0.4757 -0.0584  0.1132
 2243SOL    HW118365   0.225   4.505   5.023  2.4369 -1.4441  0.7314
 2243SOL    HW218366   0.225   4.356   5.013  1.9028  1.8073 -2.4902
 2244SOL     OW18367   0.226   3.293   4.179 -0.2672 -0.2470 -0.2190
 2244SOL    HW118368   0.236   3.291   4.084 -0.7735 -0.3597 -0.2686
 2244SOL    HW218369   0.207   3.387   4.186 -0.9832 -0.4511  0.5710
 2245SOL     OW18370   2.992   1.498   4.334 -0.3181 -0.3075  0.4779
 2245SOL    HW118371   3.064   1.436   4.321 -0.7645 -1.2271  2.3772
 2245SOL    HW218372   2.987   1.544   4.250  1.2937 -0.3057  0.3814
 2246SOL     OW18373   4.719   0.502  11.424 -0.3107  0.1662  0.2499
 2246SOL    HW118374   4.679   0.507  11.510 -0.5940  3.4242 -0.0908
 2246SOL    HW218375   4.735   0.590  11.392  4.0395  0.8929  4.4676
 2247SOL     OW18376   0.348   4.429  16.739 -0.1688  0.2470 -0.2215
 2247SOL    HW118377   0.281   4.474  16.792 -0.3651  0.7573 -0.8995
 2247SOL    HW218378   0.291   4.365  16.695  0.9352 -0.8243 -0.0750
 2248SOL     OW18379   3.275   2.166   7.652 -0.7487 -0.2490 -0.1201
 2248SOL    HW118380   3.348   2.105   7.652  1.1663  2.0602 -0.8361
 2248SOL    HW218381   3.213   2.118   7.597 -1.3377  0.7291 -0.3151
 2249SOL     OW18382   0.852   0.430   5.490  0.7669 -0.6551  0.5685
 2249SOL    HW118383   0.945   0.407   5.482  0.4791 -1.4081 -0.5994
 2249SOL    HW218384   0.861   0.514   5.534  2.1659 -1.1893  1.3310
 2250SOL     OW18385   4.580   0.475   8.133  0.0689  0.8127  0.4235
 2250SOL    HW118386   4.630   0.539   8.184  1.2260 -0.8974  1.4596
 2250SOL    HW218387   4.623   0.390   8.143 -0.3078  0.1580 -3.5389
 2251SOL     OW18388   3.780   1.777  16.609 -0.3001 -0.3844  0.2088
 2251SOL    HW118389   3.794   1.683  16.605 -1.4417 -0.5434 -0.0230
 2251SOL    HW218390   3.786   1.784  16.705  0.0570  1.3792  0.0571
 2252SOL     OW18391   0.261   2.307   2.987  0.0503 -0.1500  1.0787
 2252SOL    HW118392   0.327   2.264   2.932 -1.6449 -1.0925 -0.1889
 2252SOL    HW218393   0.298   2.395   2.982 -2.2447  0.6548 -1.1825
 2253SOL     OW18394   2.524   0.403  17.040  0.1623 -0.3890  0.1813
 2253SOL    HW118395   2.434   0.436  17.043 -0.2880 -1.3959 -2.2815
 2253SOL    HW218396   2.507   0.308  17.034  0.9747 -0.6251  1.8044
 2254SOL     OW18397   2.135   4.323   7.509 -0.2669  0.0627  0.1252
 2254SOL    HW118398   2.214   4.304   7.459 -0.0162 -0.2036  0.6217
 2254SOL    HW218399   2.125   4.407   7.465 -1.7637  0.8222  1.9317
 2255SOL     OW18400   3.525   4.400   5.624  0.2528 -0.1121  0.2337
 2255SOL    HW118401   3.446   4.420   5.573  0.2778 -2.0403 -0.5333
 2255SOL    HW218402   3.541   4.482   5.672 -1.6111 -1.7307  3.6220
 2256SOL     OW18403   4.018   4.537   1.548  0.4793 -0.4211 -0.3764
 2256SOL    HW118404   3.984   4.544   1.637  2.4354 -0.9765  0.4084
 2256SOL    HW218405   3.949   4.503   1.491  2.2129 -0.7614 -2.2920
 2257SOL     OW18406   3.115   0.302  16.264  0.1557 -0.6432  0.2288
 2257SOL    HW118407   3.191   0.346  16.301 -0.8914  1.3847 -0.0052
 2257SOL    HW218408   3.130   0.212  16.294  1.4157 -0.8158 -0.9587
 2258SOL     OW18409   1.969   2.055  16.798 -0.1320 -0.5303  0.1974
 2258SOL    HW118410   1.944   1.972  16.838  1.6296 -1.6375 -0.9720
 2258SOL    HW218411   1.897   2.079  16.739  1.0448 -0.4227 -1.2053
 2259SOL     OW18412   1.685   1.400   3.729 -0.2453 -0.1893  0.5335
 2259SOL    HW118413   1.760   1.365   3.681 -1.1186 -3.0005  1.2550
 2259SOL    HW218414   1.642   1.459   3.667  0.1073  0.8151  1.2283
 2260SOL     OW18415   3.731   0.169  10.010 -0.1764 -0.4726 -0.5359
 2260SOL    HW118416   3.668   0.206  10.072  2.5036 -0.4250  2.1640
 2260SOL    HW218417   3.805   0.223  10.036 -0.9353  1.5492 -2.6487
 2261SOL     OW18418   1.658   1.281   7.437  0.0142 -0.1166  0.1806
 2261SOL    HW118419   1.624   1.217   7.499 -0.1946 -1.4461 -1.3081
 2261SOL    HW218420   1.682   1.219   7.368  0.1735 -1.9183  1.8341
 2262SOL     OW18421   0.213   1.877  17.125  0.2634  0.2703 -0.5013
 2262SOL    HW118422   0.148   1.862  17.193 -0.8771  1.7014 -1.2747
 2262SOL    HW218423   0.174   1.819  17.059  1.3852 -1.6171  0.4873
 2263SOL     OW18424   4.062   2.824  16.442  0.1103  0.1334  0.0325
 2263SOL    HW118425   4.060   2.732  16.415 -1.9932  0.1247  0.2046
 2263SOL    HW218426   4.015   2.823  16.526 -0.1008 -0.5433 -0.0985
 2264SOL     OW18427   4.289   0.548   1.055 -0.8007  0.3324 -0.3905
 2264SOL    HW118428   4.239   0.539   0.974 -0.2117  0.0124 -0.7148
 2264SOL    HW218429   4.225   0.559   1.126  1.0774 -0.5737  1.4322
 2265SOL     OW18430   0.466   0.295   8.388 -0.0099  0.3706  0.0691
 2265SOL    HW118431   0.526   0.360   8.424  0.7200 -1.1397  1.6087
 2265SOL    HW218432   0.476   0.229   8.456  0.4182  0.1184 -0.2338
 2266SOL     OW18433   3.552   2.813   7.171  0.5063  0.2556  0.6181
 2266SOL    HW118434   3.504   2.817   7.254  1.2250  0.7026  1.0168
 2266SOL    HW218435   3.500   2.740   7.136 -1.1620  2.1635 -0.8611
 2267SOL     OW18436   2.955   3.300  15.526  0.1595 -0.3951 -0.2739
 2267SOL    HW118437   2.996   3.368  15.580  0.1500  0.4315 -1.3119
 2267SOL    HW218438   2.986   3.330  15.440  1.7493  0.9884  0.7986
 2268SOL     OW18439   0.725   2.645   6.151 -0.3341 -0.1699  0.1908
 2268SOL    HW118440   0.677   2.632   6.069 -0.7242  0.2882  0.3421
 2268SOL    HW218441   0.759   2.734   6.150 -0.6456 -0.0590 -0.4298
 2269SOL     OW18442   1.624   0.086   5.171 -0.4479  0.7005 -0.3166
 2269SOL    HW118443   1.582   0.140   5.238 -0.0186  1.4496 -0.6497
 2269SOL    HW218444   1.582   0.004   5.198 -0.1234  0.2975 -1.0268
 2270SOL     OW18445   1.715   4.725   5.654 -0.9036  0.0722  0.5001
 2270SOL    HW118446   1.742   0.049   5.588 -2.0517 -0.1677 -0.1928
 2270SOL    HW218447   1.620   4.725   5.643 -0.9309 -1.9510  0.8651
 2271SOL     OW18448   3.795   4.053   4.225  0.3667 -0.4932 -0.5732
 2271SOL    HW118449   3.873   4.000   4.244 -0.1240 -0.9612  0.1641
 2271SOL    HW218450   3.790   4.105   4.305  0.6990 -0.2418 -0.7141
 2272SOL     OW18451   4.353   0.343   5.524 -0.0499 -0.1494  0.2479
 2272SOL    HW118452   4.347   0.410   5.591  1.9746  1.0223 -0.7566
 2272SOL    HW218453   4.300   0.379   5.452 -0.2518  0.6646  0.8081
 2273SOL     OW18454   2.255   2.237  12.278 -0.2596 -0.1905  0.0846
 2273SOL    HW118455   2.266   2.327  12.306  0.2780 -0.2898  0.1970
 2273SOL    HW218456   2.314   2.240  12.203  2.0481 -1.3471  1.8481
 2274SOL     OW18457   1.959   2.267   4.673  0.0956 -0.1031 -0.6166
 2274SOL    HW118458   1.998   2.298   4.755 -0.0508  0.3540 -0.7250
 2274SOL    HW218459   1.876   2.311   4.688 -0.9076 -1.5188 -1.9719
 2275SOL     OW18460   2.011   2.681   2.133 -0.4995  0.1591  0.0010
 2275SOL    HW118461   2.054   2.753   2.088 -2.2104  1.3943  0.3414
 2275SOL    HW218462   2.008   2.616   2.063  0.4540  0.9454 -0.7665
 2276SOL     OW18463   3.027   4.012   7.333 -0.6409 -0.7014 -0.2310
 2276SOL    HW118464   3.009   3.973   7.248 -2.0826  0.3483 -0.4152
 2276SOL    HW218465   2.939   4.000   7.371 -0.3531 -0.1013  0.6411
 2277SOL     OW18466   2.267   0.311   6.908 -0.1499  0.1661  0.5396
 2277SOL    HW118467   2.239   0.384   6.964  1.9557 -0.0206  1.8399
 2277SOL    HW218468   2.354   0.340   6.881  0.7041 -2.9573 -0.0423
 2278SOL     OW18469   3.632   0.084   4.823 -0.3377 -0.2665 -0.0145
 2278SOL    HW118470   3.610   0.037   4.903 -0.7183 -1.2340 -0.6877
 2278SOL    HW218471   3.553   0.079   4.769  0.0329 -0.9535 -0.4954
 2279SOL     OW18472   0.957   0.179   2.229 -0.6876  0.2974  0.2563
 2279SOL    HW118473   0.951   0.169   2.324  0.7245 -2.6152  0.0620
 2279SOL    HW218474   1.019   0.107   2.213 -2.3698 -1.0301 -0.3102
 2280SOL     OW18475   0.210   1.125   2.363 -0.0785 -0.7228  0.3265
 2280SOL    HW118476   0.157   1.150   2.288  1.6629  0.2249 -0.5986
 2280SOL    HW218477   0.175   1.043   2.398 -0.8741 -0.3120  0.4971
 2281SOL     OW18478   4.306   0.727  12.865 -0.2851  0.5320 -0.4328
 2281SOL    HW118479   4.281   0.681  12.945  2.6408  1.3600  0.9541
 2281SOL    HW218480   4.358   0.663  12.817 -1.2110 -0.2816 -0.3316
 2282SOL     OW18481   4.544   4.605   5.091  0.1953  0.8257  0.1468
 2282SOL    HW118482   4.583   4.580   5.007 -1.6672  1.8566 -1.0370
 2282SOL    HW218483   4.472   4.542   5.093  0.2617  0.6636 -2.9074
 2283SOL     OW18484   2.538   2.776   5.924 -0.4721 -0.2222 -0.4607
 2283SOL    HW118485   2.447   2.766   5.894  0.1346 -2.6692 -1.4219
 2283SOL    HW218486   2.567   2.850   5.870  1.9634 -2.4675 -2.2068
 2284SOL     OW18487   2.038   1.265  12.908 -0.2416 -0.3530 -0.1161
 2284SOL    HW118488   1.978   1.310  12.967  0.7183 -0.2003  0.7439
 2284SOL    HW218489   2.008   1.287  12.819  1.3095  2.0107 -0.0394
 2285SOL     OW18490   3.156   3.772   6.828  0.3846 -0.0473 -0.9163
 2285SOL    HW118491   3.251   3.768   6.829  0.1977 -3.4898  1.5274
 2285SOL    HW218492   3.136   3.841   6.764  3.3994  1.2722 -0.4470
 2286SOL     OW18493   1.008   1.768   6.847 -0.3732 -0.2666 -0.2236
 2286SOL    HW118494   0.946   1.810   6.906  0.9652  0.5184  0.6470
 2286SOL    HW218495   1.040   1.698   6.905 -1.0976 -0.7974 -0.4592
 2287SOL     OW18496   0.072   2.851   6.171  0.0323 -0.0244  0.2197
 2287SOL    HW118497   4.737   2.857   6.112  0.3943  2.1738 -0.0093
 2287SOL    HW218498   0.025   2.836   6.253 -1.1141 -0.2782 -0.4854
 2288SOL     OW18499   2.866   3.021   7.310  0.2765 -0.2076 -0.1235
 2288SOL    HW118500   2.910   3.106   7.312 -0.1817  0.0221  0.2772
 2288SOL    HW218501   2.934   2.961   7.342 -0.5176 -1.5363 -0.9579
 2289SOL     OW18502   3.185   3.137   2.296  0.1618 -0.0834  0.7630
 2289SOL    HW118503   3.271   3.114   2.260 -0.9593 -2.8019 -0.2049
 2289SOL    HW218504   3.184   3.071   2.366  2.5390 -0.3434  0.5579
 2290SOL     OW18505   0.382   3.901   8.428  0.0013  0.7375 -0.3436
 2290SOL    HW118506   0.469   3.863   8.411 -0.8418 -1.2350 -0.2628
 2290SOL    HW218507   0.356   3.819   8.470  0.7651  0.5383 -0.2577
 2291SOL     OW18508   3.195   4.403   7.819  0.1130  0.0883  0.2532
 2291SOL    HW118509   3.205   4.315   7.785 -0.5666 -0.2326  0.8737
 2291SOL    HW218510   3.100   4.405   7.808  0.3207  0.8269 -1.3553
 2292SOL     OW18511   3.247   1.160  16.707  0.0465 -0.0811 -0.1437
 2292SOL    HW118512   3.330   1.194  16.741 -0.6864  1.2919  0.2423
 2292SOL    HW218513   3.211   1.167  16.796 -1.4541  3.0458 -1.0206
 2293SOL     OW18514   0.158   2.138   4.021 -0.2830 -0.5205  0.2205
 2293SOL    HW118515   0.093   2.194   4.062 -0.4478 -0.6101  0.0817
 2293SOL    HW218516   0.156   2.163   3.928 -0.7915 -1.1605  0.0553
 2294SOL     OW18517   3.727   4.357  13.226  0.0622 -1.1042  0.2978
 2294SOL    HW118518   3.654   4.419  13.227 -0.3533 -1.6123  1.3979
 2294SOL    HW218519   3.759   4.373  13.137  0.4225 -0.8288  0.4781
 2295SOL     OW18520   1.208   2.150   1.948  0.3084  0.7665 -0.0846
 2295SOL    HW118521   1.281   2.184   2.000  0.2191  3.5414 -1.8117
 2295SOL    HW218522   1.185   2.226   1.895  0.4138  2.1746  1.8893
 2296SOL     OW18523   0.435   3.850   5.461 -0.2984  0.1183  0.0818
 2296SOL    HW118524   0.392   3.884   5.539  1.6867 -1.0386  1.6680
 2296SOL    HW218525   0.505   3.914   5.448 -1.1495  1.3373  1.5613
 2297SOL     OW18526   1.722   3.944   3.147  0.0045  0.1190  0.1962
 2297SOL    HW118527   1.750   3.852   3.149  1.5030  0.5956  0.4433
 2297SOL    HW218528   1.805   3.989   3.156  1.4635 -2.1166 -1.9310
 2298SOL     OW18529   1.877   3.433  12.967 -0.2114  0.1096  0.1737
 2298SOL    HW118530   1.927   3.353  12.983 -0.8708 -0.1633  0.9506
 2298SOL    HW218531   1.860   3.444  12.874  0.3685  0.0978  0.0732
 2299SOL     OW18532   1.509   2.594   3.672  0.5800  0.0376  0.0502
 2299SOL    HW118533   1.441   2.537   3.707 -2.0144  1.2425 -2.9820
 2299SOL    HW218534   1.458   2.674   3.656  2.4575  1.0198 -1.0374
 2300SOL     OW18535   0.609   3.207   6.353  0.0771  0.0896 -0.0517
 2300SOL    HW118536   0.690   3.203   6.301  1.9468  0.3801  2.8428
 2300SOL    HW218537   0.644   3.259   6.425 -1.8072 -1.7442  2.1622
 2301SOL     OW18538   1.409   1.332   7.079 -0.2373 -0.1549 -1.3061
 2301SOL    HW118539   1.487   1.305   7.030 -0.4784 -2.2459 -0.5323
 2301SOL    HW218540   1.348   1.271   7.038 -1.2598  0.5303 -0.8000
 2302SOL     OW18541   0.580   4.730  16.690  0.3684  0.8526  0.2692
 2302SOL    HW118542   0.668   0.021  16.711  1.0576 -1.9636  1.5254
 2302SOL    HW218543   0.533   0.061  16.646 -0.1681  1.5933  2.0502
 2303SOL     OW18544   1.302   3.813  10.525 -0.3073 -0.1652  0.1905
 2303SOL    HW118545   1.391   3.779  10.531 -0.8213 -1.4094  0.8359
 2303SOL    HW218546   1.282   3.816  10.619  1.7696 -0.3417  0.6376
 2304SOL     OW18547   2.439   3.248   7.254  0.3902  0.1401  0.4413
 2304SOL    HW118548   2.502   3.249   7.326  0.7007 -2.9602  0.2078
 2304SOL    HW218549   2.488   3.198   7.189 -1.0641  0.5787 -1.0028
 2305SOL     OW18550   0.362   1.437   9.050 -0.2857  0.0130 -0.2809
 2305SOL    HW118551   0.422   1.502   9.089 -1.7311  1.4977 -0.5143
 2305SOL    HW218552   0.379   1.455   8.958 -0.1184  1.9093  0.1199
 2306SOL     OW18553   4.056   0.002   6.877 -0.4025  0.5803  0.0019
 2306SOL    HW118554   4.049   0.063   6.804  0.2795  0.0008 -0.5461
 2306SOL    HW218555   4.010   4.671   6.833 -2.1632  0.9729  1.1763
 2307SOL     OW18556   0.896   3.609   6.833  0.2038 -0.3195 -0.2732
 2307SOL    HW118557   0.861   3.696   6.813  1.3562  0.2294  0.0844
 2307SOL    HW218558   0.936   3.591   6.748  1.0666 -3.9172  0.8800
 2308SOL     OW18559   1.410   2.980   5.165 -0.2291 -0.0534  0.2559
 2308SOL    HW118560   1.379   3.035   5.092  0.0580  0.3932  0.4722
 2308SOL    HW218561   1.338   2.920   5.184 -1.6244  0.7467 -2.4577
 2309SOL     OW18562   3.645   0.482   7.329 -0.4946 -0.2091  0.3974
 2309SOL    HW118563   3.565   0.432   7.345 -1.8518  2.0464  0.8145
 2309SOL    HW218564   3.716   0.419   7.333  0.8677  1.2181 -1.1921
 2310SOL     OW18565   1.676   1.235   8.522 -0.7912 -0.7015  0.1899
 2310SOL    HW118566   1.708   1.151   8.491 -1.3789 -1.1439  0.7803
 2310SOL    HW218567   1.605   1.213   8.582 -0.7191  0.1230  0.5829
 2311SOL     OW18568   4.525   2.458   4.840  0.5966 -0.2172 -0.1184
 2311SOL    HW118569   4.551   2.500   4.758  0.3108 -1.1780 -0.7130
 2311SOL    HW218570   4.612   2.427   4.866 -0.1537 -2.4592 -0.2296
 2312SOL     OW18571   3.769   4.467   8.825 -0.3308 -0.1062 -0.4517
 2312SOL    HW118572   3.704   4.455   8.756  1.9274 -1.8127 -2.2992
 2312SOL    HW218573   3.774   4.562   8.828  1.7676 -0.2060 -1.0357
 2313SOL     OW18574   2.815   3.102   5.470 -0.0704  0.2818 -0.3458
 2313SOL    HW118575   2.861   3.172   5.518 -0.1209 -0.1598  0.3452
 2313SOL    HW218576   2.739   3.095   5.528  3.0148 -0.6962  3.6562
 2314SOL     OW18577   2.906   3.201   2.246 -0.3924 -0.0693  0.3959
 2314SOL    HW118578   2.863   3.131   2.294 -1.4308 -0.1020 -0.5976
 2314SOL    HW218579   2.988   3.162   2.213 -0.0080  0.7633  0.3613
 2315SOL     OW18580   0.913   4.075   1.125  0.0317 -0.1028 -0.1517
 2315SOL    HW118581   0.903   4.169   1.109 -1.7474  0.0650  2.1531
 2315SOL    HW218582   0.821   4.057   1.140 -0.3415  1.7378 -0.3027
 2316SOL     OW18583   2.278   0.924   7.683  0.0921 -0.3348 -0.2696
 2316SOL    HW118584   2.192   0.959   7.705  0.7450  1.1355 -0.0163
 2316SOL    HW218585   2.326   1.005   7.704  2.1562 -1.5981 -0.1054
 2317SOL     OW18586   0.538   2.155   2.025 -0.0422 -0.3739  0.0789
 2317SOL    HW118587   0.543   2.250   2.032 -3.3323 -0.1702 -0.3962
 2317SOL    HW218588   0.618   2.141   1.974 -0.5560 -0.7475 -0.6232
 2318SOL     OW18589   3.555   3.222  15.062  0.0395  0.2009  0.0432
 2318SOL    HW118590   3.589   3.189  14.979  0.7079  0.2377  0.3062
 2318SOL    HW218591   3.460   3.220  15.050  0.3499  1.0112 -2.5357
 2319SOL     OW18592   1.578   4.268   3.309  0.2726 -0.0109  0.0756
 2319SOL    HW118593   1.664   4.238   3.283 -0.9916 -1.2293 -2.7085
 2319SOL    HW218594   1.533   4.190   3.341 -1.4513  1.0025  0.1396
 2320SOL     OW18595   0.736   3.829  13.994  0.2658  0.4289  0.2349
 2320SOL    HW118596   0.677   3.815  14.068  0.7031  1.6370  0.8174
 2320SOL    HW218597   0.822   3.812  14.032  1.2962 -0.0330 -2.3407
 2321SOL     OW18598   2.844   2.427   1.560 -0.5150 -0.3806 -0.0254
 2321SOL    HW118599   2.877   2.444   1.649 -2.0373  0.2130  0.4263
 2321SOL    HW218600   2.912   2.373   1.519  0.1346 -0.5295  1.2220
 2322SOL     OW18601   1.210   1.582   1.769 -0.1281  0.3798 -0.2519
 2322SOL    HW118602   1.198   1.547   1.680 -3.2407  0.7341  0.0014
 2322SOL    HW218603   1.123   1.623   1.774  0.9108  2.7085 -1.5879
 2323SOL     OW18604   2.756   1.842   9.429 -0.3557 -0.4960 -0.0166
 2323SOL    HW118605   2.712   1.856   9.512 -1.1605  0.1402 -0.5498
 2323SOL    HW218606   2.720   1.762   9.392 -2.3624  0.2957  0.2642
 2324SOL     OW18607   1.250   3.926   8.475 -0.3012 -0.5243 -0.0220
 2324SOL    HW118608   1.345   3.930   8.460  0.1861 -0.9483  2.9565
 2324SOL    HW218609   1.240   3.831   8.466 -2.9673 -0.2239 -0.1606
 2325SOL     OW18610   3.172   3.582   8.053 -0.1155 -0.3622  0.4502
 2325SOL    HW118611   3.091   3.603   8.008  0.5636 -2.3671 -1.7137
 2325SOL    HW218612   3.137   3.544   8.134 -0.9677 -0.1987  0.1538
 2326SOL     OW18613   1.108   1.076   6.347  0.1831  0.3557  0.2835
 2326SOL    HW118614   1.047   1.075   6.273  0.2732 -1.1891  0.2278
 2326SOL    HW218615   1.040   1.078   6.415  0.5669 -0.7252  0.7070
 2327SOL     OW18616   3.953   0.674   9.809 -0.2593  0.0523 -0.5591
 2327SOL    HW118617   3.965   0.613   9.882  1.3873 -3.0772 -3.4367
 2327SOL    HW218618   3.860   0.695   9.806  0.5549  3.7563 -0.3616
 2328SOL     OW18619   4.623   1.449   5.404 -0.0436 -0.2367  0.6179
 2328SOL    HW118620   4.694   1.411   5.353  0.3100  0.2854  0.7187
 2328SOL    HW218621   4.551   1.449   5.341 -0.1198  0.2957  0.7028
 2329SOL     OW18622   0.117   0.993   6.312  0.5621 -0.1192  0.1884
 2329SOL    HW118623   0.187   0.996   6.246  0.9841 -4.1422  0.4282
 2329SOL    HW218624   0.159   1.036   6.386 -0.6304  0.2562  0.6452
 2330SOL     OW18625   1.476   4.392   4.918  0.2354 -0.5424  0.0913
 2330SOL    HW118626   1.517   4.469   4.879  0.2413 -0.8186 -0.4508
 2330SOL    HW218627   1.384   4.419   4.926  0.0099 -0.5707 -2.2116
 2331SOL     OW18628   0.740   2.595  15.496  0.4700 -0.5000  0.3405
 2331SOL    HW118629   0.746   2.588  15.401  0.8153  2.9573  0.0853
 2331SOL    HW218630   0.676   2.666  15.502  2.0293  0.9331  0.0570
 2332SOL     OW18631   0.829   0.041  16.814  0.0001  0.2897 -0.3978
 2332SOL    HW118632   0.917   0.004  16.808 -0.4658 -1.0755  1.0815
 2332SOL    HW218633   0.805   0.022  16.905  1.2616 -0.5972 -0.2515
 2333SOL     OW18634   1.074   4.565   6.315 -0.4080 -0.3004 -0.0082
 2333SOL    HW118635   1.030   4.504   6.374  0.0063 -1.3239 -0.7562
 2333SOL    HW218636   1.111   4.501   6.254  1.2480 -0.8082  1.5312
 2334SOL     OW18637   4.723   0.121  11.641  0.3415  0.1839 -0.0730
 2334SOL    HW118638   0.074   0.130  11.668  0.7243 -2.8410 -0.2921
 2334SOL    HW218639   0.000   0.094  11.551  0.5566  0.3006 -0.0653
 2335SOL     OW18640   4.480   3.929   8.010 -0.6129  0.3899  0.5522
 2335SOL    HW118641   4.491   4.015   8.051 -0.3232  0.7235 -0.2087
 2335SOL    HW218642   4.455   3.882   8.089  0.4773  0.4172  0.9256
 2336SOL     OW18643   3.935   0.451   4.017 -0.1052 -0.3046 -0.1903
 2336SOL    HW118644   3.976   0.536   4.030  1.7423 -1.3355  0.6858
 2336SOL    HW218645   3.951   0.430   3.925 -2.2616  0.9028 -0.8370
 2337SOL     OW18646   3.320   0.524   7.781  0.7585 -0.2744 -0.3801
 2337SOL    HW118647   3.245   0.521   7.722 -0.3377  0.6650  0.9544
 2337SOL    HW218648   3.311   0.447   7.837 -2.8233  0.7112  0.4009
 2338SOL     OW18649   1.931   1.102   1.708 -0.3822 -0.0388  0.2449
 2338SOL    HW118650   1.998   1.036   1.727 -0.5770 -0.3182 -0.0530
 2338SOL    HW218651   1.935   1.130   1.616  1.1309  1.6449  0.8189
 2339SOL     OW18652   1.899   4.229   3.266 -0.2674 -0.4177  0.0548
 2339SOL    HW118653   1.940   4.308   3.303  0.1026 -0.2955 -0.6224
 2339SOL    HW218654   1.899   4.255   3.174  0.4441 -0.8472 -0.0651
 2340SOL     OW18655   3.709   1.259   3.501 -0.5708  0.6365 -0.4817
 2340SOL    HW118656   3.719   1.235   3.409  0.9461 -0.1854 -0.0993
 2340SOL    HW218657   3.785   1.216   3.541 -1.5368 -0.4924  0.1404
 2341SOL     OW18658   2.277   4.654  14.965  0.1838 -0.3866  0.2838
 2341SOL    HW118659   2.333   4.583  14.935  1.0895  0.5631 -0.2901
 2341SOL    HW218660   2.307   4.676  15.053 -1.6096 -0.5417  0.9289
 2342SOL     OW18661   3.039   3.298   3.039  0.5700 -0.0088 -0.0986
 2342SOL    HW118662   2.962   3.291   2.984  0.4058  0.7069  0.0403
 2342SOL    HW218663   3.073   3.210   3.019  0.3831 -0.3028  0.8670
 2343SOL     OW18664   0.687   3.124   3.357  0.2945  0.2189 -0.9979
 2343SOL    HW118665   0.718   3.190   3.295  0.7481 -1.4163 -2.5142
 2343SOL    HW218666   0.640   3.069   3.296  1.3710  0.4670 -2.0504
 2344SOL     OW18667   2.249   2.353   8.744 -0.2638  0.2275  0.1672
 2344SOL    HW118668   2.196   2.391   8.674 -0.2944  1.6898  0.9700
 2344SOL    HW218669   2.187   2.356   8.817 -0.3596 -0.3879  0.1075
 2345SOL     OW18670   2.268   4.066   5.897  0.1006  0.1716  0.1654
 2345SOL    HW118671   2.224   4.065   5.812  0.9121  0.8236 -0.2596
 2345SOL    HW218672   2.207   4.123   5.944  2.3001  3.2164 -0.6965
 2346SOL     OW18673   1.196   3.727   6.973 -0.4039 -0.4877  0.0978
 2346SOL    HW118674   1.184   3.785   6.898  0.6208 -1.5604 -0.8828
 2346SOL    HW218675   1.288   3.742   6.991 -0.9738  0.1523  2.5023
 2347SOL     OW18676   1.756   0.071  11.207  0.4313  0.3316 -0.0520
 2347SOL    HW118677   1.778   0.152  11.160 -1.5379  1.2300  0.5763
 2347SOL    HW218678   1.769   0.099  11.298 -0.4602 -1.4501  0.6258
 2348SOL     OW18679   2.370   2.949  16.857 -0.0208  0.4088  0.2297
 2348SOL    HW118680   2.430   2.984  16.791 -0.7732  1.9292  0.3583
 2348SOL    HW218681   2.434   2.924  16.923  1.4602  1.9808 -0.6178
 2349SOL     OW18682   1.136   4.031   4.222 -0.0588 -0.1722  0.0546
 2349SOL    HW118683   1.126   4.031   4.126  1.7617  2.1889 -0.1184
 2349SOL    HW218684   1.119   3.937   4.232 -2.3018  0.0140 -1.8822
 2350SOL     OW18685   0.474   3.193   5.109 -0.8463  0.0354 -0.5661
 2350SOL    HW118686   0.452   3.246   5.186 -1.5382 -0.6747 -0.2694
 2350SOL    HW218687   0.402   3.210   5.048  1.3243  2.1655 -2.5054
 2351SOL     OW18688   0.681   4.045  13.876  0.5208  0.2751  0.0485
 2351SOL    HW118689   0.718   3.971  13.924  1.6853  1.5301  1.0812
 2351SOL    HW218690   0.594   4.042  13.917  1.6312  1.8950  2.5170
 2352SOL     OW18691   1.568   4.531   4.324  0.0129 -0.0772 -0.4487
 2352SOL    HW118692   1.661   4.544   4.339  0.4657 -1.2773 -2.2897
 2352SOL    HW218693   1.565   4.510   4.231 -1.7841  1.4914 -0.7583
 2353SOL     OW18694   3.299   2.063   3.630  0.1524  0.0400 -0.3954
 2353SOL    HW118695   3.327   1.978   3.597  0.4530 -0.4688  1.1750
 2353SOL    HW218696   3.390   2.088   3.649 -1.0993  1.7001  3.3588
 2354SOL     OW18697   1.138   4.685   2.609 -0.2603 -0.0486 -0.0875
 2354SOL    HW118698   1.190   4.617   2.652 -2.1554 -1.1294  0.4909
 2354SOL    HW218699   1.214   4.737   2.581  0.5927  0.1665  2.6271
 2355SOL     OW18700   2.806   3.431   9.402 -0.0822  0.0199 -0.4940
 2355SOL    HW118701   2.734   3.442   9.464 -0.4483  0.4813 -1.0075
 2355SOL    HW218702   2.877   3.479   9.445 -1.5355  1.0157  0.7886
 2356SOL     OW18703   2.817   1.657  12.638 -0.3709 -0.3390  0.7305
 2356SOL    HW118704   2.876   1.635  12.710  0.4520 -1.5404 -0.3070
 2356SOL    HW218705   2.736   1.671  12.688  0.5816  1.6423  1.7187
 2357SOL     OW18706   3.743   0.691   3.912 -0.0914 -0.1458  0.1538
 2357SOL    HW118707   3.729   0.757   3.980 -2.1326 -2.2903  1.8095
 2357SOL    HW218708   3.705   0.608   3.939  0.6609  0.0311  1.7933
 2358SOL     OW18709   3.760   3.733   2.773  0.0126  0.6159 -0.0072
 2358SOL    HW118710   3.716   3.813   2.746 -2.3762 -1.2036 -1.4711
 2358SOL    HW218711   3.854   3.747   2.755 -0.0818  0.1144 -0.9031
 2359SOL     OW18712   3.680   4.445  13.940  0.1034 -0.1983  0.1021
 2359SOL    HW118713   3.766   4.472  13.906  0.0959  1.2435  1.2130
 2359SOL    HW218714   3.627   4.418  13.865 -0.0965 -0.5143  0.3591
 2360SOL     OW18715   3.177   3.494   3.752  0.1033  0.0505 -0.3448
 2360SOL    HW118716   3.185   3.400   3.770 -0.3078  0.4351  1.7880
 2360SOL    HW218717   3.236   3.524   3.820  0.2555 -0.9596 -0.0248
 2361SOL     OW18718   2.602   1.396   5.482 -0.4705 -0.0577  0.7036
 2361SOL    HW118719   2.576   1.488   5.485 -1.1984 -0.1785 -1.8814
 2361SOL    HW218720   2.660   1.404   5.407  0.6184 -3.5799  1.1755
 2362SOL     OW18721   1.308   1.883   4.390 -0.3610  0.1869 -0.4459
 2362SOL    HW118722   1.384   1.829   4.369  0.3164  1.1209 -0.3689
 2362SOL    HW218723   1.336   1.972   4.370  1.2048 -0.1171  0.4063
 2363SOL     OW18724   3.225   1.569   2.402  1.0012  0.1574 -0.2762
 2363SOL    HW118725   3.150   1.522   2.440  0.9404 -1.5089 -2.4214
 2363SOL    HW218726   3.239   1.624   2.478  0.7154 -0.6377  0.3555
 2364SOL     OW18727   3.581   3.426   2.460 -0.3461 -0.4707  0.8674
 2364SOL    HW118728   3.639   3.392   2.528 -0.2918 -0.1235  0.9931
 2364SOL    HW218729   3.616   3.391   2.378  1.8052  1.2968  1.0423
 2365SOL     OW18730   3.164   3.247   3.349 -0.1786  0.2730 -0.0494
 2365SOL    HW118731   3.123   3.243   3.435  1.5523 -0.8764  0.7141
 2365SOL    HW218732   3.088   3.206   3.307 -1.4371  0.2367  2.2545
 2366SOL     OW18733   0.128   2.888   9.467 -0.0177 -0.3752 -1.0256
 2366SOL    HW118734   0.127   2.841   9.383 -2.6930  0.4044 -1.4369
 2366SOL    HW218735   0.221   2.881   9.488 -0.5816 -1.9884  0.9564
 2367SOL     OW18736   3.650   4.714   4.452  0.4658  0.3482 -0.8492
 2367SOL    HW118737   3.715   4.660   4.407  2.1308  0.9842  0.8245
 2367SOL    HW218738   3.708   0.044   4.481 -0.9499  1.2287 -0.1721
 2368SOL     OW18739   1.703   1.555   4.704  0.8267  0.0400 -0.2281
 2368SOL    HW118740   1.611   1.580   4.702  0.7492 -0.2583 -0.4176
 2368SOL    HW218741   1.687   1.500   4.781 -0.1136  1.4568  0.5898
 2369SOL     OW18742   2.664   2.965   6.677  0.5555 -0.2552  0.7415
 2369SOL    HW118743   2.746   2.980   6.725  1.4241 -0.1353 -0.7896
 2369SOL    HW218744   2.673   3.045   6.625 -0.5506  0.3169  1.4496
 2370SOL     OW18745   0.199   3.300   1.877 -0.1114 -0.8676 -0.2830
 2370SOL    HW118746   0.167   3.338   1.795  0.4423  0.6683  0.2115
 2370SOL    HW218747   0.224   3.368   1.940 -0.9777 -0.6203 -0.2025
 2371SOL     OW18748   4.126   0.120   3.762 -0.0542  0.2166 -0.6906
 2371SOL    HW118749   4.069   0.181   3.716  0.0803  0.2740 -0.7809
 2371SOL    HW218750   4.204   0.176   3.765 -1.3877  2.0212 -0.0670
 2372SOL     OW18751   4.734   3.495  10.906  0.3572  0.7651  0.3409
 2372SOL    HW118752   0.036   3.575  10.877 -1.1986  1.1961 -0.7243
 2372SOL    HW218753   0.069   3.440  10.932 -0.0658 -0.3799 -0.8409
 2373SOL     OW18754   0.318   3.697  15.332 -0.1393 -0.9648 -0.1255
 2373SOL    HW118755   0.256   3.676  15.262 -0.1329  0.5878 -0.5904
 2373SOL    HW218756   0.294   3.629  15.395  1.2799 -0.7675  0.6249
 2374SOL     OW18757   0.460   1.555  14.321 -0.5839  0.3547  0.1526
 2374SOL    HW118758   0.548   1.542  14.357  0.1453  2.0309 -0.9784
 2374SOL    HW218759   0.487   1.573  14.231  0.7485  1.9115  0.8494
 2375SOL     OW18760   3.330   0.917   2.135 -0.3721  0.7074  0.0976
 2375SOL    HW118761   3.248   0.965   2.147 -0.2213  1.0732 -0.3048
 2375SOL    HW218762   3.372   0.922   2.221  0.9410  1.6459 -0.5892
 2376SOL     OW18763   2.063   1.677   7.065  0.3191  0.4503 -0.1189
 2376SOL    HW118764   2.130   1.614   7.091  1.3561  2.0343  1.0020
 2376SOL    HW218765   2.059   1.726   7.146 -3.5862 -1.1552  0.6744
 2377SOL     OW18766   1.825   4.399  16.228  0.2428 -0.1494 -1.1283
 2377SOL    HW118767   1.889   4.334  16.198  0.0198 -0.0226 -1.8734
 2377SOL    HW218768   1.772   4.359  16.298  0.9427  1.1790  0.1702
 2378SOL     OW18769   0.309   3.813   2.259 -0.0959 -0.8162  0.3785
 2378SOL    HW118770   0.386   3.865   2.282  0.5590 -0.5332 -2.4933
 2378SOL    HW218771   0.288   3.766   2.340  1.6495  0.6511  1.6952
 2379SOL     OW18772   3.829   0.089  13.887  0.0007 -0.1502 -0.2471
 2379SOL    HW118773   3.857   4.738  13.874 -0.3228 -0.4903  1.4360
 2379SOL    HW218774   3.736   0.081  13.866 -0.3721  2.2763  0.4722
 2380SOL     OW18775   4.292   1.512   9.410 -0.0029  0.1336  0.1250
 2380SOL    HW118776   4.286   1.419   9.430  2.1170  0.8294  4.0997
 2380SOL    HW218777   4.285   1.526   9.316  1.8339  0.7110  0.0685
 2381SOL     OW18778   3.278   2.398   7.462  0.5877 -0.0840  0.6126
 2381SOL    HW118779   3.189   2.431   7.478  0.9062  1.7431 -1.3143
 2381SOL    HW218780   3.295   2.351   7.543  1.0333 -0.8688  0.0586
 2382SOL     OW18781   4.561   0.041  15.610  0.0567 -0.4398  0.3237
 2382SOL    HW118782   4.498   0.025  15.540 -1.4537  0.3015  1.5141
 2382SOL    HW218783   4.542   0.129  15.640 -0.2847 -0.9416  1.5955
 2383SOL     OW18784   2.650   4.237  13.177  0.1939 -0.3702 -0.0450
 2383SOL    HW118785   2.701   4.295  13.234  1.2979  0.9743 -2.4154
 2383SOL    HW218786   2.617   4.176  13.243 -1.6045 -2.1732 -2.6665
 2384SOL     OW18787   2.306   3.193  15.216 -0.0864 -0.0441 -0.7776
 2384SOL    HW118788   2.294   3.100  15.237 -0.8626  0.2479  0.0907
 2384SOL    HW218789   2.335   3.179  15.126  0.6049  1.9815 -0.8665
 2385SOL     OW18790   4.255   0.400   7.374  0.1582 -0.3830  0.4351
 2385SOL    HW118791   4.313   0.469   7.341 -0.4547 -0.1897 -0.2392
 2385SOL    HW218792   4.173   0.430   7.333 -0.4839 -1.7487  0.7353
 2386SOL     OW18793   2.946   4.642   3.662 -0.0203 -0.0215 -0.2312
 2386SOL    HW118794   2.959   4.563   3.715  1.1312  0.3458  0.0447
 2386SOL    HW218795   3.027   4.687   3.687  0.0325 -0.0201 -0.4075
 2387SOL     OW18796   2.284   3.658   0.850 -0.4271  0.1853 -0.5718
 2387SOL    HW118797   2.265   3.681   0.759 -0.3100 -0.7370 -0.8306
 2387SOL    HW218798   2.214   3.595   0.870 -0.5816 -0.0802 -1.9077
 2388SOL     OW18799   4.470   1.289   9.670 -0.0501 -0.0162 -0.0353
 2388SOL    HW118800   4.428   1.315   9.588 -0.3392  0.5307  0.2864
 2388SOL    HW218801   4.467   1.194   9.666  0.8925 -0.0634  0.4545
 2389SOL     OW18802   1.576   3.570   6.843 -0.2489 -0.0101  0.3434
 2389SOL    HW118803   1.567   3.558   6.937 -2.7003 -0.8388  0.0062
 2389SOL    HW218804   1.533   3.492   6.807  0.3216  0.0643 -0.4796
 2390SOL     OW18805   4.644   4.334   4.956  0.3375  0.3788 -0.1346
 2390SOL    HW118806   4.736   4.360   4.962  0.8092 -1.3520 -0.0517
 2390SOL    HW218807   4.636   4.268   5.025  0.8089  0.0789 -0.3671
 2391SOL     OW18808   4.609   3.764   8.394 -0.3431 -0.0247 -0.7349
 2391SOL    HW118809   4.652   3.705   8.456 -2.8342  1.0840  2.0360
 2391SOL    HW218810   4.610   3.704   8.320 -0.6330  1.3733 -1.8763
 2392SOL     OW18811   2.729   3.937   4.219  0.2372  0.0314  0.3306
 2392SOL    HW118812   2.692   3.967   4.136 -0.9437 -2.0964  0.0881
 2392SOL    HW218813   2.693   3.851   4.241 -2.3800  1.3312  1.1181
 2393SOL     OW18814   3.268   0.683   4.782 -0.4417 -0.8399 -0.3436
 2393SOL    HW118815   3.332   0.724   4.840 -2.3081  2.6698 -0.7616
 2393SOL    HW218816   3.315   0.606   4.748  2.1275  1.0936 -1.2179
 2394SOL     OW18817   2.405   2.557  16.509 -0.3451  0.0440 -0.0393
 2394SOL    HW118818   2.365   2.472  16.528 -1.4684 -0.0505 -2.8430
 2394SOL    HW218819   2.339   2.606  16.558  0.4531 -1.2242  2.3289
 2395SOL     OW18820   0.874   1.539   2.400  0.4164  0.0421  0.7672
 2395SOL    HW118821   0.869   1.474   2.329  0.1135  1.5020 -0.5314
 2395SOL    HW218822   0.831   1.612   2.357 -0.1789 -1.2378 -0.8316
 2396SOL     OW18823   2.479   1.965   3.194 -0.1473  0.2792 -0.4527
 2396SOL    HW118824   2.502   2.040   3.139 -2.5313  0.3198 -1.4281
 2396SOL    HW218825   2.432   1.914   3.128  0.1935  1.2382 -1.4396
 2397SOL     OW18826   0.021   3.129   8.239  0.7025 -0.0722 -0.0532
 2397SOL    HW118827   4.666   3.118   8.236  0.9234 -1.8582 -0.4031
 2397SOL    HW218828   0.048   3.150   8.150 -1.7482 -0.1312 -0.8205
 2398SOL     OW18829   4.521   3.898   2.112  0.4667  0.7915  0.3611
 2398SOL    HW118830   4.427   3.883   2.103  0.8258  0.3200 -2.6098
 2398SOL    HW218831   4.556   3.809   2.116 -0.0187  0.6575  1.5416
 2399SOL     OW18832   1.647   1.632   3.451  0.8375  0.0955  0.4116
 2399SOL    HW118833   1.670   1.582   3.373  0.6922  1.0166 -0.2216
 2399SOL    HW218834   1.604   1.704   3.404  1.0681  0.9831  1.5644
 2400SOL     OW18835   4.262   4.086   3.215 -1.0692 -0.7580  0.2173
 2400SOL    HW118836   4.197   4.044   3.159  0.4771 -0.5473 -1.7232
 2400SOL    HW218837   4.236   4.178   3.207 -0.6343 -0.8570 -2.2840
 2401SOL     OW18838   4.729   4.512   5.342  0.0848 -0.0854 -0.3768
 2401SOL    HW118839   4.714   4.590   5.287  0.5372  0.0444 -0.3155
 2401SOL    HW218840   4.712   4.439   5.283 -1.1912  0.0087 -0.1123
 2402SOL     OW18841   1.950   0.732   2.713 -0.4540 -0.2815 -0.2470
 2402SOL    HW118842   1.895   0.725   2.792  0.0667 -1.0593  0.0449
 2402SOL    HW218843   1.887   0.724   2.642  1.1266 -2.5343 -1.4096
 2403SOL     OW18844   0.977   3.654   3.136  0.1208  0.3384 -0.4284
 2403SOL    HW118845   0.965   3.727   3.075  0.8484  1.2179  0.4936
 2403SOL    HW218846   0.967   3.700   3.219  0.1029 -0.9076  0.2562
 2404SOL     OW18847   1.309   0.439   8.361 -0.0553  0.1601 -0.3244
 2404SOL    HW118848   1.344   0.395   8.284  0.5468 -1.0470  0.6425
 2404SOL    HW218849   1.263   0.373   8.414 -0.9554  1.0354 -0.0087
 2405SOL     OW18850   4.119   0.489   7.133  0.0855 -0.4646  0.1081
 2405SOL    HW118851   4.052   0.443   7.083  0.3167  0.4575 -1.0472
 2405SOL    HW218852   4.079   0.570   7.165 -0.6684 -1.3436  1.3654
 2406SOL     OW18853   1.547   2.279   8.699 -0.6920 -0.2705  0.3094
 2406SOL    HW118854   1.483   2.344   8.726 -1.1373 -0.8146  0.5595
 2406SOL    HW218855   1.525   2.222   8.772  2.5514 -2.4239 -0.4043
 2407SOL     OW18856   4.681   4.668   0.828 -0.2825  0.1408  0.9009
 2407SOL    HW118857   4.689   4.610   0.752  2.1799  0.8878  0.5734
 2407SOL    HW218858   4.628   4.620   0.891 -1.8826  0.1153 -0.4704
 2408SOL     OW18859   1.505   0.644   3.083  0.3458 -0.2863 -0.2884
 2408SOL    HW118860   1.500   0.616   3.175 -0.0240  1.6261  0.2632
 2408SOL    HW218861   1.415   0.655   3.050 -0.5231 -3.1327  1.1337
 2409SOL     OW18862   3.475   1.997  13.050 -0.3476 -0.0517  1.6998
 2409SOL    HW118863   3.552   1.946  13.023  0.0842  0.3694  2.1392
 2409SOL    HW218864   3.451   1.947  13.128  0.3899  0.3742  2.2024
 2410SOL     OW18865   3.303   0.327   4.956 -0.5213 -0.2080 -0.7327
 2410SOL    HW118866   3.314   0.237   4.984 -0.3529  0.0887  0.1338
 2410SOL    HW218867   3.208   0.331   4.942 -0.4795  1.1450 -0.6786
 2411SOL     OW18868   4.728   3.245   0.043  0.1748  0.7664 -0.2629
 2411SOL    HW118869   4.699   3.170   0.095  2.4631 -0.7660 -1.1613
 2411SOL    HW218870   4.669   3.243  17.726 -1.1937  1.7135  0.8008
 2412SOL     OW18871   1.648   1.760   2.427  0.1512 -0.4108  0.0968
 2412SOL    HW118872   1.705   1.787   2.356 -0.9810 -1.2461 -1.1342
 2412SOL    HW218873   1.687   1.673   2.439 -0.3587 -0.3930  1.8871
 2413SOL     OW18874   3.743   4.038   6.842 -1.0843  0.2527 -0.0344
 2413SOL    HW118875   3.689   4.005   6.914  0.7146  0.9009  1.6012
 2413SOL    HW218876   3.827   4.036   6.887 -0.8450 -1.9565 -0.6120
 2414SOL     OW18877   2.736   2.978   4.777  0.1742  0.5614  0.0328
 2414SOL    HW118878   2.649   3.016   4.769  0.5086  1.5278  0.9481
 2414SOL    HW218879   2.740   2.971   4.872  0.1884  0.2696  0.0122
 2415SOL     OW18880   3.662   1.367   5.049 -0.3209  0.4809 -0.0220
 2415SOL    HW118881   3.675   1.386   5.142  0.0055  3.6864 -0.7446
 2415SOL    HW218882   3.684   1.453   5.014  1.2437  0.5127  1.0409
 2416SOL     OW18883   3.049   2.252  15.154  0.6771 -0.0787 -0.3463
 2416SOL    HW118884   3.015   2.163  15.156  0.2942  0.1390  3.4256
 2416SOL    HW218885   3.137   2.239  15.120  0.8832  1.1644 -0.2791
 2417SOL     OW18886   2.287   2.625  15.165 -0.2833 -0.2419 -0.1972
 2417SOL    HW118887   2.242   2.591  15.242 -1.4591 -1.0181 -1.2184
 2417SOL    HW218888   2.348   2.557  15.136 -0.5842 -2.6042  4.7311
 2418SOL     OW18889   4.686   2.844   3.234 -0.0045 -0.1411 -0.7556
 2418SOL    HW118890   4.708   2.752   3.223  1.1354  0.0369  0.0120
 2418SOL    HW218891   4.604   2.834   3.187 -1.4017 -0.1173  1.6977
 2419SOL     OW18892   4.123   1.428   8.302 -0.1965  0.4730 -0.4358
 2419SOL    HW118893   4.201   1.472   8.335 -1.2617  1.9403  0.1242
 2419SOL    HW218894   4.048   1.482   8.326  0.1659 -0.0149  1.7869
 2420SOL     OW18895   2.621   3.236   0.352  0.0975 -0.0369  0.1311
 2420SOL    HW118896   2.655   3.281   0.274 -1.3363  2.8381  1.1513
 2420SOL    HW218897   2.527   3.250   0.340  0.2483 -1.3387 -2.6726
 2421SOL     OW18898   4.207   1.900   1.721  0.5408 -0.1603 -0.0822
 2421SOL    HW118899   4.282   1.877   1.667  1.1424  1.4351  0.0795
 2421SOL    HW218900   4.136   1.862   1.669 -0.3408 -1.1321  1.8097
 2422SOL     OW18901   2.277   0.277   8.207  0.3400  0.0197 -0.0402
 2422SOL    HW118902   2.219   0.220   8.258  0.2719  0.7634  0.7046
 2422SOL    HW218903   2.261   0.365   8.241  1.4032 -0.6161  2.0841
 2423SOL     OW18904   0.594   0.065   9.702  0.0268  0.4712  0.2275
 2423SOL    HW118905   0.666   0.003   9.693 -1.1086 -0.2787 -3.6641
 2423SOL    HW218906   0.541   0.026   9.772  2.2827  1.0076  2.2503
 2424SOL     OW18907   4.536   0.528   2.520 -0.2914  0.2220  0.3828
 2424SOL    HW118908   4.451   0.520   2.476 -0.1648  1.0739 -0.0072
 2424SOL    HW218909   4.593   0.524   2.443 -1.0069  0.0322 -0.1376
 2425SOL     OW18910   4.366   0.018   5.274  0.0388  0.0635 -0.2888
 2425SOL    HW118911   4.273   0.028   5.258 -0.5494 -2.5443  1.4218
 2425SOL    HW218912   4.393   4.714   5.193 -0.0405  0.7734 -0.6954
 2426SOL     OW18913   4.225   1.786   6.720 -0.0724 -0.0490  0.1310
 2426SOL    HW118914   4.218   1.813   6.812 -4.8333 -2.9642  0.6123
 2426SOL    HW218915   4.293   1.718   6.725  1.5754  1.5263 -0.7107
 2427SOL     OW18916   4.653   2.194   9.794  0.0355  0.1269 -0.2060
 2427SOL    HW118917   4.589   2.142   9.843 -1.5069  2.0300 -0.1943
 2427SOL    HW218918   4.731   2.188   9.849 -0.6822 -1.5281  0.6333
 2428SOL     OW18919   0.597   2.753  16.007 -0.1615 -0.4382  0.5195
 2428SOL    HW118920   0.516   2.785  15.968  0.5349 -0.2371 -0.7847
 2428SOL    HW218921   0.566   2.767  16.096 -1.5685  1.6220 -0.2844
 2429SOL     OW18922   3.448   2.911   2.468 -0.6946 -0.0419  0.2902
 2429SOL    HW118923   3.537   2.923   2.501 -1.3552 -1.1050  2.4324
 2429SOL    HW218924   3.457   2.958   2.385 -1.1369  0.6279  0.6290
 2430SOL     OW18925   2.612   0.605   6.873 -0.0959 -0.5386  0.0615
 2430SOL    HW118926   2.588   0.515   6.853 -1.7033 -1.0734  4.4022
 2430SOL    HW218927   2.552   0.651   6.814 -0.4311 -0.0634  0.7706
 2431SOL     OW18928   1.768   0.713  14.599 -0.0070 -0.5872  0.3231
 2431SOL    HW118929   1.714   0.681  14.527 -0.7665  2.3123 -0.3865
 2431SOL    HW218930   1.814   0.636  14.632  1.4167  1.1338  2.3482
 2432SOL     OW18931   4.057   1.006   7.281 -0.0935  0.2812  0.1715
 2432SOL    HW118932   4.025   1.054   7.205  0.1887 -1.7763 -1.2452
 2432SOL    HW218933   3.985   1.018   7.343 -1.5521 -1.5689 -1.1822
 2433SOL     OW18934   2.794   3.302  12.178 -0.2356 -0.1582  0.1728
 2433SOL    HW118935   2.716   3.251  12.156 -0.4932 -0.2882  1.3622
 2433SOL    HW218936   2.771   3.342  12.262 -1.6661  0.5989 -0.5959
 2434SOL     OW18937   2.818   0.127  11.283  0.2174  0.1887  0.2385
 2434SOL    HW118938   2.794   0.036  11.302 -1.5850 -0.1370 -3.3869
 2434SOL    HW218939   2.912   0.122  11.268 -0.2816 -0.0036 -2.9447
 2435SOL     OW18940   1.590   0.111   4.415 -0.1734  0.0347 -0.7352
 2435SOL    HW118941   1.675   0.150   4.397  0.4836 -1.0023  0.1174
 2435SOL    HW218942   1.572   0.059   4.336 -3.3325 -0.6986  0.4606
 2436SOL     OW18943   3.148   3.955   8.966  0.6709  0.3125 -0.2486
 2436SOL    HW118944   3.212   3.887   8.989  1.0909  0.0266 -2.1873
 2436SOL    HW218945   3.067   3.906   8.976 -1.5917  4.2047  0.3797
 2437SOL     OW18946   4.702   0.707   0.891 -0.4246  0.2555 -0.2515
 2437SOL    HW118947   4.653   0.661   0.959  0.0593  0.3464  0.1580
 2437SOL    HW218948   4.624   0.749   0.853  1.2729  1.7071 -2.1438
 2438SOL     OW18949   1.849   3.562   4.390 -0.7133  0.4219 -0.4288
 2438SOL    HW118950   1.857   3.590   4.481  0.2963  2.3346 -1.0862
 2438SOL    HW218951   1.924   3.604   4.348 -0.0916 -0.0487  0.2201
 2439SOL     OW18952   2.525   4.354  12.978 -0.2058  0.1692  0.4792
 2439SOL    HW118953   2.576   4.433  12.993  0.0434  0.5434 -2.3665
 2439SOL    HW218954   2.543   4.306  13.060 -1.4599 -0.5490  0.3423
 2440SOL     OW18955   1.753   1.981  13.984 -0.2524 -0.4177 -0.6319
 2440SOL    HW118956   1.733   2.073  13.966 -2.7752 -1.1374 -1.4313
 2440SOL    HW218957   1.812   1.959  13.912  0.4547  0.1594 -0.2354
 2441SOL     OW18958   4.273   2.214  14.709 -0.5075 -0.4108 -0.2302
 2441SOL    HW118959   4.269   2.304  14.742  0.1755  0.0662 -1.4509
 2441SOL    HW218960   4.323   2.227  14.628 -3.0652  0.1667 -1.7369
 2442SOL     OW18961   0.618   2.335   5.427  0.5839  0.1828  0.0563
 2442SOL    HW118962   0.634   2.428   5.443 -0.0246  0.1642  0.7627
 2442SOL    HW218963   0.651   2.323   5.338 -1.9006  3.7932 -1.3899
 2443SOL     OW18964   3.362   1.235   2.918  0.2918  0.2192  0.0087
 2443SOL    HW118965   3.309   1.270   2.989 -0.9617 -1.8850  0.1230
 2443SOL    HW218966   3.348   1.307   2.857  1.1457  0.6812  0.3445
 2444SOL     OW18967   0.111   1.950   8.558 -0.1462 -0.3728 -0.0976
 2444SOL    HW118968   0.062   1.915   8.484 -0.4743 -1.1722  0.5001
 2444SOL    HW218969   0.182   1.995   8.512 -1.7099  0.5059 -1.6443
 2445SOL     OW18970   0.796   1.287  10.053 -0.2002 -0.0628 -0.5326
 2445SOL    HW118971   0.726   1.321  10.108  2.0920  0.5034  2.0520
 2445SOL    HW218972   0.875   1.305  10.104 -0.7972  1.9120 -0.3100
 2446SOL     OW18973   3.510   1.775   8.141  0.7883 -0.1852  0.3427
 2446SOL    HW118974   3.468   1.857   8.116  0.0554 -0.3762  0.9410
 2446SOL    HW218975   3.580   1.804   8.199  1.1291 -2.2721  0.9933
 2447SOL     OW18976   3.981   0.755   9.242 -0.8008  0.3641 -0.6791
 2447SOL    HW118977   4.051   0.815   9.216  1.2206 -2.1532 -1.0256
 2447SOL    HW218978   3.907   0.812   9.263  0.1061  2.1634 -2.2710
 2448SOL     OW18979   2.392   2.574   3.075 -0.5983  0.1224 -0.7014
 2448SOL    HW118980   2.322   2.633   3.104 -1.0284  1.5647 -4.7138
 2448SOL    HW218981   2.362   2.495   3.120 -1.9319  0.5687 -0.7849
 2449SOL     OW18982   1.034   0.435   6.553  0.3337 -0.5118  0.0235
 2449SOL    HW118983   0.963   0.488   6.516  0.5675 -0.2274 -0.0164
 2449SOL    HW218984   1.076   0.482   6.625 -0.4714  0.4882 -0.1579
 2450SOL     OW18985   3.361   4.635  11.736 -0.2372  0.0576  0.4203
 2450SOL    HW118986   3.345   4.599  11.824 -0.7904 -0.1584  0.2313
 2450SOL    HW218987   3.406   4.714  11.766 -1.3940  0.3990  1.2575
 2451SOL     OW18988   2.303   3.105  13.002 -0.0548 -0.5602  0.3477
 2451SOL    HW118989   2.284   3.037  13.067 -0.2233 -2.3109 -1.5353
 2451SOL    HW218990   2.346   3.056  12.932 -0.6364  2.2752 -2.0070
 2452SOL     OW18991   2.452   4.479  10.842  0.1402  0.3619  0.2529
 2452SOL    HW118992   2.479   4.414  10.778  0.7823 -0.1366  1.0313
 2452SOL    HW218993   2.398   4.420  10.894 -0.4834 -1.4274 -2.4238
 2453SOL     OW18994   4.328   1.423   3.257  0.3651  0.4289 -0.0076
 2453SOL    HW118995   4.382   1.396   3.183  1.9715  3.0717  0.2273
 2453SOL    HW218996   4.318   1.340   3.303 -0.2721 -0.1049 -1.0793
 2454SOL     OW18997   1.818   0.377   7.521 -1.1000  0.3613  0.7388
 2454SOL    HW118998   1.733   0.364   7.480  0.1102 -1.2286 -1.2177
 2454SOL    HW218999   1.890   0.362   7.460 -1.9431 -1.1548  0.1508
 2455SOL     OW19000   2.918   3.542   3.668 -0.6341  0.5248 -0.3524
 2455SOL    HW119001   3.005   3.516   3.698  0.3786  1.7272 -2.1959
 2455SOL    HW219002   2.881   3.588   3.743  2.4089 -1.6863  2.5030
 2456SOL     OW19003   2.700   3.685   8.748  0.3364  0.1507  0.0444
 2456SOL    HW119004   2.625   3.713   8.801  1.1288 -1.5985  2.0999
 2456SOL    HW219005   2.697   3.590   8.761 -0.7589  0.1928  0.1301
 2457SOL     OW19006   0.999   1.015  12.082  0.0884 -0.1760 -0.0535
 2457SOL    HW119007   0.964   1.104  12.075  0.5691 -0.1023 -1.5080
 2457SOL    HW219008   1.088   1.026  12.050 -0.6315 -1.2076 -2.4472
 2458SOL     OW19009   2.601   4.610  11.095 -0.4465  0.3593 -0.1924
 2458SOL    HW119010   2.661   4.561  11.039 -1.0049 -1.6542  0.9646
 2458SOL    HW219011   2.591   4.693  11.048  0.9613  1.1049  0.7840
 2459SOL     OW19012   4.702   2.314   4.200  0.0439 -0.0142 -0.0553
 2459SOL    HW119013   4.674   2.366   4.125 -1.6339 -0.5175  0.2168
 2459SOL    HW219014   4.616   2.286   4.232 -1.2992  2.0389 -1.9521
 2460SOL     OW19015   3.752   1.631   6.961 -0.1636 -0.1276  0.7505
 2460SOL    HW119016   3.736   1.710   7.013  1.2430  1.7408 -1.6689
 2460SOL    HW219017   3.769   1.673   6.877  0.2331  0.6542  1.2153
 2461SOL     OW19018   1.220   4.503   8.958  0.0402 -0.2570 -0.0756
 2461SOL    HW119019   1.182   4.516   8.871 -1.2251  0.7949  0.6169
 2461SOL    HW219020   1.145   4.454   8.993 -1.7698  1.5902 -1.3474
 2462SOL     OW19021   1.841   3.180   7.474 -0.3872 -0.1262 -0.1164
 2462SOL    HW119022   1.888   3.116   7.421  2.2309  1.4589  0.3279
 2462SOL    HW219023   1.899   3.255   7.485 -2.0983  0.9676  1.5721
 2463SOL     OW19024   3.651   0.352   1.944  0.4235 -0.2769 -0.5176
 2463SOL    HW119025   3.619   0.389   2.026  0.1634 -1.0741 -0.2597
 2463SOL    HW219026   3.589   0.367   1.872  0.4391  1.0936 -0.2379
 2464SOL     OW19027   3.880   2.183   6.658 -0.0408 -0.2985  0.3238
 2464SOL    HW119028   3.869   2.267   6.701 -0.5811 -0.0031 -0.3997
 2464SOL    HW219029   3.944   2.201   6.589  1.4420 -0.5871  1.6286
 2465SOL     OW19030   0.335   2.611  15.727  0.3251  0.1587  0.0387
 2465SOL    HW119031   0.262   2.649  15.678  0.8145 -0.3562 -1.0848
 2465SOL    HW219032   0.353   2.695  15.768  0.8958  0.5820 -1.0932
 2466SOL     OW19033   1.784   4.186  11.588  0.0356  0.0550  0.2436
 2466SOL    HW119034   1.735   4.117  11.544 -0.9653 -0.1474  1.6940
 2466SOL    HW219035   1.722   4.238  11.638 -1.4542 -0.9563 -0.5562
 2467SOL     OW19036   3.919   1.622   9.193  0.4103 -0.8171 -0.0874
 2467SOL    HW119037   3.983   1.674   9.242 -0.4968 -1.2410  1.5419
 2467SOL    HW219038   3.951   1.535   9.217  2.5385  0.4604  1.7831
 2468SOL     OW19039   3.089   1.651   8.632  0.0679  0.2621  0.3078
 2468SOL    HW119040   2.999   1.662   8.603 -0.0554 -1.6759 -0.0046
 2468SOL    HW219041   3.080   1.640   8.727 -1.1285  1.9650  0.4050
 2469SOL     OW19042   1.877   2.031   6.777  0.2296 -0.0840  0.5457
 2469SOL    HW119043   1.818   2.103   6.798  0.8868  0.4474  0.5664
 2469SOL    HW219044   1.844   1.963   6.836  1.2415 -2.7479 -1.9560
 2470SOL     OW19045   1.046   3.039   5.108  0.4803 -0.3700 -0.3850
 2470SOL    HW119046   0.958   3.001   5.103 -0.0277  0.6452  0.6714
 2470SOL    HW219047   1.039   3.128   5.075 -0.6389  0.2717  1.5601
 2471SOL     OW19048   2.950   1.185   0.597  0.5050 -0.6829 -0.2584
 2471SOL    HW119049   2.992   1.102   0.619  0.6417 -0.8191 -1.0682
 2471SOL    HW219050   2.931   1.184   0.504  0.7831 -0.6088 -0.3162
 2472SOL     OW19051   0.654   1.237   4.119  0.0199  0.6352  0.3366
 2472SOL    HW119052   0.600   1.315   4.133  0.8747  1.4192 -0.7611
 2472SOL    HW219053   0.744   1.270   4.119  0.2669 -0.0168  1.9972
 2473SOL     OW19054   1.426   2.826   4.869  0.0293 -0.4209 -0.1574
 2473SOL    HW119055   1.411   2.915   4.839 -0.4175 -0.9497 -1.4791
 2473SOL    HW219056   1.370   2.831   4.947  2.1952 -2.1937  1.5149
 2474SOL     OW19057   3.536   0.606  15.215 -0.6776 -0.1051 -0.5484
 2474SOL    HW119058   3.507   0.688  15.175 -0.4867  1.0689  1.6661
 2474SOL    HW219059   3.452   0.563  15.232 -1.0016  0.3596 -0.9814
 2475SOL     OW19060   1.035   3.816  13.705 -0.0038  0.1746  0.2601
 2475SOL    HW119061   1.062   3.819  13.797  0.7928  0.2845  0.0255
 2475SOL    HW219062   0.951   3.769  13.706 -0.5143  0.9938 -3.5403
 2476SOL     OW19063   1.457   3.683  10.958 -0.2736 -0.0554 -0.0352
 2476SOL    HW119064   1.521   3.620  10.990 -1.9712 -1.2729  0.9872
 2476SOL    HW219065   1.423   3.730  11.034 -1.0951  0.3526 -0.6428
 2477SOL     OW19066   1.155   0.681   4.791  0.4512  0.0361  0.2809
 2477SOL    HW119067   1.177   0.685   4.698  0.8735  0.7695  0.4156
 2477SOL    HW219068   1.062   0.700   4.780  1.0100  3.1246  1.1016
 2478SOL     OW19069   2.166   1.598   7.716  0.1010  0.2605 -0.0629
 2478SOL    HW119070   2.224   1.674   7.726 -0.1272  0.3235  0.8397
 2478SOL    HW219071   2.107   1.622   7.788  3.7180  1.0098  2.6898
 2479SOL     OW19072   3.093   0.231   7.303  0.0499 -0.6309  0.5900
 2479SOL    HW119073   3.141   0.193   7.376 -0.2126 -1.5174  0.3014
 2479SOL    HW219074   3.056   0.313   7.337 -0.5056 -1.3718  1.7436
 2480SOL     OW19075   1.028   2.874   5.625  0.0488 -0.6424  0.1177
 2480SOL    HW119076   1.003   2.860   5.534 -3.2485 -0.2074  0.9492
 2480SOL    HW219077   0.974   2.800   5.653 -2.4334  0.7590 -0.9612
 2481SOL     OW19078   3.083   2.171   2.697 -0.2168  0.5509 -0.4791
 2481SOL    HW119079   3.086   2.267   2.704 -2.1490  0.5794  0.1394
 2481SOL    HW219080   3.087   2.146   2.789  2.4252 -2.2984 -1.4017
 2482SOL     OW19081   2.979   1.054   4.319  0.2094 -0.3277  0.2153
 2482SOL    HW119082   2.924   1.132   4.324 -0.3868 -0.7503  0.2471
 2482SOL    HW219083   2.927   0.980   4.351  0.3567 -0.7875 -0.6111
 2483SOL     OW19084   1.353   4.284  13.677 -0.0440  0.3332 -0.4099
 2483SOL    HW119085   1.410   4.208  13.682 -0.2579  0.2655  0.9660
 2483SOL    HW219086   1.272   4.254  13.718  0.0653  0.6429  0.0272
 2484SOL     OW19087   2.954   3.581   7.684 -0.1746  0.2412  0.2108
 2484SOL    HW119088   3.001   3.648   7.634 -1.4120  1.6182  0.8793
 2484SOL    HW219089   2.915   3.534   7.611  0.1343 -0.1622  0.3088
 2485SOL     OW19090   1.875   2.459  11.542 -0.6050 -0.8580 -0.7848
 2485SOL    HW119091   1.935   2.384  11.542  0.0455 -0.3224  1.7518
 2485SOL    HW219092   1.811   2.435  11.609  1.9953 -0.4459  1.8188
 2486SOL     OW19093   1.024   4.241   4.680  0.0988  0.1498 -0.4429
 2486SOL    HW119094   1.016   4.177   4.610  2.1148 -0.0261 -0.5222
 2486SOL    HW219095   0.940   4.229   4.723 -0.1621  1.9334 -0.4398
 2487SOL     OW19096   3.101   3.966   9.281  0.1181 -0.4028 -0.0595
 2487SOL    HW119097   3.107   3.968   9.185 -0.3734 -0.9615 -0.0974
 2487SOL    HW219098   3.185   3.921   9.290 -0.6533 -1.4579  1.8107
 2488SOL     OW19099   3.201   0.062   5.835  0.1554  0.3368  0.0733
 2488SOL    HW119100   3.169   0.003   5.903 -2.0457  1.2677 -0.1513
 2488SOL    HW219101   3.147   0.141   5.843  0.7237  0.9056 -1.6221
 2489SOL     OW19102   1.871   1.354   7.662  0.0442 -0.0257 -0.1974
 2489SOL    HW119103   1.930   1.338   7.735  2.0016  0.2806 -1.7061
 2489SOL    HW219104   1.818   1.274   7.658  1.0675 -0.6406 -1.4797
 2490SOL     OW19105   4.029   3.115  13.353  0.3624 -0.0057 -0.1674
 2490SOL    HW119106   4.076   3.108  13.270 -0.4598  0.5249 -0.6831
 2490SOL    HW219107   4.028   3.211  13.358 -1.3861 -0.0097 -0.3262
 2491SOL     OW19108   3.031   3.628   8.875  0.3434  0.0099 -0.2366
 2491SOL    HW119109   3.022   3.659   8.785 -0.2375  1.1973  0.2185
 2491SOL    HW219110   2.987   3.694   8.929  2.5582  2.3366 -1.2376
 2492SOL     OW19111   3.987   3.629   6.386 -0.0164 -0.1863 -0.2279
 2492SOL    HW119112   4.004   3.559   6.323  0.0215 -1.2283  0.9394
 2492SOL    HW219113   4.048   3.619   6.459  0.7411 -1.4405 -1.0381
 2493SOL     OW19114   4.158   3.367   3.769  0.7304 -0.0497 -0.4268
 2493SOL    HW119115   4.151   3.288   3.715  0.3610  1.2047 -2.1916
 2493SOL    HW219116   4.070   3.392   3.800  1.4416 -0.1898  1.7370
 2494SOL     OW19117   2.406   3.847   6.492  0.5796  0.0200 -0.0926
 2494SOL    HW119118   2.407   3.893   6.576 -1.5592  3.3761 -1.8777
 2494SOL    HW219119   2.331   3.789   6.502  0.8170 -0.2296  0.2422
 2495SOL     OW19120   0.113   1.195   3.920 -0.1573 -0.2707  0.3750
 2495SOL    HW119121   0.171   1.232   3.854 -0.3676 -1.1587 -0.3086
 2495SOL    HW219122   0.066   1.121   3.882 -0.2645 -0.7152  1.3770
 2496SOL     OW19123   4.549   2.124   1.916  0.3804  0.0337 -0.7725
 2496SOL    HW119124   4.634   2.123   1.872  0.5864  0.7677 -0.3786
 2496SOL    HW219125   4.504   2.086   1.840 -1.6744  1.5144 -0.3153
 2497SOL     OW19126   3.246   2.929   3.750 -0.1549 -0.0235  0.2332
 2497SOL    HW119127   3.303   2.869   3.799  0.3395 -0.1083 -0.4413
 2497SOL    HW219128   3.215   2.987   3.819  0.7263  0.6777  0.0423
 2498SOL     OW19129   3.853   0.199   2.696 -0.2285 -0.2183  0.2172
 2498SOL    HW119130   3.867   0.275   2.754 -0.3806 -0.5881  0.7389
 2498SOL    HW219131   3.912   0.137   2.740 -0.0324 -1.4086 -1.7250
 2499SOL     OW19132   4.451   2.143   4.287 -0.0887  0.1533  0.0727
 2499SOL    HW119133   4.405   2.065   4.319 -0.9982  0.4388 -0.5458
 2499SOL    HW219134   4.377   2.189   4.248 -0.1058  1.4611  1.6222
 2500SOL     OW19135   3.298   0.696   2.387  0.2105 -0.5042 -0.0590
 2500SOL    HW119136   3.230   0.669   2.325 -0.8381  3.3034 -0.5326
 2500SOL    HW219137   3.317   0.610   2.425  1.4099  0.7423  2.1212
 2501SOL     OW19138   2.596   3.670   7.750  0.2956  0.1709 -0.0249
 2501SOL    HW119139   2.510   3.692   7.714 -0.0826 -0.1968  0.6712
 2501SOL    HW219140   2.653   3.697   7.677  1.9328 -2.3054  0.3008
 2502SOL     OW19141   0.664   2.611   2.234 -0.5412  0.1169  0.1116
 2502SOL    HW119142   0.623   2.679   2.288 -1.6913  0.8996 -1.6953
 2502SOL    HW219143   0.644   2.531   2.282  0.9043 -0.8618 -0.9161
 2503SOL     OW19144   1.320   4.184  14.848 -0.4832  0.0503 -0.1917
 2503SOL    HW119145   1.249   4.238  14.881  0.8875 -0.0191  2.7941
 2503SOL    HW219146   1.305   4.195  14.754 -0.8451  0.2090 -0.1163
 2504SOL     OW19147   1.634   2.852   4.108 -0.0279 -0.0985  0.5585
 2504SOL    HW119148   1.707   2.879   4.051  0.2188  0.6136  1.2134
 2504SOL    HW219149   1.572   2.805   4.053  1.2625 -0.4437 -0.6132
 2505SOL     OW19150   2.219   1.479   8.857 -0.4479  0.5485  0.0536
 2505SOL    HW119151   2.155   1.481   8.927 -0.6172  1.7944 -0.1391
 2505SOL    HW219152   2.183   1.545   8.798 -1.8607  1.9019  2.4642
 2506SOL     OW19153   4.691   1.002   3.538 -0.2774 -0.6716 -0.6754
 2506SOL    HW119154   4.687   0.908   3.519  0.8810 -0.7012 -0.7926
 2506SOL    HW219155   4.714   0.997   3.631 -1.4092 -0.2266 -0.3743
 2507SOL     OW19156   0.525   2.542   7.119 -0.4054  0.0207 -0.5256
 2507SOL    HW119157   0.569   2.471   7.071 -2.1977 -0.1071 -1.9592
 2507SOL    HW219158   0.488   2.601   7.053  0.0512 -0.1553 -0.9401
 2508SOL     OW19159   1.363   2.836   3.686  0.2374 -0.6781  0.7040
 2508SOL    HW119160   1.374   2.926   3.657  1.0516 -1.6794 -2.1243
 2508SOL    HW219161   1.268   2.832   3.695  0.0038 -0.5743 -1.6882
 2509SOL     OW19162   0.206   3.964   2.073  0.0516 -0.2940  0.9213
 2509SOL    HW119163   0.246   3.909   2.141  0.0333 -0.2562  0.9624
 2509SOL    HW219164   0.175   3.894   2.015 -1.3821 -0.3734  1.7770
 2510SOL     OW19165   2.477   3.799  15.306 -0.2209 -0.5329  0.0396
 2510SOL    HW119166   2.430   3.788  15.388  0.9934  0.6043  0.8942
 2510SOL    HW219167   2.409   3.843  15.254  1.3588  2.3760  0.4029
 2511SOL     OW19168   0.339   2.574   3.141  0.4780 -0.0752 -0.5521
 2511SOL    HW119169   0.422   2.591   3.096  1.2692 -0.6700  0.7097
 2511SOL    HW219170   0.352   2.630   3.217  1.0301  1.4296 -1.7449
 2512SOL     OW19171   1.344   2.708  12.148 -0.5582 -0.3355  0.4569
 2512SOL    HW119172   1.418   2.700  12.209 -0.0272  1.6825  0.0759
 2512SOL    HW219173   1.349   2.629  12.094 -0.0857  0.2416 -0.3401
 2513SOL     OW19174   4.568   4.099   7.136 -0.0671 -0.2975 -0.2072
 2513SOL    HW119175   4.487   4.137   7.172 -0.2520 -0.9514  0.0679
 2513SOL    HW219176   4.588   4.158   7.062 -0.0748 -0.1939 -0.1273
 2514SOL     OW19177   2.062   4.701  15.272  0.1336 -0.7596  0.2898
 2514SOL    HW119178   2.026   0.036  15.319 -0.6642 -2.0489  1.7407
 2514SOL    HW219179   2.001   4.630  15.291 -1.5001  0.0168 -2.0873
 2515SOL     OW19180   1.988   3.214   2.661  0.1680 -0.2884  0.2901
 2515SOL    HW119181   1.982   3.297   2.613 -1.2758 -0.4201  0.2409
 2515SOL    HW219182   1.927   3.178   2.597 -0.8070 -0.8006  1.5216
 2516SOL     OW19183   1.000   3.618  12.551 -0.1341 -0.0264  0.4918
 2516SOL    HW119184   1.009   3.684  12.481  0.1871 -0.1242  0.4420
 2516SOL    HW219185   1.056   3.660  12.617  1.3681  0.5273 -1.1197
 2517SOL     OW19186   4.313   2.278   7.322  0.0298  0.2976 -0.3216
 2517SOL    HW119187   4.396   2.239   7.350  0.5877  1.3875 -0.4355
 2517SOL    HW219188   4.249   2.207   7.330 -0.4250  0.8147  0.6364
 2518SOL     OW19189   1.072   0.795   4.055 -0.1991 -0.4542  0.1339
 2518SOL    HW119190   1.131   0.870   4.062  0.3437 -1.0181  1.6942
 2518SOL    HW219191   0.989   0.827   4.021  1.1085  0.0935 -2.4752
 2519SOL     OW19192   0.725   2.581   5.506 -0.2532 -0.3942 -0.0128
 2519SOL    HW119193   0.660   2.624   5.561  2.9325  2.8255  1.1737
 2519SOL    HW219194   0.797   2.587   5.568 -1.0091  2.0102  0.6355
 2520SOL     OW19195   0.477   3.316  17.745  0.0570  0.6421  0.0967
 2520SOL    HW119196   0.419   3.373   0.038 -0.7318  1.0088 -1.2326
 2520SOL    HW219197   0.494   3.251   0.056  0.2051  2.2792  1.5998
 2521SOL     OW19198   2.418   3.546   9.027 -0.0532  0.3872 -0.6722
 2521SOL    HW119199   2.360   3.509   9.095 -2.9746  3.8857 -1.2523
 2521SOL    HW219200   2.497   3.577   9.069  1.2008 -1.3903 -1.6962
 2522SOL     OW19201   2.059   2.267   6.145  0.1659  0.1598  0.1172
 2522SOL    HW119202   2.081   2.209   6.218  3.1910  0.3483 -0.6578
 2522SOL    HW219203   1.964   2.263   6.136  0.4068 -1.9984 -1.6913
 2523SOL     OW19204   4.696   4.642  12.203 -0.6771 -0.0910 -0.2016
 2523SOL    HW119205   0.015   4.619  12.275 -1.5607 -2.1550 -0.1251
 2523SOL    HW219206   0.003   4.711  12.157 -1.1200  1.5756  1.8464
 2524SOL     OW19207   0.146   1.923   6.375 -0.4994  0.0643  0.4872
 2524SOL    HW119208   0.123   1.833   6.353 -1.7947  0.1367  1.5843
 2524SOL    HW219209   0.232   1.917   6.415 -0.5150 -0.3736  0.4502
 2525SOL     OW19210   0.650   4.737   1.952  0.0260 -0.1983 -1.0423
 2525SOL    HW119211   0.596   4.662   1.980 -0.6050  0.4924 -0.4015
 2525SOL    HW219212   0.629   0.069   2.011 -0.6258 -0.1150 -1.3783
 2526SOL     OW19213   2.042   3.236   9.349  0.2309 -0.2672  0.0741
 2526SOL    HW119214   2.048   3.203   9.259 -1.3779  3.2894 -1.3546
 2526SOL    HW219215   2.000   3.320   9.328  2.1557  0.8586  0.6812
 2527SOL     OW19216   4.365   1.230   4.298 -0.0133 -0.1788 -0.3474
 2527SOL    HW119217   4.452   1.269   4.297  0.6434 -1.6811 -0.5522
 2527SOL    HW219218   4.368   1.169   4.372 -0.1341  2.5842  1.9497
 2528SOL     OW19219   4.649   2.498   7.932 -0.4524 -0.2398 -0.3932
 2528SOL    HW119220   4.563   2.521   7.897 -0.1372 -1.5244 -2.0286
 2528SOL    HW219221   4.701   2.460   7.861 -0.4178 -0.8191 -0.0541
 2529SOL     OW19222   1.220   2.860   2.630  0.3783  0.2146  0.8136
 2529SOL    HW119223   1.209   2.947   2.593  0.2208 -0.2345 -0.2189
 2529SOL    HW219224   1.138   2.818   2.604  1.1362 -1.7538  1.5718
 2530SOL     OW19225   1.084   1.539   7.990  0.0392  0.0848  0.6295
 2530SOL    HW119226   1.015   1.481   7.959  1.3976 -1.6566  0.8625
 2530SOL    HW219227   1.057   1.619   7.944  0.8190  0.4133  0.7365
 2531SOL     OW19228   1.186   1.002   2.002 -0.7114 -0.1235  0.5808
 2531SOL    HW119229   1.177   1.005   1.907 -1.5129  0.6636  0.6777
 2531SOL    HW219230   1.173   0.908   2.015 -0.4023 -0.3238 -0.5989
 2532SOL     OW19231   4.063   0.495   4.320  0.0338 -0.6608 -0.0968
 2532SOL    HW119232   4.079   0.581   4.281 -0.9292 -0.1673  0.5967
 2532SOL    HW219233   4.003   0.528   4.386 -0.7286 -1.2827 -0.4836
 2533SOL     OW19234   3.862   3.831   1.954  0.0248 -0.2357 -0.2605
 2533SOL    HW119235   3.772   3.805   1.974  0.0312 -0.2561 -0.2585
 2533SOL    HW219236   3.874   3.898   2.021 -0.2167 -1.6886  1.2512
 2534SOL     OW19237   3.240   3.309  14.717 -0.3222  0.0773  0.2653
 2534SOL    HW119238   3.262   3.395  14.683  1.1391 -0.5562 -0.4202
 2534SOL    HW219239   3.153   3.300  14.679 -0.1589 -0.8898  0.1059
 2535SOL     OW19240   3.002   4.640   5.137  0.4658 -0.3968  0.2016
 2535SOL    HW119241   3.026   4.549   5.158 -0.2711 -0.6383 -0.0263
 2535SOL    HW219242   3.084   4.684   5.159 -0.5517  1.8407 -0.4432
 2536SOL     OW19243   1.091   2.234  16.172  0.4060  0.3670 -0.3993
 2536SOL    HW119244   1.059   2.144  16.172  0.9551  0.1739 -0.7681
 2536SOL    HW219245   1.015   2.281  16.137  1.0285  0.3875 -1.7218
 2537SOL     OW19246   4.604   3.774  15.422  0.5961 -0.5222 -0.1130
 2537SOL    HW119247   4.645   3.721  15.491  1.1371 -1.3524 -1.0730
 2537SOL    HW219248   4.520   3.794  15.463  0.7778 -0.0227  0.0185
 2538SOL     OW19249   1.457   0.290  14.867  0.1660 -0.3591  0.2684
 2538SOL    HW119250   1.510   0.344  14.925 -1.6307  0.6008  1.0191
 2538SOL    HW219251   1.494   0.206  14.893 -0.5189 -0.1723  1.8346
 2539SOL     OW19252   2.172   3.311   3.709 -0.3216  0.1834 -0.3102
 2539SOL    HW119253   2.221   3.266   3.640 -0.1963 -3.1301  1.9361
 2539SOL    HW219254   2.093   3.260   3.694  1.5266 -1.2805 -4.8830
 2540SOL     OW19255   3.557   0.063  16.992 -0.0545 -0.6110  0.7366
 2540SOL    HW119256   3.526   0.050  16.903 -0.1413  1.0999  0.5099
 2540SOL    HW219257   3.637   0.011  17.000  1.0375  0.7232 -1.6512
 2541SOL     OW19258   4.008   1.168   8.612 -0.5750 -0.2349 -0.3601
 2541SOL    HW119259   3.970   1.256   8.614 -0.4334 -0.2147  2.3318
 2541SOL    HW219260   4.055   1.160   8.530  1.0084  0.7748  0.4508
 2542SOL     OW19261   3.303   4.184   3.701 -0.4064  0.1043 -0.1048
 2542SOL    HW119262   3.374   4.119   3.698 -0.7998 -0.3430  0.3338
 2542SOL    HW219263   3.255   4.163   3.620 -2.0140 -2.2881  1.4630
 2543SOL     OW19264   3.875   0.794   6.966  0.2138  0.0499 -0.2922
 2543SOL    HW119265   3.930   0.867   6.939  0.1193 -0.0987 -0.8916
 2543SOL    HW219266   3.921   0.723   6.923  0.8777  2.2554 -3.2216
 2544SOL     OW19267   4.401   2.880  11.205  0.7613 -0.0195 -0.4450
 2544SOL    HW119268   4.478   2.871  11.261  0.0830 -1.1218  0.3137
 2544SOL    HW219269   4.426   2.825  11.130 -0.9052  0.7462 -1.5604
 2545SOL     OW19270   1.848   2.217   9.478  0.1435 -0.3377 -0.0914
 2545SOL    HW119271   1.913   2.280   9.508  1.3261 -1.3615 -0.5043
 2545SOL    HW219272   1.900   2.139   9.499  0.8770  0.1287 -0.1539
 2546SOL     OW19273   4.296   0.738  10.293  0.3796  0.6305 -0.1987
 2546SOL    HW119274   4.233   0.808  10.313 -2.6140 -2.0821 -0.1747
 2546SOL    HW219275   4.271   0.731  10.201 -0.6354 -0.5736  0.1746
 2547SOL     OW19276   2.597   3.752   4.362 -0.5749 -0.2139  0.1949
 2547SOL    HW119277   2.598   3.748   4.458  2.3541 -0.7179  0.1417
 2547SOL    HW219278   2.504   3.733   4.349 -1.4375  4.3271 -0.3186
 2548SOL     OW19279   1.907   4.367  10.117 -0.3120 -0.6335  0.0270
 2548SOL    HW119280   1.982   4.398  10.066  0.3697  1.0403  2.0574
 2548SOL    HW219281   1.938   4.380  10.207 -2.7781 -1.4048  0.9725
 2549SOL     OW19282   1.530   1.833   4.026  0.1939 -0.3630 -0.2218
 2549SOL    HW119283   1.492   1.909   3.982 -0.0705 -0.5279 -0.2820
 2549SOL    HW219284   1.539   1.770   3.954  1.2528 -1.4944  0.9061
 2550SOL     OW19285   4.064   1.282  10.082 -0.2599  0.3951  0.9264
 2550SOL    HW119286   4.114   1.268  10.162 -1.9200  0.2512  1.9322
 2550SOL    HW219287   4.060   1.377  10.071  0.8227  0.3698  0.2658
 2551SOL     OW19288   4.375   4.169  15.581  0.6282 -0.3776 -0.1218
 2551SOL    HW119289   4.367   4.261  15.607 -1.7580 -0.4636 -0.5624
 2551SOL    HW219290   4.370   4.162  15.486 -2.6448 -2.3713  0.1882
 2552SOL     OW19291   1.660   0.152   6.317  0.1512 -0.3471 -0.5684
 2552SOL    HW119292   1.629   0.150   6.407 -2.6668 -1.6577 -1.5855
 2552SOL    HW219293   1.737   0.209   6.311  1.3666 -1.9279 -0.0788
 2553SOL     OW19294   1.551   0.907  13.371 -0.1528  0.2743  0.1514
 2553SOL    HW119295   1.543   1.000  13.389  0.5642  0.0894  1.4117
 2553SOL    HW219296   1.643   0.891  13.354 -0.7522 -1.3546 -1.5545
 2554SOL     OW19297   1.778   3.622   7.373 -0.3439 -0.4022 -0.4988
 2554SOL    HW119298   1.734   3.655   7.294 -0.8385 -0.7024 -0.3536
 2554SOL    HW219299   1.823   3.701   7.402 -2.8000  1.7982 -2.6237
 2555SOL     OW19300   2.069   0.328   3.282 -0.4385  0.6644 -0.3225
 2555SOL    HW119301   2.063   0.375   3.365  1.1923  0.5936 -0.1604
 2555SOL    HW219302   2.116   0.387   3.222  0.2109 -1.3131 -1.7654
 2556SOL     OW19303   2.932   0.470  10.220  0.0247  0.0300  0.4723
 2556SOL    HW119304   2.978   0.455  10.302  1.4247  1.4790 -0.0551
 2556SOL    HW219305   2.906   0.561  10.232 -0.0009  0.2830 -1.4739
 2557SOL     OW19306   3.962   0.115   5.761 -0.9758  0.5425  0.0625
 2557SOL    HW119307   3.930   0.191   5.713 -0.4514  0.4064 -0.5145
 2557SOL    HW219308   3.902   0.104   5.834 -0.4793  2.1871  0.7202
 2558SOL     OW19309   0.654   1.485   5.231 -0.6192  0.7741  0.1333
 2558SOL    HW119310   0.668   1.505   5.324 -1.6295  2.0778 -0.0008
 2558SOL    HW219311   0.635   1.577   5.217  2.3651  1.6770  1.9405
 2559SOL     OW19312   2.233   4.003   7.353 -0.2857  0.7749 -0.1083
 2559SOL    HW119313   2.205   4.090   7.326 -1.6967  0.0437 -1.0444
 2559SOL    HW219314   2.258   4.021   7.444  2.0595 -0.9522 -0.3962
 2560SOL     OW19315   4.259   1.004   7.655 -0.2596  0.5960 -0.1006
 2560SOL    HW119316   4.243   0.940   7.586  1.0212  0.2226 -0.0513
 2560SOL    HW219317   4.172   1.021   7.690 -0.1429 -1.7499  1.2819
 2561SOL     OW19318   1.798   1.088   6.736  0.4157  0.4560  0.2066
 2561SOL    HW119319   1.741   1.018   6.703 -0.1830  1.6421 -1.2848
 2561SOL    HW219320   1.795   1.150   6.663  1.6490 -0.5963 -0.7430
 2562SOL     OW19321   1.911   4.575  16.914  0.9005  0.0928 -0.1802
 2562SOL    HW119322   1.995   4.589  16.872 -0.6193 -1.2514 -3.6862
 2562SOL    HW219323   1.940   4.541  16.999 -0.8052  2.7624  1.4853
 2563SOL     OW19324   2.988   3.183  13.291 -0.3595  0.3686 -0.0577
 2563SOL    HW119325   3.076   3.169  13.256 -0.3836 -1.7009  0.6994
 2563SOL    HW219326   3.008   3.146  13.377  2.9133  2.9947  0.2681
 2564SOL     OW19327   3.429   3.761   6.931  0.7223 -0.2294  0.0089
 2564SOL    HW119328   3.463   3.836   6.981 -0.6089  0.0327  0.5090
 2564SOL    HW219329   3.395   3.695   6.991  0.3361 -0.4452 -0.4512
 2565SOL     OW19330   4.325   0.188  15.269  0.5949 -0.0200 -0.2968
 2565SOL    HW119331   4.359   0.118  15.325 -0.6875  0.1150  0.6594
 2565SOL    HW219332   4.235   0.179  15.300  0.5012  0.2292 -0.5009
 2566SOL     OW19333   0.179   2.197   6.297 -0.5345  0.8088 -0.3248
 2566SOL    HW119334   0.233   2.153   6.230  0.7366  2.4970 -0.4001
 2566SOL    HW219335   0.181   2.143   6.376  1.7345  0.5798 -0.5328
 2567SOL     OW19336   1.988   2.354   2.594  0.7048 -0.2581  0.2510
 2567SOL    HW119337   2.030   2.399   2.520 -1.2324 -1.0806 -1.3489
 2567SOL    HW219338   1.918   2.416   2.615 -1.6885 -1.6253 -3.6205
 2568SOL     OW19339   3.806   2.976   6.091 -0.4748  0.0828 -0.2012
 2568SOL    HW119340   3.845   2.938   6.170 -0.7718 -1.0135 -0.5924
 2568SOL    HW219341   3.749   3.047   6.122 -0.8154 -0.1706 -0.2471
 2569SOL     OW19342   0.024   0.885  12.674 -0.2163  0.0717  0.2022
 2569SOL    HW119343   4.709   0.809  12.653 -1.6054  1.3376 -0.6775
 2569SOL    HW219344   0.061   0.900  12.587 -1.1395 -1.3698 -0.4374
 2570SOL     OW19345   2.019   2.961   4.751 -0.1981 -0.2290  0.2387
 2570SOL    HW119346   1.936   2.962   4.704  0.8443  0.4227 -1.6120
 2570SOL    HW219347   2.019   2.867   4.766  0.1900 -0.5399 -1.7011
 2571SOL     OW19348   1.282   2.052  14.738 -0.0513  0.3204 -0.2440
 2571SOL    HW119349   1.187   2.048  14.742 -0.1082  1.9311  0.0776
 2571SOL    HW219350   1.294   2.118  14.669 -0.9167 -0.8046 -1.4842
 2572SOL     OW19351   4.621   1.763   4.836 -0.5090  0.6742  0.3656
 2572SOL    HW119352   4.575   1.724   4.762  1.3740  0.3781 -0.6622
 2572SOL    HW219353   4.706   1.777   4.794 -0.4800 -1.0919 -0.1462
 2573SOL     OW19354   0.552   1.930   2.171  0.0780  0.0039  0.4543
 2573SOL    HW119355   0.472   1.922   2.222 -0.8117  0.1652 -0.9072
 2573SOL    HW219356   0.557   2.019   2.136 -0.1241 -0.3678 -0.5254
 2574SOL     OW19357   2.412   2.244   9.510 -0.5676 -0.4358 -0.5670
 2574SOL    HW119358   2.458   2.283   9.435 -0.0089 -1.6068 -0.8345
 2574SOL    HW219359   2.359   2.316   9.543  0.6747  0.2655 -0.0832
 2575SOL     OW19360   1.385   4.194  10.449 -0.3998  0.2727  0.3402
 2575SOL    HW119361   1.335   4.275  10.453 -0.1323  0.3921  1.4168
 2575SOL    HW219362   1.361   4.174  10.540  0.9850 -0.4049  0.5601
 2576SOL     OW19363   3.319   1.971   2.733  0.2140  0.1425  0.2892
 2576SOL    HW119364   3.324   1.983   2.828  1.1347 -0.0759  0.2603
 2576SOL    HW219365   3.244   2.029   2.715  0.7913  1.0120  0.6764
 2577SOL     OW19366   4.629   3.262   7.304 -0.5197 -0.3722 -0.2859
 2577SOL    HW119367   4.555   3.247   7.246 -0.2013  0.3953 -0.8859
 2577SOL    HW219368   4.593   3.333   7.357  1.2432  1.6746 -1.7714
 2578SOL     OW19369   0.216   4.623   5.473  0.1703  0.1853 -0.6459
 2578SOL    HW119370   0.153   4.568   5.425  0.9755 -0.7088 -0.6922
 2578SOL    HW219371   0.169   4.668   5.543 -1.1218  0.7188 -1.8543
 2579SOL     OW19372   3.388   3.964   8.703  0.6058  0.1911  0.3125
 2579SOL    HW119373   3.419   4.055   8.697  1.1521  0.1271  1.9643
 2579SOL    HW219374   3.301   3.969   8.663 -0.4645 -1.4963  2.4529
 2580SOL     OW19375   3.454   1.875  13.288  0.2695 -0.0473 -0.5647
 2580SOL    HW119376   3.497   1.901  13.370  1.9460 -1.2668 -1.0547
 2580SOL    HW219377   3.432   1.783  13.302 -1.4934  0.6502  1.3478
 2581SOL     OW19378   4.078   0.976   5.119  0.4587 -0.0336  0.2499
 2581SOL    HW119379   4.053   0.888   5.089  1.8058 -0.2193 -0.3153
 2581SOL    HW219380   4.161   0.955   5.162 -0.1983 -0.6725  1.2096
 2582SOL     OW19381   3.151   3.386   2.754 -0.3821  0.1026 -0.1928
 2582SOL    HW119382   3.214   3.372   2.684 -0.4251  0.7766 -0.3738
 2582SOL    HW219383   3.142   3.311   2.812  0.3718 -0.9732 -1.4865
 2583SOL     OW19384   1.608   1.610   5.641  0.2861  0.7315 -0.0461
 2583SOL    HW119385   1.637   1.554   5.713  0.4745 -1.3099 -1.7226
 2583SOL    HW219386   1.591   1.544   5.574  1.7232  2.1323 -1.7934
 2584SOL     OW19387   3.416   3.621   7.934  0.0506  0.3076 -0.3402
 2584SOL    HW119388   3.326   3.631   7.966  0.0299  0.4698 -0.4489
 2584SOL    HW219389   3.467   3.669   7.999 -0.0985  0.8697 -0.6392
 2585SOL     OW19390   2.482   2.643  11.527 -0.1845 -0.4520 -0.6957
 2585SOL    HW119391   2.388   2.658  11.535 -0.1801 -0.2688 -1.0034
 2585SOL    HW219392   2.490   2.600  11.442 -0.0209  1.7547 -1.7960
 2586SOL     OW19393   2.413   3.240   5.470  0.4541 -0.4489 -0.3076
 2586SOL    HW119394   2.341   3.274   5.418  2.1565  1.0923 -1.6524
 2586SOL    HW219395   2.478   3.310   5.482  0.4494 -0.4572 -0.2333
 2587SOL     OW19396   0.203   1.089   3.233 -0.3717  0.0235 -0.1241
 2587SOL    HW119397   0.206   1.156   3.164  0.7679  0.3672  0.2475
 2587SOL    HW219398   0.113   1.060   3.227 -1.0129  1.3367  3.0525
 2588SOL     OW19399   2.465   1.454   8.737 -0.0456  0.9911  0.7574
 2588SOL    HW119400   2.393   1.446   8.800 -0.5516  1.2074  0.2022
 2588SOL    HW219401   2.459   1.374   8.685 -0.2139  1.7772 -0.4365
 2589SOL     OW19402   1.645   2.750   5.936  0.9523 -0.0310 -0.2298
 2589SOL    HW119403   1.590   2.709   6.002 -0.4817  0.7248 -0.9631
 2589SOL    HW219404   1.642   2.844   5.951 -1.9548 -0.1996  0.1870
 2590SOL     OW19405   0.762   0.367   1.342  0.6195  0.1261  0.5465
 2590SOL    HW119406   0.719   0.453   1.339 -0.3438 -0.2907  2.8624
 2590SOL    HW219407   0.769   0.357   1.247 -0.2075  0.9147  0.4000
 2591SOL     OW19408   0.715   1.757  11.608  0.0709 -0.0958  0.2158
 2591SOL    HW119409   0.665   1.751  11.527 -0.5504 -1.5497  0.7101
 2591SOL    HW219410   0.798   1.796  11.579 -0.2522  0.6115  0.2396
 2592SOL     OW19411   0.100   1.358   5.295 -0.2335 -0.2451 -0.5570
 2592SOL    HW119412   0.161   1.431   5.288  0.1040 -0.5358 -0.6788
 2592SOL    HW219413   0.085   1.322   5.207  2.2240  0.0312 -1.0913
 2593SOL     OW19414   1.060   3.591  16.103  0.3271 -0.0446  0.0024
 2593SOL    HW119415   0.998   3.655  16.068 -0.8204 -1.2739 -0.2659
 2593SOL    HW219416   1.124   3.644  16.149  1.3862 -1.6862  0.4033
 2594SOL     OW19417   2.522   0.734   6.196 -0.6533  0.6247  0.4754
 2594SOL    HW119418   2.611   0.771   6.198 -0.0204 -0.9484  1.2351
 2594SOL    HW219419   2.532   0.716   6.289 -3.3213 -0.5775  0.5067
 2595SOL     OW19420   0.935   1.086   3.143  0.5239 -0.3666  0.3118
 2595SOL    HW119421   1.018   1.087   3.190  0.4056  1.7162  0.4715
 2595SOL    HW219422   0.964   1.036   3.066  1.6109 -0.5898  0.8710
 2596SOL     OW19423   4.193   3.768   7.015 -0.4783  0.2003  0.1011
 2596SOL    HW119424   4.180   3.738   7.105 -1.2211  0.4629  0.0817
 2596SOL    HW219425   4.118   3.730   6.970 -0.7362  0.4337  0.3370
 2597SOL     OW19426   2.780   1.822   3.499  0.1325 -0.0513 -0.5474
 2597SOL    HW119427   2.704   1.764   3.487 -0.8456  1.0473  0.3969
 2597SOL    HW219428   2.741   1.906   3.478  0.8007  0.2426 -0.5906
 2598SOL     OW19429   2.913   0.771  10.173  0.6071 -0.2588 -0.1999
 2598SOL    HW119430   2.977   0.730  10.231  0.9004  0.6032  0.0874
 2598SOL    HW219431   2.935   0.758  10.081 -0.4997  0.1617 -0.5273
 2599SOL     OW19432   3.873   0.395   2.891 -0.3914 -0.0062  0.1025
 2599SOL    HW119433   3.815   0.464   2.861  2.6393  2.7165  0.4477
 2599SOL    HW219434   3.947   0.442   2.930  0.3751 -0.5436 -0.6922
 2600SOL     OW19435   4.226   1.699   0.273 -0.4966  0.5564 -1.0656
 2600SOL    HW119436   4.273   1.616   0.285  0.7452  1.3086 -0.7701
 2600SOL    HW219437   4.300   1.749   0.238  1.6415 -1.2559  0.8619
 2601SOL     OW19438   2.526   2.782   0.233 -0.5727  0.6006 -0.1510
 2601SOL    HW119439   2.465   2.717   0.200  0.8285 -0.6153 -0.3687
 2601SOL    HW219440   2.611   2.739   0.220  1.2536  3.3811  2.3510
 2602SOL     OW19441   3.635   3.702   6.732 -0.1347 -0.2398 -0.6846
 2602SOL    HW119442   3.571   3.723   6.799 -0.8751 -2.0298 -0.8142
 2602SOL    HW219443   3.645   3.607   6.741  0.6449 -0.1654 -0.7283
 2603SOL     OW19444   1.120   2.711   6.645 -0.1175  0.3469 -0.3327
 2603SOL    HW119445   1.138   2.778   6.710  1.1078  0.0564 -0.3750
 2603SOL    HW219446   1.184   2.734   6.578  1.0147 -2.8126 -0.3499
 2604SOL     OW19447   3.984   2.392   8.529 -0.0013 -0.0385 -0.3343
 2604SOL    HW119448   4.068   2.437   8.530 -0.4103  0.6908  2.5566
 2604SOL    HW219449   3.991   2.351   8.615  1.7290 -1.7002 -1.2767
 2605SOL     OW19450   2.144   1.220   1.498  0.6848 -0.3934  0.1205
 2605SOL    HW119451   2.070   1.189   1.446 -0.3517  1.5401  0.4469
 2605SOL    HW219452   2.199   1.142   1.500  2.5689  0.9688  1.3496
 2606SOL     OW19453   4.406   0.744  15.248  0.0695  0.2762  0.3532
 2606SOL    HW119454   4.394   0.667  15.304 -2.0988  1.9150  2.1525
 2606SOL    HW219455   4.328   0.748  15.193  1.4046 -0.6513 -1.6333
 2607SOL     OW19456   2.171   3.329  11.627  0.0341 -0.8930 -0.3014
 2607SOL    HW119457   2.136   3.242  11.605  1.6405 -1.1835 -1.6844
 2607SOL    HW219458   2.088   3.364  11.660  1.5701  0.0179  2.6075
 2608SOL     OW19459   3.127   4.444   2.129 -0.1792  0.6553 -0.2151
 2608SOL    HW119460   3.047   4.471   2.084 -0.3215  0.7239  0.0773
 2608SOL    HW219461   3.106   4.454   2.222 -1.4414 -1.8708 -0.2496
 2609SOL     OW19462   4.311   0.556   5.723  1.0209  0.5670  0.1470
 2609SOL    HW119463   4.334   0.546   5.815  0.8878 -0.2376  0.0918
 2609SOL    HW219464   4.295   0.650   5.717  0.2981  0.3855 -1.0029
 2610SOL     OW19465   3.655   2.237   6.180  0.1409 -0.2026  0.2293
 2610SOL    HW119466   3.730   2.205   6.129  0.4750 -0.3780  0.8260
 2610SOL    HW219467   3.649   2.329   6.156 -2.9600 -1.1133 -2.3693
 2611SOL     OW19468   1.445   1.159   6.761 -0.0260 -0.4616 -0.1047
 2611SOL    HW119469   1.443   1.228   6.694 -1.1678 -0.4699 -0.0880
 2611SOL    HW219470   1.354   1.129   6.752 -0.7525  1.8385 -0.5677
 2612SOL     OW19471   0.480   1.346  15.109 -0.2691  0.0176 -0.1120
 2612SOL    HW119472   0.521   1.394  15.181  0.5063  1.8746 -1.7910
 2612SOL    HW219473   0.395   1.322  15.146  0.4060 -2.2028 -0.0115
 2613SOL     OW19474   2.616   1.866   4.830 -0.2891 -0.8005  0.2992
 2613SOL    HW119475   2.610   1.855   4.735  1.3644  1.1639 -0.0276
 2613SOL    HW219476   2.612   1.773   4.851 -0.4694 -0.9903 -0.5936
 2614SOL     OW19477   0.560   3.601  17.421  0.2478  0.3675  0.0794
 2614SOL    HW119478   0.651   3.586  17.444  0.1507 -1.3310 -0.6793
 2614SOL    HW219479   0.533   3.521  17.375  1.7083  0.7643 -1.4712
 2615SOL     OW19480   2.159   0.607  12.771  0.5658  0.3369 -0.1705
 2615SOL    HW119481   2.184   0.680  12.715 -0.8800 -0.0798 -1.3518
 2615SOL    HW219482   2.173   0.523  12.728 -0.4319 -1.2640  2.6554
 2616SOL     OW19483   2.796   0.664   6.008  0.5230 -0.4773 -0.5826
 2616SOL    HW119484   2.780   0.712   6.089  0.9456 -2.1820  0.4982
 2616SOL    HW219485   2.797   0.578   6.050 -1.2336 -0.1665  0.0775
 2617SOL     OW19486   2.860   0.127   6.754  0.7884 -0.3704 -0.1487
 2617SOL    HW119487   2.900   0.103   6.838  1.6866  0.5262 -0.3142
 2617SOL    HW219488   2.937   0.103   6.702  0.8852  0.7030 -0.5060
 2618SOL     OW19489   4.040   3.300   4.048  0.0173  0.1635  0.1710
 2618SOL    HW119490   4.083   3.385   4.050  0.7406 -0.2026  0.0751
 2618SOL    HW219491   3.976   3.323   3.981 -1.1132  0.2884  1.2829
 2619SOL     OW19492   1.340   0.216   3.956 -0.1578  0.2106 -0.2472
 2619SOL    HW119493   1.344   0.224   4.051  1.5787  1.4913 -0.4215
 2619SOL    HW219494   1.416   0.161   3.936 -1.0752 -1.0098 -0.3745
 2620SOL     OW19495   0.141   4.551   2.940 -0.6202 -0.3540  0.3741
 2620SOL    HW119496   0.049   4.524   2.932 -0.5672 -1.0578  2.0634
 2620SOL    HW219497   0.157   4.604   2.862 -2.3835 -0.5913 -0.1435
 2621SOL     OW19498   2.101   2.479   2.375  0.0424 -0.2535  0.2206
 2621SOL    HW119499   2.036   2.521   2.318 -0.1433  0.3085  0.8460
 2621SOL    HW219500   2.128   2.413   2.311 -1.5143  0.6887 -1.4035
 2622SOL     OW19501   0.278   0.326   2.715  0.3841 -0.4542  0.3057
 2622SOL    HW119502   0.352   0.280   2.753  2.2096  0.2914 -2.3067
 2622SOL    HW219503   0.291   0.304   2.622 -2.6662 -2.0513  0.2541
 2623SOL     OW19504   1.771   1.335   0.073  0.1415  0.2168 -0.0896
 2623SOL    HW119505   1.754   1.359   0.164  0.8611 -4.1538  1.1958
 2623SOL    HW219506   1.814   1.252   0.094 -0.3189 -0.6236 -2.3726
 2624SOL     OW19507   0.161   1.668   6.676  0.4501  0.0307 -0.8847
 2624SOL    HW119508   0.237   1.706   6.631  1.9084  0.9797  2.3756
 2624SOL    HW219509   0.093   1.662   6.609  0.7808  1.4121 -1.3587
 2625SOL     OW19510   1.993   0.187   5.061 -0.2773  0.3156  0.6849
 2625SOL    HW119511   2.017   0.251   4.994 -0.5495  1.3923  1.6114
 2625SOL    HW219512   2.007   0.241   5.139  2.1342 -0.4738  0.7964
 2626SOL     OW19513   1.046   1.628   8.996 -0.0827 -0.7546  0.4467
 2626SOL    HW119514   1.056   1.700   8.934  3.2671 -0.2676  1.5317
 2626SOL    HW219515   0.980   1.569   8.961 -0.2190 -0.9123  0.9657
 2627SOL     OW19516   0.570   3.076   9.447  0.4437 -0.4009 -0.4991
 2627SOL    HW119517   0.567   3.092   9.541 -1.2787  1.5139 -0.8847
 2627SOL    HW219518   0.656   3.111   9.426  0.6029  0.1950  1.1770
 2628SOL     OW19519   2.194   2.164   7.682 -0.0532  0.2067  0.6897
 2628SOL    HW119520   2.138   2.236   7.653  1.5683  0.0658 -2.8285
 2628SOL    HW219521   2.132   2.091   7.684  0.9427 -0.7188 -2.8598
 2629SOL     OW19522   0.403   1.361  13.351 -0.3057 -0.2474 -0.1339
 2629SOL    HW119523   0.482   1.307  13.355 -0.4043 -0.5263 -1.8695
 2629SOL    HW219524   0.348   1.307  13.408 -1.2524 -1.9996 -2.7053
 2630SOL     OW19525   2.147   1.183   4.063  0.4160 -0.5937 -0.2313
 2630SOL    HW119526   2.102   1.150   3.985 -0.8474 -0.6049  0.5087
 2630SOL    HW219527   2.145   1.110   4.125  0.0292 -0.3146  0.0772
 2631SOL     OW19528   0.262   1.131   7.110  0.3160 -0.0170  0.4167
 2631SOL    HW119529   0.300   1.074   7.043  0.3934 -2.2732  2.3657
 2631SOL    HW219530   0.194   1.071   7.140 -0.1724  0.5527  0.4430
 2632SOL     OW19531   2.865   4.072   5.423 -0.3545  0.0078 -0.2176
 2632SOL    HW119532   2.930   4.048   5.488 -0.6170  0.8225  0.3374
 2632SOL    HW219533   2.893   4.024   5.345  0.5301 -0.9157  0.6710
 2633SOL     OW19534   1.556   4.362   6.939  0.3712  0.0197  0.0995
 2633SOL    HW119535   1.562   4.273   6.904  1.6692  0.7826 -1.6018
 2633SOL    HW219536   1.581   4.354   7.032 -2.3093 -1.3085  0.7135
 2634SOL     OW19537   2.749   1.930   0.004  0.1083 -0.2966 -0.0576
 2634SOL    HW119538   2.831   1.889  17.733  0.1770  1.0599 -1.8239
 2634SOL    HW219539   2.788   2.006   0.047  0.4153 -0.3149 -0.2966
 2635SOL     OW19540   1.610   2.657   4.750 -0.0315 -0.7146  0.2189
 2635SOL    HW119541   1.561   2.701   4.820 -0.5882  1.7263 -1.6937
 2635SOL    HW219542   1.592   2.707   4.671  2.2540  0.2339  0.3026
 2636SOL     OW19543   3.695   3.423  13.476 -0.0669 -0.0349 -0.3112
 2636SOL    HW119544   3.675   3.332  13.453 -2.8029 -0.0683  2.1755
 2636SOL    HW219545   3.721   3.455  13.389  0.5005  0.4034  0.0292
 2637SOL     OW19546   2.643   1.898   2.481 -0.0717 -0.3428  0.0001
 2637SOL    HW119547   2.682   1.984   2.498  1.5340 -1.2404  0.8768
 2637SOL    HW219548   2.707   1.843   2.527 -0.1480 -2.2521 -2.1609
 2638SOL     OW19549   3.025   3.171   3.578  0.1180 -0.6013  0.1141
 2638SOL    HW119550   2.958   3.229   3.614  0.3756 -0.2759  0.0714
 2638SOL    HW219551   2.973   3.092   3.563 -0.7827  0.2453 -1.2218
 2639SOL     OW19552   1.829   2.412   5.595  0.1480  0.2564  0.1765
 2639SOL    HW119553   1.792   2.474   5.658  1.6237 -0.1520  1.4551
 2639SOL    HW219554   1.896   2.377   5.654  1.3045 -2.0741 -2.5142
 2640SOL     OW19555   3.625   2.732  11.756 -0.3747 -0.1415  0.5991
 2640SOL    HW119556   3.696   2.723  11.693 -0.8365 -0.8655  0.1953
 2640SOL    HW219557   3.662   2.807  11.804  0.9180  0.3292 -1.1442
 2641SOL     OW19558   0.843   4.629   2.109  0.0240  0.0800  0.0570
 2641SOL    HW119559   0.798   4.669   2.034  1.2680 -0.0466 -0.7646
 2641SOL    HW219560   0.886   4.550   2.078  0.3371 -0.1362  1.0696
 2642SOL     OW19561   2.956   3.805  14.859  0.1322 -0.0799 -0.3404
 2642SOL    HW119562   2.880   3.767  14.815 -0.8617 -0.7761  1.9785
 2642SOL    HW219563   2.909   3.882  14.889 -1.4294 -1.5401  0.9714
 2643SOL     OW19564   2.118   1.102   6.408  0.4340  0.3357  0.0779
 2643SOL    HW119565   2.132   1.163   6.336  2.4286 -0.2811 -0.0558
 2643SOL    HW219566   2.033   1.071   6.377  0.7839 -1.1178  0.5730
 2644SOL     OW19567   1.253   2.000   3.541 -0.5031  0.3874 -0.1046
 2644SOL    HW119568   1.283   1.911   3.558 -1.5821  0.2599  1.0698
 2644SOL    HW219569   1.244   2.001   3.445 -0.6636 -1.4094 -0.0923
 2645SOL     OW19570   2.922   4.291   8.894 -0.5479  0.0304 -0.6468
 2645SOL    HW119571   3.002   4.277   8.944 -1.8445  0.0257  1.4623
 2645SOL    HW219572   2.868   4.219   8.928 -0.8389 -0.2189 -1.6462
 2646SOL     OW19573   2.206   3.379   3.976 -0.0505 -0.4085 -0.0965
 2646SOL    HW119574   2.259   3.299   3.971 -0.0036 -0.3950  0.2011
 2646SOL    HW219575   2.185   3.377   3.882  1.3157  1.2057 -0.4361
 2647SOL     OW19576   3.481   4.114   0.093 -0.9627  0.0058  0.0280
 2647SOL    HW119577   3.472   4.032   0.045 -0.4685 -1.6139  2.6720
 2647SOL    HW219578   3.476   4.182   0.027 -0.4140 -0.0622 -0.0842
 2648SOL     OW19579   4.183   3.739   4.612 -0.1256 -0.0881  0.1495
 2648SOL    HW119580   4.277   3.722   4.614  0.0904  1.1398  0.4570
 2648SOL    HW219581   4.182   3.833   4.594  0.4331 -0.2680 -0.8058
 2649SOL     OW19582   3.136   1.163   5.034 -0.0122  0.0890  0.2412
 2649SOL    HW119583   3.211   1.120   4.991 -0.0222  0.2072  0.1060
 2649SOL    HW219584   3.128   1.241   4.979  0.9308  0.8490  1.1870
 2650SOL     OW19585   0.575   2.139   1.396  0.0718  0.1903  0.6140
 2650SOL    HW119586   0.593   2.115   1.305 -0.2944  1.7052  0.1408
 2650SOL    HW219587   0.486   2.169   1.378  0.7954  0.7724 -1.9816
 2651SOL     OW19588   3.821   0.940   8.612 -0.4955  0.1067  0.0563
 2651SOL    HW119589   3.733   0.971   8.589  0.1997  1.5951 -0.5714
 2651SOL    HW219590   3.852   1.020   8.654 -1.8466  0.7838 -0.2130
 2652SOL     OW19591   0.663   2.089   5.974 -0.0131  0.0726  0.3047
 2652SOL    HW119592   0.603   2.015   5.983  1.5947 -1.2917  0.0083
 2652SOL    HW219593   0.737   2.034   5.945 -0.9084 -0.5935 -0.7162
 2653SOL     OW19594   2.015   0.074   8.339 -0.2749  0.0334 -0.5379
 2653SOL    HW119595   1.962   0.094   8.416  1.8658  0.2704  0.8656
 2653SOL    HW219596   1.962   0.117   8.271  0.1110 -0.9332 -1.4463
 2654SOL     OW19597   1.398   0.719   2.694  0.0871  0.5951 -0.1524
 2654SOL    HW119598   1.466   0.675   2.745 -0.9970 -0.0376  0.7438
 2654SOL    HW219599   1.443   0.804   2.691 -1.0410  1.2632  1.9836
 2655SOL     OW19600   4.667   4.070   2.625  0.1020  0.2688  0.2238
 2655SOL    HW119601   4.613   4.045   2.551 -0.1490 -0.9159  0.7989
 2655SOL    HW219602   4.673   4.164   2.610  1.2451  0.1877  0.1544
 2656SOL     OW19603   1.444   0.919   8.932 -0.1891  0.2520 -0.1949
 2656SOL    HW119604   1.520   0.968   8.961  0.0921 -0.0728 -0.3869
 2656SOL    HW219605   1.380   0.947   8.998  0.3982  0.5111  0.2648
 2657SOL     OW19606   0.639   0.390   3.433  0.1498  0.1097  0.4217
 2657SOL    HW119607   0.715   0.449   3.434  0.9418 -0.8892 -0.5782
 2657SOL    HW219608   0.627   0.393   3.338  0.4464  1.1773  0.4076
 2658SOL     OW19609   0.436   3.340   5.327  0.1533  0.8708  0.0207
 2658SOL    HW119610   0.402   3.429   5.340  0.9065  1.6120 -3.0584
 2658SOL    HW219611   0.425   3.297   5.412 -1.6182  2.9706  0.8572
 2659SOL     OW19612   1.581   3.657   5.776 -0.8076  0.1505 -0.0691
 2659SOL    HW119613   1.580   3.687   5.685  0.5603  1.3341  0.2997
 2659SOL    HW219614   1.489   3.648   5.799 -0.8096 -0.4394 -0.3209
 2660SOL     OW19615   0.568   3.602   0.066  1.1286  0.2146  0.3777
 2660SOL    HW119616   0.544   3.568   0.152  0.7970  1.5637  0.8154
 2660SOL    HW219617   0.550   3.695   0.079 -0.7953 -0.1480  0.3019
 2661SOL     OW19618   1.688   3.491   8.218  0.1660  0.1400 -0.0217
 2661SOL    HW119619   1.733   3.523   8.140  2.0411 -0.2207  0.9092
 2661SOL    HW219620   1.755   3.441   8.264 -0.7596  0.7742  2.0501
 2662SOL     OW19621   0.096   3.647   2.453 -0.0625  0.6342  0.5266
 2662SOL    HW119622   0.009   3.618   2.427  0.3975  1.3351 -1.7830
 2662SOL    HW219623   0.079   3.718   2.515 -1.8019  0.4314  0.2799
 2663SOL     OW19624   2.048   4.503  15.043  0.1941 -0.2508  0.3036
 2663SOL    HW119625   2.076   4.588  15.078 -2.2462  0.6766  0.0570
 2663SOL    HW219626   2.052   4.513  14.948  0.0766 -1.1812  0.2015
 2664SOL     OW19627   3.932   0.008   7.836 -0.2679  0.0815 -0.3358
 2664SOL    HW119628   3.972   4.665   7.863 -2.0960 -1.1389 -1.3528
 2664SOL    HW219629   3.955   0.013   7.743 -0.3934  0.0881 -0.3663
 2665SOL     OW19630   1.653   0.841   3.977 -0.1465 -0.5540  0.3648
 2665SOL    HW119631   1.669   0.752   4.008  0.7163 -0.2097  0.9499
 2665SOL    HW219632   1.636   0.834   3.883 -0.7351 -0.2056  0.4461
 2666SOL     OW19633   1.804   0.255   7.784 -0.2915  0.0854  0.0080
 2666SOL    HW119634   1.839   0.302   7.709 -0.9583 -0.8609 -0.8887
 2666SOL    HW219635   1.792   0.169   7.744  1.9823 -0.4606  0.4646
 2667SOL     OW19636   1.827   2.076   8.310  0.0304 -0.5277  0.1868
 2667SOL    HW119637   1.813   2.019   8.235 -2.0359 -1.9444  1.6386
 2667SOL    HW219638   1.750   2.070   8.367 -2.9393  1.9601 -3.5852
 2668SOL     OW19639   1.411   4.538   6.789 -0.5424  0.4130  0.0787
 2668SOL    HW119640   1.419   4.462   6.732 -1.6847  1.9583 -2.1344
 2668SOL    HW219641   1.420   4.498   6.876  1.9002 -0.5506 -0.6071
 2669SOL     OW19642   4.325   0.911   5.249 -0.3522 -0.9182  0.1141
 2669SOL    HW119643   4.382   0.878   5.180  1.9284  1.3603  0.9385
 2669SOL    HW219644   4.391   0.927   5.316 -0.9694  0.9278  0.2786
 2670SOL     OW19645   0.279   0.664   4.557  0.0487 -0.3146  0.4106
 2670SOL    HW119646   0.219   0.599   4.522  2.2029 -1.4904 -1.1314
 2670SOL    HW219647   0.224   0.742   4.561 -1.7127 -1.5805  0.8789
 2671SOL     OW19648   3.637   0.476  10.001 -0.2025 -0.5096  0.7889
 2671SOL    HW119649   3.706   0.521  10.050 -1.1732  0.9919  0.7382
 2671SOL    HW219650   3.603   0.429  10.077 -2.0753  1.0431  0.8989
 2672SOL     OW19651   3.844   3.811  15.185  0.4687  0.3369 -0.5326
 2672SOL    HW119652   3.897   3.891  15.188 -0.3352  0.7640  3.2059
 2672SOL    HW219653   3.789   3.843  15.257  1.1125 -0.1075  0.1548
 2673SOL     OW19654   2.790   2.440  12.947 -0.1341 -0.0680 -0.4614
 2673SOL    HW119655   2.759   2.392  13.024 -1.2497  2.1289  0.4744
 2673SOL    HW219656   2.711   2.494  12.941 -1.1509 -1.4231  0.7847
 2674SOL     OW19657   0.258   1.723   2.059  0.2839  0.3400 -0.4744
 2674SOL    HW119658   0.199   1.756   1.991  2.5229  0.2402 -2.4258
 2674SOL    HW219659   0.241   1.787   2.128  1.3213  0.2279 -0.1257
 2675SOL     OW19660   2.246   1.752   1.466  0.0453  0.5603 -0.0731
 2675SOL    HW119661   2.334   1.789   1.467  0.0535  0.5732 -0.8845
 2675SOL    HW219662   2.201   1.817   1.520  0.0073  0.1348  0.3991
 2676SOL     OW19663   4.321   2.040   3.328 -0.1520  0.3032 -0.6644
 2676SOL    HW119664   4.324   2.120   3.275 -1.5344  1.9565  1.7710
 2676SOL    HW219665   4.325   1.983   3.251  0.7178 -0.2723 -0.2008
 2677SOL     OW19666   3.949   0.778   1.694 -0.3095 -0.3850  0.0129
 2677SOL    HW119667   3.860   0.794   1.727 -0.8019 -0.9881 -1.0366
 2677SOL    HW219668   4.005   0.820   1.759 -1.4927 -1.5641  1.8070
 2678SOL     OW19669   0.023   2.661   1.185  0.2791 -0.1387 -0.2704
 2678SOL    HW119670   0.072   2.741   1.207 -1.3251  0.6800  0.3643
 2678SOL    HW219671   4.671   2.687   1.194  0.0859 -0.0585 -2.5780
 2679SOL     OW19672   3.326   3.528  14.963 -0.1734  0.0220  0.0965
 2679SOL    HW119673   3.302   3.471  15.036 -0.3681  0.3279  0.2708
 2679SOL    HW219674   3.252   3.588  14.955  0.8261  1.0314 -1.6783
 2680SOL     OW19675   2.544   2.109   2.150  0.3157 -0.0948 -0.7478
 2680SOL    HW119676   2.627   2.105   2.103  0.2833  0.9364 -0.8862
 2680SOL    HW219677   2.556   2.192   2.196  0.7188 -1.4311  1.5953
 2681SOL     OW19678   3.543   1.038  14.558 -0.4366 -0.3316 -0.0315
 2681SOL    HW119679   3.555   0.953  14.600  0.3307  0.3453  1.1247
 2681SOL    HW219680   3.621   1.035  14.503 -0.0477 -3.0155  0.6376
 2682SOL     OW19681   0.542   1.550   2.422  0.3391 -0.6409  0.1580
 2682SOL    HW119682   0.613   1.526   2.480  1.8212 -2.5468 -2.4500
 2682SOL    HW219683   0.486   1.596   2.485  2.0144 -0.1043  1.2581
 2683SOL     OW19684   1.608   1.059   1.767 -0.2317  0.3733 -0.2213
 2683SOL    HW119685   1.555   1.115   1.825 -0.8443 -1.9413  1.4536
 2683SOL    HW219686   1.695   1.080   1.800  0.1261 -1.5212  0.0160
 2684SOL     OW19687   2.427   3.678   2.934 -0.0314 -0.1331  0.4632
 2684SOL    HW119688   2.514   3.675   2.893 -0.5316 -1.5717 -0.4954
 2684SOL    HW219689   2.438   3.765   2.972 -0.1418  0.4476 -0.8231
 2685SOL     OW19690   4.521   3.423   5.414 -0.0158 -0.1265  0.2960
 2685SOL    HW119691   4.600   3.468   5.443  2.1374 -2.5156 -1.8363
 2685SOL    HW219692   4.563   3.338   5.402  2.7926  1.3839 -0.8321
 2686SOL     OW19693   4.001   0.179   6.215 -0.2073  0.2251 -0.6147
 2686SOL    HW119694   3.905   0.174   6.225 -0.3551  0.7712 -1.7680
 2686SOL    HW219695   4.024   0.104   6.161 -0.6111  0.1635 -0.7019
 2687SOL     OW19696   1.761   4.030   1.354 -0.3409 -0.6958 -0.0286
 2687SOL    HW119697   1.696   4.055   1.419  0.9013  0.2452  0.8607
 2687SOL    HW219698   1.836   4.072   1.396 -0.7249 -2.0996  2.0295
 2688SOL     OW19699   2.113   0.818   0.393 -0.6051 -0.0227  0.4146
 2688SOL    HW119700   2.047   0.824   0.324 -0.9742  0.2712  0.7918
 2688SOL    HW219701   2.183   0.871   0.355 -3.5760  2.2175 -1.9019
 2689SOL     OW19702   3.807   4.400   9.356 -0.0250  0.0004 -0.6319
 2689SOL    HW119703   3.747   4.328   9.335 -1.3397  1.4445 -1.8101
 2689SOL    HW219704   3.888   4.355   9.377 -0.9992 -0.8546  1.2230
 2690SOL     OW19705   0.192   1.590   4.603  0.4690  0.5634  0.0407
 2690SOL    HW119706   0.199   1.585   4.507  0.3252 -1.2781  0.1269
 2690SOL    HW219707   0.120   1.530   4.624  0.7568  0.6889  1.3886
 2691SOL     OW19708   0.082   3.964   9.186 -0.0103  0.2302 -0.2185
 2691SOL    HW119709   0.120   3.879   9.209 -0.6860 -0.1569 -0.5358
 2691SOL    HW219710   0.141   3.980   9.113 -0.0226 -1.8806 -0.6806
 2692SOL     OW19711   3.527   0.945   8.905 -0.3605  0.7067  0.1923
 2692SOL    HW119712   3.604   0.904   8.945 -0.9135 -1.7901 -1.3163
 2692SOL    HW219713   3.574   1.008   8.850  0.5058  0.3886  0.5651
 2693SOL     OW19714   1.817   2.422   6.409  0.1976  0.0639  0.1862
 2693SOL    HW119715   1.873   2.442   6.335  0.4963  1.3003  0.7450
 2693SOL    HW219716   1.759   2.497   6.398  2.0314  1.5160  0.4315
 2694SOL     OW19717   3.430   1.282  16.878 -0.0198 -0.5578  0.5486
 2694SOL    HW119718   3.485   1.205  16.892  0.7730 -0.1360 -0.2586
 2694SOL    HW219719   3.421   1.313  16.968  3.0018  1.6794  0.0849
 2695SOL     OW19720   1.194   1.794  11.539 -0.1588 -0.6699 -0.0648
 2695SOL    HW119721   1.195   1.771  11.632 -1.8253  1.1235  0.3854
 2695SOL    HW219722   1.104   1.821  11.521  0.2067  1.6933  1.8105
 2696SOL     OW19723   4.339   0.148   9.985 -0.7289 -0.3933  0.4032
 2696SOL    HW119724   4.417   0.110  10.025 -1.2333 -0.5132  1.2731
 2696SOL    HW219725   4.328   0.238  10.016  0.6373 -0.2366  0.4065
 2697SOL     OW19726   0.623   1.564  14.076  0.2614  0.1810 -0.2490
 2697SOL    HW119727   0.563   1.585  14.004 -0.2772  0.1964  0.2067
 2697SOL    HW219728   0.620   1.469  14.083 -1.7076  0.4598  2.6567
 2698SOL     OW19729   4.382   4.516   8.657  0.2185 -0.0656  0.2253
 2698SOL    HW119730   4.291   4.542   8.670 -1.3015 -4.5419 -1.4284
 2698SOL    HW219731   4.431   4.598   8.654 -1.5538  0.9970  0.3971
 2699SOL     OW19732   2.833   3.262   3.751  0.0922  0.3420 -0.3249
 2699SOL    HW119733   2.826   3.254   3.847  0.9848 -4.9263 -0.6561
 2699SOL    HW219734   2.838   3.354   3.728 -1.1062  0.1834 -1.1745
 2700SOL     OW19735   3.035   2.243   5.131  0.7281 -0.1955  0.2662
 2700SOL    HW119736   3.085   2.186   5.073 -1.1808 -0.8640 -0.7166
 2700SOL    HW219737   3.074   2.220   5.216  0.6497 -1.9892 -0.1687
 2701SOL     OW19738   2.202   3.946   1.637  0.0892  0.2504 -0.7691
 2701SOL    HW119739   2.107   3.950   1.640  0.1232  0.9820 -0.6501
 2701SOL    HW219740   2.231   3.883   1.702 -1.6402  0.7947  0.5063
 2702SOL     OW19741   2.155   2.511   6.444  0.2250 -0.1496 -0.0974
 2702SOL    HW119742   2.090   2.531   6.377  1.5031  1.6224 -0.7973
 2702SOL    HW219743   2.137   2.576   6.512 -0.2132  0.7645 -1.0898
 2703SOL     OW19744   1.984   0.660  13.356 -0.3109  0.2484 -0.2757
 2703SOL    HW119745   1.912   0.721  13.367 -1.5657 -1.1360 -0.7558
 2703SOL    HW219746   1.962   0.589  13.417  1.4605  0.2850  0.4099
 2704SOL     OW19747   3.692   2.920   2.544 -0.0582 -0.6200  0.2088
 2704SOL    HW119748   3.690   2.973   2.623  0.4584 -0.0348 -0.1656
 2704SOL    HW219749   3.780   2.883   2.551 -0.1161 -0.2499  2.7026
 2705SOL     OW19750   4.695   2.706   9.095  0.5861 -0.3746 -0.0978
 2705SOL    HW119751   4.688   2.763   9.018 -0.1321  1.4648  1.3431
 2705SOL    HW219752   4.626   2.746   9.147 -0.6360 -0.1864 -1.8434
 2706SOL     OW19753   0.221   2.858  11.112  0.7670 -0.0587 -0.3508
 2706SOL    HW119754   0.167   2.795  11.064  0.7891 -1.3311  1.2936
 2706SOL    HW219755   0.191   2.835  11.200  1.9956  0.4093  0.1992
 2707SOL     OW19756   4.092   0.345   9.314  0.2045 -0.0660 -0.1303
 2707SOL    HW119757   4.062   0.274   9.371 -3.1591  1.2099 -0.3213
 2707SOL    HW219758   4.184   0.320   9.302 -0.0235 -2.0416  2.2522
 2708SOL     OW19759   3.296   2.550   3.680 -0.0665  0.2807  0.4528
 2708SOL    HW119760   3.285   2.621   3.617  0.2337  1.2774  1.5308
 2708SOL    HW219761   3.378   2.517   3.643 -0.8442 -1.8471  0.6421
 2709SOL     OW19762   2.726   1.554   4.724 -0.0903 -0.5968 -0.1657
 2709SOL    HW119763   2.785   1.480   4.709  0.8856 -0.2299  1.9064
 2709SOL    HW219764   2.753   1.614   4.654 -0.1924  0.0678  0.3619
 2710SOL     OW19765   2.388   0.483   4.342  0.6121 -0.1777 -0.1493
 2710SOL    HW119766   2.401   0.565   4.293 -1.6542 -0.7859 -1.7935
 2710SOL    HW219767   2.472   0.441   4.323  1.4388  2.1234 -1.6457
 2711SOL     OW19768   0.436   1.781   7.255 -0.3146 -0.2739 -0.3273
 2711SOL    HW119769   0.518   1.737   7.233  0.3791 -0.2815  2.2317
 2711SOL    HW219770   0.399   1.702   7.294  0.8408 -0.5252  0.2386
 2712SOL     OW19771   3.046   2.999   0.454  0.1070 -0.0663  0.5499
 2712SOL    HW119772   3.070   3.091   0.454  1.0381 -0.3084  0.3656
 2712SOL    HW219773   3.115   2.955   0.503  2.2215  3.2276  0.4619
 2713SOL     OW19774   3.292   0.366  11.265 -0.6046  0.2927 -0.5867
 2713SOL    HW119775   3.353   0.327  11.328  0.2706  0.2776 -1.4510
 2713SOL    HW219776   3.289   0.292  11.205  0.7053 -0.5400  0.3720
 2714SOL     OW19777   1.619   2.020   8.505 -0.1301  0.1270  0.5442
 2714SOL    HW119778   1.603   1.939   8.457 -0.8999  0.3552  0.4082
 2714SOL    HW219779   1.542   2.075   8.484 -0.1297  0.2009  0.7370
 2715SOL     OW19780   3.448   2.466   2.533 -0.8320 -0.0190  0.7731
 2715SOL    HW119781   3.394   2.445   2.456 -1.1763 -1.0323  1.2866
 2715SOL    HW219782   3.467   2.377   2.564  0.9573  0.8331  2.1331
 2716SOL     OW19783   1.009   0.537   8.236 -0.0504  0.2989 -0.1058
 2716SOL    HW119784   0.966   0.566   8.316  0.8788  1.0695  0.1206
 2716SOL    HW219785   1.102   0.537   8.261 -1.0170  0.5169  3.4542
 2717SOL     OW19786   1.620   3.967  11.507  0.4252 -0.3374  0.3951
 2717SOL    HW119787   1.662   3.893  11.550 -1.8924 -2.0622 -0.3717
 2717SOL    HW219788   1.550   3.975  11.571  0.7248  3.0801  0.3321
 2718SOL     OW19789   3.421   2.339   6.022 -0.4888 -0.1313 -0.3948
 2718SOL    HW119790   3.492   2.320   5.960  0.3002 -2.0756  1.0757
 2718SOL    HW219791   3.464   2.408   6.072 -2.4207  0.0805  0.9559
 2719SOL     OW19792   1.671   3.832  12.129 -1.3659  0.3635 -0.2009
 2719SOL    HW119793   1.751   3.843  12.078 -0.4796 -1.4746  0.7801
 2719SOL    HW219794   1.674   3.902  12.194 -1.3046 -1.1748  1.4556
 2720SOL     OW19795   1.225   1.738  11.796  0.0662  0.6280  0.5767
 2720SOL    HW119796   1.318   1.722  11.780 -0.6473 -1.4525 -1.5106
 2720SOL    HW219797   1.233   1.785  11.879 -0.1517 -0.5004  1.2298
 2721SOL     OW19798   2.678   3.285   1.973  0.1434 -0.0942 -0.3465
 2721SOL    HW119799   2.683   3.256   1.882  4.5344 -2.3192  0.5869
 2721SOL    HW219800   2.755   3.237   2.004  1.8035  0.8891 -3.0063
 2722SOL     OW19801   2.323   3.272   6.756 -0.5561 -0.7240 -0.6468
 2722SOL    HW119802   2.407   3.273   6.803 -0.6544 -0.6576 -0.4703
 2722SOL    HW219803   2.258   3.276   6.826  0.6810 -1.9175  0.5843
 2723SOL     OW19804   2.197   0.129   3.127 -0.4071  0.5474 -0.0691
 2723SOL    HW119805   2.188   0.192   3.055 -0.3216 -1.2145 -1.6128
 2723SOL    HW219806   2.171   0.187   3.198 -0.7452 -2.0430  1.9009
 2724SOL     OW19807   0.387   2.869   1.310 -0.2963 -0.4854  0.5844
 2724SOL    HW119808   0.298   2.874   1.345 -0.9960 -1.3369 -1.0275
 2724SOL    HW219809   0.422   2.807   1.374 -1.2595  0.7245  2.2591
 2725SOL     OW19810   1.928   3.462   7.511 -0.7488 -0.1879 -0.4000
 2725SOL    HW119811   2.011   3.496   7.476  0.1755 -0.2069  1.7365
 2725SOL    HW219812   1.862   3.502   7.454 -0.0215  1.6776  0.0686
 2726SOL     OW19813   0.720   3.172   6.103 -0.2533 -0.0470 -0.4386
 2726SOL    HW119814   0.728   3.142   6.012  3.0970  1.4355 -0.6140
 2726SOL    HW219815   0.626   3.193   6.102 -0.5016 -1.1519 -1.1307
 2727SOL     OW19816   1.646   3.154   4.887  0.1301  0.4421 -0.4432
 2727SOL    HW119817   1.651   3.249   4.899  1.3140  0.8848 -4.4833
 2727SOL    HW219818   1.729   3.121   4.920  2.2115  3.2384 -2.8805
 2728SOL     OW19819   4.055   2.914  14.585 -0.1294  0.0884  0.7831
 2728SOL    HW119820   4.120   2.984  14.586 -0.3152  0.2580  1.1666
 2728SOL    HW219821   3.975   2.961  14.561  1.4645  1.9565 -0.8606
 2729SOL     OW19822   1.097   4.350   6.881  0.0361 -0.2566 -0.3437
 2729SOL    HW119823   1.136   4.423   6.929 -0.6966  1.9210 -3.0875
 2729SOL    HW219824   1.075   4.397   6.801  2.8000 -2.1194 -2.2041
 2730SOL     OW19825   1.590   2.064   2.127  0.4293  0.2979  0.5587
 2730SOL    HW119826   1.556   2.060   2.038  0.8644  3.4316  0.2610
 2730SOL    HW219827   1.539   1.992   2.164  3.2279 -1.7168  0.5679
 2731SOL     OW19828   1.960   0.712   7.089  0.2183 -0.0290  0.0336
 2731SOL    HW119829   1.982   0.793   7.135 -0.1225  0.3342 -0.4521
 2731SOL    HW219830   1.920   0.750   7.011 -0.0045 -0.4211 -0.0475
 2732SOL     OW19831   2.127   0.880   3.598 -0.5141 -0.1407  0.1001
 2732SOL    HW119832   2.073   0.944   3.552  0.3594  0.5771  0.0614
 2732SOL    HW219833   2.060   0.818   3.625 -3.6028  3.3469  0.4469
 2733SOL     OW19834   0.562   3.375   7.691 -0.2529 -0.0736  0.1715
 2733SOL    HW119835   0.607   3.306   7.741 -0.4811 -0.2089  0.1920
 2733SOL    HW219836   0.497   3.322   7.645 -0.6781  1.8703 -1.4500
 2734SOL     OW19837   4.099   1.050  13.731  0.1188 -0.1568  0.3475
 2734SOL    HW119838   4.006   1.065  13.746  0.0251  1.5752 -1.8339
 2734SOL    HW219839   4.116   1.006  13.815  0.7075 -0.9799 -0.2081
 2735SOL     OW19840   0.976   2.263   5.134 -0.1544 -0.0204 -0.0359
 2735SOL    HW119841   1.009   2.344   5.173 -1.8455  1.5153 -1.7822
 2735SOL    HW219842   1.056   2.229   5.095  0.7041 -0.0648  1.8084
 2736SOL     OW19843   1.839   2.008  15.159 -0.1245  0.4818 -0.7405
 2736SOL    HW119844   1.842   2.047  15.247 -0.8916  0.0965 -0.5389
 2736SOL    HW219845   1.852   1.914  15.166 -1.0034  0.3405 -0.9536
 2737SOL     OW19846   1.942   0.852   0.187 -0.3190 -0.5247 -0.1475
 2737SOL    HW119847   1.910   0.812   0.106 -1.7469  1.4429 -0.5711
 2737SOL    HW219848   1.964   0.941   0.158  1.4116 -0.6297  0.8657
 2738SOL     OW19849   0.225   2.763   5.767  0.1892 -0.2629  0.1826
 2738SOL    HW119850   0.240   2.712   5.688  3.0847  2.2974 -0.9167
 2738SOL    HW219851   0.217   2.692   5.831  0.1174 -1.7734 -1.5065
 2739SOL     OW19852   4.640   4.675   4.402 -0.3177 -0.2222 -0.9137
 2739SOL    HW119853   4.604   4.603   4.454 -0.1050  1.4310  1.5342
 2739SOL    HW219854   4.569   4.739   4.409 -0.8840 -1.1282  1.8628
 2740SOL     OW19855   3.045   1.572   2.767  0.4045  0.4988  0.0985
 2740SOL    HW119856   3.003   1.619   2.838 -1.5464 -2.5065  0.9551
 2740SOL    HW219857   2.985   1.498   2.764 -1.6661  2.1645  1.2844
 2741SOL     OW19858   3.143   1.354   6.234 -0.5458  0.1566  0.0471
 2741SOL    HW119859   3.118   1.289   6.300  3.9766  0.2515  1.9074
 2741SOL    HW219860   3.237   1.337   6.231 -0.4483  0.6250  0.4664
 2742SOL     OW19861   2.473   2.434  17.617 -0.0675  0.3333  0.4451
 2742SOL    HW119862   2.551   2.434  17.560  1.3387 -0.3794  2.3787
 2742SOL    HW219863   2.402   2.450  17.555  0.8155  1.8620 -0.1920
 2743SOL     OW19864   3.485   4.369   2.326  0.5972 -0.1961  0.0022
 2743SOL    HW119865   3.430   4.370   2.404  0.5935 -0.0485 -0.0013
 2743SOL    HW219866   3.485   4.460   2.295  0.2569  0.0564  0.7551
 2744SOL     OW19867   4.525   2.524   6.515  0.6132  0.4851  0.0624
 2744SOL    HW119868   4.451   2.472   6.547 -1.8630  1.7726 -3.6161
 2744SOL    HW219869   4.585   2.516   6.589 -1.4057 -0.6909  1.5868
 2745SOL     OW19870   0.213   2.815   6.494 -0.1244  0.3505  0.5130
 2745SOL    HW119871   0.240   2.851   6.409  0.1698  0.7975  0.7990
 2745SOL    HW219872   0.148   2.880   6.520 -0.0023  0.7426 -0.1528
 2746SOL     OW19873   1.478   1.832   5.636 -0.2123 -0.2997 -0.6566
 2746SOL    HW119874   1.535   1.903   5.609 -1.1014  0.2848 -0.9776
 2746SOL    HW219875   1.538   1.757   5.635  0.5584  0.3464 -1.9781
 2747SOL     OW19876   0.808   3.845   4.611  0.0004  0.1671  0.5514
 2747SOL    HW119877   0.879   3.781   4.603 -1.6011 -1.3479 -1.6325
 2747SOL    HW219878   0.852   3.919   4.569  2.3805  0.4656  3.5917
 2748SOL     OW19879   1.852   0.939   9.904 -0.6752 -0.0266  0.0558
 2748SOL    HW119880   1.884   0.849   9.896  0.0281  0.3027 -0.8965
 2748SOL    HW219881   1.825   0.945   9.995  0.2760  1.4163  0.2386
 2749SOL     OW19882   0.680   0.855   3.162  0.0214  0.4947  0.3665
 2749SOL    HW119883   0.701   0.826   3.074 -1.0090  0.6055  0.0820
 2749SOL    HW219884   0.600   0.810   3.189  1.2446 -1.9779 -0.1720
 2750SOL     OW19885   2.546   3.599   6.890 -0.3328  0.0279  0.0929
 2750SOL    HW119886   2.527   3.511   6.858  1.8891 -0.3045 -0.3262
 2750SOL    HW219887   2.586   3.626   6.807  1.2193 -2.5616  0.0071
 2751SOL     OW19888   1.897   2.927   4.336  0.5280  0.1097 -0.4026
 2751SOL    HW119889   1.877   2.836   4.355 -1.4533  0.1531 -2.3628
 2751SOL    HW219890   1.993   2.928   4.341  0.5799 -0.8561 -1.1940
 2752SOL     OW19891   2.862   2.993   3.732 -0.2078 -0.0088  0.3830
 2752SOL    HW119892   2.781   2.943   3.739 -1.2840  1.3111 -2.6140
 2752SOL    HW219893   2.821   3.079   3.727 -0.3176  0.0206  1.7753
 2753SOL     OW19894   2.139   3.221   4.822 -0.1181  0.5167 -0.0166
 2753SOL    HW119895   2.052   3.261   4.832  1.1337  2.5674  2.5771
 2753SOL    HW219896   2.115   3.144   4.771  2.5030 -1.4492  1.7777
 2754SOL     OW19897   1.753   0.420   1.619 -0.2322  0.1809 -0.4278
 2754SOL    HW119898   1.676   0.379   1.657  1.0882 -0.9604  0.9594
 2754SOL    HW219899   1.827   0.399   1.676  0.3040 -0.9231 -1.5278
 2755SOL     OW19900   1.055   4.420  16.590 -0.1263  0.0248  0.2823
 2755SOL    HW119901   0.984   4.375  16.544 -0.2029  1.3352 -0.8821
 2755SOL    HW219902   1.088   4.474  16.519 -2.0116  2.9524  1.6186
 2756SOL     OW19903   1.131   3.759   4.359  0.2143 -0.4495  0.2444
 2756SOL    HW119904   1.188   3.682   4.359  0.2791 -0.3857 -3.8551
 2756SOL    HW219905   1.162   3.811   4.433 -0.6402  2.8041 -1.7103
 2757SOL     OW19906   4.676   2.305   8.104 -0.0079  0.0103 -0.1768
 2757SOL    HW119907   0.023   2.339   8.126 -1.1791  1.2416  2.6232
 2757SOL    HW219908   4.647   2.376   8.047  0.5537  0.5466  0.2006
 2758SOL     OW19909   2.563   1.943   5.522 -0.0007  0.2493  0.1643
 2758SOL    HW119910   2.617   1.996   5.464 -2.4462  0.4604 -1.9349
 2758SOL    HW219911   2.612   1.946   5.605 -1.3447  0.5645  0.9533
 2759SOL     OW19912   3.810   3.091   4.540 -0.2729 -1.1571  0.1395
 2759SOL    HW119913   3.744   3.160   4.532  0.5275 -0.5493 -1.2006
 2759SOL    HW219914   3.887   3.144   4.521 -0.9859  0.5381  2.0003
 2760SOL     OW19915   4.102   3.190   3.080 -0.0941 -0.0701 -0.0191
 2760SOL    HW119916   4.020   3.151   3.111  0.4052 -1.7457 -0.8120
 2760SOL    HW219917   4.114   3.147   2.996  3.0871 -0.2346  0.5312
 2761SOL     OW19918   1.011   4.161  15.168  0.1910 -0.2399  0.2148
 2761SOL    HW119919   0.946   4.141  15.235  0.7373 -0.7222  0.6002
 2761SOL    HW219920   1.007   4.257  15.162  4.5644  0.0628  2.3517
 2762SOL     OW19921   0.737   0.335   8.827 -0.2439  0.5702 -0.3117
 2762SOL    HW119922   0.791   0.343   8.905 -0.2267 -2.0955 -0.0393
 2762SOL    HW219923   0.746   0.241   8.808 -0.4552  0.3335  0.7496
 2763SOL     OW19924   1.909   1.954   9.167 -0.0995  0.2734  0.4171
 2763SOL    HW119925   1.883   1.928   9.255  0.6147 -0.0190  0.5410
 2763SOL    HW219926   1.844   2.024   9.157 -1.4774 -1.2273 -1.4281
 2764SOL     OW19927   3.423   3.248   2.984  0.7318 -0.0192  0.4909
 2764SOL    HW119928   3.366   3.189   2.934  0.6246 -0.3746  1.0434
 2764SOL    HW219929   3.362   3.315   3.013  0.6618  1.4336 -2.9410
 2765SOL     OW19930   3.503   2.213  16.701 -0.4253  0.0138  0.4720
 2765SOL    HW119931   3.443   2.240  16.632 -1.3707  0.6592  1.5586
 2765SOL    HW219932   3.549   2.143  16.654 -0.7781 -0.1088  0.3134
 2766SOL     OW19933   0.596   3.594   7.356  0.1529  0.3566 -0.0816
 2766SOL    HW119934   0.609   3.526   7.289 -2.0375  0.3471 -0.4814
 2766SOL    HW219935   0.664   3.570   7.419  0.9007 -1.1557 -1.4704
 2767SOL     OW19936   0.206   1.077   6.574  0.2686 -0.0631  0.6572
 2767SOL    HW119937   0.121   1.066   6.615 -0.7975  1.4692 -1.1421
 2767SOL    HW219938   0.256   1.093   6.654  1.6359  1.8685 -0.5735
 2768SOL     OW19939   4.138   3.831  16.498 -0.3374 -0.3961  0.2628
 2768SOL    HW119940   4.227   3.827  16.465 -0.4658  0.5823 -0.1843
 2768SOL    HW219941   4.094   3.768  16.441  2.2340  0.4545 -2.6275
 2769SOL     OW19942   0.341   3.842   3.373 -0.1271  0.3269  0.1660
 2769SOL    HW119943   0.305   3.754   3.363  0.7214  0.1803 -1.6225
 2769SOL    HW219944   0.415   3.840   3.312  0.7783  0.1482  1.2682
 2770SOL     OW19945   3.800   1.426   3.694  0.3970  0.5784  0.0945
 2770SOL    HW119946   3.894   1.436   3.676  0.8771  0.1261  2.3387
 2770SOL    HW219947   3.766   1.372   3.623  1.8820  0.8359 -0.8261
 2771SOL     OW19948   4.068   3.977   4.165  0.1529  0.4694 -0.7726
 2771SOL    HW119949   4.077   4.025   4.083 -0.2495  0.9612 -0.5309
 2771SOL    HW219950   4.119   3.896   4.156  2.7895  1.8334  1.8451
 2772SOL     OW19951   2.510   3.925  14.289  0.0588 -0.6460 -0.1095
 2772SOL    HW119952   2.557   3.999  14.328 -0.0215 -1.6900  1.9629
 2772SOL    HW219953   2.422   3.951  14.317 -0.0714 -1.8534  0.6082
 2773SOL     OW19954   0.665   1.180   7.264  0.7820 -0.1193 -0.2927
 2773SOL    HW119955   0.760   1.171   7.262  0.7058 -1.2151  1.2424
 2773SOL    HW219956   0.641   1.094   7.298 -1.2147  0.7936  0.6540
 2774SOL     OW19957   0.096   1.466  14.976 -0.3916 -0.3754 -0.2729
 2774SOL    HW119958   0.093   1.523  14.900 -3.3477 -2.3145 -1.5859
 2774SOL    HW219959   0.102   1.380  14.934  0.7570 -0.5555  0.2567
 2775SOL     OW19960   3.170   0.211   2.764 -0.5541  0.0488 -0.1284
 2775SOL    HW119961   3.155   0.117   2.757 -1.5233  0.1894  0.0978
 2775SOL    HW219962   3.265   0.214   2.776 -0.3629 -0.9568 -1.4376
 2776SOL     OW19963   3.047   2.738  10.421 -0.3224 -0.2665 -0.4947
 2776SOL    HW119964   3.127   2.733  10.369  0.9841  2.1007  1.2690
 2776SOL    HW219965   3.027   2.651  10.455  0.6596 -0.6468 -0.9052
 2777SOL     OW19966   0.551   1.031   4.542 -0.6179  0.5005  0.8605
 2777SOL    HW119967   0.641   1.063   4.532 -1.5111  3.0856  1.0002
 2777SOL    HW219968   0.547   0.993   4.630 -1.7498 -2.0478 -0.2873
 2778SOL     OW19969   3.459   4.497   0.734 -0.6553  0.5685  0.2933
 2778SOL    HW119970   3.504   4.421   0.770 -0.2514  1.8239  2.4553
 2778SOL    HW219971   3.469   4.567   0.799 -1.4047  0.9503 -0.0022
 2779SOL     OW19972   2.607   3.633  15.146 -0.8273  0.3412  0.3698
 2779SOL    HW119973   2.544   3.682  15.199 -1.5244  1.6826 -1.7192
 2779SOL    HW219974   2.626   3.555  15.199  0.1613 -0.5699 -1.3357
 2780SOL     OW19975   3.186   4.659   1.520 -0.4507 -0.4605  0.0183
 2780SOL    HW119976   3.098   4.651   1.483 -0.0469  2.2010 -1.4733
 2780SOL    HW219977   3.236   4.720   1.466  2.3193 -1.7829  1.0915
 2781SOL     OW19978   3.397   4.511   2.102  0.0127 -0.1548 -0.2140
 2781SOL    HW119979   3.375   4.585   2.045 -2.3461 -0.2422  0.6107
 2781SOL    HW219980   3.319   4.497   2.155  0.7009  0.2569  0.9116
 2782SOL     OW19981   3.324   0.051   2.043  0.6827 -0.2298  0.0333
 2782SOL    HW119982   3.418   0.063   2.033  0.2815  1.5877 -1.4303
 2782SOL    HW219983   3.314   0.121   2.107 -0.0833  0.3674 -0.7543
 2783SOL     OW19984   0.764   4.368   8.887 -0.2598  0.6032 -0.4276
 2783SOL    HW119985   0.681   4.336   8.851  0.0296  0.7172 -1.1902
 2783SOL    HW219986   0.806   4.283   8.901 -1.9631  0.0680  1.5853
 2784SOL     OW19987   2.737   2.370   3.016 -0.0535  0.1020  0.1049
 2784SOL    HW119988   2.812   2.416   2.978  0.0642  1.8561  2.5007
 2784SOL    HW219989   2.705   2.444   3.068  2.5879  0.2591  1.4797
 2785SOL     OW19990   2.756   3.512   2.747 -0.4368  0.1067  0.3618
 2785SOL    HW119991   2.769   3.429   2.794 -0.2893  0.4381  0.8945
 2785SOL    HW219992   2.811   3.489   2.672 -0.5622  0.2129  0.2393
 2786SOL     OW19993   4.279   2.365   6.294 -0.3839  0.1513 -0.0436
 2786SOL    HW119994   4.371   2.392   6.298 -0.1431 -0.9148  1.5184
 2786SOL    HW219995   4.288   2.296   6.229 -2.0584 -0.2079  0.1072
 2787SOL     OW19996   1.637   3.136   6.743 -0.0986 -0.4316 -0.1086
 2787SOL    HW119997   1.629   3.046   6.775  2.5590  0.2911  2.5285
 2787SOL    HW219998   1.727   3.160   6.764  0.2628 -1.5314 -0.4122
 2788SOL     OW19999   3.441   0.999   3.799 -0.0500 -0.1480 -0.2109
 2788SOL    HW120000   3.438   1.093   3.818 -0.9339  0.2485 -2.3211
 2788SOL    HW220001   3.418   0.996   3.706 -0.0818  2.1025 -0.2670
 2789SOL     OW20002   1.095   3.046   0.808  0.1192 -0.1558  0.1655
 2789SOL    HW120003   1.042   2.993   0.868  1.4817 -2.2329 -0.4508
 2789SOL    HW220004   1.170   3.069   0.863 -2.0639  2.5508  2.0116
 2790SOL     OW20005   2.452   3.801  12.601 -0.1897 -0.0180 -0.3284
 2790SOL    HW120006   2.464   3.817  12.695  0.7260 -1.8709 -0.1182
 2790SOL    HW220007   2.457   3.883  12.552  4.1467 -1.3757 -2.1797
 2791SOL     OW20008   4.563   4.518  16.437  0.1560  0.1095  0.0100
 2791SOL    HW120009   4.618   4.501  16.514 -0.8207 -0.0333  0.6694
 2791SOL    HW220010   4.603   4.602  16.413 -1.1936  0.1481 -2.0858
 2792SOL     OW20011   1.874   3.476   7.784  0.1426  0.1849  0.1577
 2792SOL    HW120012   1.878   3.475   7.688  0.1135 -1.6449  0.1755
 2792SOL    HW220013   1.947   3.417   7.804 -0.7007 -1.0076 -0.3072
 2793SOL     OW20014   2.162   1.664  13.904 -0.2773 -0.0310  0.4110
 2793SOL    HW120015   2.149   1.571  13.886 -1.2572  0.1112  0.3674
 2793SOL    HW220016   2.086   1.692  13.956  0.0500  0.6034  0.5522
 2794SOL     OW20017   4.133   1.164   8.376  0.1840 -0.2750 -0.1311
 2794SOL    HW120018   4.176   1.250   8.381 -1.8651  0.7236  0.2884
 2794SOL    HW220019   4.078   1.182   8.300 -0.9761 -1.8043  0.3705
 2795SOL     OW20020   0.960   1.745   3.948  0.6327  0.6767 -0.3453
 2795SOL    HW120021   0.908   1.739   4.028 -0.5135 -1.3473 -1.2482
 2795SOL    HW220022   0.889   1.762   3.886 -0.1592 -0.6209  0.2115
 2796SOL     OW20023   0.974   2.610   6.200 -0.4557 -0.3133  0.0648
 2796SOL    HW120024   0.973   2.557   6.280  1.4593 -2.1634 -1.1327
 2796SOL    HW220025   0.882   2.635   6.194 -1.1895 -3.1100 -0.3821
 2797SOL     OW20026   0.052   4.656  10.479 -0.1519  0.9907 -0.4602
 2797SOL    HW120027   0.041   4.657  10.574 -1.0498  0.2305 -0.5553
 2797SOL    HW220028   0.092   4.570  10.464 -0.4173  0.8526 -0.3764
 2798SOL     OW20029   0.347   3.473   5.975  0.7430  0.0595 -0.5971
 2798SOL    HW120030   0.357   3.470   6.070 -0.6427  0.1139 -0.4426
 2798SOL    HW220031   0.284   3.545   5.969  0.9206  0.3427  1.1024
 2799SOL     OW20032   1.371   3.823  10.234  0.4656  0.0653  0.1258
 2799SOL    HW120033   1.458   3.853  10.259 -0.0631  0.0080  1.9953
 2799SOL    HW220034   1.345   3.762  10.303  0.1321 -1.3230 -1.1972
 2800SOL     OW20035   0.174   1.120  11.986 -0.0523 -0.1291  0.3675
 2800SOL    HW120036   0.194   1.183  12.056  1.1069  0.5285 -0.5440
 2800SOL    HW220037   0.248   1.140  11.928 -0.5568 -2.2253 -0.9832
 2801SOL     OW20038   1.138   2.418   2.877 -0.5560 -0.2928  0.1145
 2801SOL    HW120039   1.118   2.508   2.902  0.7063 -0.5970  2.1876
 2801SOL    HW220040   1.173   2.381   2.958 -0.3211  0.5461  0.3951
 2802SOL     OW20041   3.188   0.641   3.842  0.0393  0.9119  0.7874
 2802SOL    HW120042   3.111   0.670   3.892 -1.4892  0.9644 -1.6111
 2802SOL    HW220043   3.257   0.690   3.887  0.4570  0.4954  0.6001
 2803SOL     OW20044   1.016   0.015   6.711  0.0756 -0.3975 -0.1354
 2803SOL    HW120045   0.955   4.704   6.765  1.0380 -0.2130  1.1120
 2803SOL    HW220046   1.083   0.036   6.776 -1.5031  2.2534  0.6599
 2804SOL     OW20047   0.559   3.516   5.646 -0.2630  0.4034 -1.1243
 2804SOL    HW120048   0.628   3.543   5.585  1.0883 -0.8396 -0.1238
 2804SOL    HW220049   0.486   3.504   5.585  1.5427 -0.7085 -3.0448
 2805SOL     OW20050   4.141   3.101   3.689 -0.3484 -0.1999 -0.2917
 2805SOL    HW120051   4.207   3.080   3.623  0.4732  1.7093 -0.0570
 2805SOL    HW220052   4.089   3.021   3.683  0.8247 -0.7946 -2.4321
 2806SOL     OW20053   2.295   2.435   5.531 -0.3564  0.1714  0.5876
 2806SOL    HW120054   2.256   2.354   5.498  1.6710 -0.4513 -0.3069
 2806SOL    HW220055   2.388   2.414   5.521 -0.6792 -1.0409  0.0889
 2807SOL     OW20056   3.466   0.685   8.142 -0.2295 -0.0019 -0.2333
 2807SOL    HW120057   3.442   0.593   8.152 -0.1405  0.4862  4.5545
 2807SOL    HW220058   3.469   0.716   8.232 -0.7841  1.2138 -0.6386
 2808SOL     OW20059   1.672   1.910   9.598 -0.1783 -0.5777 -0.3490
 2808SOL    HW120060   1.593   1.864   9.569 -0.8726  1.7879 -2.2908
 2808SOL    HW220061   1.734   1.891   9.528 -0.8977 -1.6940 -0.6965
 2809SOL     OW20062   2.485   4.582   3.635  0.1720 -0.2405 -0.2324
 2809SOL    HW120063   2.517   4.517   3.697  0.6956  0.3000  0.0673
 2809SOL    HW220064   2.565   4.625   3.606 -1.1582  1.4432 -1.4424
 2810SOL     OW20065   2.841   3.173   6.336  0.3012 -0.4482  0.0925
 2810SOL    HW120066   2.825   3.212   6.422 -1.5384  2.0782 -1.4286
 2810SOL    HW220067   2.829   3.079   6.350 -2.0471 -0.1663 -0.0089
 2811SOL     OW20068   0.283   0.540   0.155 -0.0545  0.2508 -0.1307
 2811SOL    HW120069   0.349   0.578   0.213  2.7146 -2.5526 -1.4845
 2811SOL    HW220070   0.333   0.498   0.086 -1.3157 -0.1028 -0.8220
 2812SOL     OW20071   2.451   2.090   5.774 -0.3276 -1.0060  0.1694
 2812SOL    HW120072   2.383   2.088   5.707  1.4499 -1.6840 -1.5765
 2812SOL    HW220073   2.488   2.176   5.753 -0.4451 -0.6238  1.4642
 2813SOL     OW20074   1.898   1.486  11.987 -0.0007  0.0035  0.2075
 2813SOL    HW120075   1.903   1.412  12.047  2.2825 -0.4501 -0.5605
 2813SOL    HW220076   1.849   1.449  11.914  0.6401 -0.3515 -0.0402
 2814SOL     OW20077   4.432   2.610   1.888  0.5772  0.1081 -0.5227
 2814SOL    HW120078   4.442   2.561   1.807  0.5728 -1.1340  0.2332
 2814SOL    HW220079   4.387   2.545   1.942  0.2123  0.6287 -0.1976
 2815SOL     OW20080   1.668   1.438   2.359  0.3382  0.4458 -0.4328
 2815SOL    HW120081   1.725   1.411   2.287  0.2495 -0.3691 -0.1942
 2815SOL    HW220082   1.732   1.476   2.418 -1.0753 -0.2638  1.5727
 2816SOL     OW20083   2.246   1.768  10.310 -0.7823  0.0721 -0.0890
 2816SOL    HW120084   2.235   1.844  10.368 -1.6290  0.2852 -0.5285
 2816SOL    HW220085   2.160   1.725  10.318 -1.2933  1.4013  1.6785
 2817SOL     OW20086   3.983   3.375   7.581 -0.3190  0.1418 -0.6352
 2817SOL    HW120087   3.894   3.388   7.615  0.8975  1.3416  2.1418
 2817SOL    HW220088   3.951   3.310   7.519  2.0537 -1.7248  0.0902
 2818SOL     OW20089   3.996   3.840   9.291 -0.1081  0.8354 -0.3315
 2818SOL    HW120090   3.987   3.911   9.354  0.9778  1.9926 -1.5005
 2818SOL    HW220091   3.991   3.886   9.207  3.1360  0.3778 -0.7900
 2819SOL     OW20092   4.043   4.535  10.849 -0.3009 -0.1048 -0.0225
 2819SOL    HW120093   4.114   4.596  10.871  0.6702 -2.0447  2.2144
 2819SOL    HW220094   3.974   4.574  10.902  0.6735 -0.6432  1.6548
 2820SOL     OW20095   3.687   4.203   5.726 -0.5514 -0.3563  0.2744
 2820SOL    HW120096   3.678   4.224   5.818 -0.2754 -0.6115  0.3608
 2820SOL    HW220097   3.635   4.269   5.680 -0.2945 -0.4727 -0.1926
 2821SOL     OW20098   3.141   0.314   6.658  0.1598 -0.1775 -0.1867
 2821SOL    HW120099   3.092   0.263   6.723  0.1143 -0.3562 -0.3613
 2821SOL    HW220100   3.227   0.295   6.694 -0.0511  0.9555  0.9301
 2822SOL     OW20101   0.474   0.309   5.597  0.2121 -0.2372  0.2013
 2822SOL    HW120102   0.488   0.402   5.581  1.0113 -0.0712  1.9560
 2822SOL    HW220103   0.385   0.317   5.630  0.8903  0.8001  1.7572
 2823SOL     OW20104   0.220   1.579   4.995  0.3502  0.1837  0.4615
 2823SOL    HW120105   0.261   1.538   5.072 -0.3775  1.2556  1.4037
 2823SOL    HW220106   0.128   1.564   5.016  0.2891  1.9323  1.4527
 2824SOL     OW20107   3.938   2.020   8.228 -0.4553 -0.1853 -0.4277
 2824SOL    HW120108   3.879   2.084   8.267 -0.0395  0.1051 -0.2621
 2824SOL    HW220109   4.027   2.051   8.250 -0.1825 -1.4613  0.2945
 2825SOL     OW20110   3.377   0.933   6.687 -0.0682  0.4112  0.0340
 2825SOL    HW120111   3.361   0.990   6.763 -1.3096 -1.8656  1.4578
 2825SOL    HW220112   3.293   0.890   6.677 -0.2900  0.8258  0.1093
 2826SOL     OW20113   1.330   2.259   2.699 -0.6282 -0.3219  0.2212
 2826SOL    HW120114   1.347   2.227   2.788 -0.0835  0.5483  0.4286
 2826SOL    HW220115   1.268   2.329   2.717  2.2855  1.8277  1.8838
 2827SOL     OW20116   2.286   3.393   4.405  0.1272 -0.2748 -0.2277
 2827SOL    HW120117   2.220   3.443   4.452 -0.4271 -2.9752  1.8137
 2827SOL    HW220118   2.229   3.319   4.386  1.1474 -0.9107 -0.8065
 2828SOL     OW20119   3.563   4.434   6.991 -0.6979 -0.4586 -0.1593
 2828SOL    HW120120   3.546   4.383   7.070 -0.8351  2.3318  1.6142
 2828SOL    HW220121   3.480   4.481   6.998  0.2429  1.3651 -1.0850
 2829SOL     OW20122   2.632   4.549   6.910  0.8616  0.1405  0.0237
 2829SOL    HW120123   2.651   4.465   6.869 -3.3898 -2.0069  2.3963
 2829SOL    HW220124   2.609   4.614   6.844 -1.4509 -0.1921  0.4959
 2830SOL     OW20125   3.151   4.677   2.725 -0.0896  0.0833  0.0639
 2830SOL    HW120126   3.098   4.608   2.764 -1.3394  0.9120 -0.1758
 2830SOL    HW220127   3.224   4.629   2.686  0.7172 -2.5995  4.7757
 2831SOL     OW20128   3.426   0.319  11.509 -0.2188  0.1940  0.4685
 2831SOL    HW120129   3.494   0.378  11.477 -0.9284  0.8469  0.1465
 2831SOL    HW220130   3.356   0.371  11.548 -1.4650 -0.2850 -1.1326
 2832SOL     OW20131   0.065   2.224   1.473 -0.0198 -0.2042  0.0789
 2832SOL    HW120132   0.139   2.276   1.440  0.7294 -1.6239 -0.4885
 2832SOL    HW220133   0.043   2.277   1.549 -0.6878 -1.8165  1.0142
 2833SOL     OW20134   0.599   3.351   2.722 -0.1539 -0.1405 -0.3353
 2833SOL    HW120135   0.678   3.358   2.668 -0.4167  1.0647 -0.5769
 2833SOL    HW220136   0.573   3.444   2.727  0.9390  0.1644 -0.3548
 2834SOL     OW20137   2.439   4.543   7.330  0.1639  0.1511  0.2988
 2834SOL    HW120138   2.392   4.523   7.249 -1.8120 -0.1374  1.5416
 2834SOL    HW220139   2.521   4.575   7.292 -2.1837  3.6797 -1.8017
 2835SOL     OW20140   0.535   4.678   7.254 -0.3507 -0.2568 -0.3967
 2835SOL    HW120141   0.504   4.589   7.234 -0.8398  0.1242 -1.3378
 2835SOL    HW220142   0.464   4.711   7.308 -1.7767  1.5214 -3.3835
 2836SOL     OW20143   3.602   4.002  12.794  0.1087  0.1299 -0.7481
 2836SOL    HW120144   3.591   4.063  12.721 -0.9358  2.1229  1.0594
 2836SOL    HW220145   3.560   3.923  12.761  1.0928 -0.2809 -0.9852
 2837SOL     OW20146   1.442   2.172   3.625  0.0540 -0.2824  0.1401
 2837SOL    HW120147   1.420   2.157   3.717 -0.9951 -3.8258 -0.6752
 2837SOL    HW220148   1.399   2.100   3.579 -1.4607  1.1635 -0.6674
 2838SOL     OW20149   2.003   3.039   7.303  0.8430 -0.3946 -0.4317
 2838SOL    HW120150   2.086   2.992   7.294  2.9118  3.1780 -0.2065
 2838SOL    HW220151   2.007   3.115   7.245  0.2821  0.3421  0.4958
 2839SOL     OW20152   4.088   2.097   7.305 -0.3067  0.0766 -0.1877
 2839SOL    HW120153   4.060   2.097   7.396 -0.6620  0.7735 -0.3002
 2839SOL    HW220154   4.126   2.009   7.300 -2.1906 -0.8189  0.8695
 2840SOL     OW20155   4.504   4.733   4.738 -0.3561  0.2774  0.0641
 2840SOL    HW120156   4.599   4.737   4.730 -0.3877  3.0160  1.2201
 2840SOL    HW220157   4.500   4.643   4.768 -2.8516  0.5823  0.6153
 2841SOL     OW20158   4.504   3.480   9.911  0.4778  0.1315  0.0628
 2841SOL    HW120159   4.412   3.500   9.926  0.5846  0.7708 -0.1403
 2841SOL    HW220160   4.521   3.524   9.828 -1.5943  0.9133  0.0700
 2842SOL     OW20161   1.236   0.193  14.102  0.3829 -0.2628 -0.0446
 2842SOL    HW120162   1.201   0.136  14.033 -0.2878 -1.6059  1.4145
 2842SOL    HW220163   1.324   0.208  14.067 -0.5398  1.7717 -1.4916
 2843SOL     OW20164   2.312   1.593   1.138  0.0954  0.1678  0.2857
 2843SOL    HW120165   2.324   1.510   1.186 -0.7814 -0.4203 -0.5223
 2843SOL    HW220166   2.295   1.657   1.207 -3.1636 -0.0729 -0.3067
 2844SOL     OW20167   3.730   1.948   6.046  0.7381 -0.1880  0.4915
 2844SOL    HW120168   3.723   1.854   6.029 -0.0873  0.2058 -1.3574
 2844SOL    HW220169   3.640   1.976   6.030  0.1959 -2.3858 -0.3635
 2845SOL     OW20170   4.531   0.461   6.977  0.1148 -0.2408  0.3955
 2845SOL    HW120171   4.531   0.557   6.980 -1.3486 -0.2267  0.1463
 2845SOL    HW220172   4.507   0.449   6.885 -2.4392  3.2629  0.6193
 2846SOL     OW20173   0.612   0.191   4.282 -0.3226 -0.1472  0.0492
 2846SOL    HW120174   0.591   0.178   4.190  1.1935 -2.7946  0.0924
 2846SOL    HW220175   0.706   0.195   4.265 -0.4198 -1.8503 -0.8801
 2847SOL     OW20176   1.705   4.519   6.654 -0.0490  0.1087  0.4335
 2847SOL    HW120177   1.780   4.501   6.597 -0.2296 -1.7990  0.7806
 2847SOL    HW220178   1.648   4.444   6.637  0.5338 -0.8385  2.7001
 2848SOL     OW20179   1.187   2.289  16.712  0.1564  0.6101  0.3682
 2848SOL    HW120180   1.190   2.194  16.705 -0.3714  0.8994 -3.8096
 2848SOL    HW220181   1.133   2.295  16.633 -1.1751 -3.0996  1.0139
 2849SOL     OW20182   2.262   2.051  16.319 -0.7058 -0.0883  0.4902
 2849SOL    HW120183   2.255   2.112  16.246 -3.5207  0.6729  1.4168
 2849SOL    HW220184   2.173   2.018  16.330 -1.9550  2.7175 -1.1815
 2850SOL     OW20185   2.944   1.936   2.535  0.0825  0.1695  0.6274
 2850SOL    HW120186   2.913   1.896   2.616  2.2614 -0.9446  0.9128
 2850SOL    HW220187   3.006   2.004   2.560 -0.8716  0.5724  1.8601
 2851SOL     OW20188   0.523   3.819   1.739  0.4499  0.0844 -0.5338
 2851SOL    HW120189   0.524   3.828   1.834  2.7021  0.9351 -0.6373
 2851SOL    HW220190   0.527   3.911   1.715  1.1703 -0.2534 -1.7203
 2852SOL     OW20191   2.882   2.619   8.028 -0.5522  0.0097 -0.9419
 2852SOL    HW120192   2.858   2.711   8.037 -1.5051 -0.2180 -1.2339
 2852SOL    HW220193   2.798   2.577   8.044 -1.2264  2.1478  1.0625
 2853SOL     OW20194   1.285   4.290   7.526 -0.0995 -0.2457  0.6003
 2853SOL    HW120195   1.333   4.208   7.537 -0.5380 -0.7211 -1.1016
 2853SOL    HW220196   1.346   4.344   7.576  0.3109 -0.2515  0.1042
 2854SOL     OW20197   2.171   4.213   5.147  0.0013 -0.7004  0.5997
 2854SOL    HW120198   2.266   4.219   5.153  0.0378  0.6150 -1.5160
 2854SOL    HW220199   2.157   4.124   5.179 -1.0827 -0.9998 -0.6793
 2855SOL     OW20200   3.165   2.499  16.360  0.6946  0.4302  0.2477
 2855SOL    HW120201   3.186   2.578  16.410 -2.1284  1.6091 -0.4258
 2855SOL    HW220202   3.241   2.482  16.304  1.2450  0.1580  1.0743
 2856SOL     OW20203   1.290   1.003   4.405 -0.0728 -0.7393 -0.3375
 2856SOL    HW120204   1.272   0.980   4.314  1.3136  0.7970 -1.0002
 2856SOL    HW220205   1.241   1.086   4.410 -1.5497 -1.6641  0.6763
 2857SOL     OW20206   0.063   0.263   0.638 -0.1262 -0.2677  0.7901
 2857SOL    HW120207   0.013   0.344   0.650  1.0825  0.8769 -1.7213
 2857SOL    HW220208   0.152   0.295   0.626 -0.4070 -0.3134 -1.3986
 2858SOL     OW20209   0.389   2.597  14.561 -0.0419 -0.1401 -0.8241
 2858SOL    HW120210   0.383   2.654  14.484 -0.6707  0.8306 -0.0447
 2858SOL    HW220211   0.349   2.518  14.524 -1.1429  0.8652 -1.7672
 2859SOL     OW20212   0.231   2.605   9.816 -0.7845  0.2469 -0.2797
 2859SOL    HW120213   0.268   2.516   9.819  0.7617  0.8671 -0.5661
 2859SOL    HW220214   0.156   2.596   9.758 -2.3479  3.2003  1.2933
 2860SOL     OW20215   2.847   4.369   5.436 -0.1898  0.6442  0.1468
 2860SOL    HW120216   2.889   4.293   5.476  0.0872  0.5742 -0.2843
 2860SOL    HW220217   2.899   4.367   5.356  1.0146 -0.5048  0.9551
 2861SOL     OW20218   3.150   1.567   6.066  0.2581 -0.4164  0.0185
 2861SOL    HW120219   3.225   1.607   6.111 -0.1620  0.6279 -0.2158
 2861SOL    HW220220   3.144   1.489   6.120  2.4271 -2.1748 -2.2758
 2862SOL     OW20221   2.758   2.328  15.732 -0.1171 -0.0651  0.0732
 2862SOL    HW120222   2.740   2.311  15.640  0.4841  0.2835 -0.1080
 2862SOL    HW220223   2.721   2.416  15.740  1.6138  0.4249  2.6155
 2863SOL     OW20224   0.695   2.414   4.719 -0.4447 -0.2161  0.4047
 2863SOL    HW120225   0.747   2.414   4.639 -1.8858  3.0944 -0.5598
 2863SOL    HW220226   0.689   2.507   4.741  1.5548 -0.0786  0.3958
 2864SOL     OW20227   0.397   1.926   6.490  0.3235 -0.1793 -0.0102
 2864SOL    HW120228   0.400   1.831   6.477  1.7070 -0.2460  0.8276
 2864SOL    HW220229   0.475   1.944   6.542 -0.0196 -0.7086  0.6922
 2865SOL     OW20230   2.340   4.290   7.346 -0.1744 -0.2552 -0.0263
 2865SOL    HW120231   2.426   4.332   7.339 -0.0003 -0.4420  0.9859
 2865SOL    HW220232   2.322   4.264   7.256  0.4495 -2.1300  0.4011
 2866SOL     OW20233   0.410   1.685  15.989  0.1677 -0.8908 -0.1807
 2866SOL    HW120234   0.402   1.780  15.988 -0.0050 -0.9157 -1.0175
 2866SOL    HW220235   0.488   1.671  15.936  0.5173  1.4505 -0.2562
 2867SOL     OW20236   4.214   3.087   3.953  0.5303  0.0472  0.3391
 2867SOL    HW120237   4.198   3.113   3.862 -1.3202  0.5674  0.8256
 2867SOL    HW220238   4.153   3.145   3.999  0.0757 -0.4220  0.3205
 2868SOL     OW20239   1.332   1.449  13.100 -0.2278  0.6479  0.1565
 2868SOL    HW120240   1.261   1.508  13.128  0.0495  0.6364  0.9025
 2868SOL    HW220241   1.411   1.483  13.142 -1.3751  0.8589  2.1952
 2869SOL     OW20242   2.904   0.693   5.338 -0.5325 -0.0451 -0.3728
 2869SOL    HW120243   2.830   0.654   5.293 -0.1933  2.5981 -3.2329
 2869SOL    HW220244   2.842   0.760   5.367  1.6657  1.1952  1.4408
 2870SOL     OW20245   3.150   3.660   1.417 -0.3280  0.2995 -0.3864
 2870SOL    HW120246   3.205   3.593   1.458  1.0651  2.0535  0.6010
 2870SOL    HW220247   3.071   3.608   1.399  0.6724 -1.0667 -0.8333
 2871SOL     OW20248   0.497   2.437   1.764  0.3261 -0.0276  0.1648
 2871SOL    HW120249   0.550   2.395   1.696  0.8984  0.1877  0.4773
 2871SOL    HW220250   0.557   2.436   1.839  0.9290  2.0363 -0.2961
 2872SOL     OW20251   0.582   1.040   8.525 -0.0039 -0.8245  0.4590
 2872SOL    HW120252   0.670   1.041   8.563 -0.2234 -0.5080  0.9571
 2872SOL    HW220253   0.553   0.992   8.602  1.9828 -0.7104  1.2990
 2873SOL     OW20254   3.016   1.591   2.068 -0.3981  0.1051  0.3597
 2873SOL    HW120255   2.939   1.537   2.053 -0.9941  0.8113  0.8695
 2873SOL    HW220256   3.001   1.630   2.155 -1.1329  2.5798 -0.8763
 2874SOL     OW20257   2.996   4.723   4.885 -0.2663 -0.7027 -0.0251
 2874SOL    HW120258   2.943   0.063   4.887  1.0324  0.1158  2.0225
 2874SOL    HW220259   2.970   4.686   4.969 -2.2037  0.8866  0.0878
 2875SOL     OW20260   4.609   1.546  15.101 -0.1453  0.0878 -0.4835
 2875SOL    HW120261   4.684   1.557  15.042 -1.3545  1.3456 -1.7826
 2875SOL    HW220262   4.597   1.452  15.091 -0.5085 -0.2532  3.3253
 2876SOL     OW20263   2.730   3.195  15.225  0.3526  1.2036  0.4216
 2876SOL    HW120264   2.691   3.261  15.282  1.3397  0.0364  2.4428
 2876SOL    HW220265   2.660   3.187  15.160  2.2454  1.8023 -1.6935
 2877SOL     OW20266   2.036   3.149   2.157  0.1289  0.1940 -0.4095
 2877SOL    HW120267   1.998   3.233   2.181 -0.6949 -0.6038  1.0634
 2877SOL    HW220268   2.073   3.120   2.240  2.8785  1.0024 -1.3562
 2878SOL     OW20269   4.311   1.614   7.332  0.0507 -0.2977  0.1071
 2878SOL    HW120270   4.326   1.664   7.412 -0.2598  0.1128 -0.0903
 2878SOL    HW220271   4.396   1.596   7.291 -0.1812 -0.1071 -0.4619
 2879SOL     OW20272   0.580   4.144   0.932 -0.1369  0.2640 -0.4414
 2879SOL    HW120273   0.585   4.089   0.854  0.4850  0.9194 -0.8704
 2879SOL    HW220274   0.597   4.228   0.890 -2.6847  0.0334 -1.8810
 2880SOL     OW20275   0.358   3.614   4.364 -0.3830  0.7202  0.2931
 2880SOL    HW120276   0.374   3.520   4.374  0.9975  0.9072 -0.0585
 2880SOL    HW220277   0.406   3.650   4.438 -1.4966  1.1349  0.8118
 2881SOL     OW20278   0.014   3.563   5.434 -0.0753 -0.1499  0.3113
 2881SOL    HW120279   0.047   3.597   5.350 -0.1870 -1.1781 -0.1508
 2881SOL    HW220280   0.064   3.615   5.496 -2.2121 -1.1505  2.8660
 2882SOL     OW20281   0.558   4.213   5.144  0.0903 -0.0259  0.0612
 2882SOL    HW120282   0.571   4.118   5.146  2.6163  0.3191  0.7311
 2882SOL    HW220283   0.475   4.220   5.097  1.0675 -4.5985 -2.3652
 2883SOL     OW20284   0.661   1.413   9.339 -0.5318 -0.5122 -0.1942
 2883SOL    HW120285   0.625   1.338   9.387  0.0707 -0.4855  0.3009
 2883SOL    HW220286   0.735   1.434   9.397 -1.0426 -1.0449  0.6506
 2884SOL     OW20287   2.989   3.263   6.584  0.7783  0.6776  0.1577
 2884SOL    HW120288   3.018   3.354   6.586  1.3701  0.5046 -1.0681
 2884SOL    HW220289   3.012   3.230   6.498  0.7164  2.1076 -0.4022
 2885SOL     OW20290   1.077   2.627   4.269  0.0891 -0.0775  0.1069
 2885SOL    HW120291   1.108   2.651   4.182 -3.4372  0.2581 -1.0349
 2885SOL    HW220292   0.982   2.635   4.261 -0.0737 -0.5836  1.5351
 2886SOL     OW20293   2.900   1.636   9.045 -0.5525 -0.1221  0.1930
 2886SOL    HW120294   2.976   1.581   9.024  1.0635  1.1239  2.8126
 2886SOL    HW220295   2.831   1.571   9.033  2.7675 -3.5660 -0.4113
 2887SOL     OW20296   4.358   2.871   6.177  0.1160  0.1041  0.0711
 2887SOL    HW120297   4.417   2.946   6.184  1.1032 -0.9543  2.8379
 2887SOL    HW220298   4.349   2.846   6.269 -1.1132  0.8083  0.1490
 2888SOL     OW20299   1.598   2.455   8.134 -0.4033 -0.2848  0.4869
 2888SOL    HW120300   1.551   2.442   8.051 -0.0420  0.2036  0.2038
 2888SOL    HW220301   1.523   2.436   8.190 -0.3005  0.2553  0.8021
 2889SOL     OW20302   3.456   1.137   2.499  0.3607  0.4156  0.0461
 2889SOL    HW120303   3.403   1.192   2.441  0.9296  1.1288  0.2074
 2889SOL    HW220304   3.382   1.087   2.533  0.3204  1.2855  1.2361
 2890SOL     OW20305   3.899   1.766   4.680 -0.6768 -1.0614 -0.5899
 2890SOL    HW120306   3.977   1.813   4.707 -1.4791  1.3013 -2.4195
 2890SOL    HW220307   3.900   1.797   4.590  1.6672 -1.8085 -0.8209
 2891SOL     OW20308   4.025   3.530   8.131 -0.1757 -0.0237 -0.2083
 2891SOL    HW120309   3.955   3.595   8.141  0.1817  0.2826  0.2670
 2891SOL    HW220310   4.004   3.480   8.210 -1.6933 -0.9349 -1.1792
 2892SOL     OW20311   0.427   4.051  14.007  0.7783 -0.1186 -0.4926
 2892SOL    HW120312   0.421   3.999  14.087 -1.7369 -0.7712 -1.1017
 2892SOL    HW220313   0.405   4.132  14.052  1.8833  1.2496 -2.4194
 2893SOL     OW20314   2.288   3.088  17.708  0.2281 -0.4241  0.2435
 2893SOL    HW120315   2.201   3.070  17.672  0.1458  2.0336 -0.7831
 2893SOL    HW220316   2.263   3.162   0.006 -1.1287  0.3633 -1.3822
 2894SOL     OW20317   4.674   2.764   6.392  0.0379  0.1695 -0.3120
 2894SOL    HW120318   4.737   2.720   6.449 -0.6623  0.2196  0.4980
 2894SOL    HW220319   4.599   2.709   6.416  0.5644 -0.3764  0.0772
 2895SOL     OW20320   0.833   2.267   8.065 -0.5571  0.0678 -0.0236
 2895SOL    HW120321   0.751   2.270   8.114 -0.5655  2.8627 -0.2510
 2895SOL    HW220322   0.895   2.279   8.138 -2.0274  1.2302  1.0204
 2896SOL     OW20323   0.511   1.918  10.503  0.0336  0.3804 -0.2454
 2896SOL    HW120324   0.527   1.999  10.551  3.3807 -0.8655  0.7397
 2896SOL    HW220325   0.424   1.901  10.541 -1.3430 -2.0134 -4.4427
 2897SOL     OW20326   0.712   1.135   6.416  0.0460  0.3886  0.2276
 2897SOL    HW120327   0.774   1.087   6.361  0.8759  0.9948  0.6415
 2897SOL    HW220328   0.632   1.134   6.363 -0.5134  0.1107  1.0712
 2898SOL     OW20329   0.958   1.727   7.848 -0.2245 -0.0398 -0.9018
 2898SOL    HW120330   0.864   1.708   7.850 -0.3246  0.4352 -0.9585
 2898SOL    HW220331   0.973   1.733   7.753  1.2438  3.1581 -0.4721
 2899SOL     OW20332   0.361   0.003   7.471  0.3196  0.0146  0.2470
 2899SOL    HW120333   0.361   4.648   7.468  0.9007  0.0781 -1.6846
 2899SOL    HW220334   0.289   0.015   7.534  0.5134 -0.4220  0.5483
 2900SOL     OW20335   1.947   0.159   6.068 -0.1406  0.0473 -0.3868
 2900SOL    HW120336   1.950   0.066   6.091  3.8901  0.4901  0.9485
 2900SOL    HW220337   1.900   0.197   6.142 -3.2025 -0.9306 -1.8293
 2901SOL     OW20338   2.241   4.685   7.442 -0.3264  0.6625 -0.0543
 2901SOL    HW120339   2.184   4.701   7.367 -1.1425 -3.3093 -0.2777
 2901SOL    HW220340   2.311   4.632   7.404 -2.0952 -0.0614 -2.3015
 2902SOL     OW20341   4.191   0.924   9.202 -0.1133 -0.1144  0.2100
 2902SOL    HW120342   4.165   1.013   9.176  2.4794  0.1969 -1.3007
 2902SOL    HW220343   4.275   0.941   9.243 -1.1236 -2.0069  3.0468
 2903SOL     OW20344   2.276   4.108  13.728 -0.2402  0.0027 -0.1591
 2903SOL    HW120345   2.351   4.141  13.680 -0.3752  0.3840 -0.1102
 2903SOL    HW220346   2.278   4.175  13.796  1.2341  1.0615 -1.2562
 2904SOL     OW20347   0.223   2.698   7.739 -0.1460 -0.0859  0.9078
 2904SOL    HW120348   0.215   2.783   7.782 -1.4643  0.8530 -1.1748
 2904SOL    HW220349   0.246   2.725   7.650 -0.3080  0.1642  0.9428
 2905SOL     OW20350   0.752   0.044  15.010 -0.1956  0.2232 -0.2770
 2905SOL    HW120351   0.733   4.732  14.931 -0.3194  0.1134 -0.1751
 2905SOL    HW220352   0.808   4.728  15.063 -1.8993 -0.2050  1.0690
 2906SOL     OW20353   3.242   1.473  13.545 -0.0397 -0.3801 -0.0707
 2906SOL    HW120354   3.175   1.485  13.612  0.0739 -1.3764  0.2208
 2906SOL    HW220355   3.310   1.430  13.597 -0.7495 -0.7846  0.5183
 2907SOL     OW20356   3.931   3.766  17.139  0.7999  0.0623  0.1958
 2907SOL    HW120357   3.950   3.751  17.232 -1.4617 -1.4453  0.4208
 2907SOL    HW220358   3.951   3.687  17.089 -0.9363  1.0315 -2.0246
 2908SOL     OW20359   1.273   3.511   4.654 -0.4660  0.2105  0.6823
 2908SOL    HW120360   1.238   3.423   4.639  0.5828 -0.4969  2.3784
 2908SOL    HW220361   1.311   3.499   4.741  3.3141 -1.1120 -1.1461
 2909SOL     OW20362   3.325   3.492  15.263  0.0106 -0.5124 -0.1527
 2909SOL    HW120363   3.355   3.412  15.306  0.0398 -0.0613  0.6634
 2909SOL    HW220364   3.231   3.487  15.275  0.4423 -0.6606  3.0048
 2910SOL     OW20365   4.403   3.176   6.209 -0.2750  0.0144 -0.3851
 2910SOL    HW120366   4.402   3.250   6.147  1.5756 -1.0600 -1.6756
 2910SOL    HW220367   4.309   3.161   6.221 -0.0989 -0.1720  0.7089
 2911SOL     OW20368   1.606   2.204  17.003 -0.0493  0.5041  0.6096
 2911SOL    HW120369   1.583   2.201  16.910 -0.5505 -0.1409  0.7552
 2911SOL    HW220370   1.524   2.245  17.031 -0.0075  0.5027  0.7293
 2912SOL     OW20371   4.438   4.628   3.196  0.1012 -0.3831  0.4465
 2912SOL    HW120372   4.509   4.569   3.221  0.2907 -0.7989 -1.0681
 2912SOL    HW220373   4.383   4.560   3.158 -1.1942  0.8254  0.1783
 2913SOL     OW20374   2.963   2.391   6.900 -0.1794 -0.3015 -0.1037
 2913SOL    HW120375   3.000   2.320   6.952  1.2554  0.4480 -0.0937
 2913SOL    HW220376   2.881   2.395   6.950  0.7448 -0.3926  1.4200
 2914SOL     OW20377   1.031   0.928   9.241 -0.8352 -0.8769  0.2235
 2914SOL    HW120378   1.033   0.914   9.336 -0.0420  1.2354  0.5336
 2914SOL    HW220379   0.949   0.978   9.238  0.4564  1.2374  0.1977
 2915SOL     OW20380   4.685   0.133   1.767 -0.2314 -0.3680 -0.0878
 2915SOL    HW120381   0.012   0.132   1.836 -0.1016  3.0687 -0.1586
 2915SOL    HW220382   4.736   0.085   1.702  1.0493 -2.3598  2.4124
 2916SOL     OW20383   4.343   1.455   7.877  0.3483 -0.3659 -0.2437
 2916SOL    HW120384   4.293   1.425   7.801 -1.9205  0.8354  0.7803
 2916SOL    HW220385   4.361   1.366   7.907  0.9896 -0.3681 -0.6372
 2917SOL     OW20386   2.186   0.265   7.460 -0.1122  0.0980  0.1601
 2917SOL    HW120387   2.265   0.297   7.503  0.3116  0.3247 -0.7925
 2917SOL    HW220388   2.139   0.206   7.518 -0.9836  0.4929 -0.1393
 2918SOL     OW20389   2.425   4.050  15.179  0.0622 -0.5813  0.1801
 2918SOL    HW120390   2.515   4.079  15.194 -0.2960 -0.5447  2.2791
 2918SOL    HW220391   2.377   4.130  15.158 -0.0511 -0.5412  0.5821
 2919SOL     OW20392   4.460   4.204   2.248  0.0318  0.8230 -0.1057
 2919SOL    HW120393   4.525   4.170   2.310  0.0430  0.0509 -0.5366
 2919SOL    HW220394   4.523   4.203   2.175  0.2433  0.4816  0.0829
 2920SOL     OW20395   1.293   0.224   4.784 -0.3208 -0.0496 -0.0140
 2920SOL    HW120396   1.386   0.205   4.779 -0.0676  0.6606  1.8137
 2920SOL    HW220397   1.281   0.201   4.876 -1.6526  1.0532  0.0955
 2921SOL     OW20398   0.491   3.061  17.579 -0.2833 -0.2126  0.3963
 2921SOL    HW120399   0.492   3.133  17.642 -0.4724  0.2471 -0.1189
 2921SOL    HW220400   0.512   2.988  17.636  0.7650 -0.3120 -0.1175
 2922SOL     OW20401   2.626   2.868  12.623  0.8186  0.2473 -0.0962
 2922SOL    HW120402   2.599   2.924  12.551  1.7726 -0.5189 -1.0531
 2922SOL    HW220403   2.542   2.873  12.670  1.2586  0.5779  0.6453
 2923SOL     OW20404   0.890   0.885   8.362 -0.4268  0.1482  0.0164
 2923SOL    HW120405   0.824   0.863   8.296 -1.3871 -0.1926  1.0935
 2923SOL    HW220406   0.906   0.978   8.345  1.5972 -0.4002 -1.1026
 2924SOL     OW20407   4.137   3.389  14.268  0.3487 -0.1248  0.0179
 2924SOL    HW120408   4.200   3.460  14.272 -0.7949  0.8997 -0.4281
 2924SOL    HW220409   4.165   3.346  14.187 -1.6315  0.5294 -1.0076
 2925SOL     OW20410   0.649   0.219  12.816 -0.4428 -0.2996 -0.5447
 2925SOL    HW120411   0.696   0.141  12.789 -1.1371 -0.3183 -1.6736
 2925SOL    HW220412   0.629   0.250  12.728 -1.4711 -0.0663 -0.2340
 2926SOL     OW20413   4.495   3.453   8.971 -0.5388  0.0521 -0.2480
 2926SOL    HW120414   4.496   3.442   9.066 -0.4265 -1.8089 -0.4503
 2926SOL    HW220415   4.405   3.425   8.953  0.0703 -1.3793 -1.0916
 2927SOL     OW20416   1.420   2.643  13.336 -0.0524  0.4253 -0.2090
 2927SOL    HW120417   1.361   2.718  13.328 -2.3376 -0.9883  3.2275
 2927SOL    HW220418   1.447   2.648  13.428 -1.4160 -0.3473  0.2270
 2928SOL     OW20419   4.236   4.141   8.295  0.5480  0.4140 -0.4808
 2928SOL    HW120420   4.160   4.094   8.328 -0.0949  1.3151 -0.6877
 2928SOL    HW220421   4.303   4.082   8.331  0.5141  0.0638 -0.9886
 2929SOL     OW20422   3.973   4.254  15.968 -0.2975  0.1250 -0.1196
 2929SOL    HW120423   3.988   4.185  15.903  0.2151 -0.3389  0.4868
 2929SOL    HW220424   4.036   4.245  16.040  0.3021 -1.4335 -0.8409
 2930SOL     OW20425   4.561   4.083   5.972 -0.1906 -0.1089  0.0079
 2930SOL    HW120426   4.503   4.087   6.048  1.5324  1.0013  1.2877
 2930SOL    HW220427   4.493   4.092   5.905  0.6647 -1.1986 -1.0078
 2931SOL     OW20428   0.354   2.903   2.017  0.1511  0.0885 -0.3062
 2931SOL    HW120429   0.260   2.916   2.025  0.3240  0.1393  1.6623
 2931SOL    HW220430   0.383   2.992   1.996 -0.5758 -0.0116 -1.7222
 2932SOL     OW20431   4.729   2.556   0.196 -0.4363 -0.6619  0.2117
 2932SOL    HW120432   4.664   2.487   0.209 -0.9499 -0.5245 -1.6860
 2932SOL    HW220433   0.021   2.571   0.285  0.5881 -1.5964 -0.0030
 2933SOL     OW20434   1.946   3.598   8.030  0.3299  0.1976 -0.2514
 2933SOL    HW120435   1.952   3.688   7.999 -1.3966  0.4195  0.0622
 2933SOL    HW220436   1.910   3.562   7.950 -4.0691  3.0326  0.4727
 2934SOL     OW20437   1.382   1.555   8.641  0.2768 -0.8707  0.2115
 2934SOL    HW120438   1.429   1.605   8.707 -1.3817  0.1759  0.6083
 2934SOL    HW220439   1.323   1.512   8.702 -0.9315  0.1615 -0.2307
 2935SOL     OW20440   0.469   3.734   9.109 -0.4816 -0.3918 -0.0952
 2935SOL    HW120441   0.485   3.662   9.170 -0.9166 -1.5534 -1.3524
 2935SOL    HW220442   0.561   3.737   9.084 -0.0756  5.1571  2.1234
 2936SOL     OW20443   4.437   0.288   3.452 -0.5668 -0.0633  0.6615
 2936SOL    HW120444   4.433   0.241   3.369 -0.0093  1.1668 -0.0698
 2936SOL    HW220445   4.500   0.237   3.503 -1.3874 -1.0471  0.6772
 2937SOL     OW20446   1.710   1.751  13.288  0.2134 -0.1914 -0.3966
 2937SOL    HW120447   1.683   1.732  13.378  1.6925 -0.0312  0.0824
 2937SOL    HW220448   1.679   1.840  13.275  2.0102  0.5428  0.3139
 2938SOL     OW20449   2.233   0.808  11.488 -0.3250  0.4474 -0.1566
 2938SOL    HW120450   2.222   0.759  11.569  1.6566  0.9463  0.4019
 2938SOL    HW220451   2.275   0.889  11.517  0.9694  0.2338 -1.4224
 2939SOL     OW20452   3.234   1.771  10.763 -0.1212  0.0135  0.0553
 2939SOL    HW120453   3.172   1.843  10.769 -1.2697 -1.0571  0.8625
 2939SOL    HW220454   3.286   1.794  10.841 -0.5916 -1.0978  0.6980
 2940SOL     OW20455   3.077   0.639   8.390  0.0508  0.1015 -0.0629
 2940SOL    HW120456   3.162   0.626   8.434 -0.5678 -0.4807  0.9604
 2940SOL    HW220457   3.034   0.703   8.447  2.4771  0.1443  1.7268
 2941SOL     OW20458   2.106   4.565   8.229 -0.1299 -0.1501  0.1741
 2941SOL    HW120459   2.114   4.512   8.308  3.1594  0.4342  0.2122
 2941SOL    HW220460   2.109   4.655   8.262 -2.5172  1.2972 -3.5323
 2942SOL     OW20461   1.373   2.675   3.080  0.1722  0.0003  0.0642
 2942SOL    HW120462   1.405   2.753   3.035 -0.4450  1.0624  1.4797
 2942SOL    HW220463   1.415   2.618   3.015  1.5290  1.0909 -0.0127
 2943SOL     OW20464   2.615   1.663   6.168  0.0553 -0.1901 -0.2082
 2943SOL    HW120465   2.521   1.681   6.170  0.3325  1.4429 -1.3541
 2943SOL    HW220466   2.620   1.569   6.185 -0.8993 -0.5213 -1.7796
 2944SOL     OW20467   3.973   1.379   6.539 -0.0197  0.1911 -0.4292
 2944SOL    HW120468   3.982   1.468   6.571 -0.7438 -0.4362  1.5340
 2944SOL    HW220469   4.062   1.349   6.521 -0.1197 -1.8402  2.4767
 2945SOL     OW20470   1.395   4.190  13.966  0.4039 -0.1970 -0.1614
 2945SOL    HW120471   1.438   4.139  13.897 -0.6433 -0.1873 -0.8213
 2945SOL    HW220472   1.437   4.274  13.944 -1.4627  0.6610 -0.4080
 2946SOL     OW20473   2.735   3.629   0.275 -0.6073  0.2450  0.0484
 2946SOL    HW120474   2.804   3.694   0.282  0.0145 -0.4094  0.0254
 2946SOL    HW220475   2.661   3.661   0.326 -0.7963  0.2886 -0.2509
 2947SOL     OW20476   2.009   2.040   8.584  0.5614  0.2697  0.2859
 2947SOL    HW120477   1.971   1.959   8.618 -0.3698  0.8870  0.7293
 2947SOL    HW220478   1.974   2.104   8.646  0.2830 -0.2173  0.6327
 2948SOL     OW20479   3.199   2.266   3.469  0.0916  0.1577  0.1135
 2948SOL    HW120480   3.226   2.199   3.533  0.9585  1.3579  0.9930
 2948SOL    HW220481   3.146   2.328   3.519 -0.9857 -1.1582  0.6084
 2949SOL     OW20482   3.254   2.602   5.133  0.1446  0.4774 -0.2884
 2949SOL    HW120483   3.278   2.521   5.087  2.2489  0.6747  0.4660
 2949SOL    HW220484   3.332   2.656   5.120  0.9128 -0.4390  0.5691
 2950SOL     OW20485   3.923   4.050   9.640  0.1418  0.6554  0.4667
 2950SOL    HW120486   3.947   4.116   9.575  1.2755  0.6949  0.9272
 2950SOL    HW220487   3.960   4.084   9.722  1.3584 -1.1987  0.6881
 2951SOL     OW20488   1.088   1.005   5.127 -0.0127  0.5461  0.0968
 2951SOL    HW120489   1.148   0.962   5.187  1.5993  1.0943 -1.1428
 2951SOL    HW220490   1.042   1.058   5.192  1.6862  2.5637 -0.3507
 2952SOL     OW20491   0.286   1.879   8.782 -0.5888 -0.2394 -0.1285
 2952SOL    HW120492   0.276   1.786   8.758  0.6256 -1.0085  2.3371
 2952SOL    HW220493   0.217   1.924   8.732 -1.0167 -1.7783 -0.9385
 2953SOL     OW20494   0.840   4.264  13.883  0.1658  0.0330 -0.5816
 2953SOL    HW120495   0.780   4.305  13.822  0.1762 -0.3752 -0.8628
 2953SOL    HW220496   0.800   4.177  13.893  2.2711 -1.0553 -1.5153
 2954SOL     OW20497   0.972   1.097   6.628  0.0237  0.1477  0.1484
 2954SOL    HW120498   0.917   1.089   6.706  2.2641  1.0909  1.8193
 2954SOL    HW220499   0.987   1.191   6.618  1.3307 -0.2347 -1.5540
 2955SOL     OW20500   4.468   2.078   7.012  0.5464 -0.7182 -0.2043
 2955SOL    HW120501   4.553   2.083   7.055  1.1078  0.0677 -1.4117
 2955SOL    HW220502   4.476   2.083   6.917  1.1090  1.5765 -0.0413
 2956SOL     OW20503   0.030   1.286   4.646 -0.0680 -0.3055 -0.2912
 2956SOL    HW120504   4.723   1.285   4.730 -0.7971  2.6977 -0.6421
 2956SOL    HW220505   4.698   1.285   4.584 -0.6763  0.0985  0.4020
 2957SOL     OW20506   1.165   3.583   1.468 -0.0489 -0.0896  0.5210
 2957SOL    HW120507   1.206   3.539   1.394 -1.2892 -2.2196  1.0872
 2957SOL    HW220508   1.197   3.673   1.462  3.3125 -1.3925 -1.3302
 2958SOL     OW20509   2.225   1.353  17.582  0.2306 -0.2235  0.4373
 2958SOL    HW120510   2.235   1.443  17.612  1.4320  0.1642 -1.1376
 2958SOL    HW220511   2.230   1.377  17.489 -0.6847  1.1743  0.7505
 2959SOL     OW20512   2.708   1.528   8.828 -0.3421 -0.4119  0.4421
 2959SOL    HW120513   2.627   1.508   8.781 -0.3384  0.5747  0.0114
 2959SOL    HW220514   2.687   1.621   8.835  1.6940  0.2253 -1.7220
 2960SOL     OW20515   4.500   2.407   0.229  0.4494  0.0699  0.3453
 2960SOL    HW120516   4.443   2.461   0.174 -1.2863 -1.9499  0.2045
 2960SOL    HW220517   4.462   2.326   0.196 -1.9019  1.2515  0.1989
 2961SOL     OW20518   2.079   2.042   9.439 -0.3353 -0.2031 -0.4494
 2961SOL    HW120519   2.169   2.016   9.418 -0.7644 -1.2760 -0.9458
 2961SOL    HW220520   2.046   1.960   9.474 -2.6206  0.4889 -0.9814
 2962SOL     OW20521   3.819   4.470   9.912  0.2689 -0.5122  0.8750
 2962SOL    HW120522   3.798   4.496   9.822 -0.8016  1.0205  1.5754
 2962SOL    HW220523   3.865   4.546   9.948 -0.5230  1.1822 -1.7328
 2963SOL     OW20524   3.056   4.667  13.650  0.1447 -0.1349 -0.1731
 2963SOL    HW120525   3.041   4.709  13.735 -1.7970  0.2965 -0.7378
 2963SOL    HW220526   3.142   4.708  13.636 -0.5121  1.3615  0.1652
 2964SOL     OW20527   3.715   3.614  12.521 -0.3706 -0.3636  0.0385
 2964SOL    HW120528   3.646   3.647  12.463  0.7838  0.3590 -0.9323
 2964SOL    HW220529   3.746   3.695  12.563 -1.3151  1.1578 -2.1878
 2965SOL     OW20530   2.335   4.298   8.085  0.2208  0.2096  0.3927
 2965SOL    HW120531   2.354   4.377   8.034  1.7778  0.4760  1.3664
 2965SOL    HW220532   2.419   4.252   8.075  0.8830  1.6132 -0.5715
 2966SOL     OW20533   1.526   2.540   3.299  0.1295  0.1285  0.0214
 2966SOL    HW120534   1.456   2.491   3.342  2.0886 -1.9388  0.8728
 2966SOL    HW220535   1.482   2.577   3.222  2.2209 -1.9274 -2.1717
 2967SOL     OW20536   0.790   0.088   2.882 -0.5473  0.3500  0.1597
 2967SOL    HW120537   0.776   0.003   2.842  0.2558  0.3652 -0.1581
 2967SOL    HW220538   0.853   0.124   2.818 -1.9565 -1.7848 -2.4342
 2968SOL     OW20539   2.595   4.154   4.354  0.1247  0.0527 -0.2866
 2968SOL    HW120540   2.645   4.226   4.313 -0.1361  1.3187  1.6214
 2968SOL    HW220541   2.629   4.079   4.306  2.2816  0.4823  0.5768
 2969SOL     OW20542   1.162   3.050  14.746  0.2406 -0.2261  0.4268
 2969SOL    HW120543   1.171   2.996  14.668  3.7471  0.2533  0.5205
 2969SOL    HW220544   1.094   3.001  14.793 -1.4210 -0.0770 -1.7970
 2970SOL     OW20545   2.024   2.262   9.252 -0.2538 -0.0418 -0.0923
 2970SOL    HW120546   2.074   2.322   9.307  1.3350 -0.6948 -0.8066
 2970SOL    HW220547   2.001   2.198   9.319 -2.9724  0.1163 -0.8688
 2971SOL     OW20548   3.641   0.275   9.723 -0.6153 -0.3208 -0.2052
 2971SOL    HW120549   3.659   0.288   9.816 -0.0471  0.8307 -0.4757
 2971SOL    HW220550   3.715   0.222   9.695  2.2189  3.8904 -0.7342
 2972SOL     OW20551   3.328   2.083  11.869 -0.2130  0.1241  0.0480
 2972SOL    HW120552   3.295   2.173  11.863 -0.0054  0.0704 -2.0177
 2972SOL    HW220553   3.249   2.032  11.854  0.5299 -0.4719 -1.8406
 2973SOL     OW20554   4.592   0.820   2.898  0.1237  0.2685 -0.2087
 2973SOL    HW120555   4.544   0.898   2.868  0.5109  0.8467  0.6635
 2973SOL    HW220556   4.529   0.774   2.954  0.9821  0.1130  0.6300
 2974SOL     OW20557   1.642   3.725  16.728  0.1759 -0.2034 -0.2238
 2974SOL    HW120558   1.644   3.699  16.636 -1.0609  0.0584 -0.3280
 2974SOL    HW220559   1.722   3.677  16.749  1.7440  2.2984 -0.3863
 2975SOL     OW20560   1.921   3.587   1.121  0.1319  0.8857 -1.1776
 2975SOL    HW120561   1.977   3.559   1.194 -1.7940  1.6381  0.5904
 2975SOL    HW220562   1.846   3.629   1.164  0.8160  0.3396  0.5710
 2976SOL     OW20563   1.399   3.613   3.187  0.0983 -0.2144 -0.7504
 2976SOL    HW120564   1.353   3.636   3.268  0.1154 -2.8345 -0.0079
 2976SOL    HW220565   1.421   3.701   3.157  1.3032  0.0163  0.8368
 2977SOL     OW20566   3.975   1.576   3.392 -0.0288  0.3577 -0.8373
 2977SOL    HW120567   3.920   1.648   3.423  1.4622  0.8545  0.6659
 2977SOL    HW220568   4.015   1.550   3.475 -0.4537  2.6051  0.0595
 2978SOL     OW20569   2.055   0.673   6.578 -0.8038  0.0191 -0.8060
 2978SOL    HW120570   2.054   0.592   6.628 -1.8179 -0.0465 -0.9245
 2978SOL    HW220571   1.959   0.684   6.579 -0.6992  0.9561 -0.9708
 2979SOL     OW20572   2.594   1.766   6.462  0.0615  0.3957 -0.5180
 2979SOL    HW120573   2.605   1.722   6.378 -2.9599  2.7007 -2.1132
 2979SOL    HW220574   2.684   1.797   6.471  0.5734 -0.9582 -0.9410
 2980SOL     OW20575   3.705   1.584   4.598  0.1977 -0.0416  0.8127
 2980SOL    HW120576   3.769   1.655   4.604  1.2341 -0.5024 -4.5917
 2980SOL    HW220577   3.651   1.625   4.531  1.5689  0.7074  0.1677
 2981SOL     OW20578   3.225   2.213  13.098 -0.0255  0.1662  0.7505
 2981SOL    HW120579   3.155   2.149  13.087  1.7504 -1.7596  0.5991
 2981SOL    HW220580   3.300   2.155  13.111 -1.0622 -1.4508 -0.3875
 2982SOL     OW20581   1.782   3.173   3.877 -0.4831  0.3533 -0.1314
 2982SOL    HW120582   1.801   3.083   3.900 -2.7244 -0.4692 -1.4813
 2982SOL    HW220583   1.800   3.222   3.957  1.7764 -0.9662  0.1551
 2983SOL     OW20584   0.358   2.001   4.150 -0.0702  0.5828 -0.2668
 2983SOL    HW120585   0.286   2.052   4.114  0.1953  2.4624  1.8185
 2983SOL    HW220586   0.359   2.040   4.238 -1.5623 -0.2281  0.1099
 2984SOL     OW20587   2.695   3.011  13.707 -0.0101  0.8225  0.0601
 2984SOL    HW120588   2.766   3.074  13.699  0.0194  0.7979  0.1324
 2984SOL    HW220589   2.626   3.075  13.722 -0.4054  0.1379  1.1431
 2985SOL     OW20590   1.764   0.781   6.891 -0.5108 -0.2599  0.2344
 2985SOL    HW120591   1.769   0.691   6.858  0.3514 -0.8965  2.0833
 2985SOL    HW220592   1.671   0.787   6.872 -0.8744  0.1388  2.0867
 2986SOL     OW20593   3.885   3.112   2.075  0.4504  0.3643 -0.1062
 2986SOL    HW120594   3.973   3.119   2.039 -0.6834  0.6775 -2.8095
 2986SOL    HW220595   3.842   3.181   2.026  0.5471  0.4851 -0.0223
 2987SOL     OW20596   0.241   1.263   2.983 -0.9075 -0.2498  0.1408
 2987SOL    HW120597   0.181   1.283   2.911 -0.2598 -1.9490 -0.8654
 2987SOL    HW220598   0.321   1.276   2.932 -0.7921 -1.4716  0.0083
 2988SOL     OW20599   4.373   4.574   9.961  0.6999 -0.5911 -0.5248
 2988SOL    HW120600   4.413   4.623  10.033  3.1679 -1.5143 -1.2709
 2988SOL    HW220601   4.325   4.506  10.008  1.5393 -1.8308 -1.4549
 2989SOL     OW20602   2.902   2.679  16.542 -0.3929  0.0161  0.2835
 2989SOL    HW120603   2.886   2.766  16.578  1.1931  0.7223 -0.7310
 2989SOL    HW220604   2.852   2.623  16.602  0.2064 -0.4573  0.3382
 2990SOL     OW20605   0.679   0.808   5.793  0.4841 -0.6029 -0.0329
 2990SOL    HW120606   0.736   0.733   5.804  0.9308 -0.5872 -2.1677
 2990SOL    HW220607   0.589   0.778   5.803  0.6173 -1.2709 -0.8139
 2991SOL     OW20608   3.491   2.563   3.296 -0.0920 -0.0230  0.3016
 2991SOL    HW120609   3.487   2.523   3.209 -1.2226  0.7493 -0.0055
 2991SOL    HW220610   3.583   2.588   3.293 -0.5157  1.6406  1.1229
 2992SOL     OW20611   3.507   2.116   4.955  0.1455  0.1968 -0.2805
 2992SOL    HW120612   3.543   2.133   4.868  0.7974  0.0121 -0.0526
 2992SOL    HW220613   3.581   2.079   5.004  1.0366 -1.4601 -2.8822
 2993SOL     OW20614   1.482   3.172   5.353  0.4596 -0.4247 -0.2043
 2993SOL    HW120615   1.435   3.109   5.407 -0.2736  1.1691  1.0230
 2993SOL    HW220616   1.469   3.121   5.274 -1.6377 -1.0990  0.5730
 2994SOL     OW20617   1.739   0.944   5.121 -0.4482  0.3338 -0.0465
 2994SOL    HW120618   1.744   0.914   5.031  1.0982 -1.4416  0.6244
 2994SOL    HW220619   1.738   0.859   5.165 -0.8475 -0.0492 -0.8009
 2995SOL     OW20620   2.343   1.018   3.229  0.6646 -0.1247  0.2759
 2995SOL    HW120621   2.289   1.065   3.292 -1.1521 -1.6312 -0.1567
 2995SOL    HW220622   2.422   0.986   3.272  0.0535 -0.6128  1.0424
 2996SOL     OW20623   4.733   2.415  17.696  0.2182  0.0123 -0.5409
 2996SOL    HW120624   4.640   2.414  17.721  0.6075 -0.7980  0.8717
 2996SOL    HW220625   0.050   2.454   0.004 -0.6965  2.6564 -1.3117
 2997SOL     OW20626   0.217   0.341  14.595  0.0828 -0.2271 -0.1722
 2997SOL    HW120627   0.296   0.348  14.541  0.6456 -1.4119  0.4867
 2997SOL    HW220628   0.206   0.436  14.599 -0.8945 -0.3558  0.2430
 2998SOL     OW20629   4.641   1.039   4.991 -0.3824 -0.3330  0.0238
 2998SOL    HW120630   4.725   0.996   4.973 -0.6453 -1.0014  0.4129
 2998SOL    HW220631   4.585   0.971   5.029 -0.5878 -0.5383 -0.6484
 2999SOL     OW20632   1.405   0.245   4.234  0.1778  0.6848 -0.2714
 2999SOL    HW120633   1.402   0.179   4.304  0.4871  1.9958  0.9815
 2999SOL    HW220634   1.486   0.219   4.191 -0.2448 -1.1871  0.0319
 3000SOL     OW20635   4.041   0.148   6.657  0.0303  0.0083 -0.3866
 3000SOL    HW120636   4.096   0.172   6.582 -0.1888 -2.0789 -1.2413
 3000SOL    HW220637   3.986   0.086   6.608 -1.0831  1.0621 -0.4767
 3001SOL     OW20638   2.551   3.942  14.019 -0.4093 -0.6960  0.0046
 3001SOL    HW120639   2.513   3.951  14.106  1.0948 -0.3670  0.6357
 3001SOL    HW220640   2.584   4.028  13.994 -1.5576  0.3526  2.1252
 3002SOL     OW20641   0.611   4.295   2.179 -0.2151  0.2554  0.0440
 3002SOL    HW120642   0.691   4.252   2.152 -0.8348 -0.0269 -1.3630
 3002SOL    HW220643   0.542   4.247   2.131  0.0611  0.1499 -0.2468
 3003SOL     OW20644   2.376   3.276  17.486 -0.0419 -0.1825 -0.2470
 3003SOL    HW120645   2.351   3.205  17.545 -0.1999 -1.2422 -1.5808
 3003SOL    HW220646   2.362   3.240  17.398 -1.6568  0.3541 -0.2043
 3004SOL     OW20647   1.217   1.865   2.006  0.2278 -0.0676  0.7249
 3004SOL    HW120648   1.178   1.866   1.919  1.6254  3.6552  0.1112
 3004SOL    HW220649   1.278   1.938   1.996 -0.8997  0.9719  1.5003
 3005SOL     OW20650   0.644   1.587   1.339 -0.0190  0.7219 -0.0773
 3005SOL    HW120651   0.621   1.514   1.282  0.8847  0.8203 -0.5750
 3005SOL    HW220652   0.634   1.540   1.421 -2.2962  0.6990 -0.3578
 3006SOL     OW20653   0.673   2.445   7.421 -0.3501 -0.5007  0.0544
 3006SOL    HW120654   0.653   2.523   7.473  1.0019  0.7060 -1.2600
 3006SOL    HW220655   0.676   2.474   7.330  1.2749  1.4046  0.7058
 3007SOL     OW20656   1.753   2.317  11.763 -0.4752 -0.0485  0.2110
 3007SOL    HW120657   1.768   2.336  11.855  0.9133 -2.6652  0.5144
 3007SOL    HW220658   1.798   2.234  11.754 -0.4086  0.0240 -0.1248
 3008SOL     OW20659   1.477   2.328   4.531  0.4424  0.2389 -0.1167
 3008SOL    HW120660   1.452   2.264   4.598  0.5259 -0.5432 -0.8346
 3008SOL    HW220661   1.396   2.369   4.500  0.0586 -0.9862 -0.7366
 3009SOL     OW20662   0.599   3.260   2.989  0.4775  0.0393  0.5994
 3009SOL    HW120663   0.539   3.322   3.031 -0.0618 -0.1941  0.1713
 3009SOL    HW220664   0.598   3.291   2.899 -0.4565  2.4489  1.4549
 3010SOL     OW20665   3.024   4.015   6.101 -0.4760  0.5118 -0.3183
 3010SOL    HW120666   3.079   3.938   6.113  0.6995  1.5426  0.9909
 3010SOL    HW220667   2.985   3.988   6.018 -0.7052 -0.9042  0.2507
 3011SOL     OW20668   4.202   4.537  12.349 -0.6263  0.1211  0.4567
 3011SOL    HW120669   4.137   4.527  12.279 -0.3431 -0.4372  0.2724
 3011SOL    HW220670   4.145   4.511  12.421  1.0833 -2.2238  0.9677
 3012SOL     OW20671   0.702   4.641  14.800 -0.4596 -0.7085 -0.1426
 3012SOL    HW120672   0.749   4.615  14.720 -0.5697  2.2310 -1.1916
 3012SOL    HW220673   0.626   4.584  14.788 -0.1211 -1.2564  0.3687
 3013SOL     OW20674   3.086   0.975   0.618 -0.2982 -0.0539 -0.3536
 3013SOL    HW120675   3.050   0.887   0.615  0.0978 -0.2382  0.4883
 3013SOL    HW220676   3.174   0.963   0.583 -0.7758 -1.3350 -1.1099
 3014SOL     OW20677   2.085   3.140  11.463 -0.4856  0.0347  0.2823
 3014SOL    HW120678   2.149   3.101  11.404 -2.4872 -0.8711 -1.2821
 3014SOL    HW220679   1.999   3.101  11.447 -0.3647 -0.3645  0.6198
 3015SOL     OW20680   1.464   2.771  17.260 -0.6579  0.2374 -0.4865
 3015SOL    HW120681   1.382   2.800  17.302 -1.3514 -2.3278 -0.0220
 3015SOL    HW220682   1.468   2.819  17.177  0.8738  1.2045  0.1627
 3016SOL     OW20683   4.226   2.521   8.570 -0.2944  0.4159 -0.0440
 3016SOL    HW120684   4.282   2.460   8.618 -0.4663  1.2678  1.2429
 3016SOL    HW220685   4.276   2.603   8.575  0.7684 -0.2597  0.5291
 3017SOL     OW20686   1.395   0.584   4.083 -0.4361 -0.0455  0.3262
 3017SOL    HW120687   1.487   0.566   4.064 -0.1109  0.2482  1.5734
 3017SOL    HW220688   1.381   0.532   4.163 -0.1948 -0.4995  0.0776
 3018SOL     OW20689   1.341   3.430   5.326  0.2541  0.0459 -0.4331
 3018SOL    HW120690   1.330   3.350   5.376  0.3053  0.2418 -0.1076
 3018SOL    HW220691   1.268   3.485   5.356  0.8395  0.2972  0.5298
 3019SOL     OW20692   2.004   3.508   3.199  0.1742 -0.1338 -0.7908
 3019SOL    HW120693   2.030   3.453   3.126  1.6245 -0.0805 -0.3173
 3019SOL    HW220694   2.044   3.593   3.182 -0.7509  0.1664 -1.4418
 3020SOL     OW20695   4.732   4.307   9.129  0.0308  0.2699  0.2584
 3020SOL    HW120696   4.730   4.245   9.057  2.0709 -1.0661  1.3688
 3020SOL    HW220697   0.065   4.276   9.183 -0.4826 -1.7072 -0.1803
 3021SOL     OW20698   4.248   1.185   9.050 -0.2652  0.2814  0.1893
 3021SOL    HW120699   4.337   1.157   9.072  0.2764  1.8338  0.0027
 3021SOL    HW220700   4.254   1.179   8.955 -3.1157 -0.2521  0.0613
 3022SOL     OW20701   0.509   2.962   0.083 -0.3986  0.1884  0.1418
 3022SOL    HW120702   0.597   2.959   0.120 -0.9972 -1.9886  1.3815
 3022SOL    HW220703   0.473   3.032   0.138  2.5215  0.4084  1.7739
 3023SOL     OW20704   2.581   3.771   8.231  0.8389  0.2319  0.2470
 3023SOL    HW120705   2.618   3.683   8.236 -1.1489 -0.6317 -0.0837
 3023SOL    HW220706   2.651   3.815   8.184  1.2571  1.3441  1.9087
 3024SOL     OW20707   3.432   0.162  10.740  0.1040 -0.9976 -0.0135
 3024SOL    HW120708   3.503   0.188  10.682 -2.1336 -0.3516 -2.4605
 3024SOL    HW220709   3.478   0.161  10.824  1.1150 -0.3670 -0.5594
 3025SOL     OW20710   3.405   0.046   5.006  0.1756 -0.2812 -0.3007
 3025SOL    HW120711   3.494   0.034   5.038  0.2017 -1.2858 -0.7787
 3025SOL    HW220712   3.395   4.727   4.932 -3.1088  0.9364 -0.8558
 3026SOL     OW20713   2.453   1.274   2.055  0.4852 -0.0629 -0.2445
 3026SOL    HW120714   2.507   1.332   2.109  0.5542  0.7194 -1.1654
 3026SOL    HW220715   2.371   1.321   2.068  0.0209 -0.9609  0.0878
 3027SOL     OW20716   1.671   4.165   2.323 -0.3936  0.5049 -0.6125
 3027SOL    HW120717   1.649   4.254   2.298 -1.9075 -0.0615 -1.2920
 3027SOL    HW220718   1.631   4.164   2.410 -0.3326 -3.4237 -0.5928
 3028SOL     OW20719   0.846   0.904   7.778 -0.2349 -0.7961  0.4238
 3028SOL    HW120720   0.893   0.822   7.762 -1.3151 -1.1532 -0.8489
 3028SOL    HW220721   0.754   0.881   7.770  0.2426 -1.5737 -2.5980
 3029SOL     OW20722   3.243   2.365  11.865  0.0788 -0.2569  0.3979
 3029SOL    HW120723   3.180   2.392  11.798 -0.9280  2.2888  2.3642
 3029SOL    HW220724   3.303   2.439  11.854 -1.2111  0.5677 -1.1065
 3030SOL     OW20725   1.575   1.052   6.505 -0.7356 -0.2347 -0.1906
 3030SOL    HW120726   1.514   1.126   6.512 -2.2312 -1.3752 -0.9264
 3030SOL    HW220727   1.509   0.983   6.516  0.9399 -1.8617 -0.4028
 3031SOL     OW20728   0.450   1.974   8.983 -0.4817 -0.1160 -0.0819
 3031SOL    HW120729   0.369   2.003   9.024  0.4675  0.6738  1.2556
 3031SOL    HW220730   0.413   1.935   8.905 -1.0312 -1.0081  0.6219
 3032SOL     OW20731   1.895   1.461   6.904 -0.1310  0.5352 -0.1754
 3032SOL    HW120732   1.919   1.548   6.935 -0.2423 -0.3429  2.3680
 3032SOL    HW220733   1.974   1.416   6.935 -1.2359 -0.2516  1.4812
 3033SOL     OW20734   0.797   4.513   5.442  0.3141 -0.0399 -0.1482
 3033SOL    HW120735   0.832   4.570   5.510 -4.3682  1.4999  0.9465
 3033SOL    HW220736   0.757   4.447   5.497 -0.7992 -0.3589 -1.3533
 3034SOL     OW20737   3.277   4.137   7.020  0.1849 -0.1706 -0.0596
 3034SOL    HW120738   3.315   4.181   7.096  0.5624 -0.8587  0.1498
 3034SOL    HW220739   3.262   4.050   7.057 -3.7911  0.3057 -0.5162
 3035SOL     OW20740   0.090   4.271   3.236 -0.1185  0.6878 -0.2315
 3035SOL    HW120741   0.078   4.179   3.263 -0.0405  1.0051  0.8832
 3035SOL    HW220742   0.109   4.261   3.143 -1.2808  2.8206 -0.6903
 3036SOL     OW20743   3.753   0.942   9.279  0.2163  0.5096 -0.6750
 3036SOL    HW120744   3.670   0.989   9.288  0.1827 -0.0469  1.9230
 3036SOL    HW220745   3.774   0.984   9.195 -0.7787 -0.0735 -1.2126
 3037SOL     OW20746   3.543   3.605   7.354  0.0469  0.0480  0.1111
 3037SOL    HW120747   3.502   3.679   7.309  1.2090  0.5241 -0.1804
 3037SOL    HW220748   3.572   3.551   7.281  0.0455 -1.1335  0.9779
 3038SOL     OW20749   0.162   0.100   3.518  0.3589 -0.7326 -0.1820
 3038SOL    HW120750   0.183   0.122   3.609  1.0081 -2.0350 -0.0143
 3038SOL    HW220751   0.212   0.172   3.480 -0.5264 -1.3180 -2.4131
 3039SOL     OW20752   2.387   0.564   3.612  0.0882 -0.6238  0.2956
 3039SOL    HW120753   2.395   0.603   3.525 -0.5445 -1.0555  0.0443
 3039SOL    HW220754   2.340   0.486   3.586  0.6599 -0.8221 -0.1511
 3040SOL     OW20755   2.496   3.476  17.261 -0.4650 -0.0926 -0.1002
 3040SOL    HW120756   2.564   3.431  17.211  1.2417 -0.4873  2.5387
 3040SOL    HW220757   2.450   3.402  17.301  1.1517 -0.3852  1.2507
 3041SOL     OW20758   1.507   3.602   0.461 -0.1016 -0.2027  0.0743
 3041SOL    HW120759   1.593   3.615   0.501  1.7996  0.2180 -4.1582
 3041SOL    HW220760   1.454   3.564   0.531  1.8479 -3.3652 -0.1423
 3042SOL     OW20761   3.401   3.664   5.274  0.2980 -0.2183 -0.5777
 3042SOL    HW120762   3.448   3.659   5.357 -0.4705 -1.8997 -0.2554
 3042SOL    HW220763   3.445   3.740   5.235  0.2810 -0.0545 -0.2790
 3043SOL     OW20764   4.681   2.078   7.939 -0.0004 -0.2650  0.6219
 3043SOL    HW120765   4.713   2.107   7.854 -1.8385 -2.6634 -0.9025
 3043SOL    HW220766   4.655   2.160   7.980 -2.8828 -1.1854  0.7111
 3044SOL     OW20767   3.404   1.353   3.852  0.3494 -0.2712  0.0212
 3044SOL    HW120768   3.431   1.280   3.906  1.1518  0.7631  1.0173
 3044SOL    HW220769   3.410   1.317   3.764 -0.2401 -0.5045  0.0773
 3045SOL     OW20770   3.884   1.145  11.953  0.3230  0.3263  0.3905
 3045SOL    HW120771   3.978   1.157  11.936  0.0412  1.2847 -0.4875
 3045SOL    HW220772   3.886   1.133  12.048  0.6956  0.8047  0.4445
 3046SOL     OW20773   3.510   2.684   1.286  0.3651 -0.6493 -0.1646
 3046SOL    HW120774   3.532   2.609   1.340 -3.6251 -0.0492  2.3194
 3046SOL    HW220775   3.490   2.628   1.211 -0.0760 -1.9399  0.9280
 3047SOL     OW20776   1.621   3.760   4.925 -0.2175  0.2887  0.2583
 3047SOL    HW120777   1.693   3.698   4.911 -1.6876 -0.7565 -2.5076
 3047SOL    HW220778   1.661   3.804   5.001  2.5288  0.1993 -1.1507
 3048SOL     OW20779   2.042   2.041   3.122  0.0592 -0.5205 -0.2581
 3048SOL    HW120780   2.060   1.951   3.094  0.4630 -1.0733  1.7358
 3048SOL    HW220781   2.002   2.073   3.042 -0.5736 -1.8362 -0.4787
 3049SOL     OW20782   0.031   2.706   2.895 -0.0293 -0.4211 -0.0498
 3049SOL    HW120783   0.082   2.764   2.952 -1.4161  1.0074 -0.3023
 3049SOL    HW220784   4.707   2.668   2.956 -1.7854 -2.0604 -2.9372
 3050SOL     OW20785   4.415   0.346  13.232 -0.5539  0.5710  0.0672
 3050SOL    HW120786   4.499   0.386  13.250  1.2353 -2.9298 -0.5445
 3050SOL    HW220787   4.420   0.316  13.141  2.0880 -0.0718  0.4340
 3051SOL     OW20788   1.664   1.914  16.870 -0.8110  0.1963  0.1858
 3051SOL    HW120789   1.720   1.910  16.947 -1.1446 -1.7439  0.3130
 3051SOL    HW220790   1.666   2.008  16.850  0.8708  0.4000  1.3121
 3052SOL     OW20791   3.572   0.467   3.963 -0.1047 -0.2977 -0.2775
 3052SOL    HW120792   3.497   0.522   3.987 -0.2279 -0.4676 -0.2749
 3052SOL    HW220793   3.528   0.430   3.886 -0.2125  0.8808 -0.7775
 3053SOL     OW20794   2.913   1.610  17.443 -0.1800 -0.0934  0.0892
 3053SOL    HW120795   2.970   1.644  17.374 -0.4705  0.9077  0.3421
 3053SOL    HW220796   2.961   1.535  17.478  0.2723  0.4706  0.6687
 3054SOL     OW20797   1.331   0.290   7.034 -0.9881 -0.0417  0.0990
 3054SOL    HW120798   1.247   0.309   7.077 -0.7946 -1.4640  1.0878
 3054SOL    HW220799   1.385   0.368   7.041  1.6091 -1.9273  0.8853
 3055SOL     OW20800   2.567   2.815   7.913  0.0181  0.0481  0.0715
 3055SOL    HW120801   2.587   2.786   8.003  1.2775 -1.2340 -0.6244
 3055SOL    HW220802   2.609   2.746   7.862 -0.9976  0.5909 -1.4882
 3056SOL     OW20803   4.594   0.197   6.147 -0.0534 -0.5720 -0.0794
 3056SOL    HW120804   4.561   0.113   6.115  0.4316 -0.3751 -1.0817
 3056SOL    HW220805   4.602   0.173   6.239 -1.9805  0.9883  0.4995
 3057SOL     OW20806   0.029   2.205   7.270  0.0739 -0.0346 -0.1379
 3057SOL    HW120807   0.105   2.187   7.325 -1.9981  0.0424  2.7655
 3057SOL    HW220808   4.727   2.120   7.258  0.5078 -0.0833 -1.2515
 3058SOL     OW20809   2.320   0.938   1.498  0.4948 -0.4016  0.1255
 3058SOL    HW120810   2.383   0.987   1.444  0.0281 -0.4022 -0.4141
 3058SOL    HW220811   2.291   0.862   1.447 -0.3917  0.4992 -0.6948
 3059SOL     OW20812   4.486   3.991   4.361 -0.1297 -0.6354  0.1704
 3059SOL    HW120813   4.490   4.065   4.301 -0.6542  1.0670  2.2236
 3059SOL    HW220814   4.567   3.941   4.353  0.1137  0.1331 -2.1089
 3060SOL     OW20815   2.113   2.068   4.565 -0.1365  0.3053  0.4029
 3060SOL    HW120816   2.048   2.138   4.576  0.0992  0.4038  1.1537
 3060SOL    HW220817   2.194   2.113   4.589 -1.0392  0.7272  2.6556
 3061SOL     OW20818   2.930   1.409   7.119 -0.0016 -0.3189 -0.1888
 3061SOL    HW120819   2.901   1.327   7.079 -1.2871  0.2992 -0.5451
 3061SOL    HW220820   2.844   1.429   7.155  0.5332 -1.5960  1.7727
 3062SOL     OW20821   2.129   1.709   2.144  0.1308 -0.2031  0.1060
 3062SOL    HW120822   2.131   1.734   2.051 -0.8083  2.4606  0.7962
 3062SOL    HW220823   2.147   1.792   2.187  1.7988  0.5642 -2.1177
 3063SOL     OW20824   2.463   0.070   6.492 -0.1118 -0.0009  1.0327
 3063SOL    HW120825   2.426   0.015   6.424  2.4095  1.5451 -1.5570
 3063SOL    HW220826   2.467   0.155   6.448 -2.3947 -0.6796 -0.4694
 3064SOL     OW20827   4.465   0.490  12.808 -0.2607  0.6422 -0.0784
 3064SOL    HW120828   4.375   0.473  12.780  0.0793 -1.8513  0.3431
 3064SOL    HW220829   4.475   0.437  12.887  0.7476  0.2948 -0.4363
 3065SOL     OW20830   2.366   2.700   1.888 -0.0384 -0.2813 -0.0920
 3065SOL    HW120831   2.354   2.786   1.846  1.4341 -0.0233  0.0169
 3065SOL    HW220832   2.409   2.647   1.821  1.6698 -1.8108  2.2213
 3066SOL     OW20833   3.325   2.728   8.643 -0.2733  0.2260  0.3825
 3066SOL    HW120834   3.245   2.781   8.642 -0.5587 -0.1991  0.7180
 3066SOL    HW220835   3.327   2.696   8.734  1.4453  0.0653  0.2837
 3067SOL     OW20836   2.474   3.625   5.555 -0.6737 -0.0424 -0.4816
 3067SOL    HW120837   2.527   3.554   5.592  0.3966  0.4763 -1.0285
 3067SOL    HW220838   2.525   3.704   5.573 -0.1752 -0.6715  0.8872
 3068SOL     OW20839   3.588   3.956   3.111 -0.2720  0.2696  0.2721
 3068SOL    HW120840   3.526   3.982   3.179  3.1398  2.1053  2.6562
 3068SOL    HW220841   3.540   3.885   3.068 -1.3127 -0.4576  2.5999
 3069SOL     OW20842   1.648   4.373   3.681  0.0121 -0.4043  0.0701
 3069SOL    HW120843   1.640   4.280   3.661  0.1358 -0.5660  0.8022
 3069SOL    HW220844   1.739   4.381   3.708  0.4326  1.7992 -1.9414
 3070SOL     OW20845   4.209   0.932   5.859  0.2824  0.2617  0.2861
 3070SOL    HW120846   4.196   0.969   5.947 -2.1359 -0.1972  0.1320
 3070SOL    HW220847   4.126   0.885   5.853 -0.8805  2.3694 -0.3133
 3071SOL     OW20848   4.327   4.386   8.225 -1.1169  0.5016  0.3593
 3071SOL    HW120849   4.295   4.399   8.136  0.7479  1.0174 -0.2330
 3071SOL    HW220850   4.291   4.299   8.242 -0.6200  0.2332  0.0413
 3072SOL     OW20851   4.018   1.268  16.289  0.0882  0.0598 -0.0614
 3072SOL    HW120852   4.024   1.360  16.261  1.2938 -0.1176 -0.3603
 3072SOL    HW220853   4.071   1.224  16.223  0.7653  1.8667 -0.7346
 3073SOL     OW20854   0.521   2.119   8.430 -0.2893  0.4373 -0.4593
 3073SOL    HW120855   0.616   2.124   8.441 -0.5791  0.9154  1.8354
 3073SOL    HW220856   0.480   2.165   8.504  1.8090  3.5561 -1.2258
 3074SOL     OW20857   1.318   3.558   1.131 -0.2094 -0.1336 -0.1135
 3074SOL    HW120858   1.391   3.608   1.166 -0.0456 -0.6756  0.3141
 3074SOL    HW220859   1.322   3.571   1.036  1.0921  1.2650  0.1443
 3075SOL     OW20860   3.726   2.306   7.622  0.1409  0.0229  0.0921
 3075SOL    HW120861   3.736   2.217   7.589  1.0838 -0.0033  0.4309
 3075SOL    HW220862   3.757   2.299   7.713 -0.9372 -1.1076  0.3669
 3076SOL     OW20863   4.240   3.393   7.183  0.1116 -0.1345  0.3649
 3076SOL    HW120864   4.280   3.476   7.157 -0.2053 -0.7100 -1.9666
 3076SOL    HW220865   4.239   3.395   7.278  1.1646 -0.4073  0.3771
 3077SOL     OW20866   3.262   3.504   2.305 -0.2601  0.5817  0.0855
 3077SOL    HW120867   3.336   3.551   2.266  1.8260 -2.1168  0.8038
 3077SOL    HW220868   3.254   3.430   2.244  0.4417  0.4882  0.1056
 3078SOL     OW20869   1.265   0.778   8.190 -0.1260 -0.2114 -0.3223
 3078SOL    HW120870   1.257   0.765   8.285  0.3435 -0.2502 -0.2883
 3078SOL    HW220871   1.354   0.750   8.167 -0.4478 -0.6288 -1.0869
 3079SOL     OW20872   4.504   2.570   2.973  0.1448 -0.0483 -0.1617
 3079SOL    HW120873   4.521   2.487   3.018 -0.6564 -0.9945 -1.6397
 3079SOL    HW220874   4.534   2.555   2.884  0.8603  2.7827 -0.3923
 3080SOL     OW20875   2.706   4.439   8.460  0.3678  0.8186  0.2347
 3080SOL    HW120876   2.787   4.489   8.448  0.2018  1.1697  0.5774
 3080SOL    HW220877   2.733   4.364   8.514  2.2590  0.8613 -0.6380
 3081SOL     OW20878   4.406   1.786   2.793  0.0891  0.2507 -0.0799
 3081SOL    HW120879   4.362   1.762   2.711  1.6842  0.2637 -0.9502
 3081SOL    HW220880   4.348   1.854   2.827  0.2664  0.5679 -0.4184
 3082SOL     OW20881   3.198   0.298   9.032 -0.7009  0.0272 -0.1363
 3082SOL    HW120882   3.167   0.321   8.945 -0.3042 -0.1695 -0.3261
 3082SOL    HW220883   3.109   0.284   9.066  0.1051 -1.8981  1.1603
 3083SOL     OW20884   3.389   1.355  12.144  0.3228  0.3871 -0.1803
 3083SOL    HW120885   3.443   1.380  12.219  0.7862 -2.6578  0.4981
 3083SOL    HW220886   3.310   1.328  12.190  0.2413 -1.9580 -1.6961
 3084SOL     OW20887   1.030   2.592   4.591  0.2524 -0.2623  0.4578
 3084SOL    HW120888   0.958   2.550   4.544 -0.3789  0.8665  0.4142
 3084SOL    HW220889   1.081   2.512   4.604  1.0423  0.1198 -0.2801
 3085SOL     OW20890   3.885   0.556   4.527  0.8482  0.2648 -0.0196
 3085SOL    HW120891   3.918   0.644   4.546  2.3454 -0.5481  1.1919
 3085SOL    HW220892   3.926   0.501   4.594 -1.5431 -0.9054  0.4753
 3086SOL     OW20893   1.424   3.542  10.086 -0.0634 -0.1448 -0.1728
 3086SOL    HW120894   1.495   3.598  10.119  0.1694  1.1076 -2.7257
 3086SOL    HW220895   1.371   3.520  10.162  0.8548 -1.8448 -0.0347
 3087SOL     OW20896   0.958   3.226   4.814  0.4491  0.3297 -0.1947
 3087SOL    HW120897   0.934   3.298   4.872  0.0758  1.4666 -1.7823
 3087SOL    HW220898   0.875   3.178   4.810  0.7484 -0.2191  0.1228
 3088SOL     OW20899   4.463   1.047   2.201  0.3124 -0.5171 -0.8071
 3088SOL    HW120900   4.410   1.113   2.158 -0.9835 -0.4916  0.8176
 3088SOL    HW220901   4.403   0.973   2.205  0.2041 -0.4793 -1.8407
 3089SOL     OW20902   1.395   3.070   3.122 -0.6746  0.5680  0.4009
 3089SOL    HW120903   1.478   3.065   3.169 -0.2919  0.1384 -0.3138
 3089SOL    HW220904   1.420   3.028   3.039 -1.5260  1.6048 -0.3744
 3090SOL     OW20905   3.487   4.430  11.603  0.1103  0.1473  0.4464
 3090SOL    HW120906   3.574   4.457  11.633  1.0279 -0.2673 -1.8380
 3090SOL    HW220907   3.429   4.485  11.655 -0.9832 -0.6887  0.1253
 3091SOL     OW20908   0.059   2.467   7.420  0.0033 -0.5842  0.1319
 3091SOL    HW120909   0.035   2.407   7.349 -2.2166  0.5101 -0.0529
 3091SOL    HW220910   0.152   2.489   7.409 -0.3626  1.3945  0.9966
 3092SOL     OW20911   0.482   3.900   7.323 -0.2288  0.0380 -0.4352
 3092SOL    HW120912   0.562   3.850   7.342  0.2459  1.3376  0.9189
 3092SOL    HW220913   0.443   3.895   7.410 -0.9318 -0.5052 -0.7821
 3093SOL     OW20914   0.920   4.597   2.377  0.5533  0.2742  0.2747
 3093SOL    HW120915   0.842   4.541   2.386  0.7562  0.3401  2.4234
 3093SOL    HW220916   0.936   4.601   2.282 -2.4970 -1.0334 -0.3064
 3094SOL     OW20917   2.998   1.731   7.854 -0.3012  0.4939 -0.2481
 3094SOL    HW120918   3.041   1.805   7.809  0.0453 -0.1951 -1.0467
 3094SOL    HW220919   2.914   1.769   7.879 -0.5097  1.0489 -1.8095
 3095SOL     OW20920   0.416   4.503   8.077 -0.1105  0.1027 -0.6167
 3095SOL    HW120921   0.328   4.496   8.041  0.0308  0.1472 -0.9759
 3095SOL    HW220922   0.430   4.417   8.115 -2.5271  0.3869  0.9126
 3096SOL     OW20923   0.142   2.943  15.896 -0.0288  1.2439 -0.4774
 3096SOL    HW120924   0.123   3.024  15.849  0.6202  1.7087  0.0681
 3096SOL    HW220925   0.072   2.929  15.961  0.7830  0.3913  0.2106
 3097SOL     OW20926   0.195   0.673   5.740 -0.3395 -0.4993  0.2008
 3097SOL    HW120927   0.143   0.674   5.820 -1.7211 -0.0004 -0.7034
 3097SOL    HW220928   0.133   0.711   5.677 -0.2309  0.0956  0.4526
 3098SOL     OW20929   4.701   3.666  11.296  0.5641 -0.4809 -0.4502
 3098SOL    HW120930   4.651   3.729  11.348  0.9593  0.1037 -0.7868
 3098SOL    HW220931   4.631   3.604  11.275  1.0601 -0.8738 -0.9311
 3099SOL     OW20932   3.812   1.687   8.957  0.8718 -0.1133 -0.1934
 3099SOL    HW120933   3.758   1.609   8.944 -0.0792  0.5601 -0.2839
 3099SOL    HW220934   3.852   1.663   9.040 -0.1483 -0.4626  0.1987
 3100SOL     OW20935   0.634   2.638   7.580  0.1968 -0.8313 -0.2265
 3100SOL    HW120936   0.664   2.717   7.534 -1.4518 -1.3501 -2.2210
 3100SOL    HW220937   0.707   2.630   7.641  0.9252  0.6614 -0.8891
 3101SOL     OW20938   1.114   0.305   9.126  0.6461  0.3050 -0.3746
 3101SOL    HW120939   1.199   0.282   9.165  0.1751  1.0713  1.0980
 3101SOL    HW220940   1.105   0.400   9.128 -0.8499  0.1272  1.0102
 3102SOL     OW20941   3.891   3.445   5.940  0.1288 -0.2443  0.2460
 3102SOL    HW120942   3.974   3.447   5.892 -1.7068  0.9201 -2.8332
 3102SOL    HW220943   3.919   3.497   6.016 -0.7586  1.5611 -0.6774
 3103SOL     OW20944   2.467   0.650   3.863  0.1932  0.1358  0.0372
 3103SOL    HW120945   2.430   0.628   3.777 -0.4757 -0.5939  0.5104
 3103SOL    HW220946   2.523   0.724   3.839  0.2519  0.3301  0.7794
 3104SOL     OW20947   0.929   0.186   7.428 -0.0423  0.6106  0.7260
 3104SOL    HW120948   0.953   0.164   7.517  1.0560 -0.0380  0.2676
 3104SOL    HW220949   0.920   0.281   7.436 -0.2585  0.6585 -0.0756
 3105SOL     OW20950   0.635   0.623   5.106  0.2664  0.0624  0.1671
 3105SOL    HW120951   0.630   0.588   5.017  3.3452  1.0871 -0.3795
 3105SOL    HW220952   0.691   0.552   5.137  1.4868  0.2013 -1.7351
 3106SOL     OW20953   0.043   0.089   2.516  0.0865 -0.1075  0.2654
 3106SOL    HW120954   0.092   0.073   2.597 -0.5115 -0.1113  0.6299
 3106SOL    HW220955   0.052   0.185   2.519  2.2591 -0.3258  0.7758
 3107SOL     OW20956   2.792   0.501   7.761 -0.1816  0.1786 -0.5708
 3107SOL    HW120957   2.747   0.440   7.704 -1.1969 -0.7609  1.2246
 3107SOL    HW220958   2.743   0.480   7.841  0.3374 -0.3589 -0.3908
 3108SOL     OW20959   3.608   2.913   6.274 -0.0837 -0.0437  0.1145
 3108SOL    HW120960   3.591   2.834   6.325 -1.3779  0.8321  1.0312
 3108SOL    HW220961   3.575   2.895   6.186 -0.8461 -1.0757  0.6208
 3109SOL     OW20962   1.256   1.230   8.464  0.5199  0.0224 -0.6607
 3109SOL    HW120963   1.312   1.203   8.537 -1.6362  0.2081  1.0594
 3109SOL    HW220964   1.188   1.268   8.520  0.4931 -1.7237  0.5141
 3110SOL     OW20965   1.253   4.397   3.424  0.0722  0.2684 -0.1359
 3110SOL    HW120966   1.209   4.479   3.450 -3.5093 -2.0538  1.1473
 3110SOL    HW220967   1.341   4.430   3.407  0.7801 -0.0970  2.8053
 3111SOL     OW20968   3.432   4.185   2.565 -0.1207 -0.1417  0.7156
 3111SOL    HW120969   3.526   4.187   2.547 -0.3528 -2.3663 -0.7908
 3111SOL    HW220970   3.416   4.092   2.552  0.0676  0.1216 -1.4512
 3112SOL     OW20971   2.236   4.186   7.086 -0.3104  0.1737 -0.0837
 3112SOL    HW120972   2.272   4.106   7.047  0.4154  0.5676 -0.2082
 3112SOL    HW220973   2.199   4.241   7.017 -0.1250 -0.3886 -0.6266
 3113SOL     OW20974   3.045   1.648  10.613 -0.1177 -0.1100  0.1939
 3113SOL    HW120975   3.131   1.662  10.653  0.0611  2.3906 -1.1081
 3113SOL    HW220976   3.070   1.566  10.569  1.8916  0.8397 -0.4613
 3114SOL     OW20977   0.615   2.007   6.657 -0.9233 -0.0215 -0.7967
 3114SOL    HW120978   0.689   1.967   6.611 -1.1215 -1.2250 -0.0782
 3114SOL    HW220979   0.664   2.080   6.694 -1.0487  1.1749 -2.9774
 3115SOL     OW20980   4.733   3.099   1.477  0.2495 -0.2062  0.0782
 3115SOL    HW120981   4.669   3.157   1.519 -0.3177 -0.4344 -0.4728
 3115SOL    HW220982   0.072   3.152   1.475 -1.6605  2.6311 -0.4672
 3116SOL     OW20983   4.600   4.500   3.700 -0.3095 -0.7614 -0.1587
 3116SOL    HW120984   4.646   4.537   3.776 -2.2432  1.0532  0.1354
 3116SOL    HW220985   4.604   4.574   3.638 -1.8698 -0.9636 -0.5131
 3117SOL     OW20986   4.557   2.881   7.294  0.0659 -0.3917 -0.2368
 3117SOL    HW120987   4.652   2.894   7.302 -0.3245  1.1662  1.9132
 3117SOL    HW220988   4.518   2.956   7.338  1.4872  0.9850 -1.3358
 3118SOL     OW20989   3.606   3.801   8.476 -0.1416 -0.1314  0.3162
 3118SOL    HW120990   3.603   3.712   8.443  0.3229  0.5125 -1.4682
 3118SOL    HW220991   3.515   3.828   8.463 -0.0963 -0.8377 -1.4783
 3119SOL     OW20992   0.637   0.801   3.819 -0.5340 -0.0549 -0.0113
 3119SOL    HW120993   0.570   0.842   3.765  0.1401 -0.3552 -1.0618
 3119SOL    HW220994   0.596   0.818   3.904 -0.8592 -0.9892  0.0167
 3120SOL     OW20995   3.436   0.236   2.876  0.0590  0.1232  0.7672
 3120SOL    HW120996   3.396   0.206   2.958  0.8262 -2.3805  0.2516
 3120SOL    HW220997   3.518   0.193   2.901  0.9781  2.5614  1.8904
 3121SOL     OW20998   0.759   3.534   3.284  0.1440  0.0500  0.0006
 3121SOL    HW120999   0.810   3.572   3.213 -0.0075 -0.1366 -0.2096
 3121SOL    HW221000   0.801   3.448   3.280  1.9052  0.8378  1.5239
 3122SOL     OW21001   2.390   1.707   8.259 -0.1261  0.1404 -0.5818
 3122SOL    HW121002   2.336   1.709   8.339  0.2071 -0.5772 -0.3395
 3122SOL    HW221003   2.459   1.646   8.287 -0.5314  0.2612  0.7094
 3123SOL     OW21004   2.092   0.051   5.385 -0.1291  0.3006  0.0117
 3123SOL    HW121005   2.109   0.083   5.474  4.6307  2.3696 -1.6345
 3123SOL    HW221006   2.173   0.006   5.361 -0.3254  0.7685 -1.5055
 3124SOL     OW21007   2.553   3.879   0.113 -0.6759  0.3604 -0.0912
 3124SOL    HW121008   2.556   3.926   0.197  1.4003  0.9202 -0.4982
 3124SOL    HW221009   2.475   3.823   0.118 -0.8637  0.5362 -0.9989
 3125SOL     OW21010   2.008   3.670  13.107  0.6002  0.6534  0.1822
 3125SOL    HW121011   2.070   3.703  13.042 -0.3560  0.4585 -0.8248
 3125SOL    HW221012   1.974   3.585  13.082 -0.1183  1.0378 -0.1528
 3126SOL     OW21013   3.384   3.857   1.718  0.5134  0.0959 -0.0337
 3126SOL    HW121014   3.413   3.782   1.772 -0.3225  0.3996  0.8449
 3126SOL    HW221015   3.296   3.881   1.747  0.6134 -1.8368  1.9175
 3127SOL     OW21016   0.606   2.413   2.025 -0.1116 -0.0949  0.4512
 3127SOL    HW121017   0.700   2.398   2.026  0.1455  1.5074  1.2310
 3127SOL    HW221018   0.607   2.492   2.079  0.8462  1.3017 -1.6068
 3128SOL     OW21019   0.978   0.382   8.606 -0.7988 -0.2520 -0.2244
 3128SOL    HW121020   0.960   0.391   8.699 -0.4077 -1.6677 -0.0086
 3128SOL    HW221021   0.986   0.469   8.566 -0.1567  0.4526  1.4399
 3129SOL     OW21022   4.674   1.934   7.229  0.0750  0.5032 -0.0769
 3129SOL    HW121023   4.729   1.865   7.193 -1.2394  0.0164 -1.1392
 3129SOL    HW221024   4.657   1.894   7.314  0.3876  0.9868  0.2140
 3130SOL     OW21025   2.185   0.536   7.054 -0.1953  0.7426  0.4122
 3130SOL    HW121026   2.149   0.505   7.137 -0.8911  0.0325 -0.1555
 3130SOL    HW221027   2.117   0.601   7.033  0.3773  1.2778  0.2057
 3131SOL     OW21028   3.860   0.641   3.208  0.6635  0.1132 -0.4822
 3131SOL    HW121029   3.847   0.733   3.187 -0.5592 -0.0998 -0.6534
 3131SOL    HW221030   3.773   0.601   3.214  1.8421 -2.4006 -0.0539
 3132SOL     OW21031   3.426   2.115   3.961 -0.2123  0.3469 -0.3318
 3132SOL    HW121032   3.461   2.204   3.970 -0.2802  0.5008 -1.5508
 3132SOL    HW221033   3.344   2.126   3.914 -0.4392 -0.6716 -0.1692
 3133SOL     OW21034   4.500   1.327   6.508  0.1914  0.2125 -0.2198
 3133SOL    HW121035   4.522   1.350   6.417  0.5669 -1.2145 -0.4907
 3133SOL    HW221036   4.450   1.246   6.496 -3.1542  2.2122  0.2466
 3134SOL     OW21037   4.011   2.884   1.817  0.1099 -0.3293 -0.2336
 3134SOL    HW121038   4.098   2.855   1.788 -0.7056 -2.3089 -0.7151
 3134SOL    HW221039   4.042   2.969   1.848 -1.3741 -0.5845  1.9257
 3135SOL     OW21040   3.750   0.349   3.149  0.1273 -0.2534  0.6759
 3135SOL    HW121041   3.681   0.415   3.143 -1.3619 -1.7937  0.5707
 3135SOL    HW221042   3.793   0.346   3.063 -1.7442 -1.1758 -0.2448
 3136SOL     OW21043   3.877   2.320   3.485 -0.5265  0.0348 -0.0434
 3136SOL    HW121044   3.935   2.254   3.448 -2.7209 -0.9568 -1.7562
 3136SOL    HW221045   3.908   2.404   3.451  0.8844 -0.0961  0.9331
 3137SOL     OW21046   1.664   3.392   6.232 -0.3655 -0.0528  0.2701
 3137SOL    HW121047   1.585   3.425   6.276 -1.6938 -1.4282 -1.0714
 3137SOL    HW221048   1.729   3.377   6.299 -1.3130  0.4429  1.2966
 3138SOL     OW21049   3.970   0.805   5.901 -0.3559  0.1577  0.2952
 3138SOL    HW121050   3.991   0.756   5.981  1.0112  2.2260  1.2123
 3138SOL    HW221051   3.874   0.808   5.904 -0.3938 -0.0751 -0.9217
 3139SOL     OW21052   1.717   3.533   2.776 -0.0727 -0.3253  0.5904
 3139SOL    HW121053   1.658   3.553   2.850 -1.7558  0.2458 -0.8995
 3139SOL    HW221054   1.799   3.573   2.803 -0.7608  0.5190  1.4339
 3140SOL     OW21055   3.324   1.434   4.533  0.8688 -0.9046 -0.1219
 3140SOL    HW121056   3.303   1.407   4.444  0.4712 -0.5943 -0.1208
 3140SOL    HW221057   3.392   1.371   4.554  1.9442  0.5237  0.7111
 3141SOL     OW21058   2.324   2.471   9.666  0.1632  0.2831 -0.2129
 3141SOL    HW121059   2.302   2.466   9.759 -1.0619 -0.6446 -0.5486
 3141SOL    HW221060   2.418   2.467   9.682 -0.0126 -0.6698  0.6145
 3142SOL     OW21061   2.334   3.467   6.558 -0.4271  0.2724 -0.4689
 3142SOL    HW121062   2.317   3.387   6.608 -0.7047  0.1556 -0.7477
 3142SOL    HW221063   2.259   3.523   6.580  0.3893  1.2836 -0.2801
 3143SOL     OW21064   0.063   0.783   2.205 -0.4333  0.3411 -0.5332
 3143SOL    HW121065   0.001   0.819   2.142 -2.0859 -1.3253  0.1474
 3143SOL    HW221066   0.138   0.782   2.145 -1.1258 -0.0429 -1.3798
 3144SOL     OW21067   1.751   4.513   7.402  0.6713 -0.1549 -0.3696
 3144SOL    HW121068   1.716   4.426   7.420  0.1684  0.2037  0.4495
 3144SOL    HW221069   1.683   4.533   7.337  2.6625  0.9059 -2.1198
 3145SOL     OW21070   0.506   4.025  17.178  0.9087 -0.5492 -0.6859
 3145SOL    HW121071   0.482   4.052  17.089 -0.6627  1.0422  0.2043
 3145SOL    HW221072   0.493   3.931  17.172 -1.9315 -0.1804 -0.4715
 3146SOL     OW21073   4.224   3.103   7.442  0.2204 -0.1501  0.0932
 3146SOL    HW121074   4.195   3.024   7.488 -0.7814  0.5746  0.6822
 3146SOL    HW221075   4.320   3.110   7.449  0.1578  0.1197  0.6622
 3147SOL     OW21076   0.054   0.945   8.803 -0.9235 -0.0162  0.5831
 3147SOL    HW121077   0.019   0.910   8.885  0.5715  1.0345  1.6778
 3147SOL    HW221078   4.734   0.909   8.738 -1.0799 -0.3019  0.8830
 3148SOL     OW21079   1.079   0.632   9.159  0.0967  0.4574  0.2517
 3148SOL    HW121080   1.123   0.602   9.239  0.5087 -0.4104 -0.2943
 3148SOL    HW221081   1.035   0.712   9.186 -0.9508 -0.3975  1.0988
 3149SOL     OW21082   2.210   4.263   2.959  0.5304  0.0530  0.2708
 3149SOL    HW121083   2.291   4.264   2.909  1.0654 -0.0500  1.1376
 3149SOL    HW221084   2.242   4.310   3.036 -0.8745  1.5882 -0.0522
 3150SOL     OW21085   2.643   3.954   5.161 -0.3367  0.1155 -0.8489
 3150SOL    HW121086   2.676   3.879   5.111  0.2064  1.0577 -1.8988
 3150SOL    HW221087   2.728   3.998   5.171  0.2926 -0.8610 -1.8372
 3151SOL     OW21088   4.071   0.031   1.893 -0.8617  0.0149 -0.3158
 3151SOL    HW121089   4.056   4.690   1.942  1.7877 -1.3340 -1.7069
 3151SOL    HW221090   4.156   0.005   1.858 -0.6530  1.1847 -0.6847
 3152SOL     OW21091   4.155   1.187   6.373  0.1924 -0.2134 -0.4749
 3152SOL    HW121092   4.237   1.157   6.412 -1.0922 -0.8143  1.7643
 3152SOL    HW221093   4.098   1.111   6.387  0.1321  0.6205  3.9960
 3153SOL     OW21094   0.564   0.153   9.168 -0.5916  0.1482  0.0513
 3153SOL    HW121095   0.656   0.179   9.167 -0.6859  0.5351  1.5260
 3153SOL    HW221096   0.561   0.105   9.250  0.0437 -0.4779 -0.2982
 3154SOL     OW21097   3.539   3.718   6.170 -0.2080  0.3091  0.0389
 3154SOL    HW121098   3.598   3.643   6.181  0.6288  0.6859 -1.8099
 3154SOL    HW221099   3.599   3.792   6.163  0.2582 -0.3101 -2.6056
 3155SOL     OW21100   0.349   3.239  15.426  0.4142  0.8368  0.2582
 3155SOL    HW121101   0.440   3.209  15.425 -0.6055 -2.2572  0.1767
 3155SOL    HW221102   0.363   3.322  15.472 -4.0367  2.1902 -0.8992
 3156SOL     OW21103   0.774   1.439   5.785  0.3170  0.7683  0.3195
 3156SOL    HW121104   0.857   1.463   5.825  0.1607 -0.8651  1.6192
 3156SOL    HW221105   0.706   1.475   5.842  1.8349  1.2544  1.8187
 3157SOL     OW21106   1.343   3.320  14.133 -0.1939  0.2905  0.4130
 3157SOL    HW121107   1.293   3.275  14.201  1.5208 -1.8724  0.2637
 3157SOL    HW221108   1.278   3.383  14.104  1.3625  1.8734  0.4056
 3158SOL     OW21109   3.042   1.748   3.197 -0.0134 -0.1427 -0.0269
 3158SOL    HW121110   2.992   1.708   3.267 -1.7339  2.2287  0.1073
 3158SOL    HW221111   3.072   1.828   3.240  0.0789  0.5863 -1.4319
 3159SOL     OW21112   1.033   3.389  10.967  0.1827  0.2635 -0.5611
 3159SOL    HW121113   1.047   3.297  10.947  1.3037  0.2771  0.1293
 3159SOL    HW221114   0.969   3.417  10.901  0.5497  2.1656 -0.1089
 3160SOL     OW21115   2.419   2.863  10.217  0.2591 -0.0354 -0.2810
 3160SOL    HW121116   2.382   2.949  10.238 -0.0188  0.2626 -1.9861
 3160SOL    HW221117   2.504   2.897  10.191 -0.2851  1.5027 -0.0942
 3161SOL     OW21118   3.993   4.065   6.953  0.0446  0.7349 -0.1146
 3161SOL    HW121119   4.077   4.026   6.929 -0.8961 -1.6245  0.4906
 3161SOL    HW221120   4.007   4.079   7.047 -1.5903  0.4527  0.1723
 3162SOL     OW21121   1.092   4.662   4.713  0.1673  0.1645  0.2462
 3162SOL    HW121122   1.068   4.668   4.621 -3.1261 -1.0046  0.9998
 3162SOL    HW221123   1.007   4.650   4.756 -0.3932  0.5349 -0.7744
 3163SOL     OW21124   2.133   0.979   9.869  0.3452 -0.2725  0.1420
 3163SOL    HW121125   2.048   1.012   9.898  0.1592 -0.7831  0.1834
 3163SOL    HW221126   2.114   0.904   9.813  0.3949 -0.2485  0.0928
 3164SOL     OW21127   3.827   2.036   2.151  0.2438 -0.3524  0.0032
 3164SOL    HW121128   3.746   2.040   2.202  1.5306 -0.0241  2.0359
 3164SOL    HW221129   3.845   2.129   2.140 -2.4814  0.2398  0.7967
 3165SOL     OW21130   1.551   0.692   2.332  0.1533 -0.1994 -0.1608
 3165SOL    HW121131   1.489   0.762   2.313  0.3428  0.3610  1.3615
 3165SOL    HW221132   1.550   0.635   2.254 -0.2548  1.4062 -1.3271
 3166SOL     OW21133   0.563   3.146   1.394  0.7121 -0.2514  0.6153
 3166SOL    HW121134   0.566   3.239   1.374 -1.7421  0.3608  3.0340
 3166SOL    HW221135   0.562   3.150   1.490 -1.4974 -2.6062  0.7096
 3167SOL     OW21136   1.965   1.211   5.874  0.5338 -0.2477 -0.1325
 3167SOL    HW121137   1.993   1.154   5.945 -3.1882 -1.8731  0.0744
 3167SOL    HW221138   1.869   1.204   5.875  0.5265 -0.3593 -1.7229
 3168SOL     OW21139   4.250   3.581   5.740  0.0856 -0.5872  0.5904
 3168SOL    HW121140   4.299   3.596   5.659 -3.3643 -0.3043 -1.4577
 3168SOL    HW221141   4.163   3.612   5.713  0.2635 -1.3712 -0.8683
 3169SOL     OW21142   3.127   1.855   1.467  0.0135 -0.1371  0.0900
 3169SOL    HW121143   3.179   1.819   1.395  1.3164 -0.8270  1.3688
 3169SOL    HW221144   3.186   1.924   1.497  0.0393 -0.0885 -0.0771
 3170SOL     OW21145   0.958   0.741   5.503 -0.2280  0.3089 -0.0764
 3170SOL    HW121146   0.976   0.834   5.519 -2.6420  0.7000  0.3567
 3170SOL    HW221147   0.910   0.734   5.420 -0.0289 -0.1568 -0.1529
 3171SOL     OW21148   1.786   2.676   3.763 -0.1188  0.1737 -0.5291
 3171SOL    HW121149   1.740   2.642   3.840 -0.2003  1.3797 -0.0495
 3171SOL    HW221150   1.712   2.675   3.702 -0.1971 -0.4704 -0.4274
 3172SOL     OW21151   0.296   0.481   2.378 -0.6146 -0.0841  0.0824
 3172SOL    HW121152   0.293   0.558   2.434  2.3579 -0.0409  0.1898
 3172SOL    HW221153   0.353   0.518   2.311 -0.9415  0.2985  0.0190
 3173SOL     OW21154   3.636   2.448   2.811  0.8776  0.4165 -0.0691
 3173SOL    HW121155   3.729   2.456   2.831  0.7696  3.1567 -0.7288
 3173SOL    HW221156   3.624   2.407   2.725 -1.3456 -2.9749  1.8472
 3174SOL     OW21157   4.627   0.430   2.004  0.0035  0.2450 -0.1756
 3174SOL    HW121158   4.591   0.518   1.990  1.6271  0.7089 -1.4141
 3174SOL    HW221159   4.721   0.441   1.990  0.1181  1.2373  1.3926
 3175SOL     OW21160   3.226   1.166   8.277  0.3228 -0.0186  0.5712
 3175SOL    HW121161   3.224   1.176   8.182 -1.5545 -0.3936  0.5669
 3175SOL    HW221162   3.167   1.241   8.290  2.0424  1.0378  2.3782
 3176SOL     OW21163   3.748   1.543  16.084  0.4451  0.1001  0.1079
 3176SOL    HW121164   3.808   1.543  16.009 -1.0390 -1.1330 -1.0683
 3176SOL    HW221165   3.712   1.455  16.091 -2.4710  1.1977 -0.7700
 3177SOL     OW21166   3.652   3.540   3.818  0.0690 -0.8937  0.6097
 3177SOL    HW121167   3.660   3.595   3.895  1.1721 -0.6852  0.3556
 3177SOL    HW221168   3.586   3.477   3.846 -1.4612  0.4925  0.0603
 3178SOL     OW21169   1.195   4.608  16.392 -0.0055  0.3811 -0.0353
 3178SOL    HW121170   1.272   4.612  16.336  0.2604  1.2727  0.4057
 3178SOL    HW221171   1.137   4.669  16.346  0.1274  0.7207  0.2522
 3179SOL     OW21172   4.225   1.139  10.256  0.4070  0.0396  0.2472
 3179SOL    HW121173   4.205   1.047  10.240 -2.3589  1.0205 -1.9644
 3179SOL    HW221174   4.193   1.135  10.347 -1.6803  1.2379 -0.4433
 3180SOL     OW21175   2.965   2.865   9.401  0.3437 -0.5279 -0.5509
 3180SOL    HW121176   2.897   2.802   9.428 -2.4720  3.8755  2.6215
 3180SOL    HW221177   3.013   2.859   9.484 -0.3016  0.4315 -0.1032
 3181SOL     OW21178   0.103   2.597  11.157 -0.0776 -0.2576 -0.5276
 3181SOL    HW121179   0.137   2.510  11.136 -2.2742 -1.3577  0.5207
 3181SOL    HW221180   0.092   2.598  11.252 -1.3087 -1.4486 -0.6528
 3182SOL     OW21181   2.885   2.362   4.827 -0.2396 -0.2767 -0.0612
 3182SOL    HW121182   2.938   2.422   4.774  0.2375 -1.4284 -0.8862
 3182SOL    HW221183   2.947   2.296   4.861 -0.1012 -1.6840 -3.0981
 3183SOL     OW21184   4.740   3.312  14.203 -0.2987 -0.1489 -0.4093
 3183SOL    HW121185   4.672   3.380  14.199 -2.5960 -2.1690  4.0660
 3183SOL    HW221186   4.732   3.289  14.111  0.6935 -1.9155 -0.0554
 3184SOL     OW21187   2.254   2.907   7.296 -0.9160  0.8571 -0.5616
 3184SOL    HW121188   2.308   2.881   7.222 -0.1931 -1.7413  0.9029
 3184SOL    HW221189   2.324   2.896   7.360  1.7108  1.2656 -3.3822
 3185SOL     OW21190   3.644   1.465   5.334  0.4291  0.0630  0.2661
 3185SOL    HW121191   3.719   1.429   5.381  0.3688  0.4888  0.6900
 3185SOL    HW221192   3.573   1.408   5.363 -0.8104  1.1677 -0.5999
 3186SOL     OW21193   3.674   0.745   9.877 -0.7695 -0.3240 -0.0577
 3186SOL    HW121194   3.671   0.823   9.932 -1.2058 -0.0964 -0.4056
 3186SOL    HW221195   3.641   0.672   9.930  1.0733 -0.6665  0.6048
 3187SOL     OW21196   1.295   4.442  14.178  0.0393  0.1809  0.0185
 3187SOL    HW121197   1.225   4.453  14.113 -0.7123 -1.3932  0.5726
 3187SOL    HW221198   1.251   4.464  14.260  0.3649  0.9944 -0.0203
 3188SOL     OW21199   3.601   4.131   0.327 -0.2768 -0.1453 -0.6258
 3188SOL    HW121200   3.558   4.108   0.245 -1.5942 -1.0332  0.3007
 3188SOL    HW221201   3.525   4.164   0.376 -0.2505 -1.0981  0.0632
 3189SOL     OW21202   4.324   3.425   0.036  0.0163  0.3729 -0.1146
 3189SOL    HW121203   4.389   3.489   0.066  1.6562 -2.2092  1.7948
 3189SOL    HW221204   4.247   3.477   0.013  0.1648 -0.7291 -3.0695
 3190SOL     OW21205   3.024   1.347   9.174  0.6630  0.2218  0.1287
 3190SOL    HW121206   2.991   1.306   9.094 -0.0128 -1.0828  1.0855
 3190SOL    HW221207   3.098   1.398   9.141  0.3178 -1.3276 -3.0295
 3191SOL     OW21208   1.936   4.492   6.813  0.1028  0.4783  0.2350
 3191SOL    HW121209   1.849   4.532   6.818 -1.0187 -1.4059 -3.5205
 3191SOL    HW221210   1.916   4.398   6.807  0.4313  0.3476  1.1369
 3192SOL     OW21211   1.014   0.189   3.663  0.0914 -0.2819  0.4860
 3192SOL    HW121212   0.974   0.197   3.576  1.1965  0.3535  0.0366
 3192SOL    HW221213   0.942   0.221   3.718 -0.2768 -0.3128  0.0253
 3193SOL     OW21214   3.140   4.581  15.443 -0.6681  0.1332  0.2095
 3193SOL    HW121215   3.200   4.527  15.494 -0.5499 -1.2435 -1.3735
 3193SOL    HW221216   3.171   4.662  15.482 -1.2454 -0.3414  1.6735
 3194SOL     OW21217   1.237   4.642   1.200 -0.4138 -0.8948  0.1809
 3194SOL    HW121218   1.292   4.696   1.258 -1.5951 -0.6837  1.0947
 3194SOL    HW221219   1.228   4.690   1.117  0.2101  0.9105  1.1483
 3195SOL     OW21220   1.397   1.481   1.935 -0.0148 -0.4726  0.9436
 3195SOL    HW121221   1.326   1.483   1.870  0.3450  2.2878  0.6503
 3195SOL    HW221222   1.353   1.508   2.015  1.7975 -3.0410  2.8158
 3196SOL     OW21223   2.615   0.800  12.216 -0.0222  0.3033  0.6441
 3196SOL    HW121224   2.650   0.883  12.249  2.2266 -1.3223  2.3346
 3196SOL    HW221225   2.659   0.732  12.267  1.1733  1.2950  0.9351
 3197SOL     OW21226   1.088   3.768  14.299  0.0114 -1.3783 -0.4120
 3197SOL    HW121227   1.183   3.771  14.306 -0.1532  1.1272  0.6465
 3197SOL    HW221228   1.080   3.752  14.205 -2.3778  1.2032 -0.6450
 3198SOL     OW21229   1.481   2.974   1.893  0.0598 -0.5646 -0.2259
 3198SOL    HW121230   1.427   2.958   1.971  1.3023  0.5694  0.8757
 3198SOL    HW221231   1.546   3.035   1.927 -0.1270 -0.9123  0.7706
 3199SOL     OW21232   2.629   4.641   2.431  0.2692 -0.0328 -0.0913
 3199SOL    HW121233   2.620   4.567   2.372 -1.1702 -0.9474  1.2623
 3199SOL    HW221234   2.686   4.696   2.377 -1.4004  1.7583 -0.0689
 3200SOL     OW21235   4.007   4.542   2.031 -0.2697  0.4886 -0.3845
 3200SOL    HW121236   4.009   4.495   2.114 -2.1352 -1.3177 -1.3577
 3200SOL    HW221237   4.020   4.474   1.965 -0.2403 -1.8139  1.9988
 3201SOL     OW21238   3.050   0.011  13.894  0.0470  0.0535  0.0137
 3201SOL    HW121239   2.974   4.732  13.948  0.0221  1.1627  0.3849
 3201SOL    HW221240   3.083   0.090  13.939  1.9963  0.1448 -1.5723
 3202SOL     OW21241   0.646   2.086  10.309 -0.3301  0.1508  0.5637
 3202SOL    HW121242   0.703   2.038  10.249 -0.1889 -1.1174  1.6892
 3202SOL    HW221243   0.598   2.009  10.341  0.0408 -0.3507 -0.0813
 3203SOL     OW21244   2.340   1.069   4.416  0.4175 -0.0838  0.5163
 3203SOL    HW121245   2.301   0.981   4.422  0.4085  0.0101  1.9692
 3203SOL    HW221246   2.262   1.124   4.419  0.7712  0.4771 -0.6395
 3204SOL     OW21247   2.896   2.000   1.524  0.2522 -0.2016  0.3150
 3204SOL    HW121248   2.805   1.973   1.513  0.6275 -1.9584  1.3978
 3204SOL    HW221249   2.939   1.922   1.490  0.3167 -1.0910  2.4130
 3205SOL     OW21250   3.085   1.537   0.891  0.3654  0.3435  0.0471
 3205SOL    HW121251   3.048   1.594   0.959  1.3435 -0.3793  1.1837
 3205SOL    HW221252   3.022   1.467   0.875 -1.6933  2.3978 -0.9257
 3206SOL     OW21253   2.993   2.272  14.623  0.3866 -0.3597 -0.2797
 3206SOL    HW121254   3.013   2.222  14.544  1.8136 -0.6348  0.2512
 3206SOL    HW221255   3.060   2.246  14.687  1.1100 -0.9411 -1.2782
 3207SOL     OW21256   1.725   1.368   6.091  0.0584 -0.0709  0.8995
 3207SOL    HW121257   1.747   1.454   6.054 -0.8346  0.7407  2.2304
 3207SOL    HW221258   1.768   1.370   6.176  0.0493  0.4442  0.8925
 3208SOL     OW21259   3.435   1.843   1.068 -0.0796  0.2671  0.0951
 3208SOL    HW121260   3.446   1.936   1.088  1.3162  0.0058  0.5624
 3208SOL    HW221261   3.394   1.807   1.146  0.7426  1.1604  0.9446
 3209SOL     OW21262   0.818   2.862   2.746  0.1793 -0.5340 -0.1260
 3209SOL    HW121263   0.763   2.833   2.818 -3.0956 -1.4357 -2.9895
 3209SOL    HW221264   0.884   2.915   2.791 -0.7003  0.5425 -0.1125
 3210SOL     OW21265   1.331   3.507   4.354 -0.2137  0.1002 -0.3841
 3210SOL    HW121266   1.388   3.536   4.426 -0.5602  0.6698 -0.3444
 3210SOL    HW221267   1.356   3.415   4.344  0.6313  0.3680 -0.6999
 3211SOL     OW21268   0.735   1.316   2.952 -0.6472 -0.8004 -0.2977
 3211SOL    HW121269   0.764   1.311   2.861 -1.1406 -3.1355 -0.3433
 3211SOL    HW221270   0.755   1.228   2.986  0.0114  1.2530  4.6209
 3212SOL     OW21271   4.296   1.739   8.799  0.5646 -0.0526 -0.4564
 3212SOL    HW121272   4.211   1.773   8.770 -0.7290 -1.0297  2.2319
 3212SOL    HW221273   4.272   1.650   8.824  0.6685  0.7258  2.3345
 3213SOL     OW21274   3.338   0.441   5.896  0.5966  0.3586 -0.3840
 3213SOL    HW121275   3.319   0.401   5.981  1.6599  0.2769 -0.1780
 3213SOL    HW221276   3.250   0.426   5.863  1.3008 -3.7228 -0.3445
 3214SOL     OW21277   0.129   1.696   9.116 -0.8940  0.0596  0.0250
 3214SOL    HW121278   0.157   1.774   9.069 -0.1040  0.6798  1.5119
 3214SOL    HW221279   0.065   1.659   9.056 -0.9885 -0.0993  0.2208
 3215SOL     OW21280   3.764   1.261  13.639  0.2173  0.3684 -0.0597
 3215SOL    HW121281   3.770   1.180  13.690  2.1721  1.2643  1.1470
 3215SOL    HW221282   3.805   1.227  13.559  1.0836  0.0457  0.5204
 3216SOL     OW21283   4.468   4.076  15.837  0.2879  0.5759  0.0944
 3216SOL    HW121284   4.456   4.153  15.893  1.5773 -0.3063  1.6101
 3216SOL    HW221285   4.464   4.106  15.747 -0.8608 -0.6722 -0.2713
 3217SOL     OW21286   0.251   1.088  12.753 -0.3305  0.8443 -0.5820
 3217SOL    HW121287   0.203   1.170  12.760  1.6804  1.7767  1.9612
 3217SOL    HW221288   0.172   1.042  12.725 -0.9190  0.6046  1.4394
 3218SOL     OW21289   4.346   2.640   4.285 -0.8939 -0.2900 -0.1741
 3218SOL    HW121290   4.265   2.639   4.234 -0.4237  0.0011 -0.9231
 3218SOL    HW221291   4.360   2.735   4.281  1.2176 -0.7158 -3.0397
 3219SOL     OW21292   1.079   0.861   8.731 -1.1427  0.1082 -0.2212
 3219SOL    HW121293   1.023   0.811   8.790  1.7022 -1.0092  1.5322
 3219SOL    HW221294   1.146   0.798   8.704  0.7502  1.9158  0.2987
 3220SOL     OW21295   0.938   0.122  12.153 -0.2178 -0.0547 -0.2761
 3220SOL    HW121296   0.984   0.094  12.232 -0.0017 -1.1922 -0.7955
 3220SOL    HW221297   0.899   0.036  12.134  2.0392 -1.0238 -0.5225
 3221SOL     OW21298   1.261   3.547  10.818 -0.3392  0.1788  0.1465
 3221SOL    HW121299   1.186   3.544  10.878  1.4205 -1.6777  2.2246
 3221SOL    HW221300   1.327   3.597  10.866  0.4863  1.2511 -2.0845
 3222SOL     OW21301   4.361   4.568   5.748  0.5864  0.3084  0.4853
 3222SOL    HW121302   4.378   4.605   5.661 -1.6696  0.1246 -0.0194
 3222SOL    HW221303   4.274   4.598   5.773 -0.2054 -1.2834 -0.4018
 3223SOL     OW21304   2.437   4.279   2.348 -0.3027 -0.0692 -0.0597
 3223SOL    HW121305   2.480   4.220   2.410 -0.6178 -0.3156 -0.0742
 3223SOL    HW221306   2.514   4.328   2.320  1.1719 -1.9936  0.6818
 3224SOL     OW21307   0.737   3.682  10.855 -0.3878  0.3584  0.4393
 3224SOL    HW121308   0.818   3.720  10.888  0.0607 -0.2030 -0.0043
 3224SOL    HW221309   0.768   3.601  10.813 -0.7335  1.2944 -1.6099
 3225SOL     OW21310   0.249   3.953   8.959 -0.6147  0.1996 -0.1235
 3225SOL    HW121311   0.301   3.919   8.887 -1.0598  0.8740 -0.7648
 3225SOL    HW221312   0.288   4.040   8.951 -0.6678 -0.0924 -3.4892
 3226SOL     OW21313   2.426   2.112  15.672 -0.0148  0.4048 -0.1590
 3226SOL    HW121314   2.437   2.112  15.577  1.3409  0.0992  0.0001
 3226SOL    HW221315   2.393   2.199  15.694 -0.7633 -0.5537  2.5236
 3227SOL     OW21316   2.337   2.647   8.642  0.3882 -0.3856 -0.2814
 3227SOL    HW121317   2.318   2.684   8.728  1.4931 -1.7132  0.5422
 3227SOL    HW221318   2.264   2.586   8.630  0.8944 -0.9632 -0.4726
 3228SOL     OW21319   4.387   0.499   8.932 -0.5529  0.5117 -0.6641
 3228SOL    HW121320   4.305   0.539   8.903 -0.1827  0.2432 -2.1278
 3228SOL    HW221321   4.356   0.455   9.011  0.2270 -1.9843 -1.7263
 3229SOL     OW21322   4.722   1.751   9.516  0.2860 -0.1602 -0.2748
 3229SOL    HW121323   0.052   1.712   9.462  1.1581  1.6059 -0.4270
 3229SOL    HW221324   0.033   1.792   9.585  0.6302 -0.0979 -0.5648
 3230SOL     OW21325   0.667   1.561   5.478  0.1359  0.0971  0.0354
 3230SOL    HW121326   0.645   1.653   5.490 -1.4203 -0.1513 -0.8447
 3230SOL    HW221327   0.717   1.546   5.558  0.3304  0.0244 -0.1003
 3231SOL     OW21328   2.519   1.188   8.697  0.1263  0.1940 -0.3466
 3231SOL    HW121329   2.610   1.215   8.686  0.2404  0.0029  0.1513
 3231SOL    HW221330   2.537   1.099   8.726 -1.0632 -0.2145 -0.8508
 3232SOL     OW21331   0.743   2.717  16.422  0.1212  0.2275 -0.3273
 3232SOL    HW121332   0.717   2.627  16.404  0.7395 -0.1920  0.8836
 3232SOL    HW221333   0.772   2.764  16.344  1.4367  0.7912  0.5022
 3233SOL     OW21334   2.173   3.312   5.305  0.7795 -0.0610 -0.7616
 3233SOL    HW121335   2.176   3.279   5.215  0.4932  0.6868 -1.0431
 3233SOL    HW221336   2.190   3.405   5.286  0.5100 -0.0456 -0.9290
 3234SOL     OW21337   0.102   2.970   7.084  0.1518 -0.0827 -0.4391
 3234SOL    HW121338   0.064   2.893   7.042 -0.3324 -0.6205  1.0040
 3234SOL    HW221339   0.087   2.943   7.174  1.2028  1.5935  0.2548
 3235SOL     OW21340   3.237   0.958   2.457 -0.0406 -0.0202  0.5230
 3235SOL    HW121341   3.252   0.866   2.436  1.7025 -0.0870  2.0739
 3235SOL    HW221342   3.200   0.959   2.545  2.5868 -1.1013  1.6435
 3236SOL     OW21343   2.574   2.762  16.575 -0.5374  0.0506  0.1078
 3236SOL    HW121344   2.514   2.689  16.555 -0.5205  0.1075 -0.1597
 3236SOL    HW221345   2.626   2.724  16.645  1.3485  1.0728 -0.7533
 3237SOL     OW21346   2.198   1.737  10.972 -0.0319 -0.1213 -0.0847
 3237SOL    HW121347   2.261   1.669  10.995  2.3158  2.5395  1.2586
 3237SOL    HW221348   2.179   1.713  10.881 -1.2419  1.1941 -0.1803
 3238SOL     OW21349   0.645   2.005   4.551 -0.1701 -0.4137 -0.2282
 3238SOL    HW121350   0.739   2.013   4.569 -0.1657 -0.7148 -0.1140
 3238SOL    HW221351   0.606   2.092   4.554  0.5133 -0.1041 -0.4690
 3239SOL     OW21352   0.710   0.986   4.203  0.5748 -0.1547  0.2491
 3239SOL    HW121353   0.702   1.080   4.195  0.1059 -0.3570 -1.5400
 3239SOL    HW221354   0.789   0.980   4.257  1.1626 -2.3642 -0.8287
 3240SOL     OW21355   2.584   3.452   6.435  0.4226  0.1272 -0.4112
 3240SOL    HW121356   2.494   3.462   6.467  2.0660  2.5666  3.4982
 3240SOL    HW221357   2.605   3.545   6.430 -0.3536  0.1889 -2.6225
 3241SOL     OW21358   2.363   0.671  10.128  1.1841  0.1943  0.0065
 3241SOL    HW121359   2.452   0.680  10.095  0.1068  0.8929 -2.6367
 3241SOL    HW221360   2.386   0.658  10.220  0.1191  1.0596  0.4012
 3242SOL     OW21361   2.652   0.691  10.126  0.0800 -0.0883  0.2559
 3242SOL    HW121362   2.662   0.626  10.196  1.0748 -0.8338 -0.5925
 3242SOL    HW221363   2.726   0.749  10.144 -1.8241  2.7232 -0.8967
 3243SOL     OW21364   1.243   4.274   8.669 -0.3061 -0.2096 -0.7574
 3243SOL    HW121365   1.168   4.328   8.694 -0.4643 -1.2637  0.9906
 3243SOL    HW221366   1.226   4.186   8.700  2.3702 -0.0462  1.1510
 3244SOL     OW21367   0.441   4.127  13.205  0.3851 -0.2483  0.0678
 3244SOL    HW121368   0.515   4.076  13.171 -0.0723 -1.1780  0.4633
 3244SOL    HW221369   0.429   4.076  13.285 -3.7191 -0.0423 -0.4054
 3245SOL     OW21370   0.107   2.071  12.954  0.7098 -0.5565 -0.0277
 3245SOL    HW121371   0.197   2.039  12.957  0.8794  0.0121  0.9467
 3245SOL    HW221372   0.079   2.022  12.877 -2.2038  0.8619  0.0993
 3246SOL     OW21373   0.651   0.430   8.584  0.3454 -0.2306  0.5658
 3246SOL    HW121374   0.654   0.402   8.676 -0.6959 -2.4714 -0.0646
 3246SOL    HW221375   0.725   0.375   8.559  0.2854  0.6004 -1.4400
 3247SOL     OW21376   0.541   3.411   1.381  0.1451 -0.0392 -0.3814
 3247SOL    HW121377   0.492   3.490   1.357 -1.3916 -1.3632 -1.6304
 3247SOL    HW221378   0.600   3.454   1.442 -0.2334  0.1915 -0.1821
 3248SOL     OW21379   1.164   1.338   5.032 -0.1184  0.4148  0.0775
 3248SOL    HW121380   1.249   1.375   5.058 -0.8725  0.8495  1.9300
 3248SOL    HW221381   1.186   1.245   5.021  1.2662  0.9446 -1.6932
 3249SOL     OW21382   4.128   2.210  17.564  0.5190 -0.3154 -0.2319
 3249SOL    HW121383   4.173   2.293  17.550  0.1960 -0.4510 -2.1341
 3249SOL    HW221384   4.047   2.247  17.598  1.2499  0.9044  0.1591
 3250SOL     OW21385   1.357   2.395  15.974  0.0319 -0.3291 -0.3581
 3250SOL    HW121386   1.349   2.300  15.977  0.9796 -0.3178  3.2055
 3250SOL    HW221387   1.273   2.422  15.937  0.1470 -3.1825 -2.7297
 3251SOL     OW21388   1.505   1.764   5.365 -0.2466  0.0333  0.5673
 3251SOL    HW121389   1.577   1.822   5.341 -1.0420  0.2683 -1.2541
 3251SOL    HW221390   1.483   1.792   5.454  0.2796 -1.8510  1.3024
 3252SOL     OW21391   1.535   3.602   6.369  0.0535  0.5371  0.4772
 3252SOL    HW121392   1.585   3.583   6.449  1.2210 -1.2573 -0.6685
 3252SOL    HW221393   1.522   3.697   6.376 -1.2010  0.2762  1.8700
 3253SOL     OW21394   0.057   2.722   1.625 -0.3136 -0.1504  0.2006
 3253SOL    HW121395   0.074   2.690   1.713 -2.3947  0.3203  0.7544
 3253SOL    HW221396   0.041   2.635   1.588  1.9376 -0.4651 -0.0634
 3254SOL     OW21397   0.868   4.415   3.354  0.0303  0.3487  0.5861
 3254SOL    HW121398   0.837   4.341   3.407  0.9406 -0.0201  0.6034
 3254SOL    HW221399   0.788   4.433   3.305  0.2903  0.3205  0.1533
 3255SOL     OW21400   1.732   3.882  11.175  0.1087 -0.6214  0.0669
 3255SOL    HW121401   1.639   3.883  11.194 -0.0111  0.3913 -0.5888
 3255SOL    HW221402   1.752   3.976  11.168 -0.0440 -0.7028 -1.4308
 3256SOL     OW21403   3.569   3.990   7.667  0.1942 -0.0789  0.9692
 3256SOL    HW121404   3.610   3.931   7.604  0.3210  2.0966 -1.0055
 3256SOL    HW221405   3.559   4.067   7.610 -2.4167 -1.4400 -0.3964
 3257SOL     OW21406   2.199   4.324  12.457 -0.0982 -0.2679 -0.0039
 3257SOL    HW121407   2.110   4.298  12.481  0.3877  0.4938  2.6372
 3257SOL    HW221408   2.217   4.383  12.531  2.5278 -1.8017  0.5769
 3258SOL     OW21409   2.629   0.761   9.584  0.1806 -0.4735  0.0232
 3258SOL    HW121410   2.634   0.783   9.677 -0.0588 -0.0451 -0.0640
 3258SOL    HW221411   2.687   0.685   9.579  1.1238  0.1441  1.6100
 3259SOL     OW21412   1.813   1.701   3.651 -0.1208  0.0084 -0.2351
 3259SOL    HW121413   1.765   1.662   3.577  0.2444  1.5108 -1.2642
 3259SOL    HW221414   1.898   1.659   3.640  0.4432  1.8618 -2.8854
 3260SOL     OW21415   4.488   0.047   8.356 -0.0906  0.1507 -0.0340
 3260SOL    HW121416   4.404   0.017   8.320  0.2058  0.1888 -0.7568
 3260SOL    HW221417   4.474   0.053   8.450 -0.7514  0.2659 -0.1401
 3261SOL     OW21418   2.006   2.620   2.917 -0.1365 -0.2604 -0.2298
 3261SOL    HW121419   1.951   2.594   2.844 -0.9161  1.9767 -0.4365
 3261SOL    HW221420   1.974   2.565   2.989 -0.2713 -0.9597 -0.8267
 3262SOL     OW21421   2.121   2.684   1.150 -0.1129 -0.4848 -0.4298
 3262SOL    HW121422   2.123   2.760   1.092 -2.1187  0.0082  0.1135
 3262SOL    HW221423   2.033   2.705   1.182  1.0143  0.1745  2.2754
 3263SOL     OW21424   2.481   2.294   9.929  0.1794  0.0917  0.7898
 3263SOL    HW121425   2.518   2.370   9.884 -0.1924  0.0966  0.4887
 3263SOL    HW221426   2.391   2.328   9.932 -0.4719 -1.4801 -1.1217
 3264SOL     OW21427   3.300   4.216   9.320  0.1067  0.6967 -0.9606
 3264SOL    HW121428   3.233   4.206   9.252  0.5094 -2.2637 -0.8984
 3264SOL    HW221429   3.244   4.208   9.397  0.4916  2.1149 -0.5366
 3265SOL     OW21430   1.899   2.794   1.272 -0.3767  0.2600 -0.1400
 3265SOL    HW121431   1.835   2.724   1.268  3.0903 -2.9371  0.2184
 3265SOL    HW221432   1.918   2.805   1.366 -0.5526  1.3276 -0.2238
 3266SOL     OW21433   1.769   2.521   4.057  0.3736  0.4771 -0.2388
 3266SOL    HW121434   1.740   2.462   4.127  3.1646  0.2920  0.7626
 3266SOL    HW221435   1.855   2.555   4.081 -0.0188  1.3303 -0.0532
 3267SOL     OW21436   3.921   0.148   5.478  0.5447 -0.4145  0.3743
 3267SOL    HW121437   3.924   0.075   5.539 -1.7028 -0.4485  0.4669
 3267SOL    HW221438   3.826   0.161   5.479  0.6623  0.6452 -2.2732
 3268SOL     OW21439   4.487   0.684   1.964 -0.5473 -0.2494  0.2945
 3268SOL    HW121440   4.564   0.740   1.975 -2.4385  2.8482 -2.0216
 3268SOL    HW221441   4.434   0.707   2.041 -1.7044 -2.4661  0.1482
 3269SOL     OW21442   2.147   1.027   5.756  0.8593 -0.2704 -0.0798
 3269SOL    HW121443   2.125   0.980   5.836  1.6130 -0.0639  0.2458
 3269SOL    HW221444   2.102   1.108   5.781  0.5059 -0.0828 -1.3018
 3270SOL     OW21445   3.142   1.798  16.569  0.0081 -0.2291 -0.2575
 3270SOL    HW121446   3.086   1.728  16.603 -1.7609 -0.2259 -3.2185
 3270SOL    HW221447   3.222   1.748  16.549  0.5898  0.5103  0.2137
 3271SOL     OW21448   4.686   2.320   2.713 -0.4813 -0.3289  0.0047
 3271SOL    HW121449   4.708   2.295   2.803 -0.6954  2.2025  0.7560
 3271SOL    HW221450   0.035   2.332   2.682 -0.3716 -0.1732  0.3795
 3272SOL     OW21451   1.422   2.942   6.945  0.5849  0.0728 -0.1432
 3272SOL    HW121452   1.472   3.022   6.962  1.1509 -0.7082  1.8590
 3272SOL    HW221453   1.464   2.877   7.001  0.4492  0.2676  0.1857
 3273SOL     OW21454   2.415   0.527  10.811  0.2207 -0.1925  0.1163
 3273SOL    HW121455   2.349   0.469  10.773  0.1073  0.7547 -1.1097
 3273SOL    HW221456   2.472   0.473  10.867  0.8721  0.6232  0.2350
 3274SOL     OW21457   3.982   4.296   2.548  0.1805  0.2291 -0.4581
 3274SOL    HW121458   3.924   4.349   2.494 -0.3224  0.5559  0.4206
 3274SOL    HW221459   3.966   4.328   2.636  1.3417  0.6407 -0.3923
 3275SOL     OW21460   3.804   4.056  12.381  0.0203  0.5003 -0.6150
 3275SOL    HW121461   3.783   4.017  12.296  0.4567 -0.7359 -0.1622
 3275SOL    HW221462   3.896   4.080  12.368  0.0361  0.0985 -1.2418
 3276SOL     OW21463   1.187   4.575  10.001 -0.8152  0.2174 -0.1939
 3276SOL    HW121464   1.266   4.544  10.044 -0.1559  1.6099 -0.4005
 3276SOL    HW221465   1.144   4.493   9.978  2.5570 -1.0493 -2.0638
 3277SOL     OW21466   4.144   3.709   4.901 -0.6723 -0.6422 -0.0689
 3277SOL    HW121467   4.205   3.695   4.829  1.2236  1.9790  1.0575
 3277SOL    HW221468   4.103   3.790   4.872  0.4847  0.0145  0.1399
 3278SOL     OW21469   3.041   4.055   0.463 -0.1313 -0.3484  0.1391
 3278SOL    HW121470   3.119   4.100   0.430  0.3153 -1.4939 -0.3695
 3278SOL    HW221471   3.004   4.126   0.516  0.0937 -2.0315  2.5456
 3279SOL     OW21472   1.042   3.074   7.416  0.2218  0.0879 -0.1047
 3279SOL    HW121473   1.099   3.084   7.340  0.5610  0.0836  0.1487
 3279SOL    HW221474   1.042   2.979   7.427  1.2309  0.1188  0.1750
 3280SOL     OW21475   2.186   2.242   5.374 -0.0812 -0.3876 -0.2463
 3280SOL    HW121476   2.128   2.184   5.423  1.8743 -1.1361  1.2000
 3280SOL    HW221477   2.159   2.223   5.284  0.3551  0.7088 -0.6017
 3281SOL     OW21478   3.815   2.905  10.304 -0.0100  0.5129 -0.4221
 3281SOL    HW121479   3.852   2.861  10.381 -3.5011 -0.5871  0.6503
 3281SOL    HW221480   3.866   2.880  10.227 -0.0652  1.1823 -0.6784
 3282SOL     OW21481   3.780   2.993   6.506  0.0392 -0.1304  0.8122
 3282SOL    HW121482   3.835   3.058   6.462 -1.1081  0.6943  0.5844
 3282SOL    HW221483   3.736   2.963   6.426  0.4067 -0.3354  0.6845
 3283SOL     OW21484   3.464   1.645   2.303  0.6318 -0.4109  0.3322
 3283SOL    HW121485   3.507   1.574   2.351  0.2805 -1.3621 -0.7773
 3283SOL    HW221486   3.378   1.634   2.344  1.3008  0.0876  1.8724
 3284SOL     OW21487   0.689   3.221  16.802  0.5119  0.2786 -0.4083
 3284SOL    HW121488   0.693   3.132  16.767 -0.2556  0.6494 -1.4122
 3284SOL    HW221489   0.658   3.274  16.729 -1.3631 -0.5658 -0.2160
 3285SOL     OW21490   2.563   2.799   8.950  0.5406 -0.6507 -0.0415
 3285SOL    HW121491   2.610   2.718   8.929  1.9593  0.6362 -1.7461
 3285SOL    HW221492   2.631   2.844   8.999  0.9598 -1.8747  0.5064
 3286SOL     OW21493   3.620   2.681   3.765  0.1815  0.3762  0.0514
 3286SOL    HW121494   3.640   2.774   3.757 -1.0751  0.6503  0.2228
 3286SOL    HW221495   3.538   2.699   3.810 -1.0215  0.2679 -2.0745
 3287SOL     OW21496   3.462   4.538   0.427 -0.4222  0.1647 -0.1274
 3287SOL    HW121497   3.521   4.578   0.491  0.6020 -1.4445 -0.0546
 3287SOL    HW221498   3.385   4.499   0.469  0.4519 -0.5039  0.8610
 3288SOL     OW21499   0.146   0.571  11.958  0.1213  0.2909 -0.2577
 3288SOL    HW121500   0.088   0.523  12.017  1.1480  1.3048  1.5807
 3288SOL    HW221501   0.220   0.511  11.954 -0.8925 -1.1258  2.1859
 3289SOL     OW21502   2.684   0.666  12.686 -0.0999 -0.5621 -0.1500
 3289SOL    HW121503   2.644   0.595  12.736  0.9284 -0.8576  0.2544
 3289SOL    HW221504   2.607   0.722  12.677  1.2004  1.1280 -0.9513
 3290SOL     OW21505   1.292   3.435   6.283  0.3476 -0.4209  0.5213
 3290SOL    HW121506   1.220   3.435   6.345  1.2287  0.7154  1.5507
 3290SOL    HW221507   1.351   3.487   6.338  0.3356  0.6894 -0.4894
 3291SOL     OW21508   3.621   0.725   4.261 -0.1047  0.1183  0.4784
 3291SOL    HW121509   3.533   0.722   4.223 -0.1076  1.5075  0.3908
 3291SOL    HW221510   3.684   0.722   4.189  1.7450  1.7313  2.0266
 3292SOL     OW21511   4.429   3.828  16.355 -0.1154 -0.4264 -0.0213
 3292SOL    HW121512   4.512   3.872  16.337 -0.4205  0.8233  1.5961
 3292SOL    HW221513   4.367   3.848  16.285  0.0858  0.4290  0.0419
 3293SOL     OW21514   0.061   1.382   0.958 -0.1892 -0.1962  0.8577
 3293SOL    HW121515   0.069   1.337   0.875 -0.6081  1.1294  0.0970
 3293SOL    HW221516   0.009   1.321   1.009  1.5595 -2.5836 -0.2381
 3294SOL     OW21517   3.701   0.207   7.516  0.9335 -0.1276 -0.2854
 3294SOL    HW121518   3.739   0.200   7.428  0.8241  1.8280 -0.4969
 3294SOL    HW221519   3.668   0.118   7.520 -0.6573  0.4134 -1.2045
 3295SOL     OW21520   3.315   3.295  12.061  0.6123  0.2893 -0.2861
 3295SOL    HW121521   3.286   3.222  12.116 -2.5874  0.9559 -1.0333
 3295SOL    HW221522   3.406   3.273  12.044  1.6913  3.6174  1.2212
 3296SOL     OW21523   1.925   0.978   2.932  0.4414  0.0342 -0.0016
 3296SOL    HW121524   1.859   0.912   2.952  1.5057  1.1691  7.1635
 3296SOL    HW221525   2.003   0.933   2.964  0.9908  0.2948 -0.9867
 3297SOL     OW21526   3.492   1.845  16.391 -0.1209  0.5751  0.3607
 3297SOL    HW121527   3.442   1.778  16.438 -1.0521  0.7498 -0.3869
 3297SOL    HW221528   3.546   1.785  16.339  1.7447  0.6099  2.2192
 3298SOL     OW21529   0.681   3.647   1.608 -0.2464  0.4360 -0.6276
 3298SOL    HW121530   0.768   3.676   1.633  0.4359 -2.0715 -0.0737
 3298SOL    HW221531   0.629   3.711   1.656  0.0348  1.0413 -1.1300
 3299SOL     OW21532   1.252   1.611   2.127 -0.4896  0.3916  0.6013
 3299SOL    HW121533   1.159   1.591   2.137 -0.2716 -0.2841  1.2895
 3299SOL    HW221534   1.244   1.705   2.111  1.6085  0.0252 -2.5257
 3300SOL     OW21535   3.547   0.923  15.760  0.3225  0.6337 -0.3433
 3300SOL    HW121536   3.593   0.967  15.831 -0.3111  0.8387 -0.0568
 3300SOL    HW221537   3.508   0.997  15.713 -0.2427  0.5513 -0.0139
 3301SOL     OW21538   2.070   0.475   6.346  0.2582 -0.0685 -0.5702
 3301SOL    HW121539   2.051   0.494   6.438 -1.1668 -0.2424 -0.8367
 3301SOL    HW221540   2.057   0.560   6.304  1.3158 -0.1987 -1.1661
 3302SOL     OW21541   3.757   4.130  16.920 -0.5139 -0.1375 -0.3689
 3302SOL    HW121542   3.740   4.212  16.967 -1.1815 -0.0033 -0.8487
 3302SOL    HW221543   3.750   4.168  16.832 -1.7538 -0.2079 -0.2994
 3303SOL     OW21544   4.527   1.512  16.613  0.0848  0.1585  0.4847
 3303SOL    HW121545   4.453   1.548  16.564 -0.3864  0.8929  1.7297
 3303SOL    HW221546   4.602   1.568  16.595  0.0021 -0.0793 -0.5820
 3304SOL     OW21547   0.318   0.969   5.661  0.8290  0.9471 -0.0256
 3304SOL    HW121548   0.281   0.887   5.629 -0.9892  2.2569 -1.2739
 3304SOL    HW221549   0.356   1.008   5.582 -0.2642  2.0131 -0.0212
 3305SOL     OW21550   2.190   1.881   9.212 -0.8041  0.3449 -0.6827
 3305SOL    HW121551   2.110   1.932   9.199 -0.1867  0.6885 -3.0613
 3305SOL    HW221552   2.178   1.791   9.183 -2.2332 -0.1870  1.5808
 3306SOL     OW21553   3.499   4.676   9.566 -0.0282  0.5177 -0.0889
 3306SOL    HW121554   3.487   4.631   9.649 -1.3856 -1.7752 -1.5531
 3306SOL    HW221555   3.426   4.641   9.515  0.2352  1.2199 -0.9596
 3307SOL     OW21556   2.771   0.123  13.184 -0.4516 -0.1942 -0.1577
 3307SOL    HW121557   2.775   0.034  13.219  0.8723 -0.4493 -0.9716
 3307SOL    HW221558   2.862   0.150  13.174 -0.9065  1.0225 -1.0529
 3308SOL     OW21559   3.931   3.222   6.469  0.4886 -0.0663 -0.1428
 3308SOL    HW121560   3.976   3.275   6.402  1.8556 -0.0102  0.8139
 3308SOL    HW221561   3.912   3.288   6.536  1.4398  1.6881 -1.5784
 3309SOL     OW21562   0.665   1.362  10.273 -0.0054  0.1965  0.6669
 3309SOL    HW121563   0.733   1.337  10.335  2.0803 -0.4085 -1.8521
 3309SOL    HW221564   0.629   1.442  10.311 -0.7333 -0.1360  0.6659
 3310SOL     OW21565   2.613   3.879   2.269  0.2280 -0.0351  1.0760
 3310SOL    HW121566   2.523   3.850   2.289 -0.6073  1.1626 -0.9271
 3310SOL    HW221567   2.661   3.818   2.325  0.4736  0.6390  1.5872
 3311SOL     OW21568   2.080   2.118   5.140  0.0944  0.0026  0.0424
 3311SOL    HW121569   1.993   2.090   5.168 -0.2039 -1.5212 -2.3463
 3311SOL    HW221570   2.127   2.037   5.120 -0.8521 -0.4674 -0.2864
 3312SOL     OW21571   3.215   2.290   4.863 -1.1782  0.1538 -0.2927
 3312SOL    HW121572   3.188   2.252   4.779  0.7120  0.9584 -1.2685
 3312SOL    HW221573   3.186   2.381   4.862 -1.2595  0.1271 -0.3275
 3313SOL     OW21574   2.629   0.879   3.771  0.0095 -0.4107 -0.5037
 3313SOL    HW121575   2.657   0.963   3.734 -0.3237 -0.4373 -0.8162
 3313SOL    HW221576   2.702   0.849   3.824  2.5093  1.8859 -2.6652
 3314SOL     OW21577   2.968   1.731   2.330 -0.2397 -0.0323  0.5200
 3314SOL    HW121578   3.033   1.672   2.368  1.7370  1.0249 -1.2998
 3314SOL    HW221579   2.970   1.800   2.396 -1.3676  2.0094 -1.6098
 3315SOL     OW21580   0.456   1.842   9.741  0.1383  0.1908 -0.0154
 3315SOL    HW121581   0.501   1.888   9.812  0.1470  0.8636 -0.4594
 3315SOL    HW221582   0.513   1.768   9.719  1.6293  1.1857  0.5149
 3316SOL     OW21583   2.008   3.228  10.125  0.4963  1.2906  0.5852
 3316SOL    HW121584   1.968   3.145  10.152  0.6134  1.1078  0.1982
 3316SOL    HW221585   2.014   3.207  10.032 -0.5694 -1.1721  1.0522
 3317SOL     OW21586   0.384   0.487   6.057 -0.5495  0.7124  0.6747
 3317SOL    HW121587   0.369   0.459   6.148  1.7727  0.8585  1.1096
 3317SOL    HW221588   0.370   0.397   6.029  2.4622  0.1111  1.0840
 3318SOL     OW21589   3.979   1.092   8.872  0.2197 -0.1193  0.6901
 3318SOL    HW121590   4.073   1.101   8.855  0.1116  0.7321  0.5481
 3318SOL    HW221591   3.945   1.099   8.782  0.3680  0.8625  0.7094
 3319SOL     OW21592   2.951   1.179   8.968  0.4520  0.0292  0.2147
 3319SOL    HW121593   2.859   1.207   8.960  0.4166 -0.0321  0.4080
 3319SOL    HW221594   2.971   1.128   8.890 -0.9692  2.6213 -1.8478
 3320SOL     OW21595   1.858   1.735  11.664  0.0754 -0.1682  1.2408
 3320SOL    HW121596   1.787   1.798  11.667  0.3739  0.1298  2.1912
 3320SOL    HW221597   1.928   1.767  11.720  0.7515  2.1731 -0.9587
 3321SOL     OW21598   2.878   0.872   8.380 -0.3457  0.0847  0.4368
 3321SOL    HW121599   2.870   0.834   8.292 -0.6380 -0.7365  0.8134
 3321SOL    HW221600   2.967   0.907   8.377 -0.1138 -0.5106  0.3560
 3322SOL     OW21601   2.055   2.952  11.832  0.0794 -0.1492  0.0668
 3322SOL    HW121602   1.978   3.006  11.812 -0.0714 -0.1481  0.6291
 3322SOL    HW221603   2.112   3.016  11.876 -0.5975  0.3412  0.2456
 3323SOL     OW21604   0.503   2.687   1.502  0.3859  0.1599 -0.0490
 3323SOL    HW121605   0.462   2.652   1.581  1.5857 -0.8030  0.1377
 3323SOL    HW221606   0.516   2.608   1.450 -0.2813 -1.2928  2.0212
 3324SOL     OW21607   1.734   0.338   6.624 -0.1393 -0.3074 -0.0502
 3324SOL    HW121608   1.800   0.274   6.649  0.3991 -0.5598 -2.1669
 3324SOL    HW221609   1.662   0.284   6.590 -1.6224  1.7868 -0.2523
 3325SOL     OW21610   2.886   2.184  12.934  0.4353 -0.4647 -0.2218
 3325SOL    HW121611   2.871   2.278  12.940 -0.7634 -0.5578 -1.8746
 3325SOL    HW221612   2.925   2.171  12.847  0.4163 -1.6105 -0.0621
 3326SOL     OW21613   2.136   3.675  14.820 -0.8908 -0.1621 -0.4365
 3326SOL    HW121614   2.087   3.600  14.786  2.0561 -2.1464 -0.2884
 3326SOL    HW221615   2.210   3.632  14.864 -1.5199 -0.1200  0.6744
 3327SOL     OW21616   0.027   1.329   8.589 -0.3929  0.3509  0.3926
 3327SOL    HW121617   0.016   1.415   8.548 -0.8912 -0.6401 -1.5401
 3327SOL    HW221618   0.117   1.313   8.562 -0.8706  0.8106 -1.4623
 3328SOL     OW21619   3.613   0.630  11.041 -0.1606 -0.6527 -1.1649
 3328SOL    HW121620   3.553   0.556  11.035 -0.5133 -0.5087  0.5628
 3328SOL    HW221621   3.554   0.699  11.070  0.6383 -0.4919  0.0761
 3329SOL     OW21622   2.274   4.695   3.419  0.3662  0.0622 -0.2372
 3329SOL    HW121623   2.365   4.723   3.405  0.4306  0.2966  0.6408
 3329SOL    HW221624   2.295   4.602   3.417 -0.4007 -0.0897 -0.8852
 3330SOL     OW21625   0.259   0.340  16.534  0.3780  0.1592  0.7856
 3330SOL    HW121626   0.283   0.391  16.611  0.8013  0.1634  0.6455
 3330SOL    HW221627   0.165   0.352  16.547  0.3624  0.7713  0.0805
 3331SOL     OW21628   0.554   3.915   2.360  0.3233 -0.5092  0.3104
 3331SOL    HW121629   0.625   3.969   2.326  0.0894 -0.5796 -0.2904
 3331SOL    HW221630   0.578   3.834   2.314  1.7295  1.5352 -2.5766
 3332SOL     OW21631   0.712   0.999   9.170  0.0699  0.0983 -0.1405
 3332SOL    HW121632   0.671   0.928   9.220  1.1107 -1.2862 -1.2492
 3332SOL    HW221633   0.644   1.064   9.184  0.1476  0.5124 -1.6608
 3333SOL     OW21634   2.719   2.892   3.290 -0.2940  0.5615  0.1414
 3333SOL    HW121635   2.624   2.903   3.285 -0.2300  0.9476 -0.1845
 3333SOL    HW221636   2.742   2.984   3.301 -1.1078  1.0096 -1.9824
 3334SOL     OW21637   0.353   4.454   7.183  1.0513  0.2638  0.1306
 3334SOL    HW121638   0.355   4.373   7.233  0.4237  0.5290  0.5913
 3334SOL    HW221639   0.357   4.429   7.091  1.0509 -0.4052  0.3149
 3335SOL     OW21640   3.282   2.322   7.207 -0.0033  0.3340  0.5286
 3335SOL    HW121641   3.281   2.328   7.303  1.2190  0.7037  0.5217
 3335SOL    HW221642   3.192   2.307   7.180  0.0202 -0.3917  0.8576
 3336SOL     OW21643   2.670   3.964  17.113  0.0285 -0.1965  0.4222
 3336SOL    HW121644   2.596   4.020  17.139  0.8074 -0.0896  2.4242
 3336SOL    HW221645   2.631   3.876  17.117 -1.1258  0.2225 -1.6243
 3337SOL     OW21646   0.811   2.946   6.321  0.0800 -0.1849  0.5293
 3337SOL    HW121647   0.837   2.939   6.230 -1.9155  1.9045 -0.2119
 3337SOL    HW221648   0.720   2.916   6.316  0.1000 -0.2476  0.5385
 3338SOL     OW21649   3.346   1.097   6.970 -0.1209  0.0654 -0.1029
 3338SOL    HW121650   3.417   1.144   7.013  0.6993 -1.1077 -0.1758
 3338SOL    HW221651   3.295   1.165   6.926 -0.4244  0.1843  0.4432
 3339SOL     OW21652   2.643   3.653  12.312 -0.2465  0.5050  0.0040
 3339SOL    HW121653   2.712   3.671  12.249 -0.3379  0.9403  0.0274
 3339SOL    HW221654   2.681   3.707  12.382 -0.5286  1.4914 -0.6028
 3340SOL     OW21655   1.370   4.676  15.220 -0.1146 -0.0346 -0.3709
 3340SOL    HW121656   1.294   4.718  15.261  1.6835  1.8841  0.9812
 3340SOL    HW221657   1.336   4.587  15.220 -2.7717  0.9763 -1.4094
 3341SOL     OW21658   2.532   1.671   5.480  0.0984  0.2489  0.4803
 3341SOL    HW121659   2.577   1.692   5.398 -1.2311 -1.6947 -0.7613
 3341SOL    HW221660   2.517   1.760   5.512 -1.4128  0.7947 -1.7438
 3342SOL     OW21661   3.706   1.398   7.873  0.0192 -0.5830 -0.0255
 3342SOL    HW121662   3.641   1.452   7.919  0.8166  0.8132 -0.5336
 3342SOL    HW221663   3.780   1.395   7.934  1.5380  1.6105 -1.7672
 3343SOL     OW21664   1.877   2.820   6.259 -0.6379  0.4037  0.5227
 3343SOL    HW121665   1.937   2.885   6.295 -1.4530  0.8830  1.0086
 3343SOL    HW221666   1.804   2.815   6.320  0.6362  2.0046  2.1704
 3344SOL     OW21667   3.386   0.782  13.263  1.1435 -0.4009  0.0841
 3344SOL    HW121668   3.443   0.845  13.219  0.8233  0.6487  1.1735
 3344SOL    HW221669   3.304   0.779  13.213  2.0059 -1.4280 -1.2774
 3345SOL     OW21670   2.295   1.893   5.453  0.6918 -0.2745 -0.0764
 3345SOL    HW121671   2.301   1.909   5.358  0.0950  0.7747  0.0664
 3345SOL    HW221672   2.376   1.933   5.484  0.9693 -0.3659 -0.6721
 3346SOL     OW21673   4.254   0.566   6.488  0.3110 -0.7103  0.0861
 3346SOL    HW121674   4.192   0.539   6.420 -1.6063  2.5508  0.5191
 3346SOL    HW221675   4.191   0.616   6.540  0.2551  0.7210 -1.3213
 3347SOL     OW21676   2.112   1.711   3.329  0.2191  0.3528 -0.0871
 3347SOL    HW121677   2.180   1.674   3.273  1.5046  2.6668 -0.0847
 3347SOL    HW221678   2.177   1.765   3.374 -0.9731  2.9154 -1.4468
 3348SOL     OW21679   0.461   1.867  12.705  0.1205 -0.8979 -0.7684
 3348SOL    HW121680   0.506   1.807  12.764 -2.0293 -0.6851  1.0604
 3348SOL    HW221681   0.438   1.811  12.631 -3.9632  2.2850 -1.9035
 3349SOL     OW21682   0.394   0.664   3.598 -0.2501 -0.3323 -0.0125
 3349SOL    HW121683   0.326   0.729   3.584  0.1340  0.6695  2.8007
 3349SOL    HW221684   0.428   0.641   3.511  1.6248  1.5128  0.2278
 3350SOL     OW21685   3.706   4.519  16.035  0.2100  0.0494 -0.0553
 3350SOL    HW121686   3.647   4.518  16.111  1.4139 -0.4387  0.8797
 3350SOL    HW221687   3.696   4.434  15.993  1.2785 -0.6727  1.1556
 3351SOL     OW21688   4.679   0.622   9.241  0.4394 -0.3896 -0.4500
 3351SOL    HW121689   4.690   0.543   9.295  0.1835  0.9899  1.6462
 3351SOL    HW221690   4.583   0.629   9.239  0.5461  1.2610  0.1238
 3352SOL     OW21691   3.342   0.369   8.635  0.0590  0.7614 -0.1077
 3352SOL    HW121692   3.314   0.458   8.611  0.4781  0.7344 -0.6967
 3352SOL    HW221693   3.415   0.390   8.694 -1.2311  3.5039  0.5167
 3353SOL     OW21694   3.639   4.406   8.584  0.1320  0.5184 -0.1967
 3353SOL    HW121695   3.673   4.342   8.522  2.2017 -1.9954  3.5200
 3353SOL    HW221696   3.680   4.483   8.543 -0.5382  1.3628  0.7087
 3354SOL     OW21697   3.269   2.060  16.322 -0.4156  0.0392  0.0815
 3354SOL    HW121698   3.203   1.999  16.353  0.1697  0.1119  1.4767
 3354SOL    HW221699   3.344   2.001  16.314 -1.5825 -1.1609 -1.7664
 3355SOL     OW21700   4.387   3.922   8.424  0.4147 -0.0265 -0.1693
 3355SOL    HW121701   4.398   3.937   8.518 -1.7289 -1.2107  0.2663
 3355SOL    HW221702   4.459   3.860   8.415  1.1844  1.0612 -1.4984
 3356SOL     OW21703   3.004   0.234   1.699 -0.4085  0.0471 -0.2968
 3356SOL    HW121704   3.056   0.275   1.768  0.6296  0.6571 -1.4397
 3356SOL    HW221705   2.993   0.147   1.738  0.4372  1.5882  3.3413
 3357SOL     OW21706   3.367   4.506   3.225  0.0582 -0.0328  0.4095
 3357SOL    HW121707   3.422   4.494   3.148  1.3225  0.9580  1.1573
 3357SOL    HW221708   3.410   4.450   3.289 -0.3498 -1.6170 -0.7054
 3358SOL     OW21709   1.471   1.024   7.164  0.0197 -0.3069  0.1281
 3358SOL    HW121710   1.497   0.966   7.235  0.5830  2.1355  1.9378
 3358SOL    HW221711   1.544   1.086   7.174 -1.0391  0.6923  1.5335
 3359SOL     OW21712   2.477   1.707   3.756  0.4438  0.0458 -0.6774
 3359SOL    HW121713   2.415   1.756   3.810  2.2352  2.5040 -0.8686
 3359SOL    HW221714   2.496   1.631   3.810  3.6686  0.4238 -1.2928
 3360SOL     OW21715   4.325   2.320   5.398 -0.4972  0.6752  0.2814
 3360SOL    HW121716   4.248   2.373   5.419 -0.2575  1.3213 -0.4753
 3360SOL    HW221717   4.284   2.240   5.367  0.6596 -1.4911  4.2986
 3361SOL     OW21718   3.691   1.369   6.086  0.4506 -0.1342 -0.1655
 3361SOL    HW121719   3.691   1.416   6.169  0.4064 -0.6574  0.1293
 3361SOL    HW221720   3.748   1.296   6.110  0.5716 -0.7106 -2.1964
 3362SOL     OW21721   2.341   2.306   8.355 -0.1732 -0.3980  0.3773
 3362SOL    HW121722   2.342   2.394   8.393  0.2720 -1.4408  2.7900
 3362SOL    HW221723   2.250   2.278   8.367 -0.7287  0.9221 -0.7156
 3363SOL     OW21724   3.721   3.286   1.677 -0.0862 -0.5207 -0.5228
 3363SOL    HW121725   3.709   3.193   1.658 -1.4704 -0.2784 -0.8291
 3363SOL    HW221726   3.649   3.336   1.638 -0.2923  0.2649  0.8465
 3364SOL     OW21727   0.342   4.101  16.650 -0.0360 -0.5333  0.6537
 3364SOL    HW121728   0.379   4.165  16.591  0.2107 -0.9743  0.3281
 3364SOL    HW221729   0.249   4.112  16.627  0.2500  0.4798  0.0245
 3365SOL     OW21730   3.807   3.464   6.588 -0.0715 -0.5963  0.1506
 3365SOL    HW121731   3.749   3.466   6.512 -2.0593 -2.9183  1.5921
 3365SOL    HW221732   3.877   3.519   6.555  0.0849 -1.9530 -1.7759
 3366SOL     OW21733   3.732   3.285   6.187 -0.0272 -0.8195 -0.1033
 3366SOL    HW121734   3.643   3.303   6.159 -0.2988 -0.3423  1.0525
 3366SOL    HW221735   3.780   3.322   6.114  2.8513 -2.5476  0.8928
 3367SOL     OW21736   0.545   2.002  14.402  0.0843  0.1302  0.3677
 3367SOL    HW121737   0.479   1.987  14.335  1.0619  0.3742 -0.6558
 3367SOL    HW221738   0.602   1.927  14.386  1.7516  1.1475  1.5962
 3368SOL     OW21739   1.756   2.289  17.219 -0.0156 -0.5589  0.0369
 3368SOL    HW121740   1.735   2.260  17.130  2.1312  0.4111 -0.7833
 3368SOL    HW221741   1.672   2.324  17.250  1.1660  2.8593 -0.6220
 3369SOL     OW21742   0.709   4.200   6.291 -0.8249  0.0550 -0.1149
 3369SOL    HW121743   0.733   4.169   6.203  0.1242  1.8107 -0.4730
 3369SOL    HW221744   0.700   4.118   6.339  2.7156 -0.3952 -0.2147
 3370SOL     OW21745   0.606   1.944  16.091  0.3531  0.5612  0.4436
 3370SOL    HW121746   0.539   1.906  16.147  2.6663 -2.2872  1.2369
 3370SOL    HW221747   0.662   1.869  16.074 -0.2865  0.3619 -0.7724
 3371SOL     OW21748   4.469   0.823   4.973  0.2910  0.2080 -0.7907
 3371SOL    HW121749   4.467   0.734   5.007 -0.4676  0.4124 -0.2899
 3371SOL    HW221750   4.408   0.808   4.901  0.3296 -3.1575 -0.0935
 3372SOL     OW21751   2.232   4.497   5.976  0.2010 -0.1717 -0.0550
 3372SOL    HW121752   2.317   4.455   5.988 -0.4717 -2.1163 -1.9711
 3372SOL    HW221753   2.248   4.580   6.020 -2.1775  0.7918 -0.9979
 3373SOL     OW21754   2.877   2.455  15.259 -0.6315  0.0454  0.0407
 3373SOL    HW121755   2.827   2.428  15.181  1.8792 -1.7605 -0.9321
 3373SOL    HW221756   2.933   2.379  15.271 -0.6297  0.5242  3.0653
 3374SOL     OW21757   0.066   2.893   4.866 -0.9733 -0.3326  0.2486
 3374SOL    HW121758   0.075   2.799   4.882 -0.5927 -0.4542 -0.6653
 3374SOL    HW221759   0.154   2.908   4.831 -1.2007  0.4512  0.0276
 3375SOL     OW21760   2.508   1.094   2.847  0.1813 -0.7160 -0.5035
 3375SOL    HW121761   2.432   1.039   2.828 -0.3769 -0.2346  0.3333
 3375SOL    HW221762   2.573   1.028   2.871  0.6785  0.9071  2.7417
 3376SOL     OW21763   3.176   1.479   7.193  0.0442 -0.2125  0.7205
 3376SOL    HW121764   3.084   1.465   7.172  0.7380 -1.7682 -1.2974
 3376SOL    HW221765   3.197   1.388   7.216 -2.0460 -0.5749  1.1307
 3377SOL     OW21766   4.301   0.506   2.342 -0.2032  0.1300  0.2293
 3377SOL    HW121767   4.208   0.490   2.324  0.1930  0.4941 -2.0613
 3377SOL    HW221768   4.342   0.428   2.304 -0.4374  0.1457 -0.0544
 3378SOL     OW21769   1.804   2.334   5.187  0.1167 -0.2927 -0.0686
 3378SOL    HW121770   1.873   2.389   5.225  1.4372 -1.3453 -0.9487
 3378SOL    HW221771   1.770   2.277   5.256  1.4853 -0.3669  0.5433
 3379SOL     OW21772   0.755   4.259   3.552 -0.2053 -0.5262 -0.1662
 3379SOL    HW121773   0.783   4.269   3.643  0.2004 -2.1162 -0.1206
 3379SOL    HW221774   0.677   4.208   3.571 -0.1323 -0.9393 -0.9789
 3380SOL     OW21775   2.034   1.337  15.549  0.0052  0.7382 -0.6812
 3380SOL    HW121776   2.068   1.284  15.477  0.2991  0.4762 -0.3465
 3380SOL    HW221777   1.950   1.296  15.565  1.1436 -1.2403  0.2380
 3381SOL     OW21778   2.917   4.660   1.448 -0.0568 -0.5848 -0.1785
 3381SOL    HW121779   2.850   4.720   1.483  0.6570  0.7039 -1.0059
 3381SOL    HW221780   2.862   4.588   1.415 -1.7381  0.9563 -0.7841
 3382SOL     OW21781   2.171   3.279   7.239  0.7451 -0.6419  0.3248
 3382SOL    HW121782   2.265   3.267   7.229  0.6203  0.6395 -2.4000
 3382SOL    HW221783   2.157   3.348   7.305 -1.0115  0.1700 -0.8905
 3383SOL     OW21784   1.891   0.466  14.652 -0.2368 -0.3839 -0.0479
 3383SOL    HW121785   1.986   0.464  14.650 -0.2307 -0.2014  0.1254
 3383SOL    HW221786   1.874   0.372  14.646  0.0326 -0.4537  0.3754
 3384SOL     OW21787   0.775   3.635   6.323  0.4984  0.0199  0.0760
 3384SOL    HW121788   0.777   3.593   6.237  1.4009  1.0093 -0.4061
 3384SOL    HW221789   0.741   3.722   6.300 -0.5720 -0.0647  1.3651
 3385SOL     OW21790   0.686   0.341   8.010 -0.6834  0.6327  0.1882
 3385SOL    HW121791   0.751   0.306   7.950 -0.6312  1.9667 -0.5314
 3385SOL    HW221792   0.610   0.291   7.978 -0.9427 -0.0282  1.8329
 3386SOL     OW21793   3.580   3.536  12.115 -0.3005  0.0072  0.0881
 3386SOL    HW121794   3.562   3.480  12.191 -2.4004  0.6252  0.0549
 3386SOL    HW221795   3.563   3.620  12.159 -3.0709  1.4736 -3.8138
 3387SOL     OW21796   3.159   0.931  16.637  0.6370 -0.2276 -0.4929
 3387SOL    HW121797   3.199   1.018  16.649 -0.6393  0.3321 -0.2851
 3387SOL    HW221798   3.121   0.942  16.550  1.8016  4.1076 -0.4490
 3388SOL     OW21799   0.146   2.957   9.751 -0.3387  0.1124 -0.2671
 3388SOL    HW121800   0.132   2.912   9.668 -0.4372  2.1177 -1.3485
 3388SOL    HW221801   0.231   2.933   9.787 -0.2665  0.2798 -0.3256
 3389SOL     OW21802   4.246   1.759  16.208 -0.2826 -0.0331  0.3384
 3389SOL    HW121803   4.333   1.767  16.168 -1.4220  2.5449 -1.6448
 3389SOL    HW221804   4.210   1.848  16.214 -1.8578 -0.6186 -0.6182
 3390SOL     OW21805   2.534   4.036  16.621 -0.3536  0.0581  0.2511
 3390SOL    HW121806   2.476   3.981  16.674 -1.7484 -1.3217 -2.7170
 3390SOL    HW221807   2.523   3.996  16.535 -0.2574 -1.4440  0.9407
 3391SOL     OW21808   2.478   1.706   8.520  0.2210 -0.6375 -0.3824
 3391SOL    HW121809   2.443   1.795   8.516  2.7146  0.1387 -4.7340
 3391SOL    HW221810   2.552   1.709   8.581 -0.3848  0.2826  0.3150
 3392SOL     OW21811   3.689   2.331   5.346 -0.5109  0.0117 -0.5906
 3392SOL    HW121812   3.668   2.377   5.427  0.3900  1.7709 -1.3487
 3392SOL    HW221813   3.599   2.318   5.315 -0.7200  1.7354 -0.6850
 3393SOL     OW21814   3.634   3.464   7.120  0.3889  0.0288 -0.2099
 3393SOL    HW121815   3.638   3.458   7.024 -0.4550 -2.0003 -0.0992
 3393SOL    HW221816   3.692   3.395   7.153 -1.3680 -1.8022 -0.9812
 3394SOL     OW21817   1.908   0.898   3.876  0.3634  0.6178  0.1811
 3394SOL    HW121818   1.835   0.899   3.938 -0.5196  1.7601 -0.8815
 3394SOL    HW221819   1.936   0.807   3.886  0.2980  0.6268  0.4612
 3395SOL     OW21820   0.106   1.228   1.897 -0.5687 -0.5980 -0.4265
 3395SOL    HW121821   0.112   1.207   1.990 -0.0868 -1.4419 -0.6448
 3395SOL    HW221822   0.097   1.323   1.899  3.9149 -0.1753  0.7011
 3396SOL     OW21823   4.500   2.004   9.933  0.0891 -0.3898  1.0633
 3396SOL    HW121824   4.449   1.981   9.856 -1.5626 -1.0390  2.3411
 3396SOL    HW221825   4.481   1.933   9.994 -2.5685  0.7070  1.5241
 3397SOL     OW21826   2.720   1.098   9.149 -0.1388 -0.0971  0.2971
 3397SOL    HW121827   2.628   1.073   9.146  0.4410 -2.0900 -0.9019
 3397SOL    HW221828   2.714   1.186   9.111  0.8114 -0.3167 -0.3739
 3398SOL     OW21829   2.127   4.454   5.314  0.7407  0.1143  0.6332
 3398SOL    HW121830   2.116   4.371   5.267  0.9073  0.5329 -0.1423
 3398SOL    HW221831   2.169   4.512   5.250  1.3277 -1.5635 -0.5047
 3399SOL     OW21832   0.519   0.790   2.778  0.4285  0.0220  0.0006
 3399SOL    HW121833   0.501   0.882   2.795  0.1465  0.6896 -3.9484
 3399SOL    HW221834   0.491   0.757   2.863  0.7902 -0.2070  0.0318
 3400SOL     OW21835   3.158   2.204   4.580  0.1222 -0.0695  0.1017
 3400SOL    HW121836   3.104   2.146   4.526  0.5882  0.8700 -1.3603
 3400SOL    HW221837   3.133   2.275   4.522  2.6559 -0.0459 -0.9836
 3401SOL     OW21838   0.420   4.113   2.046 -0.1451 -0.0266  0.1851
 3401SOL    HW121839   0.340   4.068   2.073  0.2209 -0.7471  0.0746
 3401SOL    HW221840   0.405   4.126   1.952  2.5496  1.6675 -0.0163
 3402SOL     OW21841   1.423   0.155  10.866 -0.1046 -0.0941 -0.2121
 3402SOL    HW121842   1.493   0.106  10.908 -0.3612  0.7019  1.1639
 3402SOL    HW221843   1.427   0.131  10.774 -0.5402 -2.1377  0.2950
 3403SOL     OW21844   1.138   2.825   8.265 -0.6490 -1.1251 -0.2248
 3403SOL    HW121845   1.090   2.800   8.344  0.3977 -2.0117  0.1331
 3403SOL    HW221846   1.184   2.742   8.253  2.5028  0.9455 -2.4272
 3404SOL     OW21847   3.349   0.006   4.025 -0.0985  0.2561  0.0780
 3404SOL    HW121848   3.306   4.704   4.100 -1.1677  0.3456 -0.4719
 3404SOL    HW221849   3.412   0.064   4.068  1.2282 -0.6475 -0.6983
 3405SOL     OW21850   3.782   0.025   5.972 -0.1282 -0.1964  0.1074
 3405SOL    HW121851   3.774   0.037   6.066  0.2655  0.2202  0.0868
 3405SOL    HW221852   3.760   4.672   5.967 -1.4149  0.1667 -1.1783
 3406SOL     OW21853   2.270   0.578   8.072 -0.2725 -0.0524  0.0595
 3406SOL    HW121854   2.280   0.587   8.167 -0.2536  0.6408 -0.0059
 3406SOL    HW221855   2.352   0.621   8.044  0.1643 -1.2106 -0.4364
 3407SOL     OW21856   2.519   2.802   9.342  0.1517  0.3060 -0.1622
 3407SOL    HW121857   2.499   2.795   9.435 -0.3467  2.5245 -0.0892
 3407SOL    HW221858   2.512   2.897   9.330  0.0902  0.1191 -1.6591
 3408SOL     OW21859   3.202   2.336   2.361  0.2670 -0.0340 -0.1032
 3408SOL    HW121860   3.138   2.325   2.290  0.9406 -0.7024 -0.6025
 3408SOL    HW221861   3.158   2.286   2.430 -2.0273  3.4070  0.9157
 3409SOL     OW21862   1.881   2.609  15.014 -0.4070 -0.1056 -0.1835
 3409SOL    HW121863   1.803   2.622  14.960 -0.9224 -2.4517  0.0034
 3409SOL    HW221864   1.866   2.518  15.037 -0.5699  0.3783  1.5864
 3410SOL     OW21865   2.733   3.958   7.429  0.0714  0.4153  0.4829
 3410SOL    HW121866   2.666   3.986   7.491  0.1185 -0.7503  1.0640
 3410SOL    HW221867   2.705   4.013   7.357  0.0050 -3.0248 -2.1174
 3411SOL     OW21868   3.594   1.930   0.582 -0.3729 -1.1427 -0.7063
 3411SOL    HW121869   3.508   1.940   0.624  0.1696  0.3462  0.0690
 3411SOL    HW221870   3.616   1.837   0.575  0.4370 -1.1148  1.4843
 3412SOL     OW21871   0.031   1.104   0.240  0.1325 -0.0744 -0.2437
 3412SOL    HW121872   0.069   1.026   0.199 -1.4960 -0.6714 -0.6285
 3412SOL    HW221873   4.678   1.094   0.222 -0.0390  1.0496  0.0179
 3413SOL     OW21874   4.149   4.119   8.840 -0.5784 -0.0460 -0.0143
 3413SOL    HW121875   4.136   4.035   8.882  0.4776 -0.2480 -0.0759
 3413SOL    HW221876   4.073   4.163   8.877 -0.4811 -0.4173  0.6174
 3414SOL     OW21877   0.059   1.540   2.961 -0.3981 -0.8811  0.4776
 3414SOL    HW121878   0.106   1.458   2.978  0.0942 -0.7043 -0.0007
 3414SOL    HW221879   4.710   1.509   2.949 -0.4322 -0.0937 -1.3913
 3415SOL     OW21880   2.110   2.292   7.383  0.0382  0.2575  0.3982
 3415SOL    HW121881   2.129   2.225   7.318  1.8313  0.8517  0.3333
 3415SOL    HW221882   2.169   2.359   7.350 -0.5668  0.8871  0.5930
 3416SOL     OW21883   3.537   1.527   9.461  0.5156 -0.2263  0.1052
 3416SOL    HW121884   3.619   1.572   9.484  0.3171  0.3802 -0.3539
 3416SOL    HW221885   3.520   1.482   9.543  1.6092 -1.4795 -0.3551
 3417SOL     OW21886   3.991   3.273   9.196 -0.4798  0.8225 -0.7926
 3417SOL    HW121887   3.949   3.356   9.218 -1.5033  0.3518 -0.9642
 3417SOL    HW221888   3.910   3.222   9.185 -0.2090 -0.2301  2.2660
 3418SOL     OW21889   1.938   3.444   6.677  0.5014  0.7615  0.1727
 3418SOL    HW121890   1.961   3.358   6.713  1.4921 -0.0604 -2.4053
 3418SOL    HW221891   1.998   3.500   6.726  0.2366  0.7372  0.5253
 3419SOL     OW21892   2.002   2.344   4.989 -0.2110 -0.1287  0.6756
 3419SOL    HW121893   2.049   2.263   5.010 -1.8974 -0.8869  1.4974
 3419SOL    HW221894   1.925   2.340   5.046 -0.1689 -1.4887  0.6291
 3420SOL     OW21895   1.739   0.485  14.897 -0.0767 -0.2517  0.4595
 3420SOL    HW121896   1.810   0.491  14.960 -0.8441  2.7076  1.0088
 3420SOL    HW221897   1.787   0.432  14.833 -2.2603 -0.7314 -0.7784
 3421SOL     OW21898   1.173   0.901   7.429  0.9087  0.1968  0.2461
 3421SOL    HW121899   1.188   0.989   7.464 -0.9646  0.5874  0.0272
 3421SOL    HW221900   1.211   0.913   7.342 -0.4214 -2.6270 -0.7078
 3422SOL     OW21901   0.770   0.814   1.435  0.4747 -0.1915  0.0740
 3422SOL    HW121902   0.697   0.834   1.495  1.1334  2.0411  0.1194
 3422SOL    HW221903   0.720   0.807   1.354 -0.0981  0.2002  0.3863
 3423SOL     OW21904   0.008   0.007   9.934  0.8503 -0.4029 -0.0765
 3423SOL    HW121905   0.022   0.005  10.029 -0.2215 -3.1283  0.0138
 3423SOL    HW221906   4.707   4.663   9.916 -0.5431  0.3482 -0.4089
 3424SOL     OW21907   0.242   0.066   9.463 -0.0696  0.1921 -0.0231
 3424SOL    HW121908   0.226   4.714   9.483 -1.6636 -0.1734 -2.8838
 3424SOL    HW221909   0.161   0.084   9.414  1.5310  0.1655 -2.6967
 3425SOL     OW21910   4.708   3.461   6.633 -0.2629  0.5010 -0.1298
 3425SOL    HW121911   4.633   3.437   6.578 -1.7388  1.4295  1.4966
 3425SOL    HW221912   4.716   3.550   6.599 -0.4043  0.4406 -0.3233
 3426SOL     OW21913   2.690   1.978   7.232  0.2682 -0.1711 -0.1918
 3426SOL    HW121914   2.613   2.007   7.181 -0.2504  0.7050  1.0732
 3426SOL    HW221915   2.685   2.029   7.313  4.0870  0.6533 -0.4977
 3427SOL     OW21916   0.330   2.206  14.645 -0.5163  0.5375 -0.1838
 3427SOL    HW121917   0.373   2.274  14.593 -0.9076  0.1966 -0.9527
 3427SOL    HW221918   0.253   2.212  14.589 -0.3342 -3.7173 -0.9292
 3428SOL     OW21919   2.407   2.539   7.696  0.4408  0.0512 -0.1739
 3428SOL    HW121920   2.368   2.485   7.765  0.3668  0.8846  0.4442
 3428SOL    HW221921   2.451   2.602   7.753 -2.7353  0.7316  1.5234
 3429SOL     OW21922   2.064   1.920   7.899  0.4927  0.2266  0.5821
 3429SOL    HW121923   2.059   1.827   7.924  1.7457 -0.1042 -0.3547
 3429SOL    HW221924   2.117   1.954   7.972 -0.4340 -0.4780  1.5818
 3430SOL     OW21925   2.352   2.023   1.689  0.1833  0.7066 -0.0252
 3430SOL    HW121926   2.271   2.019   1.638  0.4843 -2.9167 -0.2500
 3430SOL    HW221927   2.323   2.020   1.780  2.6018 -1.7181  0.6788
 3431SOL     OW21928   2.903   4.677   9.197  0.2047 -0.4036 -0.1477
 3431SOL    HW121929   2.931   0.022   9.230 -2.0848  1.1642 -2.2165
 3431SOL    HW221930   2.967   4.676   9.126 -0.1288  0.5826 -0.4621
 3432SOL     OW21931   4.422   0.670   9.239 -0.1690 -0.2548 -0.3375
 3432SOL    HW121932   4.355   0.687   9.173  1.8336  2.0315 -1.8071
 3432SOL    HW221933   4.375   0.634   9.313  0.5282  1.0111  0.7171
 3433SOL     OW21934   3.682   4.719   8.065  0.0934  0.1640 -0.7104
 3433SOL    HW121935   3.662   4.658   8.135  1.4504  0.0746 -0.3988
 3433SOL    HW221936   3.650   4.668   7.991 -1.6122  3.0857 -2.0018
 3434SOL     OW21937   4.703   1.366   2.424  0.3862 -0.7279  0.4232
 3434SOL    HW121938   4.696   1.439   2.363  0.0930 -0.0846  1.2193
 3434SOL    HW221939   4.698   1.411   2.509 -1.2406 -0.2020  0.0630
 3435SOL     OW21940   3.135   0.390  10.431  0.3993 -0.5995 -0.2036
 3435SOL    HW121941   3.113   0.310  10.478  0.3650  0.2941  1.2942
 3435SOL    HW221942   3.176   0.429  10.508  2.4927 -1.3239 -0.9580
 3436SOL     OW21943   3.165   4.517   5.646 -0.5701  0.1166  0.1009
 3436SOL    HW121944   3.140   4.425   5.634  3.1162 -0.9311  0.4722
 3436SOL    HW221945   3.205   4.544   5.563 -0.0854  0.9274  0.5983
 3437SOL     OW21946   0.070   4.315   6.799  1.0232  0.3580 -0.1886
 3437SOL    HW121947   0.023   4.373   6.859  1.7461 -0.0646  0.7748
 3437SOL    HW221948   0.058   4.233   6.847 -0.2803  0.7103  0.0913
 3438SOL     OW21949   1.286   3.500  16.351 -0.1184 -0.2028  0.2324
 3438SOL    HW121950   1.218   3.459  16.298  0.2407 -0.6683  0.1376
 3438SOL    HW221951   1.360   3.441  16.365  0.8768  0.7346 -1.0572
 3439SOL     OW21952   3.650   0.985   3.279  0.2377 -0.6419  0.3899
 3439SOL    HW121953   3.714   0.945   3.220 -1.5114 -3.3685  0.3402
 3439SOL    HW221954   3.568   0.978   3.230  1.7382 -2.2314 -1.9052
 3440SOL     OW21955   3.538   2.536   6.760 -0.0199  0.0079  0.3290
 3440SOL    HW121956   3.545   2.447   6.726  2.1204 -0.0419  0.8631
 3440SOL    HW221957   3.604   2.528   6.829 -0.9657 -2.0234  0.9824
 3441SOL     OW21958   0.529   2.987  12.308 -0.3629 -0.2899 -0.2443
 3441SOL    HW121959   0.529   2.893  12.287 -2.0019 -0.2468 -0.4183
 3441SOL    HW221960   0.616   3.018  12.284 -0.1107  0.5146  1.6726
 3442SOL     OW21961   2.746   3.884  15.342 -0.0298  0.1997 -0.1004
 3442SOL    HW121962   2.670   3.827  15.350  0.2622  0.0823  1.8412
 3442SOL    HW221963   2.712   3.952  15.284 -2.4554 -1.2303 -0.3593
 3443SOL     OW21964   2.353   4.493  17.747 -0.1681  0.3402  0.4030
 3443SOL    HW121965   2.310   4.496  17.662 -0.0796  3.0884  0.4550
 3443SOL    HW221966   2.386   4.582   0.004  0.2198  0.6246 -2.1967
 3444SOL     OW21967   0.911   2.749   4.802  0.2288  0.0992 -0.5873
 3444SOL    HW121968   0.951   2.709   4.725 -0.8152 -1.4341 -0.3328
 3444SOL    HW221969   0.958   2.832   4.796  1.5803 -0.5207  1.2865
 3445SOL     OW21970   3.497   3.471   3.459 -0.3626  0.2922 -0.1529
 3445SOL    HW121971   3.556   3.538   3.493  0.1412  0.0570 -0.5647
 3445SOL    HW221972   3.514   3.461   3.365  1.3589  0.3774  0.1665
 3446SOL     OW21973   3.350   4.583   5.428 -0.2655 -0.4280 -0.2207
 3446SOL    HW121974   3.349   4.668   5.472 -1.4501 -1.2876  1.4064
 3446SOL    HW221975   3.284   4.602   5.362  1.4952  0.3827 -1.7610
 3447SOL     OW21976   2.445   2.668   5.378 -0.1752 -0.0534  0.0056
 3447SOL    HW121977   2.538   2.667   5.399  0.4807 -1.7018 -2.9998
 3447SOL    HW221978   2.394   2.682   5.459 -0.5630  1.8512 -0.5854
 3448SOL     OW21979   1.092   2.771  14.243 -0.1634  0.3481 -0.5635
 3448SOL    HW121980   1.181   2.782  14.275 -0.5297 -0.2706  0.6412
 3448SOL    HW221981   1.052   2.764  14.329  1.6062 -1.5674  0.0959
 3449SOL     OW21982   2.656   1.545   9.463 -0.2623 -0.4245  0.1093
 3449SOL    HW121983   2.735   1.517   9.510  1.4768 -0.7165 -2.9517
 3449SOL    HW221984   2.595   1.552   9.536  0.9827 -0.3146  1.1398
 3450SOL     OW21985   4.640   4.098   1.994  0.5493 -0.7121  0.0956
 3450SOL    HW121986   4.605   4.027   2.048 -0.1383 -0.9844 -0.7067
 3450SOL    HW221987   4.690   4.054   1.925  1.2334 -0.2408  0.2968
 3451SOL     OW21988   0.976   2.535   1.283  0.4195  0.1243 -0.1269
 3451SOL    HW121989   0.948   2.612   1.333  1.9067  1.6549 -1.6178
 3451SOL    HW221990   1.070   2.548   1.291  0.3845  0.7591 -0.7170
 3452SOL     OW21991   3.949   1.272   2.627  0.1473 -0.3280 -0.1461
 3452SOL    HW121992   3.901   1.341   2.673 -0.4323 -0.5652 -0.3959
 3452SOL    HW221993   4.022   1.325   2.596 -0.1756 -0.1483 -0.6007
 3453SOL     OW21994   3.764   2.644   4.460 -0.0629  0.2635 -0.0862
 3453SOL    HW121995   3.706   2.589   4.406 -1.9072  2.0087  0.1230
 3453SOL    HW221996   3.738   2.614   4.547  1.7522 -2.4768 -0.4544
 3454SOL     OW21997   2.744   3.130  13.030 -0.2132  0.4281  0.2575
 3454SOL    HW121998   2.757   3.180  13.111 -1.3952  2.0709 -0.5551
 3454SOL    HW221999   2.837   3.116  13.012 -0.6147 -0.2860 -1.1843
 3455SOL     OW22000   1.750   3.095   1.719  0.1856  0.0701  0.2257
 3455SOL    HW122001   1.784   3.152   1.789  0.7930  0.6872 -0.5776
 3455SOL    HW222002   1.793   3.010   1.722 -0.9276 -0.5751 -2.1052
 3456SOL     OW22003   4.192   0.591   5.309 -1.1159  0.8474 -0.2502
 3456SOL    HW122004   4.147   0.674   5.321  0.3586  1.3668  1.7911
 3456SOL    HW222005   4.140   0.525   5.355  1.4828 -1.0982 -0.0473
 3457SOL     OW22006   0.770   3.763   1.180  0.1640  0.4385  0.0978
 3457SOL    HW122007   0.702   3.827   1.163  0.9537  1.0346 -0.8281
 3457SOL    HW222008   0.793   3.783   1.270  1.9565  0.2952 -0.3279
 3458SOL     OW22009   4.667   3.701   7.278  0.0547 -0.3210 -0.3608
 3458SOL    HW122010   4.618   3.676   7.356  1.2217  0.0845  0.4888
 3458SOL    HW222011   4.677   3.626   7.220 -0.3157 -1.0079  0.4761
 3459SOL     OW22012   1.596   2.930   9.347 -0.8023  0.3053 -0.2184
 3459SOL    HW122013   1.685   2.898   9.330 -0.9476 -0.2918  0.1631
 3459SOL    HW222014   1.547   2.852   9.372 -2.0145  1.3718  0.7212
 3460SOL     OW22015   3.534   1.453   7.628  0.2980  0.1704 -0.2076
 3460SOL    HW122016   3.575   1.401   7.697 -0.8354  0.9790  1.0696
 3460SOL    HW222017   3.464   1.396   7.595  0.8339 -0.3048 -0.5180
 3461SOL     OW22018   4.473   3.425   0.366  0.4573  0.1164 -0.4349
 3461SOL    HW122019   4.496   3.491   0.301  0.2180 -0.7712 -1.4116
 3461SOL    HW222020   4.449   3.348   0.314  4.2866 -0.7035 -0.9569
 3462SOL     OW22021   0.010   0.632   5.950  0.1539 -0.3140 -0.3414
 3462SOL    HW122022   4.711   0.546   5.960  1.6057 -1.1269 -1.6652
 3462SOL    HW222023   0.078   0.623   6.017 -0.7383 -0.2349  0.5641
 3463SOL     OW22024   2.240   2.197   0.322 -0.1210 -0.4200 -0.3974
 3463SOL    HW122025   2.154   2.156   0.315 -0.4936  0.6711 -2.1923
 3463SOL    HW222026   2.286   2.144   0.387  1.6780  1.5842 -0.0256
 3464SOL     OW22027   1.403   3.851  11.170 -0.4678 -0.5327  0.0318
 3464SOL    HW122028   1.309   3.868  11.172 -0.4657 -0.5667  0.4410
 3464SOL    HW222029   1.427   3.863  11.262  1.6421 -0.5131 -0.5027
 3465SOL     OW22030   0.109   0.084  12.038  0.2457  0.3910 -0.1273
 3465SOL    HW122031   0.195   0.123  12.052  1.0524 -1.7343  0.7617
 3465SOL    HW222032   0.060   0.146  12.092  0.1848 -0.8730  1.2345
 3466SOL     OW22033   1.688   4.010   7.621  0.1437 -0.4470  0.1808
 3466SOL    HW122034   1.705   3.920   7.651  1.9038 -0.7322 -1.6047
 3466SOL    HW222035   1.775   4.030   7.585  0.1982 -0.2005  0.4490
 3467SOL     OW22036   3.325   1.671   1.867 -0.1214 -0.0370 -0.0997
 3467SOL    HW122037   3.250   1.728   1.886 -0.5853 -0.5150 -0.5022
 3467SOL    HW222038   3.331   1.612   1.941  0.2917  0.6445  0.4070
 3468SOL     OW22039   2.170   1.419   2.421  0.1757 -0.0145  0.0716
 3468SOL    HW122040   2.195   1.327   2.418  1.6474  0.4185 -0.9951
 3468SOL    HW222041   2.174   1.441   2.328  2.1505 -0.0605  0.1568
 3469SOL     OW22042   3.396   1.829   5.016 -0.2708 -0.2671 -0.0037
 3469SOL    HW122043   3.485   1.820   4.981  0.3237 -1.6399  1.8993
 3469SOL    HW222044   3.396   1.797   5.106 -0.8985  1.5750  0.6510
 3470SOL     OW22045   4.527   3.990   3.231  0.2495 -0.3579 -0.1268
 3470SOL    HW122046   4.577   4.038   3.297 -2.0105 -0.1786  1.4295
 3470SOL    HW222047   4.441   4.028   3.242  0.5842  0.8110 -1.5837
 3471SOL     OW22048   0.162   1.742   5.435  0.2048  0.5546 -0.2512
 3471SOL    HW122049   0.234   1.757   5.375 -0.0848 -0.2231 -0.7937
 3471SOL    HW222050   0.169   1.809   5.503  0.9722  1.0711 -0.8440
 3472SOL     OW22051   0.266   1.015   8.644 -0.2757  0.3207 -0.7011
 3472SOL    HW122052   0.194   1.018   8.706 -1.6840  1.3285 -2.3676
 3472SOL    HW222053   0.318   0.951   8.692 -0.3734  0.9975  0.3108
 3473SOL     OW22054   2.699   4.219   4.598  0.0005 -0.1535 -0.0884
 3473SOL    HW122055   2.663   4.202   4.510  0.4967 -2.1965  0.0914
 3473SOL    HW222056   2.735   4.132   4.616 -1.9984 -0.3946  2.7611
 3474SOL     OW22057   0.186   1.001  17.486  0.1705 -0.2953 -0.5866
 3474SOL    HW122058   0.257   1.065  17.490  0.1489 -0.4749  2.5087
 3474SOL    HW222059   0.121   1.056  17.441 -0.0694 -0.1307 -0.0421
 3475SOL     OW22060   4.430   0.686   5.456  0.0032 -0.0369 -0.2478
 3475SOL    HW122061   4.355   0.689   5.396  0.6691  0.9107 -1.0379
 3475SOL    HW222062   4.393   0.749   5.516 -2.6966 -0.5197 -1.4152
 3476SOL     OW22063   1.551   1.782   2.999 -0.2674 -0.0329  0.1435
 3476SOL    HW122064   1.463   1.812   2.974  0.9192  4.5170  1.4553
 3476SOL    HW222065   1.583   1.744   2.917 -0.3136 -0.9201  0.5394
 3477SOL     OW22066   3.976   0.719   7.201 -0.8096  0.3255 -0.1875
 3477SOL    HW122067   3.962   0.766   7.119  0.4866  3.0197  1.1025
 3477SOL    HW222068   3.891   0.723   7.245 -1.5687  1.9287 -1.7930
 3478SOL     OW22069   2.722   3.671   7.520  0.2838  0.4108 -0.0596
 3478SOL    HW122070   2.779   3.601   7.487  0.5511  1.5667 -1.9965
 3478SOL    HW222071   2.749   3.752   7.478  4.2405 -0.9324 -0.1366
 3479SOL     OW22072   2.072   4.329   8.049 -0.4304 -0.3972 -0.1310
 3479SOL    HW122073   2.160   4.308   8.078 -0.5422  0.2121  0.6398
 3479SOL    HW222074   2.066   4.407   8.104  0.6999  0.4153 -1.1724
 3480SOL     OW22075   2.505   0.674   8.586 -0.5252  0.0189 -0.2285
 3480SOL    HW122076   2.528   0.612   8.517  1.7071 -0.5647  1.0355
 3480SOL    HW222077   2.579   0.734   8.585 -0.7415  0.3083  0.9033
 3481SOL     OW22078   2.219   2.304  14.890  0.2898  0.2058  0.2574
 3481SOL    HW122079   2.221   2.228  14.832  0.7548 -0.5579  1.2691
 3481SOL    HW222080   2.300   2.346  14.863  0.9583  0.1655  2.2173
 3482SOL     OW22081   4.661   0.695  15.487  0.1290  0.5423 -0.7220
 3482SOL    HW122082   4.661   0.620  15.428  0.6089 -2.2007  2.7962
 3482SOL    HW222083   4.710   0.650  15.556 -0.1729 -0.3994 -1.1206
 3483SOL     OW22084   0.764   1.563   1.996 -0.3590  0.2887 -0.1200
 3483SOL    HW122085   0.705   1.635   1.978  0.7077  1.3219  0.5515
 3483SOL    HW222086   0.710   1.511   2.055 -2.3573  1.4114 -0.9622
 3484SOL     OW22087   3.085   2.320   6.287  0.4187 -0.1071  0.2575
 3484SOL    HW122088   3.080   2.354   6.198  0.4097 -4.5040 -1.3806
 3484SOL    HW222089   3.032   2.383   6.336 -0.6416 -0.8732  0.0939
 3485SOL     OW22090   1.443   1.486  16.743  0.1335  0.6844  0.1978
 3485SOL    HW122091   1.348   1.496  16.745  0.1988  0.7895  2.0495
 3485SOL    HW222092   1.466   1.559  16.800 -0.3443  0.5646  0.5424
 3486SOL     OW22093   2.888   1.042   3.950 -0.4713  0.1862 -0.5424
 3486SOL    HW122094   2.946   1.098   3.900  2.3730 -3.0870 -0.9296
 3486SOL    HW222095   2.839   1.099   4.009  0.3603 -0.5145  0.8278
 3487SOL     OW22096   3.558   4.504   7.274  0.2494 -0.5177  0.5741
 3487SOL    HW122097   3.488   4.563   7.302  0.1293 -1.2426  1.8231
 3487SOL    HW222098   3.639   4.556   7.268 -0.1486  0.1190  0.7052
 3488SOL     OW22099   4.596   1.054   6.298  0.7000  0.6046  0.3620
 3488SOL    HW122100   4.680   1.009   6.309  0.1307 -0.3473  0.8071
 3488SOL    HW222101   4.629   1.136   6.260 -0.1859  1.3893  1.2961
 3489SOL     OW22102   1.622   4.114  12.201  0.2669  0.1339 -0.0442
 3489SOL    HW122103   1.606   4.209  12.199 -0.6050  0.0263  1.7485
 3489SOL    HW222104   1.533   4.084  12.220  0.6497 -0.8746  0.1269
 3490SOL     OW22105   2.546   4.153  13.589  0.0433  0.7182  0.2555
 3490SOL    HW122106   2.590   4.080  13.633  0.5295  1.1292  0.4629
 3490SOL    HW222107   2.607   4.226  13.601  0.9531 -0.0442  0.3045
 3491SOL     OW22108   3.870   2.300  10.037 -0.1160  0.0614  0.5506
 3491SOL    HW122109   3.823   2.220  10.062  2.2564 -1.8800 -1.1160
 3491SOL    HW222110   3.824   2.317   9.954 -1.1439 -1.0333  0.8873
 3492SOL     OW22111   0.864   2.454   2.039  0.2902 -0.5084  0.1646
 3492SOL    HW122112   0.865   2.504   2.121  3.2957 -2.1994  1.1629
 3492SOL    HW222113   0.894   2.521   1.977  3.0783 -0.3798  1.6535
 3493SOL     OW22114   4.488   3.136   8.252 -0.2528 -0.4507  0.0035
 3493SOL    HW122115   4.493   3.229   8.275 -4.3996 -0.2141 -0.0371
 3493SOL    HW222116   4.394   3.128   8.239  0.0122  1.2975 -2.8253
 3494SOL     OW22117   0.433   4.288   6.585  0.0541  0.0699  0.6013
 3494SOL    HW122118   0.445   4.328   6.499 -0.9596 -0.0140  0.4179
 3494SOL    HW222119   0.360   4.229   6.566 -0.5622  1.0390 -0.0251
 3495SOL     OW22120   4.006   2.825  11.937 -0.1793 -0.2445 -0.1861
 3495SOL    HW122121   4.071   2.815  11.867 -0.2815 -0.0877 -0.3020
 3495SOL    HW222122   3.965   2.906  11.909 -0.9647 -1.3677 -2.2330
 3496SOL     OW22123   4.085   1.836   5.371  0.3332 -0.3873  0.4420
 3496SOL    HW122124   4.149   1.774   5.404 -0.4510  0.1684  2.9719
 3496SOL    HW222125   4.078   1.797   5.283  1.0068 -0.4598  0.4266
 3497SOL     OW22126   1.366   3.262   2.422  0.2905 -0.6931 -0.1072
 3497SOL    HW122127   1.454   3.296   2.407 -0.0203 -0.0472 -0.4436
 3497SOL    HW222128   1.308   3.301   2.357 -0.4482  0.3202  1.1439
 3498SOL     OW22129   3.755   2.968   8.340 -0.0897 -0.3942  0.2734
 3498SOL    HW122130   3.833   2.967   8.395  0.5532  0.7438 -0.5972
 3498SOL    HW222131   3.739   2.876   8.322 -1.6606 -0.2415  0.8623
 3499SOL     OW22132   4.360   4.597   2.825 -0.7935 -0.5816 -0.0866
 3499SOL    HW122133   4.386   4.687   2.843  1.2247 -0.9571 -1.1867
 3499SOL    HW222134   4.269   4.604   2.797 -1.2530 -0.5553  1.3958
 3500SOL     OW22135   1.726   0.470   0.760  0.4183  0.2663 -0.3141
 3500SOL    HW122136   1.798   0.442   0.703  0.1925  0.3754 -0.6474
 3500SOL    HW222137   1.691   0.389   0.796  0.4896 -0.2550 -1.4223
 3501SOL     OW22138   0.612   4.700  13.518 -0.1705  0.4209  0.6646
 3501SOL    HW122139   0.619   4.705  13.423 -2.4715 -1.0444  0.4286
 3501SOL    HW222140   0.631   0.053  13.528 -1.5923  0.8703 -0.8089
 3502SOL     OW22141   4.505   2.344  12.907 -0.3073 -0.3450 -1.0250
 3502SOL    HW122142   4.533   2.361  12.997 -2.3508  3.3272 -1.0421
 3502SOL    HW222143   4.519   2.433  12.874 -1.6775  1.2379  2.6547
 3503SOL     OW22144   4.728   0.150   2.246 -0.3508 -0.1151  0.2877
 3503SOL    HW122145   0.018   0.142   2.337 -0.7852  1.3970  0.5694
 3503SOL    HW222146   4.641   0.113   2.259 -0.0264 -1.3314 -1.0667
 3504SOL     OW22147   1.925   0.639   3.942 -0.3187 -0.5421  0.3610
 3504SOL    HW122148   2.013   0.624   3.974 -0.0196  0.1438 -0.1510
 3504SOL    HW222149   1.924   0.598   3.855 -1.1693 -0.7089  0.4410
 3505SOL     OW22150   1.892   0.241   7.194 -0.3614 -0.0074 -0.0749
 3505SOL    HW122151   1.806   0.282   7.181 -1.9597 -3.5393 -0.6899
 3505SOL    HW222152   1.949   0.306   7.152 -2.3029  2.0875  0.5113
 3506SOL     OW22153   3.696   0.251   5.774 -0.0480  0.1296 -0.4591
 3506SOL    HW122154   3.679   0.238   5.681  0.7625  0.6204 -0.6755
 3506SOL    HW222155   3.691   0.158   5.794  0.3950  0.0203 -0.8380
 3507SOL     OW22156   1.397   1.389  12.610  0.0037 -0.8344  0.4660
 3507SOL    HW122157   1.478   1.390  12.662  1.7177  0.1658 -2.2065
 3507SOL    HW222158   1.364   1.302  12.632  2.4448 -1.9582 -0.3077
 3508SOL     OW22159   3.289   0.539   9.877  0.4220  0.2749  0.6605
 3508SOL    HW122160   3.303   0.627   9.911  3.1700 -0.0921  0.5385
 3508SOL    HW222161   3.355   0.536   9.807  1.8003  1.3379  1.9059
 3509SOL     OW22162   2.523   3.902   3.654 -0.3239  0.0402 -0.6737
 3509SOL    HW122163   2.468   3.943   3.721  3.2583  1.4941  1.3234
 3509SOL    HW222164   2.586   3.854   3.707  0.0440  1.2164 -0.0500
 3510SOL     OW22165   1.533   0.030  14.981  0.3421  0.3205 -0.3933
 3510SOL    HW122166   1.475   0.015  15.056 -0.2778 -0.7618 -1.0879
 3510SOL    HW222167   1.518   4.686  14.938  0.1038 -0.8014  1.8401
 3511SOL     OW22168   2.755   1.469  14.069 -0.0324 -0.4456  0.0906
 3511SOL    HW122169   2.818   1.398  14.079 -0.5838 -0.8509  0.7040
 3511SOL    HW222170   2.813   1.538  14.036 -1.9925  0.0018 -2.4632
 3512SOL     OW22171   2.122   2.252   6.941  0.1768  0.0697  0.3588
 3512SOL    HW122172   2.180   2.326   6.957  0.0397 -0.4965  3.5628
 3512SOL    HW222173   2.178   2.182   6.909  0.8354  0.1904  1.2448
 3513SOL     OW22174   3.433   1.514   6.057  0.1210  0.2732 -0.6548
 3513SOL    HW122175   3.511   1.480   6.102  0.5321  1.7775 -0.2113
 3513SOL    HW222176   3.420   1.583   6.122  1.2249 -0.1336  0.0116
 3514SOL     OW22177   4.639   2.606   2.089  0.7916  0.0632 -0.3987
 3514SOL    HW122178   4.609   2.523   2.124  0.2617  0.8348  0.9836
 3514SOL    HW222179   4.575   2.622   2.021 -0.3834 -0.3179  0.6242
 3515SOL     OW22180   3.215   4.077  16.050  0.0145  0.2897 -0.0195
 3515SOL    HW122181   3.217   4.010  16.119  0.0847  2.3074  1.9379
 3515SOL    HW222182   3.167   4.143  16.100 -0.2239 -2.2995  3.1525
 3516SOL     OW22183   4.646   0.107   0.488 -0.0217 -0.3785 -0.3269
 3516SOL    HW122184   4.566   0.106   0.540  0.3678 -1.0886  0.2637
 3516SOL    HW222185   4.700   0.147   0.557 -0.4550  2.5127 -1.6776
 3517SOL     OW22186   1.582   1.594   6.943 -0.6723 -0.4879  0.0756
 3517SOL    HW122187   1.592   1.609   7.037  2.5914  0.0046 -0.3507
 3517SOL    HW222188   1.568   1.499   6.942  0.3737 -0.6276 -1.5564
 3518SOL     OW22189   0.584   0.906   3.477  0.1356 -0.2396 -0.4873
 3518SOL    HW122190   0.557   0.930   3.566  0.8722 -0.0155 -0.3268
 3518SOL    HW222191   0.678   0.921   3.486  0.1234 -1.5313  1.8935
 3519SOL     OW22192   3.067   2.742   6.161 -0.2514 -0.6803  0.2807
 3519SOL    HW122193   3.048   2.659   6.116  0.0701  0.0841 -1.2881
 3519SOL    HW222194   3.162   2.732   6.170  0.2369  1.5162 -2.4691
 3520SOL     OW22195   4.236   4.327   0.482  0.4950 -0.4184  0.8073
 3520SOL    HW122196   4.273   4.277   0.555  3.2063 -0.7385 -0.7725
 3520SOL    HW222197   4.182   4.396   0.521 -0.5372 -1.6571  1.5450
 3521SOL     OW22198   2.273   1.139   8.902 -0.1936  0.0596 -0.5182
 3521SOL    HW122199   2.324   1.062   8.926 -1.7018 -1.7442 -3.1367
 3521SOL    HW222200   2.342   1.205   8.895 -0.2120  0.3878  2.1751
 3522SOL     OW22201   2.481   2.989   3.164  0.4136 -0.0610  0.0417
 3522SOL    HW122202   2.447   3.078   3.158  0.6621  0.0250 -0.0737
 3522SOL    HW222203   2.477   2.971   3.070 -1.4816 -0.4409  0.2010
 3523SOL     OW22204   0.020   2.141  12.516 -0.3161 -0.1432  0.3756
 3523SOL    HW122205   0.044   2.232  12.501  0.0836 -0.1479  0.9694
 3523SOL    HW222206   4.688   2.147  12.579  0.2231  2.2417  0.7596
 3524SOL     OW22207   0.258   1.722   2.852 -0.2060 -0.0714  0.3828
 3524SOL    HW122208   0.173   1.715   2.897 -0.3296 -0.3920  0.1041
 3524SOL    HW222209   0.226   1.791   2.793 -2.8770 -0.9196  0.8202
 3525SOL     OW22210   0.514   1.285   5.630  0.5657 -0.2920  0.2674
 3525SOL    HW122211   0.460   1.353   5.588  1.2470  0.3655  0.4492
 3525SOL    HW222212   0.566   1.251   5.557 -0.7697 -1.9732  0.0984
 3526SOL     OW22213   2.982   0.504   8.775 -0.0396 -0.1495 -0.1639
 3526SOL    HW122214   2.963   0.545   8.860  0.9452 -0.2474  0.1017
 3526SOL    HW222215   3.014   0.583   8.732  1.6502  0.4382  2.1529
 3527SOL     OW22216   3.293   2.501   2.039 -0.0537 -0.3325 -0.5386
 3527SOL    HW122217   3.276   2.431   1.977 -1.2189 -0.5016 -0.0284
 3527SOL    HW222218   3.389   2.512   2.039  0.2204 -2.8086 -1.4619
 3528SOL     OW22219   2.313   4.040   3.814 -0.7680  0.4630 -0.4945
 3528SOL    HW122220   2.271   3.963   3.853 -1.9650  0.6780 -1.3496
 3528SOL    HW222221   2.236   4.097   3.803 -0.2806  1.3077  0.4860
 3529SOL     OW22222   3.041   1.930   6.542 -0.4177  0.3478 -0.2771
 3529SOL    HW122223   3.010   1.984   6.614 -0.6231 -1.5809  1.0519
 3529SOL    HW222224   3.122   1.979   6.527 -0.9497  1.1391 -0.5962
 3530SOL     OW22225   4.089   2.050   1.895 -0.2972 -0.3061 -0.6812
 3530SOL    HW122226   4.022   2.002   1.944  0.0374  0.7009  0.7789
 3530SOL    HW222227   4.124   1.981   1.838  1.3435  1.7932 -2.2057
 3531SOL     OW22228   1.956   4.640   6.390  0.5742  0.2089  0.1509
 3531SOL    HW122229   1.936   4.558   6.434  0.5225  0.7216  1.0822
 3531SOL    HW222230   1.952   4.707   6.458  0.5331  0.4404 -0.0741
 3532SOL     OW22231   0.892   1.006   3.972 -0.2311  0.0150 -0.6184
 3532SOL    HW122232   0.806   1.007   4.013  0.7594 -1.4169  1.4872
 3532SOL    HW222233   0.884   0.943   3.901  2.2146 -1.0696  0.0783
 3533SOL     OW22234   1.432   4.605   8.207 -0.3263  0.3343 -0.3323
 3533SOL    HW122235   1.497   4.574   8.269 -0.4199  0.5161 -0.1443
 3533SOL    HW222236   1.479   4.679   8.169  0.1524  0.0849 -0.2248
 3534SOL     OW22237   1.429   0.805  16.940 -0.2579  0.0597 -0.0259
 3534SOL    HW122238   1.335   0.821  16.935 -0.6395 -2.5430 -1.3311
 3534SOL    HW222239   1.453   0.821  16.848  4.7605  1.2696  1.4877
 3535SOL     OW22240   2.699   0.886   5.401  0.7738  0.2676 -0.4630
 3535SOL    HW122241   2.745   0.932   5.472  0.8790 -1.7525  0.7762
 3535SOL    HW222242   2.719   0.951   5.333  0.7676  0.4590 -0.2822
 3536SOL     OW22243   2.624   4.734   2.059  0.0973 -0.2363 -0.0411
 3536SOL    HW122244   2.575   0.077   2.056  0.0438 -0.1756  2.5800
 3536SOL    HW222245   2.558   4.668   2.080 -1.1971  1.3453  0.8582
 3537SOL     OW22246   2.865   1.798   9.705  0.0080 -0.1878  0.0898
 3537SOL    HW122247   2.810   1.782   9.782  1.7222 -1.0406  1.1270
 3537SOL    HW222248   2.897   1.888   9.703  0.8044 -0.4628  0.7936
 3538SOL     OW22249   2.812   2.401   5.166 -0.5931  0.6616 -0.3230
 3538SOL    HW122250   2.884   2.341   5.148  0.0484  0.8372  1.6542
 3538SOL    HW222251   2.767   2.360   5.240 -2.6162  0.4275 -1.7120
 3539SOL     OW22252   4.142   2.592   9.038 -0.5552 -0.1295  0.6511
 3539SOL    HW122253   4.046   2.592   9.038 -0.5579  1.0099 -0.4125
 3539SOL    HW222254   4.159   2.502   9.011 -0.2845  0.7020 -2.0226
 3540SOL     OW22255   4.607   2.113  14.848 -0.2379 -0.2888 -0.1807
 3540SOL    HW122256   4.675   2.057  14.813 -0.7173  1.4920 -3.9522
 3540SOL    HW222257   4.633   2.197  14.809 -0.1930 -0.1555  0.1368
 3541SOL     OW22258   4.739   1.360   7.264 -0.0659  0.0892 -0.2002
 3541SOL    HW122259   0.069   1.316   7.217  0.5107  0.5702  0.1974
 3541SOL    HW222260   4.674   1.290   7.268  1.5829 -1.3330  1.1274
 3542SOL     OW22261   0.662   3.780   3.069 -0.5077  0.8150 -0.3438
 3542SOL    HW122262   0.678   3.867   3.033 -0.8075  1.2627  0.6250
 3542SOL    HW222263   0.666   3.790   3.164 -2.0096  1.5694 -0.3718
 3543SOL     OW22264   3.478   3.642   2.217  0.4054  0.2219 -0.4400
 3543SOL    HW122265   3.511   3.720   2.173  0.8491  1.5463  2.2611
 3543SOL    HW222266   3.521   3.570   2.171 -0.3772 -0.2438 -0.4625
 3544SOL     OW22267   3.270   0.083  11.542 -0.1118 -0.6757  0.4622
 3544SOL    HW122268   3.310   0.004  11.577  0.0826 -0.5289  0.5629
 3544SOL    HW222269   3.342   0.145  11.540  1.5346 -2.6242 -0.4558
 3545SOL     OW22270   2.145   4.126   5.667 -0.6414 -0.1642 -0.5669
 3545SOL    HW122271   2.186   4.172   5.595  0.6820  0.1207  0.3775
 3545SOL    HW222272   2.101   4.205   5.699 -0.6040 -0.4750  0.2572
 3546SOL     OW22273   2.596   1.809  12.487 -0.2277  0.0487  0.5759
 3546SOL    HW122274   2.655   1.737  12.509 -1.1138 -0.8054  0.1479
 3546SOL    HW222275   2.603   1.863  12.565 -0.1084  1.2095 -0.2295
 3547SOL     OW22276   4.574   0.558   1.078  0.0329 -0.2477 -0.2545
 3547SOL    HW122277   4.480   0.540   1.076 -0.0557  0.3298 -1.3450
 3547SOL    HW222278   4.590   0.546   1.172 -1.3902  2.2891  0.3004
 3548SOL     OW22279   1.592   3.214   1.982  0.3012 -0.4110 -0.4566
 3548SOL    HW122280   1.645   3.221   2.062 -0.2726  0.2927 -0.1304
 3548SOL    HW222281   1.641   3.272   1.924 -0.3100 -0.2212 -0.7778
 3549SOL     OW22282   2.152   4.260   2.310  0.3264  0.0334 -0.4655
 3549SOL    HW122283   2.125   4.244   2.400  0.3687  1.2429 -0.2361
 3549SOL    HW222284   2.243   4.290   2.312  0.7900 -1.3798 -0.7130
 3550SOL     OW22285   3.940   1.862   4.419  0.0321  0.5302 -0.3680
 3550SOL    HW122286   4.031   1.887   4.406  0.0537 -0.1432 -1.4974
 3550SOL    HW222287   3.933   1.798   4.348 -1.2576  1.6587 -1.2774
 3551SOL     OW22288   1.525   1.510   3.937  0.2861 -0.0470  0.4441
 3551SOL    HW122289   1.606   1.532   3.984 -0.5764  3.8051  0.1322
 3551SOL    HW222290   1.557   1.449   3.870  0.1691 -0.2746  0.5951
 3552SOL     OW22291   2.651   2.127   6.697  0.9944 -0.2393 -0.0658
 3552SOL    HW122292   2.570   2.077   6.707 -0.6133  2.8659  2.8539
 3552SOL    HW222293   2.635   2.163   6.610  0.0702 -1.6071 -0.4602
 3553SOL     OW22294   4.211   2.202   5.877 -0.2556 -0.4792  0.8459
 3553SOL    HW122295   4.147   2.195   5.807 -1.1695  3.1423  1.3314
 3553SOL    HW222296   4.162   2.156   5.946 -1.3713  0.3088  0.5772
 3554SOL     OW22297   1.519   0.147   2.264  0.4273  0.3659 -0.5203
 3554SOL    HW122298   1.432   0.175   2.293  0.6492  1.9730 -1.4206
 3554SOL    HW222299   1.574   0.169   2.339 -1.5682  1.7446  0.5338
 3555SOL     OW22300   1.211   2.359   3.398 -0.0156 -0.1870  0.1787
 3555SOL    HW122301   1.261   2.279   3.382  0.4288 -0.1049  1.1905
 3555SOL    HW222302   1.210   2.395   3.309  0.8823 -1.8648 -0.5234
 3556SOL     OW22303   1.233   2.579   1.397  0.4419 -0.2720  0.2503
 3556SOL    HW122304   1.245   2.484   1.388  0.0486 -0.2315 -0.7296
 3556SOL    HW222305   1.318   2.613   1.370  0.1017  0.8608  0.6366
 3557SOL     OW22306   0.683   1.559   3.842 -0.1056 -0.1488  0.1262
 3557SOL    HW122307   0.650   1.501   3.773 -0.4331  0.8419 -0.5452
 3557SOL    HW222308   0.595   1.587   3.868 -0.0650  1.5222 -1.5542
 3558SOL     OW22309   2.439   4.061   1.715  0.1386  0.4589 -0.4004
 3558SOL    HW122310   2.425   4.155   1.704 -0.9254  0.3532 -0.0022
 3558SOL    HW222311   2.351   4.028   1.693 -0.4772  0.8430  1.4951
 3559SOL     OW22312   0.618   1.390  15.681 -0.1109  0.1857 -0.3521
 3559SOL    HW122313   0.525   1.378  15.662  0.2219  0.5067 -2.2069
 3559SOL    HW222314   0.618   1.474  15.726 -0.8998  0.9525 -1.7986
 3560SOL     OW22315   2.963   0.934  11.428 -0.2396  0.6209  0.7216
 3560SOL    HW122316   2.946   0.852  11.381  0.4218  1.6450 -1.3150
 3560SOL    HW222317   3.039   0.908  11.479  2.1727  1.4420 -2.4048
 3561SOL     OW22318   1.992   2.712  11.702 -0.0203 -0.1143  0.1411
 3561SOL    HW122319   2.020   2.673  11.785  1.4130  1.8460  0.5636
 3561SOL    HW222320   2.004   2.804  11.722  2.9072 -0.7137  1.1556
 3562SOL     OW22321   2.625   2.022   9.161 -0.5901  0.4739  0.0531
 3562SOL    HW122322   2.572   1.970   9.222  0.6522  0.4099  1.0713
 3562SOL    HW222323   2.650   2.088   9.225 -0.6158 -1.7357  2.3789
 3563SOL     OW22324   2.634   4.684   6.031  0.3268  0.2475 -0.1882
 3563SOL    HW122325   2.695   4.613   6.014  1.7493  0.9933  1.7746
 3563SOL    HW222326   2.702   0.010   6.041  0.9879 -0.7260  1.8131
 3564SOL     OW22327   1.493   3.653   4.533 -0.0832 -0.6932  0.2139
 3564SOL    HW122328   1.423   3.621   4.590  0.5105 -0.8059  0.8796
 3564SOL    HW222329   1.487   3.743   4.565 -1.2443 -0.7073  0.0487
 3565SOL     OW22330   4.418   3.709  14.407  0.4182  0.3856  0.3373
 3565SOL    HW122331   4.346   3.685  14.466  0.9558  0.0456  0.8568
 3565SOL    HW222332   4.443   3.797  14.435 -0.3828  0.4658  0.8204
 3566SOL     OW22333   0.995   1.604  10.344  0.3107  0.2855  0.3587
 3566SOL    HW122334   0.917   1.571  10.388  0.5105  1.2352  1.4223
 3566SOL    HW222335   0.949   1.638  10.268 -1.5435  0.2891  1.4810
 3567SOL     OW22336   0.209   0.324  11.407  0.2818 -0.4210  0.1206
 3567SOL    HW122337   0.132   0.376  11.384 -0.5017 -1.6879 -0.1447
 3567SOL    HW222338   0.209   0.313  11.502 -2.1961  0.3056  0.2021
 3568SOL     OW22339   3.540   0.998   6.492  0.1876  0.3677 -0.0977
 3568SOL    HW122340   3.464   0.990   6.433  1.7168 -1.4883 -1.8135
 3568SOL    HW222341   3.504   0.955   6.570 -0.0588  0.3734 -0.2073
 3569SOL     OW22342   3.921   1.225   6.813 -0.2574  0.2608  0.5316
 3569SOL    HW122343   3.954   1.315   6.807 -0.4036  0.1134 -2.1487
 3569SOL    HW222344   3.845   1.224   6.755 -0.7270  1.4804  1.1171
 3570SOL     OW22345   4.510   3.232   2.393  0.3000 -0.4977 -0.0277
 3570SOL    HW122346   4.467   3.287   2.458 -1.0658 -0.0261 -1.3245
 3570SOL    HW222347   4.460   3.151   2.398  1.1554 -0.9277  1.4420
 3571SOL     OW22348   4.329   4.068  14.215  0.0326  0.6936 -0.3629
 3571SOL    HW122349   4.288   4.131  14.156  1.0973  0.1944 -1.6289
 3571SOL    HW222350   4.263   4.049  14.282  0.7482  1.0808  0.4507
 3572SOL     OW22351   4.721   3.960   5.745  0.4995 -0.0432 -0.7760
 3572SOL    HW122352   4.631   3.957   5.778  0.7834  0.3348  0.0262
 3572SOL    HW222353   0.022   3.965   5.832 -0.2554  0.4201 -0.4452
 3573SOL     OW22354   1.495   1.936   7.803 -0.2433 -0.5132 -0.1460
 3573SOL    HW122355   1.540   1.906   7.881 -0.2977  2.2968  0.9875
 3573SOL    HW222356   1.407   1.900   7.818  0.1700 -0.4119  2.5312
 3574SOL     OW22357   4.231   2.000   2.384  0.5464 -0.1726  0.1829
 3574SOL    HW122358   4.260   1.965   2.300 -0.8313  1.3033 -0.8932
 3574SOL    HW222359   4.224   1.919   2.434  0.6015 -0.2558  0.0541
 3575SOL     OW22360   2.004   0.311   3.818  0.0273 -0.1336 -0.6348
 3575SOL    HW122361   1.922   0.268   3.792 -0.4288 -0.4612  1.3214
 3575SOL    HW222362   2.065   0.238   3.825  0.0979 -0.1321 -1.2564
 3576SOL     OW22363   4.516   2.549   8.379 -0.3430 -0.4521  0.0399
 3576SOL    HW122364   4.482   2.460   8.387  1.9781 -1.2120  1.4409
 3576SOL    HW222365   4.497   2.570   8.287  0.5996 -2.5932 -0.6337
 3577SOL     OW22366   3.122   3.916   1.422  0.6145 -0.2324  0.0266
 3577SOL    HW122367   3.073   3.914   1.505 -2.1966  0.7895 -1.6306
 3577SOL    HW222368   3.135   3.821   1.410 -0.1748 -0.6893  2.8067
 3578SOL     OW22369   1.659   3.914   9.034 -0.4084  0.0047 -0.3230
 3578SOL    HW122370   1.579   3.954   9.000 -0.3758  0.5081  0.1820
 3578SOL    HW222371   1.629   3.919   9.125 -1.2032 -1.3568 -0.5092
 3579SOL     OW22372   3.814   3.312   7.811  0.0487  0.3651 -0.3990
 3579SOL    HW122373   3.828   3.220   7.790 -0.6545 -0.2865  1.9241
 3579SOL    HW222374   3.864   3.320   7.892 -0.7582  0.9114  0.0510
 3580SOL     OW22375   3.043   4.276   6.959  0.0891  0.2789  0.4327
 3580SOL    HW122376   3.036   4.317   7.045 -1.0405  0.2504  0.3527
 3580SOL    HW222377   3.133   4.243   6.972  0.0710  0.2313  0.4376
 3581SOL     OW22378   2.604   2.932   3.781  0.3371  0.4536  0.3796
 3581SOL    HW122379   2.557   2.897   3.857  2.3906 -2.0852  0.4865
 3581SOL    HW222380   2.564   3.019   3.782  1.1863  0.8647 -1.0016
 3582SOL     OW22381   3.318   1.222   3.352  0.8603  0.1331  0.2977
 3582SOL    HW122382   3.332   1.294   3.291 -1.9453 -0.1250 -0.6552
 3582SOL    HW222383   3.338   1.149   3.293  0.2713 -0.5205  0.9050
 3583SOL     OW22384   0.613   4.543   6.470  0.2494  0.0179 -0.7355
 3583SOL    HW122385   0.662   4.616   6.432  0.8121 -0.1669 -0.3728
 3583SOL    HW222386   0.621   4.556   6.564  0.5536 -0.5506 -0.6774
 3584SOL     OW22387   3.534   2.044  16.080 -0.4246 -0.0978 -0.0937
 3584SOL    HW122388   3.589   2.052  16.158  1.2519  0.3196 -1.3124
 3584SOL    HW222389   3.529   2.136  16.054  2.0679  0.3181  0.8575
 3585SOL     OW22390   1.788   1.292   9.937 -0.1109  0.2426 -0.6448
 3585SOL    HW122391   1.709   1.320   9.892  0.4766  0.2326 -1.6869
 3585SOL    HW222392   1.804   1.205   9.901 -0.4552  0.5078 -1.4486
 3586SOL     OW22393   4.339   3.296   7.988 -0.4445 -0.1846  0.2141
 3586SOL    HW122394   4.418   3.269   7.941 -1.1897 -0.3531 -0.9696
 3586SOL    HW222395   4.365   3.357   8.057 -2.6500 -1.3242  2.0272
 3587SOL     OW22396   4.372   0.154   3.217  0.3146  0.1583  0.1722
 3587SOL    HW122397   4.401   0.063   3.207  0.7362  0.0856  1.9903
 3587SOL    HW222398   4.339   0.172   3.129 -0.1881 -0.2124  0.2817
 3588SOL     OW22399   4.433   3.570  14.910 -0.4023 -0.2673 -0.1696
 3588SOL    HW122400   4.456   3.650  14.957  2.0204 -0.8894 -0.2895
 3588SOL    HW222401   4.356   3.542  14.959  0.0265 -0.8083  0.2008
 3589SOL     OW22402   3.697   0.483  11.321 -0.1207  0.6286 -0.0431
 3589SOL    HW122403   3.682   0.473  11.227 -0.6541 -0.1366  0.1244
 3589SOL    HW222404   3.670   0.574  11.336 -1.2814  0.0205  1.6030
 3590SOL     OW22405   4.190   0.797  16.703  0.3593  0.2310 -0.7739
 3590SOL    HW122406   4.209   0.726  16.642 -1.8814 -1.8889  1.0363
 3590SOL    HW222407   4.111   0.835  16.665 -0.1935 -2.6072 -2.4095
 3591SOL     OW22408   4.461   0.734   6.394 -0.2141  0.0348  0.1812
 3591SOL    HW122409   4.487   0.673   6.325 -1.4029 -1.7940  1.3492
 3591SOL    HW222410   4.391   0.677   6.427 -0.2936  0.3058  0.4823
 3592SOL     OW22411   1.646   1.564   8.515 -0.6579 -0.6674  0.0026
 3592SOL    HW122412   1.565   1.536   8.558  0.1307 -1.4393  0.9880
 3592SOL    HW222413   1.696   1.510   8.576 -0.0493 -1.6911 -1.4265
 3593SOL     OW22414   1.548   3.621   2.207  0.4993  0.5180  0.5212
 3593SOL    HW122415   1.524   3.592   2.119  1.5364  1.0554  0.0738
 3593SOL    HW222416   1.576   3.541   2.252 -1.5188 -0.0908  0.6891
 3594SOL     OW22417   2.172   3.875   6.889  0.0832 -0.6613 -0.1744
 3594SOL    HW122418   2.198   3.901   6.800 -3.2269  2.9452 -0.1054
 3594SOL    HW222419   2.249   3.852   6.940  0.9622 -1.5895 -1.9172
 3595SOL     OW22420   1.565   0.931   2.713 -0.2310 -0.3723 -0.6159
 3595SOL    HW122421   1.618   0.976   2.648  0.2953 -0.7431 -0.4440
 3595SOL    HW222422   1.567   0.996   2.783 -0.3787 -0.9799 -0.0447
 3596SOL     OW22423   0.553   2.976   3.130 -0.1125 -0.0820  0.1695
 3596SOL    HW122424   0.647   2.980   3.112  0.3154 -0.0653  2.3811
 3596SOL    HW222425   0.510   3.032   3.066 -0.8409  1.1718  1.7740
 3597SOL     OW22426   3.212   2.870   6.439  0.2092  0.2012  0.0482
 3597SOL    HW122427   3.244   2.854   6.350  0.4396  0.5673  0.0672
 3597SOL    HW222428   3.270   2.819   6.495 -2.0523  1.5478  3.6004
 3598SOL     OW22429   3.393   0.627   4.129 -0.9356  0.0166  0.2598
 3598SOL    HW122430   3.342   0.694   4.084  2.4059  2.5933  0.2734
 3598SOL    HW222431   3.336   0.621   4.206  0.5774  0.2336  1.3929
 3599SOL     OW22432   1.015   3.168   2.334  0.3218 -0.0441  0.3515
 3599SOL    HW122433   1.023   3.083   2.291 -1.4917 -0.5274  1.0076
 3599SOL    HW222434   1.057   3.224   2.268 -0.5042 -1.4995 -1.4076
 3600SOL     OW22435   3.527   0.499   2.154 -0.4871 -0.0518  0.3432
 3600SOL    HW122436   3.529   0.540   2.240  1.2945 -0.2460  0.4067
 3600SOL    HW222437   3.490   0.570   2.101  0.3223  0.4505  0.4379
 3601SOL     OW22438   2.539   2.594   2.636 -0.3010 -0.6320 -0.1359
 3601SOL    HW122439   2.476   2.642   2.690 -0.2332 -2.2332  1.3287
 3601SOL    HW222440   2.474   2.554   2.578 -0.0342 -1.7874  0.3825
 3602SOL     OW22441   1.163   0.505  10.112  0.0585  0.1847  0.0270
 3602SOL    HW122442   1.163   0.430  10.171 -3.8246  1.0948  1.1437
 3602SOL    HW222443   1.171   0.460  10.028 -2.0348 -3.1218  1.6117
 3603SOL     OW22444   3.027   1.960   8.664  0.3866 -0.1865 -0.1016
 3603SOL    HW122445   3.043   2.019   8.738  0.7099 -1.6366  0.9908
 3603SOL    HW222446   3.116   1.939   8.637  1.0479  1.3999  0.8598
 3604SOL     OW22447   0.450   4.238   0.545 -0.1114  0.5788 -0.9593
 3604SOL    HW122448   0.397   4.159   0.551 -0.9999  1.2454  0.0652
 3604SOL    HW222449   0.536   4.205   0.519 -0.9324 -0.2727 -2.5875
 3605SOL     OW22450   4.300   1.886   5.667 -0.0089  0.6141 -0.0217
 3605SOL    HW122451   4.287   1.962   5.610  1.7414  1.3402  0.5607
 3605SOL    HW222452   4.209   1.858   5.682 -0.0978 -0.3032 -2.3257
 3606SOL     OW22453   2.312   3.257  16.418  0.0014 -0.7782  0.6904
 3606SOL    HW122454   2.406   3.239  16.415  0.2177  0.4940  0.0795
 3606SOL    HW222455   2.308   3.324  16.351 -0.0262 -0.9740  0.4974
 3607SOL     OW22456   0.023   2.379   4.946 -0.1642 -0.1876  0.1057
 3607SOL    HW122457   4.704   2.315   4.986 -2.3426  1.3937 -0.5824
 3607SOL    HW222458   0.089   2.380   5.015 -2.1989  2.5592  2.0461
 3608SOL     OW22459   0.621   2.476   7.988 -0.0484  0.0313  0.0915
 3608SOL    HW122460   0.570   2.408   8.031  1.7472 -2.7535 -2.2485
 3608SOL    HW222461   0.707   2.436   7.983  0.1996  0.4323  1.1319
 3609SOL     OW22462   2.830   1.944  16.334 -0.2734 -0.1623 -0.3743
 3609SOL    HW122463   2.853   1.975  16.422 -0.8971  4.1013 -1.6907
 3609SOL    HW222464   2.843   2.024  16.283 -0.0750 -0.4942 -0.8381
 3610SOL     OW22465   0.403   2.594  12.048  0.1186 -0.7764 -0.2813
 3610SOL    HW122466   0.351   2.540  11.987 -3.1836 -2.9083  4.3737
 3610SOL    HW222467   0.469   2.635  11.993  1.2833  0.1006  1.8035
 3611SOL     OW22468   1.097   1.549   6.236  0.5503  0.0050 -0.2663
 3611SOL    HW122469   1.032   1.492   6.278  1.8489 -0.6204  0.8932
 3611SOL    HW222470   1.166   1.487   6.262 -0.2202 -0.6458  0.2019
 3612SOL     OW22471   3.324   4.532   5.982  0.8446 -0.5753 -0.2444
 3612SOL    HW122472   3.267   4.473   5.932  2.3551 -2.3629  0.1643
 3612SOL    HW222473   3.283   4.541   6.068  1.3369  0.6244 -0.1300
 3613SOL     OW22474   1.716   1.656  12.142  0.2538 -0.0821 -0.2505
 3613SOL    HW122475   1.749   1.675  12.230 -1.5074 -2.7950  1.0064
 3613SOL    HW222476   1.795   1.613  12.109 -0.6608 -1.1497 -1.0546
 3614SOL     OW22477   0.713   1.565   6.303 -0.1132 -0.4103  0.4375
 3614SOL    HW122478   0.717   1.660   6.314  2.6070 -0.3486 -1.1105
 3614SOL    HW222479   0.644   1.565   6.237  0.8926 -2.4498 -0.6168
 3615SOL     OW22480   2.803   0.317   8.663  0.2802  0.2681  0.4517
 3615SOL    HW122481   2.851   0.385   8.711  3.0295 -1.9107  0.8568
 3615SOL    HW222482   2.818   0.241   8.720  1.5173 -1.9204 -2.8147
 3616SOL     OW22483   4.537   1.575   8.067  0.2129 -0.0938  0.1801
 3616SOL    HW122484   4.504   1.535   7.987 -0.0963  0.3597  0.0747
 3616SOL    HW222485   4.603   1.637   8.035 -0.2017  1.3703  2.1486
 3617SOL     OW22486   1.693   4.263   1.608  0.4049 -0.0683 -0.0529
 3617SOL    HW122487   1.600   4.270   1.585  0.8647  0.1106 -1.8668
 3617SOL    HW222488   1.715   4.351   1.639 -2.1006  0.8370 -0.8387
 3618SOL     OW22489   0.713   1.840   7.484 -0.0721 -0.5805  0.3831
 3618SOL    HW122490   0.751   1.778   7.422  0.9205  0.7802 -0.3481
 3618SOL    HW222491   0.788   1.896   7.502  0.2723 -1.2372  0.9972
 3619SOL     OW22492   4.164   2.369  10.431 -0.6287 -0.1328 -0.0856
 3619SOL    HW122493   4.135   2.389  10.342  1.5504 -0.6539 -0.9270
 3619SOL    HW222494   4.258   2.349  10.438 -0.7988 -1.0829 -0.5149
 3620SOL     OW22495   1.493   2.139   8.910  0.5571 -0.1148 -0.1344
 3620SOL    HW122496   1.476   2.209   8.973 -0.2076 -1.6770  1.3886
 3620SOL    HW222497   1.437   2.074   8.954  1.2390 -0.2844  0.4781
 3621SOL     OW22498   1.098   2.035   8.166  0.4083  0.5822  0.1455
 3621SOL    HW122499   1.178   1.993   8.197  0.4800 -0.2535 -1.1526
 3621SOL    HW222500   1.024   1.975   8.176  0.6960  0.5909  2.3320
 3622SOL     OW22501   0.602   0.916   1.017 -0.6175  0.2667  0.1546
 3622SOL    HW122502   0.558   0.880   1.094 -0.7394 -0.6220 -0.3276
 3622SOL    HW222503   0.692   0.927   1.049 -0.0465  0.1314 -1.4164
 3623SOL     OW22504   3.085   3.649  16.580 -0.5148  0.2851 -0.2452
 3623SOL    HW122505   3.159   3.616  16.529 -0.0919  1.5426 -0.4572
 3623SOL    HW222506   3.121   3.674  16.666  0.0518 -3.6611  0.6461
 3624SOL     OW22507   2.825   4.255   2.035 -0.0408  0.7331 -0.5780
 3624SOL    HW122508   2.861   4.339   2.005  1.3128 -0.2302 -1.6418
 3624SOL    HW222509   2.782   4.215   1.960  0.3648 -3.4283  1.4179
 3625SOL     OW22510   1.032   4.005   6.841  0.5050 -0.2639 -0.1382
 3625SOL    HW122511   1.108   4.030   6.789 -1.0779 -0.1582 -2.4053
 3625SOL    HW222512   1.043   4.046   6.927 -0.5611  1.8432 -1.0007
 3626SOL     OW22513   1.213   3.159   1.588  0.5201 -0.3188 -0.2730
 3626SOL    HW122514   1.234   3.247   1.617 -1.7284  0.6117 -1.4191
 3626SOL    HW222515   1.275   3.106   1.638  1.0078 -0.7969 -1.3634
 3627SOL     OW22516   2.075   1.725   4.945 -0.1543  0.1486 -0.1472
 3627SOL    HW122517   2.157   1.700   4.987 -0.0152 -0.7571 -0.9786
 3627SOL    HW222518   2.094   1.812   4.911  0.0063  0.5352  0.9374
 3628SOL     OW22519   4.651   0.535   5.102  0.3906  0.9621  0.5692
 3628SOL    HW122520   4.555   0.543   5.099  0.3480  0.0383 -0.3695
 3628SOL    HW222521   4.669   0.466   5.165 -0.1640  1.7750  1.6048
 3629SOL     OW22522   3.478   4.466  14.122 -0.1624 -0.4095 -0.1483
 3629SOL    HW122523   3.407   4.491  14.063 -1.3444 -0.5048  1.2438
 3629SOL    HW222524   3.552   4.456  14.062 -1.6728  4.8449 -2.8681
 3630SOL     OW22525   0.345   0.996   1.422  0.6890 -0.6753 -0.6897
 3630SOL    HW122526   0.262   1.021   1.464  0.2450 -0.2321 -1.8475
 3630SOL    HW222527   0.314   0.994   1.331 -0.5573  1.2615 -0.3142
 3631SOL     OW22528   1.412   3.002   6.246  0.0112 -0.2968  0.4220
 3631SOL    HW122529   1.356   3.064   6.200 -1.4211 -2.2951 -0.4923
 3631SOL    HW222530   1.464   3.060   6.303 -1.0262  0.9288  0.1183
 3632SOL     OW22531   3.649   1.948   3.459  0.5659 -0.0541  0.0144
 3632SOL    HW122532   3.649   2.030   3.509 -0.5312  0.0052 -0.0951
 3632SOL    HW222533   3.555   1.934   3.448  0.4634  0.4552  0.2611
 3633SOL     OW22534   0.935   1.501  12.283  0.2336  0.5980  0.2581
 3633SOL    HW122535   0.908   1.485  12.373 -1.2113  1.4097 -0.0250
 3633SOL    HW222536   0.979   1.422  12.253  0.3006  0.4039  0.8698
 3634SOL     OW22537   1.415   3.548   4.899  0.6712 -0.4190 -0.2751
 3634SOL    HW122538   1.502   3.537   4.937 -0.0008 -2.0495  0.7696
 3634SOL    HW222539   1.411   3.641   4.923 -1.5274 -0.6426  0.1940
 3635SOL     OW22540   0.370   3.683   3.687 -0.2174 -0.5085 -0.0338
 3635SOL    HW122541   0.441   3.723   3.637 -0.5457  1.2413  0.9238
 3635SOL    HW222542   0.307   3.750   3.711  0.2222  0.8848 -2.8067
 3636SOL     OW22543   0.837   1.027   4.745  0.4630  0.0490  0.1705
 3636SOL    HW122544   0.752   0.988   4.763 -0.3790  1.2684 -1.1705
 3636SOL    HW222545   0.850   1.080   4.823 -1.5838 -2.0683  1.9213
 3637SOL     OW22546   2.823   2.442   1.093  0.1559 -0.4363 -0.3699
 3637SOL    HW122547   2.848   2.534   1.080  0.6992 -0.4728  0.4156
 3637SOL    HW222548   2.738   2.450   1.137 -1.1255  0.9573 -3.1141
 3638SOL     OW22549   0.693   1.722   2.257 -0.2449 -0.6323 -0.3155
 3638SOL    HW122550   0.659   1.810   2.239  1.0242  0.0081  0.3946
 3638SOL    HW222551   0.617   1.674   2.289  0.4863 -0.4738  1.6961
 3639SOL     OW22552   3.710   3.112   8.085  0.8868 -0.2517 -0.6415
 3639SOL    HW122553   3.774   3.183   8.078 -0.3267  1.0163  1.3717
 3639SOL    HW222554   3.736   3.051   8.154 -0.7682  0.1946  0.3708
 3640SOL     OW22555   2.649   2.340   6.907 -0.2702 -0.4111 -0.3751
 3640SOL    HW122556   2.688   2.267   6.859 -2.0477 -0.3621 -1.8847
 3640SOL    HW222557   2.597   2.399   6.852  2.1650  0.8480 -1.3453
 3641SOL     OW22558   0.190   1.401   8.104  0.2971 -0.0797  0.3815
 3641SOL    HW122559   0.215   1.416   8.013  0.3648 -0.8822  0.2647
 3641SOL    HW222560   0.204   1.488   8.141 -0.9221 -0.4773  1.8125
 3642SOL     OW22561   0.095   2.080   1.820 -0.2482 -0.1630 -0.3197
 3642SOL    HW122562   0.065   1.997   1.782  0.6346 -1.3680  1.6077
 3642SOL    HW222563   0.154   2.059   1.892 -0.2051  0.7781 -0.0770
 3643SOL     OW22564   1.012   1.698   2.568  0.0152  0.6683 -0.4679
 3643SOL    HW122565   0.957   1.638   2.517  1.6321 -0.1505 -1.2590
 3643SOL    HW222566   1.065   1.739   2.500  1.5733  2.2548  1.7062
 3644SOL     OW22567   3.474   4.460  17.042  0.2004 -0.0078 -0.5177
 3644SOL    HW122568   3.548   4.494  17.092  0.7827 -0.2728 -1.2008
 3644SOL    HW222569   3.425   4.536  17.012  0.4104 -0.8435 -2.9785
 3645SOL     OW22570   2.500   2.279   7.131 -0.6060 -0.5124  0.2266
 3645SOL    HW122571   2.549   2.294   7.050 -1.0094  0.7261  0.2255
 3645SOL    HW222572   2.461   2.194   7.109 -0.0520 -0.1804 -2.0329
 3646SOL     OW22573   0.433   0.222   6.600  0.2272 -0.0602 -0.3043
 3646SOL    HW122574   0.504   0.166   6.632  0.0833  0.0591  0.2245
 3646SOL    HW222575   0.489   0.286   6.554 -0.5781 -0.0147 -1.2123
 3647SOL     OW22576   1.541   3.413   3.635 -0.7160 -0.0711  0.1855
 3647SOL    HW122577   1.452   3.387   3.659 -0.5366 -0.4110  0.4929
 3647SOL    HW222578   1.590   3.437   3.714 -1.9421 -0.4416  1.0410
 3648SOL     OW22579   1.096   4.514   5.205  0.0264  0.5127 -0.4155
 3648SOL    HW122580   1.183   4.476   5.195  0.1625  0.7275 -0.0106
 3648SOL    HW222581   1.082   4.557   5.120 -0.3149 -0.4230 -0.8421
 3649SOL     OW22582   0.402   3.750  17.199 -0.4480  0.2085  0.2765
 3649SOL    HW122583   0.465   3.686  17.232 -0.3759 -0.8146 -1.8593
 3649SOL    HW222584   0.401   3.728  17.106  0.5376  1.5855 -0.0552
 3650SOL     OW22585   3.997   3.469   4.866  0.1464  0.1858  0.0436
 3650SOL    HW122586   3.940   3.422   4.926  0.1076  1.3270  0.8887
 3650SOL    HW222587   3.963   3.557   4.883  0.9018  0.4076  0.4332
 3651SOL     OW22588   2.671   4.596   7.198 -0.4607 -0.2693  0.1970
 3651SOL    HW122589   2.684   4.690   7.186 -0.0844  0.1654  3.8231
 3651SOL    HW222590   2.670   4.571   7.106  1.1489  0.5326 -0.0483
 3652SOL     OW22591   3.357   3.771   1.233  0.0810  0.1461 -0.1609
 3652SOL    HW122592   3.388   3.784   1.323 -2.4508  2.0840  0.4139
 3652SOL    HW222593   3.267   3.745   1.251  0.9203 -2.7660 -0.1935
 3653SOL     OW22594   1.429   0.520   7.941 -0.1299 -0.0008  0.8261
 3653SOL    HW122595   1.482   0.440   7.932  0.4235  0.5026 -0.4196
 3653SOL    HW222596   1.350   0.474   7.970 -1.3584 -0.8582 -3.7402
 3654SOL     OW22597   2.349   1.734   6.184  0.0408  0.3768 -0.3977
 3654SOL    HW122598   2.356   1.823   6.219  1.7179  0.3031 -0.5683
 3654SOL    HW222599   2.284   1.749   6.116  0.2364 -0.3262 -0.7454
 3655SOL     OW22600   1.501   3.111   6.480  0.0452  0.2469 -0.2751
 3655SOL    HW122601   1.543   3.141   6.561  1.1857 -1.7007 -0.1698
 3655SOL    HW222602   1.425   3.167   6.497  0.0891  0.1198  0.3556
 3656SOL     OW22603   2.106   2.655  15.905  0.1287  0.0419 -0.4553
 3656SOL    HW122604   2.150   2.648  15.990  1.7874 -3.4840 -1.6100
 3656SOL    HW222605   2.052   2.577  15.906  1.3208 -0.8008 -1.2617
 3657SOL     OW22606   1.194   4.138   3.431  0.0021  0.5630 -0.1292
 3657SOL    HW122607   1.137   4.131   3.508  1.1362 -1.6108  0.5215
 3657SOL    HW222608   1.220   4.230   3.432 -0.6977  0.7615 -0.5695
 3658SOL     OW22609   3.178   0.540   6.483 -0.4502 -0.3759  0.2149
 3658SOL    HW122610   3.140   0.463   6.524 -1.0060 -1.4081 -2.2286
 3658SOL    HW222611   3.198   0.596   6.558 -0.6979  1.2751 -0.9353
 3659SOL     OW22612   1.879   2.259  10.617 -0.2682 -0.2153 -0.1871
 3659SOL    HW122613   1.892   2.350  10.641 -0.6487  0.1347 -1.3465
 3659SOL    HW222614   1.873   2.213  10.701 -0.1035 -1.1207 -0.6620
 3660SOL     OW22615   1.213   2.522  17.334  0.1333  0.1547  0.0881
 3660SOL    HW122616   1.129   2.487  17.361  0.9025 -1.5340  0.2957
 3660SOL    HW222617   1.275   2.458  17.369 -1.1881 -0.6747  0.9025
 3661SOL     OW22618   4.547   0.041  12.566 -0.1798 -0.7483  0.0207
 3661SOL    HW122619   4.568   0.120  12.616 -0.0904 -0.9360  0.2764
 3661SOL    HW222620   4.586   0.062  12.481 -1.4954  0.1642 -0.3632
 3662SOL     OW22621   1.425   2.953  17.661  0.8626 -0.9615  0.7252
 3662SOL    HW122622   1.353   2.921  17.607 -0.4825  1.8371  0.8633
 3662SOL    HW222623   1.415   2.887  17.730 -0.2090 -0.6727  0.8499
 3663SOL     OW22624   3.222   0.028   5.222  0.3623 -0.1280 -0.6921
 3663SOL    HW122625   3.270   0.093   5.274 -0.6535 -1.1075  1.4921
 3663SOL    HW222626   3.268   0.038   5.139  2.0307  0.4455  0.2949
 3664SOL     OW22627   0.347   2.563   2.309 -0.1264  0.7937  0.1298
 3664SOL    HW122628   0.364   2.657   2.306  0.4009  0.6854 -0.3402
 3664SOL    HW222629   0.414   2.537   2.372  2.0379  0.8345 -2.1259
 3665SOL     OW22630   2.499   3.179   3.750  0.5844  0.3426  0.0188
 3665SOL    HW122631   2.427   3.185   3.686  2.3909 -0.7515 -2.1294
 3665SOL    HW222632   2.534   3.268   3.750 -1.6621  1.2422 -1.4344
 3666SOL     OW22633   2.510   4.065   5.719 -0.4309 -0.1858  0.2306
 3666SOL    HW122634   2.563   4.143   5.735  0.9743 -0.8726 -1.0272
 3666SOL    HW222635   2.432   4.082   5.772  0.3679  0.9589  1.0319
 3667SOL     OW22636   2.089   3.035   4.027  0.3534  0.3885  0.6144
 3667SOL    HW122637   2.098   3.003   4.117  0.5903  0.6382  0.6804
 3667SOL    HW222638   2.169   3.084   4.008  1.7315 -2.3375 -0.6642
 3668SOL     OW22639   3.269   0.041   4.305  0.4296 -0.3692 -0.1820
 3668SOL    HW122640   3.265   0.129   4.344  0.2002 -2.1557  3.8105
 3668SOL    HW222641   3.179   0.021   4.280 -0.4422  2.4202  0.6932
 3669SOL     OW22642   2.992   3.619   9.552  0.1725 -0.0815 -0.5246
 3669SOL    HW122643   2.915   3.674   9.559 -1.9908 -3.3498  1.3580
 3669SOL    HW222644   3.069   3.676   9.548  0.5651 -0.3722  2.8834
 3670SOL     OW22645   2.012   0.087   0.603 -0.8984  0.1036  0.0006
 3670SOL    HW122646   1.974   0.076   0.516 -1.5811  1.1130  0.1744
 3670SOL    HW222647   1.991   0.178   0.625  1.1354  0.2589  1.3284
 3671SOL     OW22648   4.121   1.956  12.097 -0.0412  0.3475  0.7636
 3671SOL    HW122649   4.101   2.048  12.117 -2.9956 -0.4658  1.5566
 3671SOL    HW222650   4.213   1.955  12.124  0.9886  1.5126 -2.6898
 3672SOL     OW22651   0.309   4.278  14.114 -0.3441  0.4684 -0.2279
 3672SOL    HW122652   0.367   4.351  14.094 -0.4577  1.3741  2.7129
 3672SOL    HW222653   0.227   4.314  14.080 -1.4332 -1.8617 -0.0716
 3673SOL     OW22654   2.440   0.584   7.392  0.2499 -0.2332  0.1744
 3673SOL    HW122655   2.474   0.534   7.467 -2.6514  0.2117  1.8062
 3673SOL    HW222656   2.393   0.660   7.428 -2.0787 -1.2789 -0.6152
 3674SOL     OW22657   0.597   1.034  17.427  0.4961  0.1630 -0.0192
 3674SOL    HW122658   0.559   0.955  17.464 -0.1704  1.1942  1.4865
 3674SOL    HW222659   0.519   1.066  17.381  0.2491  1.7475  1.5230
 3675SOL     OW22660   2.494   4.602   1.428 -0.6145  0.9089  0.1454
 3675SOL    HW122661   2.472   4.625   1.337 -1.2297 -1.6934 -0.3632
 3675SOL    HW222662   2.412   4.572   1.466 -0.6690 -0.4197 -1.0156
 3676SOL     OW22663   2.707   0.696   3.561 -0.3368 -0.1366 -0.2927
 3676SOL    HW122664   2.645   0.736   3.621  0.3480  1.6939 -0.7996
 3676SOL    HW222665   2.653   0.624   3.528  0.0369 -0.2180 -0.7364
 3677SOL     OW22666   4.372   2.536   7.841 -0.4938  0.5314  0.6063
 3677SOL    HW122667   4.373   2.546   7.746  2.2722 -2.5178  0.2944
 3677SOL    HW222668   4.281   2.552   7.863 -0.4953  2.7457 -0.8993
 3678SOL     OW22669   3.824   2.050   7.559 -0.3632 -1.0944  0.2140
 3678SOL    HW122670   3.880   2.125   7.577  1.1874 -1.5976 -2.5040
 3678SOL    HW222671   3.849   1.979   7.619  0.4177 -0.3473  0.7639
 3679SOL     OW22672   2.811   1.695   4.485  0.2296  0.2111 -0.4774
 3679SOL    HW122673   2.867   1.628   4.445 -1.4480 -1.1760 -0.4818
 3679SOL    HW222674   2.866   1.774   4.490  0.7723 -0.1029 -1.3387
 3680SOL     OW22675   3.369   4.283  12.449  0.0080  0.4942 -0.6974
 3680SOL    HW122676   3.316   4.362  12.456  1.6543  1.6668 -1.4822
 3680SOL    HW222677   3.322   4.239  12.378 -2.6872 -1.3321  2.2366
 3681SOL     OW22678   3.982   3.522   5.511  0.2540 -0.2304 -0.0503
 3681SOL    HW122679   3.962   3.429   5.521  2.3068 -0.8025 -1.3568
 3681SOL    HW222680   4.056   3.521   5.450 -0.3222  2.6938 -0.8247
 3682SOL     OW22681   0.061   2.019   2.500  0.2365  0.3040  0.5903
 3682SOL    HW122682   4.735   2.050   2.562 -0.9996 -0.1467 -0.4986
 3682SOL    HW222683   0.085   1.935   2.540  0.0320  0.1593  0.4104
 3683SOL     OW22684   0.900   0.799   2.044 -0.1734  0.2220  0.6810
 3683SOL    HW122685   0.980   0.749   2.026 -0.8665 -0.3734 -0.7570
 3683SOL    HW222686   0.852   0.733   2.094 -0.0869 -1.7356 -1.7894
 3684SOL     OW22687   0.220   0.967   0.583 -0.2499 -0.3606 -0.0979
 3684SOL    HW122688   0.153   0.976   0.516  0.7673  1.5763 -0.8596
 3684SOL    HW222689   0.291   1.011   0.537  0.3845 -0.3436  0.8778
 3685SOL     OW22690   3.868   0.497   9.195 -0.3437 -0.0326  0.4950
 3685SOL    HW122691   3.914   0.457   9.268 -0.3197 -2.6697 -0.9674
 3685SOL    HW222692   3.878   0.590   9.214  1.1357  0.2874 -1.8939
 3686SOL     OW22693   4.496   2.073   2.205 -0.5454  0.1564  0.0262
 3686SOL    HW122694   4.455   2.072   2.119 -3.2317  0.7574  1.3001
 3686SOL    HW222695   4.500   1.978   2.216  0.5851  0.0633 -1.2122
 3687SOL     OW22696   3.153   2.820   9.677 -0.0529 -0.0372  0.4612
 3687SOL    HW122697   3.235   2.837   9.630 -1.1144  0.8898 -1.0547
 3687SOL    HW222698   3.177   2.857   9.762  0.0019 -0.3078  0.5636
 3688SOL     OW22699   2.586   1.005   4.505  0.0270 -0.2669  0.0528
 3688SOL    HW122700   2.586   1.048   4.591  0.7722 -1.2935  0.5710
 3688SOL    HW222701   2.508   1.042   4.464 -0.0508  1.0610  1.4111
 3689SOL     OW22702   2.955   1.432   8.782  0.2507 -0.0645  0.0171
 3689SOL    HW122703   2.875   1.484   8.792  0.4538  0.4427 -0.9210
 3689SOL    HW222704   2.915   1.348   8.760 -2.4358  1.6831 -1.8279
 3690SOL     OW22705   2.954   3.907   1.627  0.2721 -0.3886  0.4699
 3690SOL    HW122706   2.883   3.968   1.605  1.1399  0.1804 -0.7272
 3690SOL    HW222707   2.906   3.829   1.655  0.8749 -1.5330 -1.7291
 3691SOL     OW22708   1.735   2.870   0.055 -0.9059 -0.4650 -0.1490
 3691SOL    HW122709   1.776   2.802   0.110 -0.0210  1.0324  1.0256
 3691SOL    HW222710   1.650   2.827   0.067 -1.0276 -0.0840  0.3506
 3692SOL     OW22711   4.411   3.551  12.741 -0.0232 -0.2385 -0.5046
 3692SOL    HW122712   4.457   3.624  12.782  0.2575 -2.8977  3.9046
 3692SOL    HW222713   4.321   3.563  12.772 -0.1248 -0.5939 -0.6576
 3693SOL     OW22714   0.714   0.747   8.109 -0.6526 -0.1821  0.4301
 3693SOL    HW122715   0.668   0.751   8.193  1.4259  0.5798  1.5069
 3693SOL    HW222716   0.691   0.656   8.085 -2.7784  0.0368  1.6207
 3694SOL     OW22717   3.365   0.153   3.136  0.5283  0.2049 -0.2902
 3694SOL    HW122718   3.281   0.173   3.177  0.8026 -1.2151  0.9737
 3694SOL    HW222719   3.432   0.186   3.196  0.1718 -0.4331  0.4562
 3695SOL     OW22720   1.074   0.674  15.850 -0.3783  0.2126 -0.0121
 3695SOL    HW122721   1.075   0.733  15.774  0.8076  1.0955  0.6932
 3695SOL    HW222722   0.986   0.691  15.884 -0.4925 -0.1653 -0.1181
 3696SOL     OW22723   1.158   3.260   5.483 -0.4793 -0.1913  0.3147
 3696SOL    HW122724   1.118   3.213   5.410  2.2847 -0.6715 -0.8788
 3696SOL    HW222725   1.225   3.196   5.506  1.2666  2.1885  1.9930
 3697SOL     OW22726   0.043   1.874   4.018 -0.0354 -0.1676 -0.3573
 3697SOL    HW122727   0.069   1.964   4.000 -2.4301  0.9434  1.7265
 3697SOL    HW222728   4.723   1.881   4.092  1.8106 -0.8363  1.1814
 3698SOL     OW22729   4.339   1.612  16.469 -0.3187  0.3015 -0.2231
 3698SOL    HW122730   4.268   1.629  16.530 -0.8605  1.5837 -1.2270
 3698SOL    HW222731   4.314   1.675  16.401  1.7622  1.7720  0.3672
 3699SOL     OW22732   1.527   1.215   2.966 -0.2186  0.6235  0.3568
 3699SOL    HW122733   1.449   1.258   2.931  0.7300  2.0039 -0.0612
 3699SOL    HW222734   1.569   1.198   2.882  0.9516  1.4948  0.7707
 3700SOL     OW22735   0.423   3.156   1.984  0.5840 -0.2464  0.4312
 3700SOL    HW122736   0.356   3.225   1.986  0.9917  0.1307  1.0557
 3700SOL    HW222737   0.495   3.195   1.935  1.9053 -1.8956  1.0677
 3701SOL     OW22738   1.811   0.857  13.284 -0.4188  0.4010  0.4370
 3701SOL    HW122739   1.816   0.945  13.247 -0.1915 -0.0329 -0.5954
 3701SOL    HW222740   1.804   0.811  13.200 -0.3055 -1.0961  1.2480
 3702SOL     OW22741   4.239   2.652  10.179 -0.6166 -0.2214  0.0075
 3702SOL    HW122742   4.170   2.586  10.185 -0.4342 -0.2867  1.3066
 3702SOL    HW222743   4.192   2.734  10.168  2.5675  1.5628 -0.3787
 3703SOL     OW22744   0.029   1.142   8.304 -0.3280 -0.4529  0.0625
 3703SOL    HW122745   4.739   1.144   8.395 -0.6408 -0.7358 -0.0343
 3703SOL    HW222746   4.707   1.193   8.252  1.5949  1.8053 -0.0293
 3704SOL     OW22747   2.911   0.426   8.082  0.5448 -0.2456  0.0228
 3704SOL    HW122748   2.954   0.397   8.163  3.6407  3.6121 -0.2243
 3704SOL    HW222749   2.857   0.349   8.061  0.9494 -0.6704  0.5360
 3705SOL     OW22750   1.864   0.986  11.099 -0.1478  0.7601 -0.3663
 3705SOL    HW122751   1.880   0.901  11.141  0.6949  1.8522  1.5383
 3705SOL    HW222752   1.776   0.980  11.064 -0.3375  2.7949 -0.2701
 3706SOL     OW22753   3.228   3.431  17.374 -0.1416  0.6608 -0.5908
 3706SOL    HW122754   3.185   3.369  17.433 -0.5863  0.9340 -0.6260
 3706SOL    HW222755   3.255   3.370  17.305 -0.8113 -1.6810  1.2486
 3707SOL     OW22756   4.299   2.005  10.722  0.3474  0.2853 -1.1381
 3707SOL    HW122757   4.381   1.992  10.676  0.3750  0.5336 -1.1599
 3707SOL    HW222758   4.326   2.065  10.791  0.6927  0.3675 -1.3489
 3708SOL     OW22759   3.689   3.403   1.285 -0.5736 -0.0394  0.3119
 3708SOL    HW122760   3.670   3.483   1.237  0.0847  0.1382  0.3525
 3708SOL    HW222761   3.636   3.411   1.363 -0.1988 -0.7106  0.6401
 3709SOL     OW22762   0.782   0.312   1.069  0.8052  0.0093  0.5949
 3709SOL    HW122763   0.874   0.317   1.042  0.1297 -2.4595 -2.2805
 3709SOL    HW222764   0.742   0.358   0.995  3.2267  1.2871  0.0911
 3710SOL     OW22765   3.813   2.087   3.034  0.4904  0.3007 -0.1769
 3710SOL    HW122766   3.779   2.161   3.084  0.2210  0.3059 -0.3719
 3710SOL    HW222767   3.761   2.011   3.060  0.2828  0.4222 -0.2428
 3711SOL     OW22768   4.003   1.040   2.776 -0.2072  0.0823 -0.0557
 3711SOL    HW122769   3.959   1.124   2.760  0.8725  0.7581  0.4769
 3711SOL    HW222770   4.030   1.059   2.866  2.6142 -0.1134 -0.8816
 3712SOL     OW22771   0.979   3.437  17.757  0.0741  0.1520  0.0219
 3712SOL    HW122772   0.989   3.529   0.022 -1.4719 -0.0098  1.3502
 3712SOL    HW222773   0.895   3.437  17.711  1.2854  1.0297 -2.1885
 3713SOL     OW22774   2.176   0.794   2.272 -0.0806  0.3402 -0.0794
 3713SOL    HW122775   2.082   0.803   2.257  0.2185 -0.4308 -2.5746
 3713SOL    HW222776   2.213   0.781   2.184 -0.8167  0.3649 -0.3882
 3714SOL     OW22777   3.893   2.919   1.442 -0.6196 -0.1844 -0.4836
 3714SOL    HW122778   3.981   2.945   1.414 -0.7950 -0.4567 -1.3001
 3714SOL    HW222779   3.892   2.949   1.533 -2.8387 -2.6711  0.3006
 3715SOL     OW22780   3.364   2.308  12.566  0.3570  0.3083  0.3957
 3715SOL    HW122781   3.452   2.326  12.598  1.4072 -1.3685 -1.5566
 3715SOL    HW222782   3.379   2.278  12.477  2.5253 -0.4015  0.9965
 3716SOL     OW22783   2.953   3.061  14.592  0.0633  0.2688  0.3519
 3716SOL    HW122784   3.027   3.019  14.547 -1.3020 -0.9456 -0.7571
 3716SOL    HW222785   2.944   3.005  14.670  0.7738 -0.5397 -0.1475
 3717SOL     OW22786   2.216   2.741   9.561 -0.4493  0.0610 -0.1625
 3717SOL    HW122787   2.310   2.750   9.574  0.0045 -1.7879 -2.1747
 3717SOL    HW222788   2.214   2.645   9.563  0.9566  0.0646  1.5124
 3718SOL     OW22789   4.092   1.483   3.622 -0.4689 -0.1183 -0.2484
 3718SOL    HW122790   4.181   1.518   3.613 -0.6820  0.2562 -0.9255
 3718SOL    HW222791   4.069   1.552   3.684  1.8067  1.1296 -0.7614
 3719SOL     OW22792   2.230   4.492   1.510 -0.5749 -0.2971 -0.0630
 3719SOL    HW122793   2.178   4.459   1.436  0.5050 -0.8451 -0.5702
 3719SOL    HW222794   2.168   4.469   1.579 -2.3168 -1.4213 -1.9956
 3720SOL     OW22795   0.177   0.532   3.087  0.3124  0.0321 -0.6702
 3720SOL    HW122796   0.148   0.561   3.173 -0.1992 -0.4605 -0.6813
 3720SOL    HW222797   0.232   0.456   3.106 -0.4949 -0.8196 -1.7448
 3721SOL     OW22798   2.049   0.089   8.834  0.3556 -0.3009 -0.3069
 3721SOL    HW122799   2.005   0.115   8.753  1.7477  0.1400 -0.9330
 3721SOL    HW222800   2.133   0.070   8.791  1.1001  0.0916  0.9913
 3722SOL     OW22801   0.300   0.574   9.135  0.4011 -0.2869  0.1707
 3722SOL    HW122802   0.282   0.667   9.129 -1.0938 -0.6776 -1.1913
 3722SOL    HW222803   0.353   0.554   9.058  1.4312 -1.5892  1.1878
 3723SOL     OW22804   2.410   0.707   8.868 -0.7043  0.3778  0.7176
 3723SOL    HW122805   2.369   0.626   8.901 -2.2751  0.9533  0.1565
 3723SOL    HW222806   2.439   0.673   8.784 -1.2490  1.7946 -0.0434
 3724SOL     OW22807   2.267   4.590   3.790  0.0066  0.4377  0.0275
 3724SOL    HW122808   2.281   4.505   3.831 -2.1530 -0.0885 -0.3589
 3724SOL    HW222809   2.348   4.609   3.742 -1.5386  1.1259 -2.3155
 3725SOL     OW22810   0.061   2.139   7.683 -0.3468  0.2594  0.3669
 3725SOL    HW122811   0.147   2.098   7.673 -1.2509 -1.5607 -0.0711
 3725SOL    HW222812   0.082   2.232   7.688 -1.3218  0.5202 -0.3835
 3726SOL     OW22813   1.479   0.425   6.250  0.0002 -0.3487 -0.3836
 3726SOL    HW122814   1.469   0.337   6.212  0.1705 -0.4871 -0.1051
 3726SOL    HW222815   1.416   0.427   6.321 -0.1797 -0.0673 -0.5555
 3727SOL     OW22816   0.187   3.729   9.255  1.0262  0.6034  0.8396
 3727SOL    HW122817   0.223   3.706   9.340  0.7323 -0.3852  0.6963
 3727SOL    HW222818   0.229   3.666   9.197 -1.6317 -0.5503  0.1686
 3728SOL     OW22819   1.136   2.592  13.167  0.1383 -0.6870 -0.3699
 3728SOL    HW122820   1.089   2.643  13.232  0.3731  0.4771 -1.1159
 3728SOL    HW222821   1.128   2.507  13.210  0.8730 -1.4999 -1.8233
 3729SOL     OW22822   0.342   0.355   0.591 -0.1914 -0.2335  0.2883
 3729SOL    HW122823   0.298   0.363   0.507  0.0353  0.5892  0.2530
 3729SOL    HW222824   0.432   0.379   0.570 -1.4627  5.0796  1.0157
 3730SOL     OW22825   0.245   1.509  12.568 -0.9009  0.0672 -0.0448
 3730SOL    HW122826   0.216   1.587  12.521 -0.8116  0.5280  0.6614
 3730SOL    HW222827   0.174   1.446  12.583  0.5250 -1.1996  1.4756
 3731SOL     OW22828   3.478   2.503   5.712 -0.2199 -0.2874  0.5914
 3731SOL    HW122829   3.412   2.520   5.778  1.6602  3.0936  1.6200
 3731SOL    HW222830   3.503   2.591   5.683  0.4087 -0.3019  1.0924
 3732SOL     OW22831   3.320   0.746  10.831 -0.3870  0.2941  0.4020
 3732SOL    HW122832   3.322   0.794  10.914 -0.9833 -0.7901  1.0479
 3732SOL    HW222833   3.291   0.659  10.860  2.8257 -0.5192  1.2109
 3733SOL     OW22834   1.253   0.620   6.682  0.5412  0.0212  0.3474
 3733SOL    HW122835   1.298   0.624   6.767  4.2430  1.9674 -1.6837
 3733SOL    HW222836   1.182   0.679   6.706  2.3263  2.7164 -0.9186
 3734SOL     OW22837   4.010   3.697   2.631 -0.0932 -0.2579  0.2522
 3734SOL    HW122838   4.087   3.719   2.683 -0.4504  2.2311 -0.2315
 3734SOL    HW222839   3.991   3.785   2.599  0.7014 -0.6605 -1.3202
 3735SOL     OW22840   2.136   3.295  12.922  0.1428  0.4480  0.1248
 3735SOL    HW122841   2.182   3.302  12.838  0.4435 -3.4102 -0.0523
 3735SOL    HW222842   2.193   3.227  12.958 -0.1771  0.3646  0.4691
 3736SOL     OW22843   0.785   3.439  11.283  0.4063 -0.0612 -0.2688
 3736SOL    HW122844   0.810   3.494  11.209  0.1645 -0.8175 -0.9100
 3736SOL    HW222845   0.871   3.407  11.312  0.5286 -1.2775 -1.9660
 3737SOL     OW22846   4.449   2.487   9.049  0.5616 -0.3537  0.5154
 3737SOL    HW122847   4.465   2.534   9.130 -0.1829 -2.4750  1.9053
 3737SOL    HW222848   4.522   2.513   8.994 -0.3081  0.1952 -0.3947
 3738SOL     OW22849   4.414   3.264   1.206  0.2627  0.3778  0.3432
 3738SOL    HW122850   4.397   3.281   1.298 -0.4091  1.5855 -0.0125
 3738SOL    HW222851   4.327   3.242   1.173  0.3750 -0.0772  0.3374
 3739SOL     OW22852   2.855   1.655   5.006  0.9588  0.1262  0.0277
 3739SOL    HW122853   2.949   1.656   5.027  1.0333 -0.1139 -0.3079
 3739SOL    HW222854   2.844   1.747   4.982  0.1718  0.0345  0.0462
 3740SOL     OW22855   1.770   1.613   5.972  0.3718 -0.3248  0.0839
 3740SOL    HW122856   1.844   1.615   5.910  1.8885 -1.3710  1.8548
 3740SOL    HW222857   1.726   1.696   5.952 -2.2898 -1.6300  0.5451
 3741SOL     OW22858   0.394   0.818   1.931  0.0744  0.5547  0.3788
 3741SOL    HW122859   0.467   0.854   1.982  1.4112  1.3752 -2.1309
 3741SOL    HW222860   0.356   0.898   1.896  0.0352 -0.3916 -1.6955
 3742SOL     OW22861   0.213   3.354   9.579  0.1878  0.3962  0.9355
 3742SOL    HW122862   0.238   3.294   9.509 -0.7858 -0.9316  1.7362
 3742SOL    HW222863   0.241   3.437   9.540  0.4875 -0.5698 -0.9034
 3743SOL     OW22864   1.978   0.670   6.186 -0.2507  0.1870  0.2619
 3743SOL    HW122865   1.892   0.708   6.166 -0.7029 -0.1844  1.4938
 3743SOL    HW222866   2.020   0.667   6.100 -1.0838 -0.8632 -0.1237
 3744SOL     OW22867   3.414   4.518   3.604  0.3291  0.1640  0.1836
 3744SOL    HW122868   3.457   4.487   3.684  0.0443 -0.3026  0.1592
 3744SOL    HW222869   3.369   4.435   3.587  0.5561 -0.2563  1.5873
 3745SOL     OW22870   2.035   0.885   1.201 -0.1463  0.2408 -0.4297
 3745SOL    HW122871   1.949   0.911   1.232  0.9778  1.7212  1.4160
 3745SOL    HW222872   2.003   0.854   1.116 -1.6186 -1.2637  0.6794
 3746SOL     OW22873   2.517   0.782   5.757 -0.0487  0.3064 -0.5295
 3746SOL    HW122874   2.502   0.747   5.669 -2.3274 -1.3252  0.4900
 3746SOL    HW222875   2.611   0.783   5.771 -0.3233  1.6935  1.1936
 3747SOL     OW22876   2.063   0.558   3.441  0.0146 -0.0473 -0.3066
 3747SOL    HW122877   2.041   0.579   3.532 -2.1631  1.0262 -1.0801
 3747SOL    HW222878   2.038   0.636   3.391 -1.4360  0.1058  0.6397
 3748SOL     OW22879   0.150   2.586   9.282 -0.4941  0.5498  0.1266
 3748SOL    HW122880   0.110   2.617   9.201 -2.1384 -0.9663  0.3698
 3748SOL    HW222881   0.074   2.539   9.317  1.1206  0.0762  2.9464
 3749SOL     OW22882   1.926   0.787   7.646 -0.9378  0.1768  0.1059
 3749SOL    HW122883   1.895   0.787   7.737 -0.5153  0.0499  0.2494
 3749SOL    HW222884   1.995   0.722   7.663 -0.5006  0.6942  0.3248
 3750SOL     OW22885   4.453   3.363   2.999  0.0287  0.5579 -0.0382
 3750SOL    HW122886   4.545   3.369   2.975 -0.8190  2.0522 -3.0093
 3750SOL    HW222887   4.451   3.284   3.053 -1.9664  1.0008  0.5456
 3751SOL     OW22888   3.957   1.149   3.617  0.6072  0.1429 -0.3453
 3751SOL    HW122889   4.044   1.179   3.645 -0.0985 -0.1171  2.0945
 3751SOL    HW222890   3.987   1.077   3.561 -0.6917 -0.0942 -0.7447
 3752SOL     OW22891   1.416   0.179   6.121 -0.4872  0.5341 -0.2634
 3752SOL    HW122892   1.485   0.162   6.185  0.9714  2.9807 -1.2110
 3752SOL    HW222893   1.354   0.108   6.143 -0.0441  0.0991 -0.4192
 3753SOL     OW22894   3.354   3.388   5.510  0.2181  0.5012 -0.2515
 3753SOL    HW122895   3.377   3.375   5.602  0.4650 -1.6506 -0.6222
 3753SOL    HW222896   3.276   3.438   5.534  1.2318  1.0010  2.0123
 3754SOL     OW22897   0.991   1.301   8.998  0.5083 -0.2191  0.5566
 3754SOL    HW122898   0.999   1.214   8.960  0.3785 -0.2667  0.6383
 3754SOL    HW222899   0.898   1.311   9.018  0.2542  2.8163 -2.1441
 3755SOL     OW22900   3.937   3.677   8.943  0.2591 -0.6289  0.0437
 3755SOL    HW122901   4.029   3.658   8.961 -0.2104 -1.0892  2.0051
 3755SOL    HW222902   3.945   3.705   8.852  1.3013  2.4980  1.1243
 3756SOL     OW22903   4.351   0.261   3.752 -0.2835 -0.1499  0.3091
 3756SOL    HW122904   4.415   0.191   3.767 -0.1603 -0.0485  0.2462
 3756SOL    HW222905   4.379   0.317   3.824  2.4830 -1.0523 -0.0581
 3757SOL     OW22906   1.595   1.285   9.122 -0.8542 -0.1666 -0.0782
 3757SOL    HW122907   1.637   1.263   9.205 -1.4069  0.8760  0.4806
 3757SOL    HW222908   1.665   1.265   9.059 -1.3443 -0.5640 -0.4914
 3758SOL     OW22909   2.842   0.035   2.320  0.3441  0.4827 -0.5073
 3758SOL    HW122910   2.852   0.121   2.359  0.9476 -0.3951  1.2555
 3758SOL    HW222911   2.923   4.731   2.345 -0.7589 -1.1102  0.3279
 3759SOL     OW22912   0.126   1.843   4.741  0.1705  0.1339  0.5797
 3759SOL    HW122913   0.149   1.825   4.832  0.1377  0.0898  0.5791
 3759SOL    HW222914   0.161   1.770   4.689  0.6598  0.9800 -0.2863
 3760SOL     OW22915   4.635   3.370   8.429 -0.0335 -0.6282 -0.9881
 3760SOL    HW122916   4.707   3.419   8.389 -0.0775  1.5686  1.6039
 3760SOL    HW222917   4.560   3.429   8.438 -0.0024 -0.8067  0.4256
 3761SOL     OW22918   4.468   4.352   9.652 -0.2276  0.0458 -0.3643
 3761SOL    HW122919   4.560   4.369   9.670 -0.6636  0.5981  1.3377
 3761SOL    HW222920   4.438   4.315   9.735  0.2276 -0.1361 -0.2797
 3762SOL     OW22921   4.577   1.199   2.893  0.0998  0.1734 -0.2315
 3762SOL    HW122922   4.499   1.178   2.841  2.2785 -2.5683 -2.4240
 3762SOL    HW222923   4.550   1.255   2.965 -1.8102 -2.4129  1.0667
 3763SOL     OW22924   4.071   3.425   6.212 -0.3560 -0.1533 -0.2729
 3763SOL    HW122925   4.095   3.332   6.214  0.4262  0.0377 -0.6972
 3763SOL    HW222926   4.122   3.455   6.136 -2.1839  0.7864 -1.1217
 3764SOL     OW22927   1.142   0.348   2.546  0.3829 -0.2650 -0.4368
 3764SOL    HW122928   1.218   0.398   2.575 -1.6698  0.6604  3.2294
 3764SOL    HW222929   1.177   0.306   2.467  2.9456  0.9554  0.0607
 3765SOL     OW22930   4.025   4.551   3.897 -0.2750 -0.1438 -0.4336
 3765SOL    HW122931   3.936   4.544   3.931 -0.1225 -2.6806 -0.5883
 3765SOL    HW222932   4.016   4.602   3.817  1.7896  1.6353  0.4656
 3766SOL     OW22933   3.632   1.084   4.328  0.3106  0.0325 -0.2537
 3766SOL    HW122934   3.627   0.992   4.302 -1.1294  0.1582 -0.4122
 3766SOL    HW222935   3.720   1.090   4.366  0.9256 -2.1233 -1.3547
 3767SOL     OW22936   1.577   4.378   6.398  0.4203 -0.6851  0.4046
 3767SOL    HW122937   1.507   4.370   6.334 -0.9639 -3.1929  2.2278
 3767SOL    HW222938   1.618   4.459   6.366 -3.9138  0.5408 -2.0689
 3768SOL     OW22939   2.093   1.741   9.496  0.2155 -0.1041  0.0424
 3768SOL    HW122940   2.097   1.683   9.572 -1.4968 -1.3225 -0.7848
 3768SOL    HW222941   2.164   1.698   9.448  1.1885  1.3619  0.1671
 3769SOL     OW22942   0.877   4.124   8.786  0.7746 -0.2705 -0.2821
 3769SOL    HW122943   0.833   4.133   8.702 -0.8855 -0.2140  0.5948
 3769SOL    HW222944   0.955   4.079   8.753  0.2934  0.4324 -2.4023
 3770SOL     OW22945   3.419   2.780   7.917 -0.0696  0.9692 -0.1142
 3770SOL    HW122946   3.404   2.730   7.997  0.6720  0.0344 -0.5684
 3770SOL    HW222947   3.357   2.742   7.855  2.3230 -1.3139 -1.0831
 3771SOL     OW22948   2.693   0.484   9.834 -0.1746 -0.1543  0.1985
 3771SOL    HW122949   2.625   0.416   9.833 -1.4581  1.0998  3.1766
 3771SOL    HW222950   2.740   0.449   9.909 -1.5568 -1.4829  0.4367
 3772SOL     OW22951   0.293   4.580   4.409 -0.3503 -0.3860 -0.3226
 3772SOL    HW122952   0.307   4.612   4.320  1.4003 -2.1446 -0.6905
 3772SOL    HW222953   0.277   4.659   4.460 -0.0137 -0.1691 -0.5512
 3773SOL     OW22954   2.459   2.290  15.381 -0.8634 -0.5342 -0.0370
 3773SOL    HW122955   2.372   2.324  15.398 -1.7923 -3.2435  0.6849
 3773SOL    HW222956   2.452   2.271  15.288  1.2586  1.1784 -0.5427
 3774SOL     OW22957   3.185   1.216   7.272  0.4663  0.4581  0.9402
 3774SOL    HW122958   3.109   1.207   7.329  0.7798  1.5536  1.5405
 3774SOL    HW222959   3.199   1.125   7.245 -0.9375 -0.1753  2.3536
 3775SOL     OW22960   4.279   3.074   3.294 -0.0017  0.2420  0.1619
 3775SOL    HW122961   4.242   2.988   3.313  0.7615 -0.1107  0.0519
 3775SOL    HW222962   4.198   3.124   3.296 -0.0995  0.2161 -3.6896
 3776SOL     OW22963   0.958   3.567  16.514  0.2177 -0.0101  0.1317
 3776SOL    HW122964   1.045   3.596  16.543  0.6209  1.6785 -2.7044
 3776SOL    HW222965   0.965   3.472  16.518  0.6629  0.0806  1.7140
 3777SOL     OW22966   1.324   3.107   3.731 -0.3886 -0.3508 -0.1625
 3777SOL    HW122967   1.377   3.099   3.810  2.0238 -0.1105 -1.7806
 3777SOL    HW222968   1.306   3.201   3.742  0.5829 -0.1460 -0.3547
 3778SOL     OW22969   3.764   3.862  14.930  0.5646  0.7518  0.7941
 3778SOL    HW122970   3.808   3.860  15.014  0.5501  1.7848  0.8225
 3778SOL    HW222971   3.673   3.842  14.951  1.2470 -1.9472  1.1166
 3779SOL     OW22972   3.007   2.034   4.337 -0.5706  0.1518  0.1324
 3779SOL    HW122973   2.964   1.980   4.271 -0.9795  0.3722  0.2168
 3779SOL    HW222974   3.094   2.041   4.299  0.0964  2.8272  2.1669
 3780SOL     OW22975   1.266   3.933   4.539  0.4932 -0.3009  0.2330
 3780SOL    HW122976   1.341   3.925   4.597 -0.6588 -0.9071  1.6369
 3780SOL    HW222977   1.291   4.013   4.495  1.0737  0.6564  2.3144
 3781SOL     OW22978   1.764   4.484   3.143 -0.5555 -0.4077 -0.0973
 3781SOL    HW122979   1.839   4.540   3.163 -1.1262  0.2882  0.1168
 3781SOL    HW222980   1.770   4.467   3.049  0.4446  0.1118 -0.1317
 3782SOL     OW22981   1.011   3.699  17.745  0.4287 -0.5077 -0.1722
 3782SOL    HW122982   0.989   3.739  17.661  3.0726 -0.9098 -1.0441
 3782SOL    HW222983   1.106   3.711  17.743  0.0937  2.2407  0.5039
 3783SOL     OW22984   2.694   3.632   6.643  0.1535 -0.5134 -0.1098
 3783SOL    HW122985   2.784   3.603   6.629  1.1077  1.1969  2.4151
 3783SOL    HW222986   2.689   3.683   6.562  3.3631  0.4316  0.3193
 3784SOL     OW22987   2.802   0.497   5.755  0.0283 -0.5698 -0.5088
 3784SOL    HW122988   2.849   0.536   5.681  0.8131  1.4359  1.0278
 3784SOL    HW222989   2.795   0.564   5.824 -0.5376 -2.1033  0.9255
 3785SOL     OW22990   0.732   2.019   2.979 -0.3767 -0.5897  0.0795
 3785SOL    HW122991   0.777   1.936   2.996 -0.1025 -0.4900 -0.1538
 3785SOL    HW222992   0.726   2.049   3.069  0.8029 -0.5633  0.1526
 3786SOL     OW22993   4.453   3.763   4.623 -1.2777 -0.5321 -0.0837
 3786SOL    HW122994   4.523   3.742   4.562 -1.3807 -0.5840 -0.1838
 3786SOL    HW222995   4.462   3.700   4.694 -1.9643  0.8115  1.1915
 3787SOL     OW22996   1.309   1.616   8.200 -0.2893 -0.1406 -0.6223
 3787SOL    HW122997   1.313   1.603   8.105 -1.9606 -0.5525 -0.6377
 3787SOL    HW222998   1.342   1.528   8.221  0.9432 -0.4740 -3.9597
 3788SOL     OW22999   4.520   0.394   4.783  0.2547  0.4737  0.2032
 3788SOL    HW123000   4.611   0.420   4.791  0.3849  0.1110 -0.0950
 3788SOL    HW223001   4.483   0.458   4.722 -0.7505 -1.2704 -1.0177
 3789SOL     OW23002   0.901   0.443   2.934  0.2779 -0.4488 -0.2490
 3789SOL    HW123003   0.949   0.392   2.999 -0.8680  0.5075  1.3523
 3789SOL    HW223004   0.946   0.417   2.853  0.1732  1.3674 -0.8783
 3790SOL     OW23005   4.364   0.976   3.145 -0.4479  0.4848  0.4062
 3790SOL    HW123006   4.393   0.981   3.237  1.6099 -1.2437 -0.1342
 3790SOL    HW223007   4.366   0.883   3.124 -1.9146 -0.2532  3.4799
 3791SOL     OW23008   4.196   0.807   9.818  0.0003 -0.7196 -0.5270
 3791SOL    HW123009   4.119   0.774   9.773 -1.7472 -1.5308  3.0089
 3791SOL    HW223010   4.261   0.801   9.748 -0.1800 -0.7807 -0.6868
 3792SOL     OW23011   0.568   2.846   6.306  0.1260 -0.2940 -0.2322
 3792SOL    HW123012   0.495   2.909   6.309 -0.6612 -1.1637 -0.8919
 3792SOL    HW223013   0.533   2.758   6.292 -1.3317  0.3112 -0.5065
 3793SOL     OW23014   0.380   2.602   6.246  1.2569  0.0805 -0.3810
 3793SOL    HW123015   0.336   2.603   6.161 -0.5194 -2.6153  0.5169
 3793SOL    HW223016   0.436   2.525   6.234  0.1153 -0.6322 -1.0536
 3794SOL     OW23017   0.233   1.697   9.383  0.5929 -0.3739 -0.0342
 3794SOL    HW123018   0.187   1.698   9.299  0.6799 -0.2402 -0.0799
 3794SOL    HW223019   0.319   1.738   9.368 -0.0489  0.7873 -0.5340
 3795SOL     OW23020   4.381   3.920   7.332  0.0927 -0.1170  0.4128
 3795SOL    HW123021   4.368   3.965   7.415 -1.5512  1.4820 -0.7001
 3795SOL    HW223022   4.409   4.001   7.289  0.3391  1.0495  2.8075
 3796SOL     OW23023   1.511   3.383  16.461  0.4822  0.1952 -0.1433
 3796SOL    HW123024   1.522   3.305  16.407  2.4739 -1.1745  2.2593
 3796SOL    HW223025   1.541   3.352  16.547  0.0853  3.2489  1.0950
 3797SOL     OW23026   0.701   1.664   8.278  0.2364 -0.5596 -0.0694
 3797SOL    HW123027   0.661   1.737   8.326 -0.5261 -2.0379  1.5332
 3797SOL    HW223028   0.632   1.615   8.235  0.0950 -0.0299 -0.4533
 3798SOL     OW23029   0.512   0.543   8.064 -0.2115  0.3811 -0.7927
 3798SOL    HW123030   0.426   0.524   8.028  0.3736 -1.6424 -1.1429
 3798SOL    HW223031   0.559   0.459   8.063  0.4927  0.7511  0.3725
 3799SOL     OW23032   0.836   0.669  14.986  0.7023 -0.5153  0.4073
 3799SOL    HW123033   0.871   0.581  15.000 -0.2755 -0.9547  0.1243
 3799SOL    HW223034   0.766   0.660  15.051  1.5043 -0.4617  1.2741
 3800SOL     OW23035   2.066   4.172   2.570 -0.1393 -0.3732 -0.1861
 3800SOL    HW123036   1.992   4.202   2.623 -0.5462 -0.8575 -0.4839
 3800SOL    HW223037   2.015   4.124   2.504  1.3991  0.6143 -2.1049
 3801SOL     OW23038   3.881   2.439   4.177  0.4369  0.1682 -0.0146
 3801SOL    HW123039   3.910   2.382   4.247 -1.5168  0.9503  1.4142
 3801SOL    HW223040   3.793   2.457   4.211  0.7086  2.9327 -0.7756
 3802SOL     OW23041   0.000   0.304  14.809 -0.2922  0.0677  0.7544
 3802SOL    HW123042   4.672   0.256  14.856  1.0258 -0.8388  1.7276
 3802SOL    HW223043   4.738   0.385  14.862  2.4003  0.3982  0.3377
 3803SOL     OW23044   3.263   2.107  13.382  0.0376  0.1711 -0.2878
 3803SOL    HW123045   3.184   2.110  13.330 -1.6116  0.5771  2.2357
 3803SOL    HW223046   3.308   2.031  13.346 -0.8478 -0.8751  0.7962
 3804SOL     OW23047   4.375   3.270   8.613  0.8482 -0.3762  0.0275
 3804SOL    HW123048   4.351   3.306   8.699  2.4074 -0.9325  0.6989
 3804SOL    HW223049   4.431   3.199   8.644  2.0791  1.4652  2.0005
 3805SOL     OW23050   0.545   0.755   0.048 -0.8147 -0.2188  0.5850
 3805SOL    HW123051   0.509   0.749   0.137  1.6010 -1.3071  1.4881
 3805SOL    HW223052   0.639   0.764   0.058 -0.6538 -1.1967 -0.0791
 3806SOL     OW23053   0.310   1.554   7.316  0.2944  0.3630  0.3716
 3806SOL    HW123054   0.238   1.532   7.374  0.7806  1.6449  1.4741
 3806SOL    HW223055   0.349   1.468   7.299  1.6050  1.4588 -2.1344
 3807SOL     OW23056   3.754   2.818   6.913  0.0773 -0.1033 -0.2571
 3807SOL    HW123057   3.749   2.755   6.985  1.5658  1.1734  0.9459
 3807SOL    HW223058   3.833   2.864   6.941  1.9973 -1.9656 -2.6719
 3808SOL     OW23059   1.118   0.591  10.767 -0.4627  0.4267 -0.3470
 3808SOL    HW123060   1.093   0.552  10.851  0.1805 -1.0755 -0.8512
 3808SOL    HW223061   1.035   0.626  10.734 -1.4277 -0.3162  1.2727
 3809SOL     OW23062   3.733   0.814   2.105 -0.0472 -0.4539 -0.2236
 3809SOL    HW123063   3.697   0.778   2.024  0.2314 -2.2493  0.4603
 3809SOL    HW223064   3.665   0.795   2.170  1.7203 -0.8766  1.4981
 3810SOL     OW23065   4.284   4.475   3.600 -0.0242  0.0142  0.0909
 3810SOL    HW123066   4.206   4.469   3.545 -0.2155 -2.8783  0.6797
 3810SOL    HW223067   4.345   4.444   3.534  0.3181  1.1863 -0.1379
 3811SOL     OW23068   3.066   4.034  17.643  0.1727  0.0187  0.6834
 3811SOL    HW123069   3.156   4.007  17.625  0.7497  1.1635  1.8147
 3811SOL    HW223070   3.039   3.965  17.703  0.6489 -0.0187  0.8567
 3812SOL     OW23071   4.301   4.361   7.942 -0.1643  0.0829  0.2698
 3812SOL    HW123072   4.279   4.424   7.874 -2.6195  0.1184  1.0922
 3812SOL    HW223073   4.292   4.276   7.898  0.6691  1.7886 -3.2070
 3813SOL     OW23074   2.266   0.998   7.078 -0.6147  0.1767  0.9493
 3813SOL    HW123075   2.304   0.912   7.100  3.6529  1.8188 -0.1004
 3813SOL    HW223076   2.195   0.994   7.142  0.1677  2.1392  1.9272
 3814SOL     OW23077   4.429   1.850   7.859  0.0318 -0.5000  0.4828
 3814SOL    HW123078   4.463   1.923   7.807 -2.2648  0.0441 -0.2473
 3814SOL    HW223079   4.482   1.773   7.838  0.0509  0.0566 -1.4769
 3815SOL     OW23080   3.718   1.324   4.702 -0.2145  0.1666 -0.4453
 3815SOL    HW123081   3.652   1.279   4.649  0.0006 -0.2478 -0.3613
 3815SOL    HW223082   3.709   1.411   4.664 -0.6513 -0.1035 -0.9533
 3816SOL     OW23083   2.969   0.087   6.007 -0.3091 -0.6923 -0.5694
 3816SOL    HW123084   2.985   4.735   6.030  0.4332 -0.1912  0.8990
 3816SOL    HW223085   2.994   0.125   6.091 -2.6110 -1.6949  0.5841
 3817SOL     OW23086   2.544   1.541  13.184 -0.5993  0.1181 -0.3401
 3817SOL    HW123087   2.472   1.572  13.129 -0.3490  1.2173 -0.0530
 3817SOL    HW223088   2.583   1.623  13.213  0.5217  0.2794 -2.3189
 3818SOL     OW23089   3.812   2.355   4.908  0.0205 -0.0821 -0.4512
 3818SOL    HW123090   3.833   2.283   4.969 -1.4136  0.8684  1.1760
 3818SOL    HW223091   3.800   2.300   4.831  3.2257 -0.9485 -0.3410
 3819SOL     OW23092   0.673   4.264  17.219 -0.2575  0.1886  0.1019
 3819SOL    HW123093   0.701   4.296  17.134 -2.7486  1.7649 -0.1143
 3819SOL    HW223094   0.589   4.223  17.201  1.1486 -1.6395 -2.2579
 3820SOL     OW23095   2.312   1.162   0.484  0.1086 -0.6041  0.7203
 3820SOL    HW123096   2.317   1.120   0.570  1.4311 -0.8308  0.5198
 3820SOL    HW223097   2.232   1.215   0.490  0.9170  0.8197 -1.3904
 3821SOL     OW23098   0.883   1.667  17.613  0.2955 -0.1720 -0.1129
 3821SOL    HW123099   0.889   1.595  17.550 -0.3489 -0.4448  0.1330
 3821SOL    HW223100   0.930   1.736  17.566 -0.6694  0.6196  0.0735
 3822SOL     OW23101   2.793   0.445   6.209 -0.0615 -0.3104 -0.0787
 3822SOL    HW123102   2.782   0.365   6.260  0.9436 -0.0631  0.5406
 3822SOL    HW223103   2.889   0.444   6.199 -0.1590 -0.6298 -0.9510
 3823SOL     OW23104   3.351   3.821   8.410 -0.3580  0.0058 -0.1179
 3823SOL    HW123105   3.284   3.882   8.438  0.7911  1.1384  0.1490
 3823SOL    HW223106   3.328   3.750   8.470 -3.1856  1.6512  0.6971
 3824SOL     OW23107   3.519   1.243   4.524  0.5765  0.5496 -0.1947
 3824SOL    HW123108   3.556   1.197   4.449  1.7958  1.3045 -0.0513
 3824SOL    HW223109   3.451   1.182   4.552  0.5664  0.1810 -1.0122
 3825SOL     OW23110   1.797   2.232   7.353 -0.6422  0.0612  0.0228
 3825SOL    HW123111   1.891   2.245   7.343 -0.1910 -2.3440  1.0004
 3825SOL    HW223112   1.786   2.156   7.295  0.3288  0.8156 -1.1264
 3826SOL     OW23113   2.580   4.222  11.509  0.1266  0.4967  0.5885
 3826SOL    HW123114   2.657   4.240  11.563  0.7270 -1.0195  0.2624
 3826SOL    HW223115   2.510   4.251  11.567  0.2994  1.3824  0.3461
 3827SOL     OW23116   0.489   3.272  17.025 -0.2777 -0.1153  0.1175
 3827SOL    HW123117   0.565   3.260  16.967 -0.2041 -0.0577  0.2030
 3827SOL    HW223118   0.457   3.182  17.037  1.1452 -0.3726  1.9784
 3828SOL     OW23119   1.862   1.567   5.023 -0.4533  0.0302  0.3141
 3828SOL    HW123120   1.943   1.616   5.007 -0.4887 -0.3548 -1.0258
 3828SOL    HW223121   1.860   1.520   4.939 -1.1480  0.8754 -0.1402
 3829SOL     OW23122   2.923   1.317   1.713 -0.5218 -0.0184 -0.5233
 3829SOL    HW123123   3.003   1.279   1.678  0.9271  3.0854 -0.5744
 3829SOL    HW223124   2.963   1.391   1.758 -0.2479 -1.3255  1.3648
 3830SOL     OW23125   1.703   0.690   7.498 -0.4268 -0.1431 -0.0136
 3830SOL    HW123126   1.638   0.647   7.554 -1.2003 -0.2156 -0.9725
 3830SOL    HW223127   1.776   0.705   7.558 -0.9555 -1.5205  0.9772
 3831SOL     OW23128   1.614   1.396   5.453  0.3403 -0.1419 -0.5347
 3831SOL    HW123129   1.683   1.395   5.387  0.4334 -2.0644 -0.4156
 3831SOL    HW223130   1.617   1.306   5.485  0.5566 -0.0719 -0.3527
 3832SOL     OW23131   3.331   1.872   5.595 -0.3422 -0.5232 -0.4540
 3832SOL    HW123132   3.347   1.822   5.675  0.7031  1.9990  0.9542
 3832SOL    HW223133   3.393   1.944   5.614  1.2194 -2.8516  3.3103
 3833SOL     OW23134   3.788   2.012  14.949  0.4266  0.5735  0.3110
 3833SOL    HW123135   3.819   1.992  15.038 -2.9573  1.9114  1.8026
 3833SOL    HW223136   3.695   1.991  14.945  0.6863 -0.3159 -0.9957
 3834SOL     OW23137   3.284   1.071   1.330 -0.1667  0.0417 -0.2601
 3834SOL    HW123138   3.203   1.052   1.283 -0.5030 -1.2112  0.8264
 3834SOL    HW223139   3.279   1.000   1.395 -1.3246  0.9983  0.6956
 3835SOL     OW23140   4.690   4.627   4.130 -0.9534  0.1791  0.1424
 3835SOL    HW123141   4.597   4.651   4.131 -1.2266 -0.8416 -2.8608
 3835SOL    HW223142   4.716   4.629   4.222 -0.4716 -2.3684  0.0599
 3836SOL     OW23143   4.433   3.344  12.184  0.0954 -0.0964 -0.2967
 3836SOL    HW123144   4.426   3.343  12.088 -0.9799 -0.0547 -0.2173
 3836SOL    HW223145   4.431   3.251  12.203 -3.0849  0.7552  3.4240
 3837SOL     OW23146   2.435   3.064  12.732  0.1130  0.6052 -0.1174
 3837SOL    HW123147   2.385   3.138  12.696 -0.2701 -0.4237 -1.7254
 3837SOL    HW223148   2.524   3.086  12.702  0.2418 -1.0546 -0.9674
 3838SOL     OW23149   4.014   1.852   5.639 -0.1211  0.5275 -0.1450
 3838SOL    HW123150   3.958   1.777   5.656  0.4719  0.1148 -0.0188
 3838SOL    HW223151   4.012   1.856   5.543  2.5158  0.6986 -0.1988
 3839SOL     OW23152   1.530   3.349   3.378 -0.1042  0.4446  0.0337
 3839SOL    HW123153   1.497   3.363   3.466  0.1992 -0.9859  0.3788
 3839SOL    HW223154   1.610   3.402   3.381  1.6309 -2.3561  3.2238
 3840SOL     OW23155   1.071   3.686   2.742 -0.2969 -0.4400  0.3799
 3840SOL    HW123156   1.084   3.609   2.686 -0.2041 -1.2232  1.4961
 3840SOL    HW223157   0.991   3.675   2.792 -1.2448 -0.8431 -1.2402
 3841SOL     OW23158   4.136   2.331   1.484  0.5533  0.4618  0.8302
 3841SOL    HW123159   4.153   2.252   1.536  0.6728 -1.5030 -2.1236
 3841SOL    HW223160   4.192   2.318   1.407  2.8121 -0.4613  2.6165
 3842SOL     OW23161   0.304   1.417  10.886  0.4129 -0.2536  0.1013
 3842SOL    HW123162   0.245   1.465  10.827 -1.7419 -1.5246  1.2287
 3842SOL    HW223163   0.350   1.369  10.817 -0.1176 -0.2283 -0.2688
 3843SOL     OW23164   2.697   3.392   8.842 -0.1818 -0.0892 -0.3284
 3843SOL    HW123165   2.610   3.363   8.870 -0.1480 -0.0385 -0.1681
 3843SOL    HW223166   2.753   3.374   8.917 -1.0363  1.4376  0.6851
 3844SOL     OW23167   1.586   2.917   8.135  0.2755 -0.8911  0.0387
 3844SOL    HW123168   1.527   2.992   8.133 -0.9040 -1.7840  1.0248
 3844SOL    HW223169   1.573   2.887   8.045 -1.7416 -5.0698  1.6919
 3845SOL     OW23170   2.688   1.966   5.832  0.4436  0.0480 -0.0723
 3845SOL    HW123171   2.724   2.007   5.754 -1.1426 -0.0114 -0.8319
 3845SOL    HW223172   2.598   1.997   5.835  1.6605  3.4643  0.9917
 3846SOL     OW23173   4.614   0.853   5.904  0.0907  0.0720 -0.0360
 3846SOL    HW123174   4.644   0.765   5.927 -2.6114 -0.5891  1.0160
 3846SOL    HW223175   4.549   0.864   5.973  0.0796  0.3712 -0.0953
 3847SOL     OW23176   3.086   2.919   7.412  0.1446  0.7092  0.6563
 3847SOL    HW123177   3.069   2.993   7.471 -1.2302 -0.6695  1.9834
 3847SOL    HW223178   3.175   2.918   7.447  1.0215  1.8321 -1.5383
 3848SOL     OW23179   0.503   1.607   3.583  0.5467  0.0376 -0.3867
 3848SOL    HW123180   0.499   1.638   3.493  2.8452  0.3258 -0.3902
 3848SOL    HW223181   0.416   1.611   3.622  0.7114  0.7623 -0.1118
 3849SOL     OW23182   0.528   1.276   3.178  0.0273 -0.0452  0.0417
 3849SOL    HW123183   0.550   1.264   3.085 -0.9726  0.1488 -0.2219
 3849SOL    HW223184   0.612   1.260   3.222  0.2425 -1.0848 -0.7541
 3850SOL     OW23185   3.627   3.654   4.054 -0.0965 -0.0874  0.5832
 3850SOL    HW123186   3.612   3.743   4.085 -1.0370 -0.1972  0.4341
 3850SOL    HW223187   3.576   3.605   4.119 -1.4780 -0.4906 -0.7835
 3851SOL     OW23188   2.033   1.017  15.558  0.2720  0.1241  0.0168
 3851SOL    HW123189   1.989   0.934  15.543  0.1341 -0.0352  1.2983
 3851SOL    HW223190   1.960   1.077  15.575  1.7118  1.7773  0.4541
 3852SOL     OW23191   2.083   4.013   4.832  0.0505 -0.4726  0.3482
 3852SOL    HW123192   2.083   4.108   4.841 -1.0910 -0.2663 -1.7858
 3852SOL    HW223193   2.158   4.003   4.774 -0.4773  0.2918 -0.4716
 3853SOL     OW23194   3.841   2.593  10.125 -0.1014 -0.0319 -0.2447
 3853SOL    HW123195   3.858   2.686  10.112  1.7154 -0.3561 -0.1480
 3853SOL    HW223196   3.776   2.574  10.057 -0.4569  0.8877 -0.1566
 3854SOL     OW23197   0.567   2.060   5.437  0.2641 -0.3317 -0.6891
 3854SOL    HW123198   0.633   2.060   5.506 -0.3551 -0.4567 -0.0970
 3854SOL    HW223199   0.593   2.134   5.381  0.0475 -1.6175 -2.5026
 3855SOL     OW23200   1.866   3.725   3.487 -0.1884 -0.2999  0.2529
 3855SOL    HW123201   1.907   3.803   3.525 -2.6533 -0.0641  2.4489
 3855SOL    HW223202   1.937   3.664   3.470  0.5045  0.6538 -0.2251
 3856SOL     OW23203   2.497   1.391   6.235  0.0343  0.3969  0.1225
 3856SOL    HW123204   2.537   1.330   6.297  0.3370 -0.5693 -1.0283
 3856SOL    HW223205   2.480   1.341   6.155 -2.6177 -0.6685  1.3751
 3857SOL     OW23206   0.779   1.733   4.211  0.2983  0.0980 -0.0718
 3857SOL    HW123207   0.733   1.726   4.295  0.3123 -0.5144 -0.1156
 3857SOL    HW223208   0.729   1.674   4.156  0.9704  0.1754 -0.7609
 3858SOL     OW23209   3.198   1.199   0.052  0.0228 -0.3128  0.7482
 3858SOL    HW123210   3.120   1.151   0.023 -0.8132  1.1785  0.5479
 3858SOL    HW223211   3.151   1.270   0.095  1.1066  0.5111  0.5671
 3859SOL     OW23212   1.603   1.691   2.042 -0.2553 -0.0289  0.2901
 3859SOL    HW123213   1.523   1.640   2.032 -0.5451  0.0446  2.2383
 3859SOL    HW223214   1.657   1.686   1.963 -1.9028 -0.0830 -0.8222
 3860SOL     OW23215   0.391   4.322  10.768 -0.1629  0.0665 -0.0078
 3860SOL    HW123216   0.447   4.255  10.728  1.0936  0.1426  1.6132
 3860SOL    HW223217   0.365   4.373  10.691 -0.1003  0.6832  0.3794
 3861SOL     OW23218   4.657   3.517  10.126 -0.1159  0.7138  0.1882
 3861SOL    HW123219   4.684   3.426  10.138  1.6844  1.4624  1.9622
 3861SOL    HW223220   4.600   3.515  10.050  3.0811  2.5174 -2.2837
 3862SOL     OW23221   0.425   3.787   5.963  0.0704  0.1087 -0.4203
 3862SOL    HW123222   0.516   3.799   5.990 -0.8664  0.7822  2.5183
 3862SOL    HW223223   0.434   3.836   5.881  1.1046  0.9788  0.1998
 3863SOL     OW23224   2.765   4.384   2.663  0.1709 -0.4064 -0.5536
 3863SOL    HW123225   2.749   4.416   2.574 -0.5101 -2.5599 -1.1940
 3863SOL    HW223226   2.785   4.291   2.651 -0.6181 -0.5199 -0.9590
 3864SOL     OW23227   1.618   4.539  13.532  0.0793 -0.0879  0.0400
 3864SOL    HW123228   1.580   4.567  13.615 -0.2770  0.5105 -0.3248
 3864SOL    HW223229   1.672   4.465  13.558 -0.8090 -0.5683  0.5279
 3865SOL     OW23230   1.462   0.215   3.430 -0.3013 -0.0350  0.1139
 3865SOL    HW123231   1.427   0.301   3.452  1.9983  1.3871 -1.7655
 3865SOL    HW223232   1.493   0.232   3.341 -0.3459  2.9165  0.6703
 3866SOL     OW23233   3.136   4.634  12.186  0.0224 -0.4167 -0.3642
 3866SOL    HW123234   3.051   4.598  12.211 -0.0359  0.1205  0.1998
 3866SOL    HW223235   3.125   4.724  12.215 -1.1858 -0.8637  0.5456
 3867SOL     OW23236   3.986   3.762  12.439  0.1864  0.4527  0.1658
 3867SOL    HW123237   3.938   3.729  12.363  2.2887  0.5910 -1.2496
 3867SOL    HW223238   3.914   3.793  12.494 -0.3633  0.6969 -0.6978
 3868SOL     OW23239   1.936   2.557   8.791 -0.1982  0.5243  0.0069
 3868SOL    HW123240   1.875   2.605   8.848  0.1757 -0.2333  1.0507
 3868SOL    HW223241   2.019   2.585   8.829 -1.1820  3.2853  0.1545
 3869SOL     OW23242   4.023   0.054   2.857  0.0445  0.2861 -0.0134
 3869SOL    HW123243   4.062   4.716   2.820 -0.8832 -0.2467  0.1280
 3869SOL    HW223244   3.995   0.011   2.938  0.3202 -0.3929 -0.2844
 3870SOL     OW23245   1.190   0.535   9.390  0.5827  0.3440  0.3711
 3870SOL    HW123246   1.128   0.491   9.448  1.1149 -2.2054 -1.0166
 3870SOL    HW223247   1.240   0.459   9.363 -0.4134 -0.8420  1.8742
 3871SOL     OW23248   0.173   0.631   8.785 -0.0404  0.7832  0.3970
 3871SOL    HW123249   0.080   0.631   8.762 -0.3806 -1.4902  1.7960
 3871SOL    HW223250   0.191   0.543   8.817  1.9122  1.2787  0.7069
 3872SOL     OW23251   2.192   1.642   8.512 -0.1771  0.5028 -0.6063
 3872SOL    HW123252   2.242   1.706   8.562 -2.0951  0.7474  0.9907
 3872SOL    HW223253   2.103   1.676   8.523 -0.9085 -1.6597  0.1172
 3873SOL     OW23254   4.353   3.288   1.519 -0.3211 -0.6367  0.2459
 3873SOL    HW123255   4.391   3.200   1.515 -2.3964 -1.5926  1.4734
 3873SOL    HW223256   4.262   3.262   1.537 -1.4044  3.2703  0.3164
 3874SOL     OW23257   2.484   0.340   3.026  0.2067 -0.4676 -0.1686
 3874SOL    HW123258   2.531   0.257   3.040  0.0488 -0.1488  2.1502
 3874SOL    HW223259   2.552   0.407   3.030 -0.8013  0.7281 -2.9564
 3875SOL     OW23260   2.878   1.644   5.421  0.0543 -0.4450  0.3482
 3875SOL    HW123261   2.923   1.602   5.348  1.2253 -2.0854  2.0112
 3875SOL    HW223262   2.824   1.709   5.375  1.2760  0.3432  0.0426
 3876SOL     OW23263   2.319   3.979   4.684 -0.1294 -0.5485 -0.1040
 3876SOL    HW123264   2.334   3.886   4.698  2.6268  0.0299  0.7623
 3876SOL    HW223265   2.400   4.014   4.720 -1.6021 -0.1000  2.7868
 3877SOL     OW23266   1.813   4.171   7.071 -0.0223  0.1992 -0.3292
 3877SOL    HW123267   1.735   4.178   7.126  1.6868 -2.4417  2.4441
 3877SOL    HW223268   1.884   4.195   7.130 -1.6047  0.6857  1.3649
 3878SOL     OW23269   2.183   1.940   6.555  0.6013 -0.1153 -0.2343
 3878SOL    HW123270   2.220   1.968   6.471  0.0242  0.3138 -0.3531
 3878SOL    HW223271   2.264   1.919   6.601  0.2264  3.0385  1.8603
 3879SOL     OW23272   0.038   4.271   6.524 -0.1942  0.0345  0.5851
 3879SOL    HW123273   0.123   4.230   6.507 -0.1688  0.7182 -0.8993
 3879SOL    HW223274   0.052   4.294   6.617  4.0982 -1.5392  0.3201
 3880SOL     OW23275   1.184   2.181  17.137 -0.1216 -0.1486 -0.1849
 3880SOL    HW123276   1.210   2.227  17.057 -1.0949 -1.5623 -1.3139
 3880SOL    HW223277   1.220   2.231  17.211  2.0739 -1.0619 -0.6599
 3881SOL     OW23278   3.109   0.299   1.466 -0.1211 -0.3054  0.2472
 3881SOL    HW123279   3.067   0.287   1.551  1.6696  1.1979  1.3263
 3881SOL    HW223280   3.031   0.316   1.414 -1.3868 -1.1036  1.8782
 3882SOL     OW23281   4.009   2.860   3.633 -0.5825  0.1592 -0.2983
 3882SOL    HW123282   3.925   2.885   3.595 -1.2248  0.0984  1.0792
 3882SOL    HW223283   3.987   2.769   3.652 -0.5785  0.1158 -0.4951
 3883SOL     OW23284   4.179   2.082   5.431  0.2985 -0.4093  0.2003
 3883SOL    HW123285   4.161   1.994   5.398 -2.1105 -0.2009  0.9262
 3883SOL    HW223286   4.086   2.099   5.447  0.2846 -0.7459  0.4784
 3884SOL     OW23287   4.525   1.903  14.250 -0.0313 -0.6436  0.2109
 3884SOL    HW123288   4.438   1.925  14.218  0.6242  2.7550  0.8505
 3884SOL    HW223289   4.567   1.935  14.170 -0.0829 -1.9547 -0.3548
 3885SOL     OW23290   0.040   1.833   2.217 -0.2885 -0.1842  0.2512
 3885SOL    HW123291   0.040   1.864   2.127 -1.1119  0.5454  0.5036
 3885SOL    HW223292   0.003   1.910   2.261 -0.3608  0.3711 -0.7887
 3886SOL     OW23293   1.806   0.792   8.872 -0.1468 -0.0073  0.5165
 3886SOL    HW123294   1.754   0.729   8.822 -0.5475  0.9846 -0.3142
 3886SOL    HW223295   1.778   0.874   8.832  0.6807  0.0459  0.0489
 3887SOL     OW23296   1.303   1.609   3.233  0.2196  0.7203 -0.5028
 3887SOL    HW123297   1.376   1.656   3.274  0.9140 -1.7863  1.1483
 3887SOL    HW223298   1.301   1.544   3.303 -1.7608 -0.6109 -1.8276
 3888SOL     OW23299   3.977   1.946   6.697  0.6237  0.0837  0.5611
 3888SOL    HW123300   4.046   1.964   6.761  0.2757  0.9998  0.6869
 3888SOL    HW223301   3.938   2.034   6.695 -2.4013 -1.2549 -0.0745
 3889SOL     OW23302   0.921   0.752   3.291 -0.0437  0.1123 -0.5793
 3889SOL    HW123303   0.973   0.820   3.334  1.9969 -2.0541  0.3778
 3889SOL    HW223304   0.860   0.797   3.233  0.8855  2.3435  0.1716
 3890SOL     OW23305   1.781   3.239   6.045  0.1333  0.6742  0.9671
 3890SOL    HW123306   1.723   3.287   6.104  0.0719  0.7857  0.8159
 3890SOL    HW223307   1.764   3.289   5.965 -3.3347 -0.4386  1.0065
 3891SOL     OW23308   0.426   2.300   1.191  0.3622  0.2259 -0.3207
 3891SOL    HW123309   0.367   2.357   1.142 -2.3652 -0.6357  1.9341
 3891SOL    HW223310   0.377   2.219   1.208 -1.2005  0.8747 -1.7379
 3892SOL     OW23311   0.748   3.892   5.745  0.1592  0.0198  0.0087
 3892SOL    HW123312   0.765   3.936   5.662  3.7432  1.5673  1.5843
 3892SOL    HW223313   0.806   3.818   5.727  1.2811  1.2037 -1.2201
 3893SOL     OW23314   0.492   2.413  15.613  0.0931  0.1342  0.2909
 3893SOL    HW123315   0.430   2.479  15.645 -1.2047 -1.1750  0.4844
 3893SOL    HW223316   0.521   2.446  15.528 -2.5090 -0.3406 -0.7773
 3894SOL     OW23317   4.239   3.119  14.315 -0.5069  0.2380 -0.9503
 3894SOL    HW123318   4.247   3.211  14.337  0.6666 -0.0285 -0.2906
 3894SOL    HW223319   4.242   3.124  14.219  0.7763 -1.5500 -1.0165
 3895SOL     OW23320   1.801   3.069  11.460 -0.0105  0.1603  0.2459
 3895SOL    HW123321   1.706   3.066  11.477 -0.2303  0.4782 -0.9371
 3895SOL    HW223322   1.798   3.124  11.382 -0.7567 -0.5531 -0.2359
 3896SOL     OW23323   2.761   2.681   9.307  0.8327 -0.2509  0.3026
 3896SOL    HW123324   2.683   2.736   9.312  0.7776 -0.2290 -0.8744
 3896SOL    HW223325   2.790   2.680   9.216  1.5431  0.3090  0.5238
 3897SOL     OW23326   4.682   2.934  15.542 -0.1038  0.0758  0.3403
 3897SOL    HW123327   4.722   3.021  15.536 -0.7191  0.3170 -0.2910
 3897SOL    HW223328   4.590   2.959  15.551 -0.2049 -0.3213  0.4039
 3898SOL     OW23329   4.596   2.827   2.247 -0.1331 -0.5644 -0.1357
 3898SOL    HW123330   4.653   2.890   2.203  1.3045 -1.4908  0.4085
 3898SOL    HW223331   4.602   2.742   2.202 -0.4257 -0.8517  0.3763
 3899SOL     OW23332   2.879   4.584  16.607 -0.5952  0.2903 -0.0859
 3899SOL    HW123333   2.888   4.621  16.695  0.5438 -0.6311  0.1773
 3899SOL    HW223334   2.871   4.658  16.546 -0.5446 -0.1272 -0.6056
 3900SOL     OW23335   2.170   4.586   4.093  0.7581  0.1949  0.4833
 3900SOL    HW123336   2.226   4.520   4.134  1.0098  1.2958  1.9256
 3900SOL    HW223337   2.232   4.615   4.026 -0.5803  0.1617 -0.7641
 3901SOL     OW23338   0.089   0.031   1.295  0.3737 -0.8831  0.3258
 3901SOL    HW123339   0.143   0.085   1.352  1.8493  1.0604 -2.9143
 3901SOL    HW223340   0.148   0.035   1.219 -1.4947  0.5589 -1.0241
 3902SOL     OW23341   0.629   1.273   9.850 -0.3133 -0.0870  0.3826
 3902SOL    HW123342   0.701   1.269   9.913  0.6575 -0.5502 -0.7652
 3902SOL    HW223343   0.569   1.204   9.879 -0.1093  0.9397  3.2437
 3903SOL     OW23344   4.515   3.044   4.251 -0.1573 -0.4711  0.3782
 3903SOL    HW123345   4.534   3.122   4.199 -0.2880 -1.3459 -0.9736
 3903SOL    HW223346   4.438   3.008   4.207  0.2154 -1.5826  0.6383
 3904SOL     OW23347   1.688   4.076  13.460  0.2165  0.0952  0.4406
 3904SOL    HW123348   1.738   4.002  13.427  0.4103 -0.0546  1.0672
 3904SOL    HW223349   1.606   4.067  13.410  0.0011 -1.8002  1.1419
 3905SOL     OW23350   4.059   2.041  11.721  0.1610 -0.1460  0.1255
 3905SOL    HW123351   4.094   1.959  11.756 -1.1496 -0.8476 -0.2230
 3905SOL    HW223352   3.984   2.063  11.776  0.6946 -0.7902  1.1121
 3906SOL     OW23353   2.339   0.170  16.427  0.2445 -0.4631  0.2236
 3906SOL    HW123354   2.254   0.199  16.461 -1.1297 -1.3876 -2.4143
 3906SOL    HW223355   2.320   0.076  16.420  0.3120 -0.5016  0.5468
 3907SOL     OW23356   1.330   0.299   8.132  0.7212 -0.4466  1.0300
 3907SOL    HW123357   1.253   0.253   8.099  0.6736  0.3856 -0.0253
 3907SOL    HW223358   1.386   0.232   8.173  1.2094 -0.4850  0.3042
 3908SOL     OW23359   1.940   0.737  17.509 -0.2072 -0.1032  0.1352
 3908SOL    HW123360   1.903   0.752  17.596 -0.6811  3.1250 -0.6405
 3908SOL    HW223361   1.886   0.790  17.451 -0.2862 -1.7637 -1.3159
 3909SOL     OW23362   2.280   1.597   3.145  0.1697 -0.7653  0.6051
 3909SOL    HW123363   2.269   1.535   3.074 -0.1273 -0.2692  0.2181
 3909SOL    HW223364   2.371   1.582   3.170  1.5183  1.6744 -2.8643
 3910SOL     OW23365   1.097   1.445  10.876  0.4256  0.1046 -0.4188
 3910SOL    HW123366   1.173   1.427  10.930  0.9738  2.1403 -0.5235
 3910SOL    HW223367   1.102   1.540  10.869 -0.2679  0.3245  2.0327
 3911SOL     OW23368   4.083   3.649   3.451 -0.7778  0.0889 -0.4349
 3911SOL    HW123369   4.148   3.623   3.516  0.1835  2.4573 -0.4641
 3911SOL    HW223370   4.005   3.604   3.486 -0.7852 -0.0439 -0.6236
 3912SOL     OW23371   4.173   1.894   6.277 -0.2007  0.1168  0.5413
 3912SOL    HW123372   4.102   1.908   6.339 -1.6143 -0.4752 -0.9369
 3912SOL    HW223373   4.131   1.923   6.196 -0.8887  1.1344  1.2615
 3913SOL     OW23374   1.144   4.709   3.742  0.2074  0.0136  0.5463
 3913SOL    HW123375   1.214   4.708   3.677  0.9723 -1.1611  1.3938
 3913SOL    HW223376   1.084   0.035   3.707 -1.6845 -1.4117  1.0926
 3914SOL     OW23377   3.419   3.870   2.547  0.0880 -0.0038 -0.6233
 3914SOL    HW123378   3.351   3.857   2.481  0.6168 -2.4745 -0.6974
 3914SOL    HW223379   3.401   3.790   2.598  1.6941  0.9036  1.3703
 3915SOL     OW23380   3.625   1.980  16.570  0.2279 -0.3256  0.0692
 3915SOL    HW123381   3.570   1.939  16.503  2.1076 -0.1631 -1.5923
 3915SOL    HW223382   3.686   1.907  16.584  1.8150  1.0570  0.3024
 3916SOL     OW23383   4.625   0.595   8.814  0.1313 -0.0999  0.1138
 3916SOL    HW123384   4.597   0.628   8.729  1.2161 -0.5470 -0.4174
 3916SOL    HW223385   4.541   0.563   8.848 -0.2124  0.5457 -0.1403
 3917SOL     OW23386   0.423   4.249   8.176  0.1647  0.1981  0.1349
 3917SOL    HW123387   0.443   4.198   8.254 -1.3100  1.4563  1.3185
 3917SOL    HW223388   0.328   4.249   8.189  0.1484 -1.7277  0.0139
 3918SOL     OW23389   0.738   0.936   1.878 -0.0783 -0.6046  0.5691
 3918SOL    HW123390   0.812   0.881   1.903 -0.2130 -1.1514 -0.2568
 3918SOL    HW223391   0.702   0.941   1.967 -0.5444 -0.7234  0.3874
 3919SOL     OW23392   3.422   3.158  16.747 -0.1156  0.1178 -0.1927
 3919SOL    HW123393   3.417   3.143  16.653 -2.6214  0.2136 -0.0804
 3919SOL    HW223394   3.448   3.250  16.751 -0.2544  0.1786 -0.6658
 3920SOL     OW23395   0.331   4.517   8.799  0.1857  0.3542 -0.5020
 3920SOL    HW123396   0.396   4.531   8.868  0.1768 -2.2587  0.0393
 3920SOL    HW223397   0.267   4.588   8.812 -1.2581 -1.0062 -0.1284
 3921SOL     OW23398   0.660   2.854   2.065 -0.6302 -0.2025  0.2677
 3921SOL    HW123399   0.627   2.773   2.104 -1.1666 -1.3957 -2.6645
 3921SOL    HW223400   0.677   2.903   2.145  0.6851  0.2811 -0.3100
 3922SOL     OW23401   3.445   0.499   5.107 -0.0664 -0.4578 -0.5828
 3922SOL    HW123402   3.377   0.561   5.135 -0.3830 -1.1002  0.0996
 3922SOL    HW223403   3.393   0.431   5.064  1.1339 -0.6607 -1.6773
 3923SOL     OW23404   2.591   2.836  15.282 -0.1272 -0.7965  0.3331
 3923SOL    HW123405   2.678   2.836  15.323  0.3495  3.2441 -0.7168
 3923SOL    HW223406   2.605   2.782  15.205 -0.3509 -1.0719  0.4841
 3924SOL     OW23407   4.052   3.702   2.188 -0.7416  0.1005 -0.5959
 3924SOL    HW123408   3.993   3.739   2.255 -0.6973  1.0500 -1.0811
 3924SOL    HW223409   4.089   3.623   2.228  0.5758  0.7646 -0.5106
 3925SOL     OW23410   2.604   2.758  10.715 -0.5975  0.5307  0.3874
 3925SOL    HW123411   2.552   2.766  10.636 -0.2228  1.1795  0.2138
 3925SOL    HW223412   2.679   2.711  10.678  0.6959  1.6487  1.5631
 3926SOL     OW23413   3.436   0.385  13.508  0.3630 -0.2471 -0.2869
 3926SOL    HW123414   3.373   0.313  13.515 -0.3369  0.6799  2.8066
 3926SOL    HW223415   3.416   0.411  13.417 -0.2319  0.6642  0.0933
 3927SOL     OW23416   0.926   0.488   2.381  0.4807 -0.3358  0.1106
 3927SOL    HW123417   0.878   0.449   2.454 -0.6065  2.3351  0.7929
 3927SOL    HW223418   1.014   0.455   2.402  0.6464 -0.1659 -0.3073
 3928SOL     OW23419   2.884   2.603  15.495 -0.3246 -0.5937  0.4184
 3928SOL    HW123420   2.866   2.687  15.454  1.6889 -0.2694  0.1900
 3928SOL    HW223421   2.868   2.543  15.422 -1.4687  1.0506 -0.6743
 3929SOL     OW23422   2.903   1.051   9.377 -0.3371 -0.3613  0.2080
 3929SOL    HW123423   2.845   1.076   9.306  0.6377  0.3856 -0.3236
 3929SOL    HW223424   2.893   1.133   9.425 -1.3723  0.2188 -1.0123
 3930SOL     OW23425   0.924   0.464   7.720 -0.8101  0.0865  0.3618
 3930SOL    HW123426   0.939   0.480   7.813  0.4063 -1.1563  0.3797
 3930SOL    HW223427   0.962   0.377   7.705 -1.9075 -0.3018 -0.1907
 3931SOL     OW23428   1.892   1.275  14.991 -0.1432  0.2430  0.3036
 3931SOL    HW123429   1.906   1.339  14.921  1.2361 -0.0943  0.2729
 3931SOL    HW223430   1.966   1.288  15.050  0.8790 -2.4218 -0.3783
 3932SOL     OW23431   2.618   3.572   3.169 -0.0433 -0.8063  0.7545
 3932SOL    HW123432   2.662   3.645   3.125  0.7828 -0.5336  2.0347
 3932SOL    HW223433   2.529   3.606   3.181 -0.1924 -0.7178 -0.5164
 3933SOL     OW23434   3.984   1.776  15.987  0.0660 -0.2086 -0.1051
 3933SOL    HW123435   4.063   1.825  15.966 -0.2965  0.6987  0.6336
 3933SOL    HW223436   3.921   1.848  15.978  1.7426  1.5104  1.8451
 3934SOL     OW23437   0.003   1.820   8.035 -0.2606  0.3171  0.2486
 3934SOL    HW123438   4.715   1.908   8.011 -1.1266  0.1050  0.5108
 3934SOL    HW223439   0.086   1.820   7.987 -0.3312  3.7641  0.1100
 3935SOL     OW23440   2.414   3.661   1.481 -0.4523 -0.6898  0.1878
 3935SOL    HW123441   2.381   3.701   1.401 -0.2498  0.5878  0.7379
 3935SOL    HW223442   2.457   3.585   1.441 -0.2957 -0.5045 -0.0013
 3936SOL     OW23443   2.545   3.054   7.780  0.6581  0.6102 -0.0767
 3936SOL    HW123444   2.630   3.091   7.754  0.3276  0.0200 -1.9993
 3936SOL    HW223445   2.564   2.978   7.834 -1.2020 -1.2121 -1.9970
 3937SOL     OW23446   2.112   1.383   8.359 -0.3232 -0.2883  0.0858
 3937SOL    HW123447   2.124   1.338   8.443 -2.0270  1.2031  1.1334
 3937SOL    HW223448   2.019   1.407   8.357 -0.4503 -0.8010 -0.3710
 3938SOL     OW23449   4.207   0.472   4.878 -0.1560  0.5622 -0.2129
 3938SOL    HW123450   4.225   0.553   4.831 -0.0887  0.8968  0.3955
 3938SOL    HW223451   4.294   0.448   4.910 -0.8921  0.9173  2.1054
 3939SOL     OW23452   0.071   2.293  16.090 -0.3834 -0.1133  0.1632
 3939SOL    HW123453   0.076   2.275  16.184  1.4965  0.7787  0.2191
 3939SOL    HW223454   0.160   2.263  16.075  0.8598  4.1163 -0.9272
 3940SOL     OW23455   4.367   2.932   2.095 -0.7486 -0.1444  0.3698
 3940SOL    HW123456   4.416   2.988   2.036 -0.8790  1.2192  1.5384
 3940SOL    HW223457   4.440   2.910   2.153 -0.3482 -0.6521 -0.3291
 3941SOL     OW23458   2.785   0.658   2.082 -0.2303 -0.1512 -0.6967
 3941SOL    HW123459   2.807   0.575   2.125 -3.8968 -0.3512  0.7789
 3941SOL    HW223460   2.869   0.698   2.061  0.7521 -1.9058 -0.1120
 3942SOL     OW23461   1.300   3.649   3.952 -0.0006 -0.6798  0.6055
 3942SOL    HW123462   1.365   3.625   4.018  0.4102  0.1390  0.4963
 3942SOL    HW223463   1.218   3.630   3.998 -0.2691 -1.5864 -0.2355
 3943SOL     OW23464   2.402   3.115  14.528 -0.1847  0.3823  0.1858
 3943SOL    HW123465   2.451   3.178  14.475 -0.3517 -0.0110 -0.4337
 3943SOL    HW223466   2.425   3.028  14.496  0.0662  0.4191  0.2646
 3944SOL     OW23467   0.627   0.663   1.735  0.6162  0.4290  0.4603
 3944SOL    HW123468   0.567   0.657   1.809 -0.8879 -3.1577 -1.0503
 3944SOL    HW223469   0.618   0.753   1.705  0.3379  0.4404  0.5826
 3945SOL     OW23470   0.220   2.689  15.205  0.2762 -0.4967  0.0439
 3945SOL    HW123471   0.272   2.611  15.186 -1.2748 -1.1624 -1.4482
 3945SOL    HW223472   0.212   2.734  15.121 -3.6454  1.8045  1.6651
 3946SOL     OW23473   4.644   0.070   7.404  0.1798  0.2675 -0.2440
 3946SOL    HW123474   4.556   0.107   7.401  0.1323 -0.0139 -2.6589
 3946SOL    HW223475   4.693   0.135   7.354  0.0009  1.0362  0.5836
 3947SOL     OW23476   1.402   4.499  10.890 -0.0482 -0.2067 -0.0656
 3947SOL    HW123477   1.405   4.578  10.945 -1.6306  1.4217 -2.3428
 3947SOL    HW223478   1.323   4.515  10.840  0.0493  0.5667  0.0211
 3948SOL     OW23479   1.893   3.790   8.566 -0.9820  0.0240 -0.1423
 3948SOL    HW123480   1.877   3.807   8.473  1.4368 -0.1206 -0.5700
 3948SOL    HW223481   1.949   3.865   8.585 -1.1648  0.3346 -0.8267
 3949SOL     OW23482   3.755   4.208  11.176  0.0603 -0.5134  0.2993
 3949SOL    HW123483   3.737   4.277  11.240  1.4280 -0.1941  0.3328
 3949SOL    HW223484   3.677   4.194  11.122  0.8810 -0.6087 -0.8653
 3950SOL     OW23485   0.252   1.442   9.494  0.2835  0.2265 -0.3123
 3950SOL    HW123486   0.273   1.530   9.463  0.9410  0.4314  0.7395
 3950SOL    HW223487   0.291   1.444   9.581  0.2425  1.5102 -0.3256
 3951SOL     OW23488   2.080   2.661   6.747 -0.4773 -0.0637  0.1017
 3951SOL    HW123489   2.049   2.709   6.823  1.2745 -0.2617  0.9451
 3951SOL    HW223490   2.008   2.598   6.735 -1.1933  0.9892 -1.1291
 3952SOL     OW23491   0.967   2.801  17.351 -0.1552 -0.5646  0.2356
 3952SOL    HW123492   0.922   2.755  17.422 -2.3440  0.8293 -0.2264
 3952SOL    HW223493   0.903   2.863  17.314  0.3495 -0.0583  0.2124
 3953SOL     OW23494   0.744   4.529   7.913 -0.2506  0.8416  0.5248
 3953SOL    HW123495   0.678   4.497   7.851  0.6254 -1.8318  0.9777
 3953SOL    HW223496   0.817   4.470   7.895  1.2227  2.9112 -0.1601
 3954SOL     OW23497   0.115   0.754   9.847 -0.3194  0.9904 -0.2622
 3954SOL    HW123498   0.060   0.821   9.807  0.4169  1.4718 -0.4805
 3954SOL    HW223499   0.097   0.770   9.939  0.2444 -0.1918  0.0499
 3955SOL     OW23500   1.163   1.952   3.002 -0.2740 -0.1420 -0.3329
 3955SOL    HW123501   1.098   1.980   2.938 -0.2635 -0.1566 -0.3497
 3955SOL    HW223502   1.233   1.927   2.942 -2.6806 -2.9696 -1.9554
 3956SOL     OW23503   2.056   2.008   5.868 -0.3557  0.3704 -0.1062
 3956SOL    HW123504   2.017   2.025   5.953  0.2460 -0.7048  0.3873
 3956SOL    HW223505   1.991   2.022   5.799 -0.2686  1.7285  0.0876
 3957SOL     OW23506   4.599   4.174   5.173 -0.3608  0.4039 -0.2483
 3957SOL    HW123507   4.636   4.165   5.261  0.2225  3.1699 -0.1893
 3957SOL    HW223508   4.553   4.092   5.159  0.2921  0.0138 -0.0964
 3958SOL     OW23509   3.276   1.740  16.083 -0.4358  0.0052 -0.4405
 3958SOL    HW123510   3.371   1.750  16.079 -0.3098 -1.7119 -1.6282
 3958SOL    HW223511   3.241   1.810  16.138  2.0802  0.1352  1.0036
 3959SOL     OW23512   3.508   1.399   7.306  0.3296  0.3445  0.2189
 3959SOL    HW123513   3.594   1.368   7.333  1.2336  1.7586 -1.0616
 3959SOL    HW223514   3.446   1.361   7.369 -1.3058  0.8450 -1.0924
 3960SOL     OW23515   3.962   3.916   5.207  0.2359 -0.2730  0.1282
 3960SOL    HW123516   3.946   3.989   5.148  1.6419  0.8668  1.1484
 3960SOL    HW223517   3.971   3.955   5.294 -1.1478  0.9610 -0.2922
 3961SOL     OW23518   1.480   0.415   5.357  0.3815 -0.2488 -0.5623
 3961SOL    HW123519   1.573   0.427   5.375 -0.1904  0.4645  1.8952
 3961SOL    HW223520   1.470   0.465   5.276  1.3407 -1.2109 -1.2727
 3962SOL     OW23521   0.928   3.565  13.413  0.3283  0.1027 -0.3667
 3962SOL    HW123522   0.860   3.549  13.477  0.8373  1.6516  0.5562
 3962SOL    HW223523   0.946   3.473  13.396  3.4646  0.3804  1.5322
 3963SOL     OW23524   4.619   4.237  11.572 -0.0332  0.1811  0.2073
 3963SOL    HW123525   4.618   4.157  11.626  0.4847  1.0106  1.4558
 3963SOL    HW223526   4.632   4.305  11.638 -0.6150  0.5960 -0.1127
 3964SOL     OW23527   3.383   4.083  11.496 -0.8257 -0.3045  0.3982
 3964SOL    HW123528   3.352   4.046  11.413 -0.2668 -2.3475  1.1198
 3964SOL    HW223529   3.476   4.093  11.475 -1.8270 -0.2470 -4.1081
 3965SOL     OW23530   1.066   4.119   3.147  0.9163 -0.1803 -0.0778
 3965SOL    HW123531   1.043   4.073   3.227  0.0486 -1.1700 -0.8854
 3965SOL    HW223532   1.085   4.208   3.177 -0.9362 -0.7699  2.8815
 3966SOL     OW23533   3.417   1.718   7.347 -0.0398 -0.1338  0.1465
 3966SOL    HW123534   3.492   1.696   7.402  0.9081 -0.4606 -1.2955
 3966SOL    HW223535   3.417   1.644   7.287  0.1143  0.4314 -0.5469
 3967SOL     OW23536   1.345   0.479   4.351  0.5313 -0.0807 -0.4327
 3967SOL    HW123537   1.257   0.480   4.391  0.6131  0.5178 -0.2706
 3967SOL    HW223538   1.344   0.393   4.310 -0.0428 -0.0151 -0.5538
 3968SOL     OW23539   2.901   1.318   9.415  0.1698  0.0182  0.1803
 3968SOL    HW123540   2.933   1.341   9.328  1.2425 -0.5994  0.4162
 3968SOL    HW223541   2.940   1.389   9.466  1.1772  0.3283 -1.0191
 3969SOL     OW23542   2.031   1.577   3.932 -0.5031 -1.0477  0.0929
 3969SOL    HW123543   1.945   1.549   3.964 -1.1744  1.7551  0.7792
 3969SOL    HW223544   2.024   1.673   3.939  0.8611 -0.8803 -0.8344
 3970SOL     OW23545   2.486   4.174   2.812  0.4792  0.1376  0.2497
 3970SOL    HW123546   2.423   4.106   2.836  2.2077 -1.6604 -0.2672
 3970SOL    HW223547   2.533   4.193   2.893  0.1029  0.8835  0.2929
 3971SOL     OW23548   1.098   0.721   7.759 -0.7084  0.0781 -0.3702
 3971SOL    HW123549   1.133   0.633   7.775 -1.5164  0.1073  1.5691
 3971SOL    HW223550   1.057   0.744   7.843 -1.6769 -0.4463 -0.7067
 3972SOL     OW23551   2.941   4.424  15.335  0.0318  0.3689  0.1831
 3972SOL    HW123552   2.998   4.348  15.347 -1.6062 -0.5760  2.0397
 3972SOL    HW223553   2.994   4.498  15.365  1.9521  0.0607 -2.4601
 3973SOL     OW23554   0.947   1.930  11.494 -0.1513 -0.1818  0.7764
 3973SOL    HW123555   0.914   1.904  11.408 -1.8157  0.2101  1.2866
 3973SOL    HW223556   1.007   2.000  11.469  0.8269 -1.0370  0.7413
 3974SOL     OW23557   1.922   3.854   7.968  0.2530 -0.5247  0.0129
 3974SOL    HW123558   1.829   3.865   7.986 -0.3298 -1.0171 -2.5774
 3974SOL    HW223559   1.942   3.948   7.964 -1.8900 -0.1261 -1.5443
 3975SOL     OW23560   2.825   4.485   5.828 -0.0045 -0.0561 -0.0784
 3975SOL    HW123561   2.807   4.539   5.751 -0.0158 -0.0569 -0.0764
 3975SOL    HW223562   2.918   4.465   5.818  0.3136  1.0834  0.5676
 3976SOL     OW23563   1.935   3.776   8.277  0.1466 -0.2922 -0.4773
 3976SOL    HW123564   1.986   3.803   8.201 -1.5930  1.9267 -0.8387
 3976SOL    HW223565   1.924   3.685   8.250 -0.0961 -0.0274 -1.2439
 3977SOL     OW23566   0.472   2.113  15.727  0.7630  0.1308  0.4248
 3977SOL    HW123567   0.421   2.189  15.698 -0.1737 -0.7423 -0.2203
 3977SOL    HW223568   0.506   2.083  15.642  0.3540 -1.3847  0.7948
 3978SOL     OW23569   2.616   4.738  15.040  0.2215 -0.5911 -0.4424
 3978SOL    HW123570   2.547   4.701  15.095 -0.3335  0.3889 -0.4786
 3978SOL    HW223571   2.569   0.078  15.019 -0.8176 -0.8283  1.0222
 3979SOL     OW23572   4.727   3.023   2.103 -0.3913 -0.2716  0.6286
 3979SOL    HW123573   0.053   3.021   2.034  0.8846  0.5506  1.8378
 3979SOL    HW223574   0.008   3.110   2.137  1.5696 -0.6166  0.2587
 3980SOL     OW23575   2.370   3.999   9.109 -0.0929  0.6972 -0.1804
 3980SOL    HW123576   2.428   4.072   9.090  1.3986 -0.1021  1.2976
 3980SOL    HW223577   2.351   3.963   9.023 -0.5916  0.0643  0.1947
 3981SOL     OW23578   2.185   3.820   7.847 -0.1859 -0.1322  0.2858
 3981SOL    HW123579   2.257   3.793   7.904 -0.7557 -2.2292  0.0053
 3981SOL    HW223580   2.103   3.814   7.896 -1.4495 -0.4284 -1.8419
 3982SOL     OW23581   0.584   0.440   9.479 -0.0754 -0.3776 -0.1704
 3982SOL    HW123582   0.517   0.387   9.437 -0.8853 -0.9098  1.8174
 3982SOL    HW223583   0.520   0.473   9.541 -1.8636  0.9258 -2.7030
 3983SOL     OW23584   4.434   2.140   0.091  0.5696 -0.2202 -0.1131
 3983SOL    HW123585   4.394   2.062   0.053 -1.6759  1.1544 -0.5376
 3983SOL    HW223586   4.527   2.119   0.082  0.6591  0.6698 -1.2323
 3984SOL     OW23587   0.855   3.952   3.512 -0.2048 -0.8175 -0.4094
 3984SOL    HW123588   0.905   4.027   3.545 -1.1607 -1.1539  1.8374
 3984SOL    HW223589   0.921   3.904   3.463 -0.2434  1.2539 -2.4891
 3985SOL     OW23590   3.085   1.002  12.551 -0.3038 -0.6422 -0.1029
 3985SOL    HW123591   3.022   0.941  12.589 -0.1234 -0.4205  0.5448
 3985SOL    HW223592   3.169   0.956  12.542  1.0301  1.9716 -0.9217
 3986SOL     OW23593   2.515   2.114   3.462  0.0884 -0.4108 -0.0680
 3986SOL    HW123594   2.559   2.077   3.386 -0.2342 -0.6549 -0.1377
 3986SOL    HW223595   2.498   2.201   3.427  1.9832 -0.9318 -2.2968
 3987SOL     OW23596   2.249   3.753  13.258  0.4098  0.3698 -0.1880
 3987SOL    HW123597   2.183   3.717  13.317  2.4836 -0.7487  1.4488
 3987SOL    HW223598   2.332   3.744  13.304 -1.3364  0.8828  3.0122
 3988SOL     OW23599   0.108   3.191   5.860 -0.2009 -0.4602  0.2525
 3988SOL    HW123600   0.063   3.124   5.912 -1.3041  1.1756  1.4163
 3988SOL    HW223601   0.147   3.250   5.924 -0.8157  0.8120 -0.5309
 3989SOL     OW23602   1.594   2.269   1.824 -0.0844  0.0192 -0.1544
 3989SOL    HW123603   1.539   2.203   1.782 -0.0026  0.3112 -0.7236
 3989SOL    HW223604   1.544   2.349   1.816  1.9153  1.2638 -0.2784
 3990SOL     OW23605   1.130   4.382   1.083  0.3667  0.3659 -0.5096
 3990SOL    HW123606   1.217   4.397   1.119 -0.2648 -1.1765  1.6894
 3990SOL    HW223607   1.091   4.468   1.101  0.2600  0.2562 -0.2179
 3991SOL     OW23608   0.737   2.906   0.190  0.2835  0.8081  0.3994
 3991SOL    HW123609   0.781   2.822   0.178  0.3175  1.2767 -2.7315
 3991SOL    HW223610   0.807   2.958   0.229  1.2763  0.7922 -1.3640
 3992SOL     OW23611   2.538   4.069  13.345  0.1801 -0.0933 -0.1509
 3992SOL    HW123612   2.514   4.097  13.433  1.0570 -2.4433  0.8064
 3992SOL    HW223613   2.549   3.980  13.377 -0.7576  0.3396  1.3331
 3993SOL     OW23614   3.043   1.482  12.751  0.2893 -0.1619  0.0659
 3993SOL    HW123615   3.044   1.454  12.843  2.3765  0.5136  0.2413
 3993SOL    HW223616   3.076   1.403  12.709  0.1602 -0.0208 -0.3029
 3994SOL     OW23617   0.595   0.018   6.989 -0.4023  0.3785 -0.4781
 3994SOL    HW123618   0.677   4.730   7.030 -0.5906  0.0431 -0.3276
 3994SOL    HW223619   0.533   0.045   7.057 -0.4814  0.2354 -0.4914
 3995SOL     OW23620   3.376   0.326   6.129 -0.3431  0.0858  0.0684
 3995SOL    HW123621   3.317   0.251   6.118  0.8546 -1.0225  1.2386
 3995SOL    HW223622   3.370   0.343   6.223 -1.3132  0.7108 -0.1007
 3996SOL     OW23623   2.591   2.724   8.160  0.8035 -0.1355 -0.1092
 3996SOL    HW123624   2.589   2.648   8.218 -2.2532 -0.0147 -0.0323
 3996SOL    HW223625   2.543   2.782   8.219 -2.3116 -0.2338 -2.5363
 3997SOL     OW23626   3.770   4.205   3.447  0.6751  0.4201  0.5515
 3997SOL    HW123627   3.739   4.250   3.368 -1.9381  0.3294  1.5064
 3997SOL    HW223628   3.691   4.171   3.490  2.4336 -0.7490  2.8221
 3998SOL     OW23629   0.031   1.793   1.914 -0.0040  0.1121 -0.2015
 3998SOL    HW123630   4.706   1.722   1.916 -0.8971  0.9696  0.9301
 3998SOL    HW223631   0.037   1.800   1.818 -0.5277 -0.3175 -0.2694
 3999SOL     OW23632   1.562   4.105   6.810 -0.1211 -0.2966 -0.4591
 3999SOL    HW123633   1.571   4.011   6.795 -0.6689 -0.7336  1.9737
 3999SOL    HW223634   1.481   4.121   6.857  1.2186  0.2025  1.7028
 4000SOL     OW23635   1.593   4.236   7.260 -0.1886  0.0885 -0.2680
 4000SOL    HW123636   1.514   4.289   7.250 -1.2838 -1.6768 -1.0679
 4000SOL    HW223637   1.599   4.233   7.356 -0.2271 -1.8772 -0.3188
 4001SOL     OW23638   1.524   2.806   3.381 -0.0421 -0.0432  0.4935
 4001SOL    HW123639   1.569   2.825   3.299 -0.6057 -1.1178 -0.0777
 4001SOL    HW223640   1.500   2.716   3.358 -0.4560 -0.1448  1.3237
 4002SOL     OW23641   0.048   0.072  12.459 -0.1723 -0.2987  0.0801
 4002SOL    HW123642   0.106   0.128  12.511 -0.1783  1.1911 -1.5106
 4002SOL    HW223643   0.102   4.734  12.447 -0.1204 -0.1766 -0.4632
 4003SOL     OW23644   1.842   1.452   8.688 -0.1138 -0.0855 -0.0782
 4003SOL    HW123645   1.885   1.538   8.688  0.4100 -0.3466  2.0779
 4003SOL    HW223646   1.894   1.404   8.625 -0.5315  0.8354 -1.1151
 4004SOL     OW23647   3.537   4.068   3.524  0.3985  0.3168  0.2767
 4004SOL    HW123648   3.503   3.998   3.468  0.1243  1.1754 -0.6448
 4004SOL    HW223649   3.589   4.024   3.592  0.5150 -0.0847 -0.0710
 4005SOL     OW23650   2.811   1.542   6.632  0.1594 -0.1029 -0.0403
 4005SOL    HW123651   2.866   1.537   6.554  1.7716 -0.0985  1.0865
 4005SOL    HW223652   2.886   1.552   6.690  0.1137 -0.0478  0.0086
 4006SOL     OW23653   1.585   2.051   3.393  0.0410  0.5538  0.4229
 4006SOL    HW123654   1.649   2.105   3.347  2.0658 -2.3877 -0.2028
 4006SOL    HW223655   1.563   2.109   3.466  1.8153  0.9589  0.6305
 4007SOL     OW23656   4.092   2.230   3.712 -0.4182 -0.1524 -0.8284
 4007SOL    HW123657   4.003   2.263   3.698 -0.3270  0.7943  0.7393
 4007SOL    HW223658   4.104   2.234   3.807 -1.0072  0.0773 -0.7640
 4008SOL     OW23659   1.952   0.981   3.402 -0.3588  0.0032  0.0542
 4008SOL    HW123660   1.956   1.059   3.347  1.7757 -0.9901 -1.2434
 4008SOL    HW223661   1.860   0.968   3.422 -0.2039  0.2287  0.9016
 4009SOL     OW23662   3.357   2.685   0.734  0.3836 -0.4001 -0.0898
 4009SOL    HW123663   3.440   2.726   0.758  0.0676 -0.5448  1.2730
 4009SOL    HW223664   3.387   2.602   0.697  2.5680 -0.4514  1.7906
 4010SOL     OW23665   1.139   2.531   3.186 -0.4949  0.8084  0.3714
 4010SOL    HW123666   1.219   2.580   3.167 -1.7505  1.3283 -3.5042
 4010SOL    HW223667   1.076   2.599   3.211  0.4376  2.1311 -0.8777
 4011SOL     OW23668   1.728   2.405   8.503 -0.5244  0.4143  0.8992
 4011SOL    HW123669   1.636   2.400   8.531 -0.8801  0.8498 -0.1962
 4011SOL    HW223670   1.767   2.332   8.552  2.1552  0.5770 -0.9960
 4012SOL     OW23671   0.224   0.614   0.847 -0.2162 -0.3109  0.5215
 4012SOL    HW123672   0.254   0.639   0.759  0.1052 -2.6854 -0.0310
 4012SOL    HW223673   0.150   0.674   0.860  0.4621  0.5811  0.2942
 4013SOL     OW23674   0.986   1.163   5.340 -0.4648  0.1583  0.1834
 4013SOL    HW123675   1.052   1.221   5.379 -0.8405  0.6773  0.0449
 4013SOL    HW223676   0.959   1.106   5.413  1.5792  0.3507  1.1007
 4014SOL     OW23677   1.487   0.433   3.797  0.4765  0.5317  0.3506
 4014SOL    HW123678   1.464   0.400   3.884 -2.2329  0.8202 -0.2776
 4014SOL    HW223679   1.400   0.435   3.758  0.7731  0.6343 -0.3074
 4015SOL     OW23680   3.556   0.284  10.209  0.1921 -0.0291 -0.2144
 4015SOL    HW123681   3.499   0.360  10.225  2.3566  1.8262 -1.4242
 4015SOL    HW223682   3.492   0.213  10.210  0.2412 -0.0449  2.0550
 4016SOL     OW23683   1.183   4.482   1.639  0.0196  0.1872 -0.5818
 4016SOL    HW123684   1.128   4.504   1.564 -0.8694  0.7237  0.2326
 4016SOL    HW223685   1.211   4.568   1.672 -0.7105  1.1477 -2.4749
 4017SOL     OW23686   4.733   3.817   2.667 -0.1335  0.0369 -0.0084
 4017SOL    HW123687   4.723   3.912   2.674 -0.7895 -0.0831  0.7526
 4017SOL    HW223688   4.648   3.776   2.685 -0.3815  0.3631 -0.4450
 4018SOL     OW23689   3.863   1.288  12.261  0.0674 -0.4980  0.1639
 4018SOL    HW123690   3.949   1.310  12.226 -0.0461 -0.4331 -0.0763
 4018SOL    HW223691   3.813   1.367  12.241 -0.8906 -0.6049  2.0606
 4019SOL     OW23692   0.435   0.792   5.108 -0.1962  0.5114  0.3474
 4019SOL    HW123693   0.503   0.724   5.103 -0.6892 -0.0161  0.8298
 4019SOL    HW223694   0.483   0.873   5.092  0.5598  0.5533  2.7328
 4020SOL     OW23695   3.055   4.646   3.403  0.7095  0.2403 -0.2955
 4020SOL    HW123696   3.140   4.680   3.432  0.3658  0.9308 -0.0987
 4020SOL    HW223697   3.039   4.586   3.476  2.2083  1.1129  0.7706
 4021SOL     OW23698   3.848   4.066   8.669 -0.4271  0.0801 -0.0506
 4021SOL    HW123699   3.775   4.010   8.697 -0.9026 -0.6453 -2.7851
 4021SOL    HW223700   3.854   4.125   8.744  3.0281  2.1856 -2.0175
 4022SOL     OW23701   2.713   4.712   3.518  0.3163  0.5830 -0.2203
 4022SOL    HW123702   2.717   0.063   3.550 -1.9627 -0.2955  2.5529
 4022SOL    HW223703   2.794   4.676   3.555 -0.4700 -1.8940 -0.9733
 4023SOL     OW23704   0.379   0.851   8.148  0.4366  0.3531  0.5229
 4023SOL    HW123705   0.454   0.817   8.197  0.9684  0.4785 -0.2056
 4023SOL    HW223706   0.336   0.883   8.228 -0.9056 -1.4578  0.5189
 4024SOL     OW23707   1.105   4.155   7.090  0.3183  0.2854  0.2609
 4024SOL    HW123708   1.101   4.209   7.012  1.9476 -0.2080 -0.1591
 4024SOL    HW223709   1.017   4.147   7.127  0.6456  2.8204  1.5833
 4025SOL     OW23710   1.256   2.842  17.420 -0.5681  0.1516  0.2383
 4025SOL    HW123711   1.171   2.833  17.377 -0.0719 -0.6435 -0.5837
 4025SOL    HW223712   1.260   2.937  17.430 -1.0023 -0.0816  2.5366
 4026SOL     OW23713   1.626   4.414  10.764  0.3607  0.2986 -0.0976
 4026SOL    HW123714   1.676   4.379  10.838 -1.9307 -0.2980  1.1601
 4026SOL    HW223715   1.544   4.437  10.806  0.0510  0.0515 -0.5701
 4027SOL     OW23716   2.666   1.772   3.101  0.1756  0.0838  0.3608
 4027SOL    HW123717   2.643   1.704   3.164  1.6784 -0.5542  0.2132
 4027SOL    HW223718   2.626   1.842   3.152 -2.7272 -0.7122 -0.7819
 4028SOL     OW23719   2.186   3.540   0.078  0.1505  0.1610  0.9523
 4028SOL    HW123720   2.227   3.605   0.135  3.7061 -0.0433 -1.3410
 4028SOL    HW223721   2.254   3.527   0.012 -0.5923  3.2268 -0.4326
 4029SOL     OW23722   3.332   3.065   2.735  0.1002  0.6203  0.1573
 4029SOL    HW123723   3.425   3.058   2.713  0.1334  0.5860  0.3104
 4029SOL    HW223724   3.295   3.061   2.647  0.1828  1.6411  0.0777
 4030SOL     OW23725   1.195   2.834   5.028  0.0965 -0.0198  0.6358
 4030SOL    HW123726   1.206   2.807   5.119  1.3843 -0.7182  0.2714
 4030SOL    HW223727   1.151   2.916   5.050  2.4036  1.4024 -0.0094
 4031SOL     OW23728   1.109   3.674   2.057  0.1584 -0.0695  0.2312
 4031SOL    HW123729   1.129   3.674   1.963  0.6175 -0.8247  0.3237
 4031SOL    HW223730   1.015   3.660   2.061 -0.0572  1.5328  0.6737
 4032SOL     OW23731   3.124   2.157   3.845 -0.8960 -0.1691 -0.2648
 4032SOL    HW123732   3.142   2.109   3.764 -0.8385 -1.5517  0.5672
 4032SOL    HW223733   3.045   2.120   3.884 -0.6959  0.2047  0.4949
 4033SOL     OW23734   3.482   2.948   8.898 -0.0119  0.0103  0.4378
 4033SOL    HW123735   3.515   3.038   8.892 -1.6554  0.4314 -2.4678
 4033SOL    HW223736   3.390   2.970   8.910 -0.5644 -1.8065 -0.5291
 4034SOL     OW23737   3.235   0.942   3.380  0.2221 -0.1546 -0.0341
 4034SOL    HW123738   3.207   0.892   3.456  1.7388  0.7514  1.1282
 4034SOL    HW223739   3.321   0.974   3.409  0.2861 -1.2570  0.9647
 4035SOL     OW23740   4.580   3.713  10.300 -0.2139  0.1379  0.3173
 4035SOL    HW123741   4.486   3.712  10.319 -0.6790 -0.5315 -2.0342
 4035SOL    HW223742   4.600   3.635  10.248 -4.0790  1.4815 -3.1185
 4036SOL     OW23743   1.822   4.174  15.310  0.0811  0.0602 -0.2113
 4036SOL    HW123744   1.766   4.223  15.371 -0.8906  0.4885 -1.4505
 4036SOL    HW223745   1.770   4.099  15.281 -0.6073  1.2651 -2.0786
 4037SOL     OW23746   0.223   2.484   1.196 -0.0061 -0.6477 -0.1461
 4037SOL    HW123747   0.130   2.504   1.202  0.1727  0.5676 -1.5517
 4037SOL    HW223748   0.248   2.554   1.136  0.9662  0.0499  1.0658
 4038SOL     OW23749   1.190   4.030  13.452 -0.2775 -0.0921 -0.2651
 4038SOL    HW123750   1.162   4.073  13.532  1.1180 -0.5814  0.4803
 4038SOL    HW223751   1.120   3.965  13.443 -2.5588  2.2244  0.9964
 4039SOL     OW23752   3.655   1.564   3.353 -0.3008 -0.2020 -0.8557
 4039SOL    HW123753   3.700   1.600   3.429 -1.1422  1.0737 -0.9693
 4039SOL    HW223754   3.704   1.481   3.349 -0.3345 -0.2284 -0.7345
 4040SOL     OW23755   3.157   3.051   2.973  0.9948  0.1930  0.4641
 4040SOL    HW123756   3.185   2.981   3.031 -1.1983 -0.7668  0.3361
 4040SOL    HW223757   3.222   3.045   2.902  1.3587 -0.5700  0.8595
 4041SOL     OW23758   3.760   0.918   2.504  0.0370 -0.0927 -0.5667
 4041SOL    HW123759   3.853   0.936   2.490  0.4186  0.8030  3.0408
 4041SOL    HW223760   3.759   0.823   2.493 -1.6898  0.0178 -1.2363
 4042SOL     OW23761   0.362   0.292   2.015  0.7209 -0.1622  0.0437
 4042SOL    HW123762   0.408   0.376   2.014 -0.8418  0.6822 -1.1296
 4042SOL    HW223763   0.402   0.249   2.091  3.1267  2.1098  0.0524
 4043SOL     OW23764   4.173   1.555   9.820 -0.6195 -0.1650  0.4266
 4043SOL    HW123765   4.167   1.615   9.895  1.6242  0.4826  0.0623
 4043SOL    HW223766   4.266   1.536   9.827 -0.5726  0.9311  2.9224
 4044SOL     OW23767   1.766   2.763  11.219  0.7702 -0.1686  0.5535
 4044SOL    HW123768   1.790   2.762  11.311  0.3192  3.7811  0.7002
 4044SOL    HW223769   1.837   2.716  11.174 -0.5362 -2.3172  0.7354
 4045SOL     OW23770   1.776   2.728   8.665  0.7552  0.3126 -0.2673
 4045SOL    HW123771   1.761   2.634   8.661  2.4493  0.0212  0.3582
 4045SOL    HW223772   1.868   2.736   8.691  0.5639 -0.5400  0.6187
 4046SOL     OW23773   0.921   3.875  12.831  0.4246  0.2451  0.4254
 4046SOL    HW123774   0.949   3.801  12.884  1.4763  0.5311  0.2708
 4046SOL    HW223775   0.921   3.949  12.893  1.0419 -1.5554  2.5925
 4047SOL     OW23776   1.115   2.663  15.942 -0.3830  0.0605  0.1198
 4047SOL    HW123777   1.137   2.668  15.849  0.0897  2.2920  0.3428
 4047SOL    HW223778   1.022   2.685  15.950 -0.7020 -0.8374 -1.0956
 4048SOL     OW23779   2.241   2.353  16.561 -0.2015  0.0471 -0.2013
 4048SOL    HW123780   2.150   2.339  16.587  0.2351  1.5338  2.1088
 4048SOL    HW223781   2.263   2.260  16.569 -0.7599  0.0355  1.0626
 4049SOL     OW23782   0.168   1.092   2.662  0.2126 -0.2317  0.4792
 4049SOL    HW123783   0.119   1.084   2.580 -3.2401  1.0836  2.4486
 4049SOL    HW223784   0.163   1.003   2.697 -1.8528 -0.2514  0.1178
 4050SOL     OW23785   4.402   1.214   9.365 -0.3348 -0.0155  0.2898
 4050SOL    HW123786   4.443   1.162   9.296 -2.1523  0.7659 -1.3693
 4050SOL    HW223787   4.411   1.148   9.434  0.8277 -0.8262 -0.6499
 4051SOL     OW23788   0.291   1.685   0.273  0.1532  0.0809  0.0347
 4051SOL    HW123789   0.334   1.690   0.188  0.7331  0.0232  0.3234
 4051SOL    HW223790   0.370   1.682   0.327 -0.2062 -1.9575  0.4480
 4052SOL     OW23791   0.813   1.726   2.784 -0.1704  0.1690 -0.0200
 4052SOL    HW123792   0.897   1.710   2.742 -0.5508 -2.2038  0.1321
 4052SOL    HW223793   0.838   1.730   2.876 -2.0548 -0.8726  0.5564
 4053SOL     OW23794   2.688   4.713   8.173 -0.1882 -0.0924 -0.0868
 4053SOL    HW123795   2.646   4.736   8.256  0.4090 -1.5423  0.6096
 4053SOL    HW223796   2.675   4.619   8.161  0.1059 -0.4127  2.0662
 4054SOL     OW23797   0.097   1.981  14.831  0.2295  0.5134  0.0946
 4054SOL    HW123798   0.105   1.901  14.779 -0.3385 -0.2501  1.1787
 4054SOL    HW223799   0.181   1.994  14.876  1.3159 -1.2294 -1.4374
 4055SOL     OW23800   2.622   3.432  14.168  0.0434  0.1812  0.5363
 4055SOL    HW123801   2.552   3.493  14.144  2.1695  2.2146 -0.5140
 4055SOL    HW223802   2.691   3.498  14.173 -1.4013  1.9995 -3.4618
 4056SOL     OW23803   1.309   4.166   2.294 -0.2706  0.0813  0.2103
 4056SOL    HW123804   1.246   4.103   2.331  1.0878 -1.7958 -0.6750
 4056SOL    HW223805   1.383   4.116   2.329  0.3892  0.7089 -0.3138
 4057SOL     OW23806   0.031   4.730   5.184 -0.0741 -0.2212  0.2817
 4057SOL    HW123807   4.699   4.698   5.129  1.3039 -2.6024 -0.1586
 4057SOL    HW223808   0.101   0.004   5.121  0.1437 -1.0275  0.3446
 4058SOL     OW23809   1.201   3.749   8.968 -0.1444 -0.2353 -0.2206
 4058SOL    HW123810   1.125   3.698   8.940 -0.4731 -0.1482  0.5024
 4058SOL    HW223811   1.261   3.759   8.894 -0.5008 -0.0649 -0.4858
 4059SOL     OW23812   2.865   3.899   2.749  0.0047 -0.1895  0.6977
 4059SOL    HW123813   2.936   3.836   2.751 -0.3721 -0.6033  0.9128
 4059SOL    HW223814   2.788   3.842   2.751  1.9845 -2.8052  1.6476
 4060SOL     OW23815   0.229   1.512   5.574  0.2241 -0.2177  0.1410
 4060SOL    HW123816   0.151   1.501   5.628 -0.0951  1.9040  0.1028
 4060SOL    HW223817   0.209   1.593   5.526 -0.5893 -1.0258 -0.8896
 4061SOL     OW23818   1.040   0.954  14.834  0.2548  0.0438 -0.5533
 4061SOL    HW123819   0.998   1.037  14.856 -3.2529 -1.7412 -0.5128
 4061SOL    HW223820   1.130   0.986  14.834  0.6173 -0.9467  2.2985
 4062SOL     OW23821   0.761   0.408   5.219  0.7034 -0.2745  0.0682
 4062SOL    HW123822   0.811   0.327   5.221 -0.8290 -1.1951  1.9917
 4062SOL    HW223823   0.764   0.438   5.310 -0.2139  1.0971 -0.3581
 4063SOL     OW23824   0.981   2.345   2.351 -0.1715 -0.0368  0.3623
 4063SOL    HW123825   0.984   2.365   2.444 -1.0573 -1.1295  0.6291
 4063SOL    HW223826   1.015   2.256   2.357 -1.0253 -0.4084 -0.1932
 4064SOL     OW23827   3.570   0.281  11.029 -1.0903  0.4853 -0.1558
 4064SOL    HW123828   3.666   0.275  11.024 -1.0399  1.7279 -0.6941
 4064SOL    HW223829   3.551   0.252  11.118 -2.2176  1.5012 -0.0706
 4065SOL     OW23830   4.423   0.884   6.176  0.6868  0.1516 -0.3315
 4065SOL    HW123831   4.480   0.958   6.195  0.6158  0.2828 -0.6316
 4065SOL    HW223832   4.427   0.844   6.263  1.3141  0.8541 -0.0452
 4066SOL     OW23833   0.954   3.400   8.274 -0.0419 -0.1962 -0.6719
 4066SOL    HW123834   1.005   3.470   8.313  1.2122 -0.8293 -1.1933
 4066SOL    HW223835   0.916   3.448   8.200  1.3159  0.2164 -1.1037
 4067SOL     OW23836   4.120   3.110   8.736  0.2922  0.0448  0.0805
 4067SOL    HW123837   4.024   3.108   8.735  0.2352  2.8538 -2.1020
 4067SOL    HW223838   4.135   3.175   8.667 -0.7976  1.4609  1.1797
 4068SOL     OW23839   1.351   4.147   2.039 -0.8433 -0.0086 -0.1631
 4068SOL    HW123840   1.334   4.152   2.133 -0.1875 -0.5877 -0.0103
 4068SOL    HW223841   1.324   4.056   2.031  0.8114 -0.8260  3.2780
 4069SOL     OW23842   3.510   2.466   0.669 -0.0983 -0.1401 -0.1920
 4069SOL    HW123843   3.589   2.479   0.616 -1.1329  1.2754 -1.3539
 4069SOL    HW223844   3.553   2.428   0.746 -1.1184 -1.0455 -0.0568
 4070SOL     OW23845   4.460   0.766  13.550 -0.4310 -0.9612 -1.0555
 4070SOL    HW123846   4.512   0.769  13.630 -0.4367  1.0090 -1.1301
 4070SOL    HW223847   4.503   0.812  13.479  0.3034  0.7658  0.5181
 4071SOL     OW23848   1.225   1.032   9.046 -0.4029  0.3407 -0.2367
 4071SOL    HW123849   1.137   1.000   9.065 -0.2015  0.7455  1.4034
 4071SOL    HW223850   1.272   1.018   9.128  1.1352  0.3742 -1.1128
 4072SOL     OW23851   2.566   3.785   4.060 -0.3573 -0.1182  0.5196
 4072SOL    HW123852   2.515   3.704   4.056 -0.7438  0.1676 -0.4468
 4072SOL    HW223853   2.611   3.769   3.977  0.0486 -0.0576  0.7297
 4073SOL     OW23854   2.722   0.596  16.959  0.1096  0.5378 -0.0436
 4073SOL    HW123855   2.769   0.516  16.938 -0.5210 -0.1582  1.2332
 4073SOL    HW223856   2.647   0.573  17.013  0.8478 -1.2494  0.1973
 4074SOL     OW23857   1.871   4.412  10.416  0.1251 -0.2708 -0.1847
 4074SOL    HW123858   1.829   4.327  10.433 -2.2692  1.2520  1.6322
 4074SOL    HW223859   1.797   4.472  10.431 -2.0547 -3.1083  0.5051
 4075SOL     OW23860   2.957   0.973   6.486  0.3762  0.0125  0.1210
 4075SOL    HW123861   2.907   0.933   6.557 -0.8458  1.1258 -0.1128
 4075SOL    HW223862   2.905   1.052   6.473  2.2790  1.2001 -0.2823
 4076SOL     OW23863   0.599   3.183   4.101 -0.0532  0.4154  0.1900
 4076SOL    HW123864   0.603   3.279   4.106  2.1196  0.3112  0.5921
 4076SOL    HW223865   0.546   3.170   4.023  1.9515  2.1644 -1.4730
 4077SOL     OW23866   1.872   3.637  11.932  0.5909 -0.0544  0.7288
 4077SOL    HW123867   1.959   3.599  11.939  0.1025 -1.1795  0.6798
 4077SOL    HW223868   1.879   3.724  11.972  0.1317 -1.2449  3.3410
 4078SOL     OW23869   3.153   0.827   3.152 -0.0404  0.8722 -0.0582
 4078SOL    HW123870   3.200   0.743   3.160 -1.8379 -0.3814 -2.6736
 4078SOL    HW223871   3.192   0.886   3.216  0.3660 -2.2755  2.5811
 4079SOL     OW23872   0.982   3.957   2.113  0.2800 -0.1172 -0.0611
 4079SOL    HW123873   0.971   3.891   2.044  0.7414 -1.2696  0.9600
 4079SOL    HW223874   1.073   3.986   2.108  0.1458 -0.0866 -2.6025
 4080SOL     OW23875   3.628   0.311   9.412 -0.3189 -0.0252  0.0883
 4080SOL    HW123876   3.620   0.259   9.492  2.2233  1.7933  1.5182
 4080SOL    HW223877   3.544   0.290   9.370 -0.5943 -0.8677  1.0629
 4081SOL     OW23878   2.734   4.364   2.273  0.0221 -0.3199  0.5641
 4081SOL    HW123879   2.769   4.333   2.189  3.5881  2.6408  0.9569
 4081SOL    HW223880   2.813   4.347   2.324  0.9642  3.4965  0.3634
 4082SOL     OW23881   0.536   1.999  13.056 -0.2147 -0.1237  0.4354
 4082SOL    HW123882   0.536   1.904  13.042 -0.2701  0.2253 -1.9462
 4082SOL    HW223883   0.509   2.028  12.969 -3.2508 -2.8726  0.4765
 4083SOL     OW23884   0.419   3.152   6.769  0.3344  0.1402 -0.3116
 4083SOL    HW123885   0.335   3.163   6.725 -0.5646 -1.3150  1.0323
 4083SOL    HW223886   0.450   3.240   6.788 -0.6453  0.1101  1.4230
 4084SOL     OW23887   3.069   1.190   7.744  0.9796  0.4775 -0.1276
 4084SOL    HW123888   2.988   1.149   7.713 -0.2128  2.6995  0.0257
 4084SOL    HW223889   3.138   1.153   7.689 -1.4141 -1.8028 -1.6171
 4085SOL     OW23890   0.954   2.263   4.014  0.2911  0.0594  0.7281
 4085SOL    HW123891   0.860   2.247   4.000  0.7919 -0.1426 -2.3687
 4085SOL    HW223892   0.974   2.313   3.935 -0.6768 -1.5063 -0.5279
 4086SOL     OW23893   0.934   1.781   8.185  0.3732  0.1066 -0.2539
 4086SOL    HW123894   0.876   1.733   8.244 -0.0581 -1.3289 -1.8339
 4086SOL    HW223895   0.964   1.714   8.124 -1.5670 -1.5313  0.5865
 4087SOL     OW23896   1.103   0.529   0.082  0.4888  0.0117  0.2906
 4087SOL    HW123897   1.120   0.438   0.056  0.7282  0.3006 -0.5764
 4087SOL    HW223898   1.125   0.528   0.175 -0.0767  0.2123  0.4300
 4088SOL     OW23899   0.565   1.054  16.095 -0.0970  0.3340 -0.0071
 4088SOL    HW123900   0.598   1.116  16.030 -0.4479 -0.9725 -1.4392
 4088SOL    HW223901   0.512   1.008  16.029  1.1095 -0.1907 -0.6271
 4089SOL     OW23902   1.709   2.843  17.527 -0.6417 -0.3717 -0.3364
 4089SOL    HW123903   1.742   2.849  17.617  0.5714  3.3692 -1.0297
 4089SOL    HW223904   1.648   2.769  17.526 -2.2549  0.9506  0.2686
 4090SOL     OW23905   2.359   2.466   2.504 -0.2859 -0.1133 -0.5313
 4090SOL    HW123906   2.278   2.509   2.477 -0.7619  0.0614  1.1611
 4090SOL    HW223907   2.326   2.386   2.545 -1.1185  0.7127  0.4173
 4091SOL     OW23908   0.762   2.933   7.726 -0.1269  0.3607  0.4214
 4091SOL    HW123909   0.681   2.975   7.697  0.4822  0.0700 -1.6868
 4091SOL    HW223910   0.792   2.890   7.646  0.0535 -0.8467  1.1408
 4092SOL     OW23911   0.343   2.792  14.359  0.2688 -0.6022 -0.4336
 4092SOL    HW123912   0.392   2.847  14.298 -0.3626  1.0579  0.5516
 4092SOL    HW223913   0.322   2.854  14.429  2.9222 -0.2889  0.0657
 4093SOL     OW23914   2.654   3.929   0.609  0.4241  0.4393  0.1279
 4093SOL    HW123915   2.588   3.876   0.654  1.9129 -1.3156  0.2602
 4093SOL    HW223916   2.666   3.890   0.523 -2.3472 -0.9135  0.3628
 4094SOL     OW23917   3.893   1.827   7.133  0.1465  0.6666  0.3051
 4094SOL    HW123918   3.822   1.826   7.197 -0.2054 -1.5940 -0.0927
 4094SOL    HW223919   3.966   1.827   7.194  1.3653 -0.5298 -1.1523
 4095SOL     OW23920   2.226   4.479   1.907 -0.1705  0.0261  0.3806
 4095SOL    HW123921   2.290   4.410   1.925  0.2811  0.4627  0.4321
 4095SOL    HW223922   2.220   4.506   1.998  2.4315  1.9314 -0.0243
 4096SOL     OW23923   2.300   2.958  16.390 -0.4261 -0.0533 -0.7205
 4096SOL    HW123924   2.377   2.964  16.334  0.6851 -0.4675  0.7748
 4096SOL    HW223925   2.320   3.039  16.437  0.4581 -1.1846  0.8659
 4097SOL     OW23926   4.346   1.444   0.276  0.3088 -0.0281 -0.2057
 4097SOL    HW123927   4.355   1.373   0.340  2.9498  0.6521  0.1837
 4097SOL    HW223928   4.310   1.393   0.203  2.0560 -1.5877  0.0054
 4098SOL     OW23929   2.572   4.262   3.655 -0.8147  0.9211 -0.0145
 4098SOL    HW123930   2.636   4.207   3.610 -0.4758  0.8548  0.5530
 4098SOL    HW223931   2.484   4.237   3.625 -1.8338  1.4199  2.5804
 4099SOL     OW23932   2.813   0.379  13.657 -0.3074 -0.1846 -0.9657
 4099SOL    HW123933   2.819   0.461  13.707 -1.8609 -0.6297 -0.0364
 4099SOL    HW223934   2.783   0.316  13.723  0.2081 -2.3298 -2.7703
 4100SOL     OW23935   0.839   1.795   6.587 -0.6715 -0.4149  0.7645
 4100SOL    HW123936   0.895   1.773   6.661 -1.3252 -1.6011  0.9037
 4100SOL    HW223937   0.767   1.736   6.610  2.2665 -3.6162  1.7083
 4101SOL     OW23938   2.452   3.107   9.984 -1.1803 -0.0364  0.1746
 4101SOL    HW123939   2.388   3.169  10.018 -0.5268  1.3423 -1.1307
 4101SOL    HW223940   2.495   3.086  10.067 -1.0528  2.2837  0.6863
 4102SOL     OW23941   4.135   2.267  14.095 -0.3049  0.4839 -0.0608
 4102SOL    HW123942   4.145   2.313  14.012  2.6512  0.3701  0.2546
 4102SOL    HW223943   4.044   2.239  14.086  0.0906 -0.5252 -0.8374
 4103SOL     OW23944   2.434   0.764   7.168 -0.0189  0.9378  0.2247
 4103SOL    HW123945   2.404   0.735   7.254  3.3063  0.4454  1.2465
 4103SOL    HW223946   2.526   0.743   7.185 -0.1713  1.0034  1.1106
 4104SOL     OW23947   4.038   1.528   1.542 -0.5471  0.3467 -0.4723
 4104SOL    HW123948   4.105   1.466   1.513 -1.2345 -0.7003  0.1628
 4104SOL    HW223949   4.003   1.555   1.457 -0.4752 -0.4645 -0.7576
 4105SOL     OW23950   2.098   0.485   2.330  0.0220  0.3385  0.8347
 4105SOL    HW123951   2.120   0.561   2.276 -0.6791  0.1358  0.2565
 4105SOL    HW223952   2.008   0.472   2.300  0.3877  1.3654 -0.7189
 4106SOL     OW23953   3.025   2.860   1.993 -0.1495  0.4521  0.6548
 4106SOL    HW123954   3.013   2.859   2.088  2.8771  0.8454  1.0297
 4106SOL    HW223955   3.010   2.767   1.972  1.1211  0.2856  0.5070
 4107SOL     OW23956   3.656   4.062   9.688  0.3672 -0.1745  0.1318
 4107SOL    HW123957   3.657   4.134   9.752 -1.4608  1.4372 -1.6297
 4107SOL    HW223958   3.746   4.041   9.662  0.0815 -1.3523  0.0980
 4108SOL     OW23959   1.666   4.075   4.283  0.0772  0.3810  0.3495
 4108SOL    HW123960   1.641   4.100   4.371  0.7902  2.9728 -0.1921
 4108SOL    HW223961   1.581   4.059   4.241  0.6875  0.8170 -1.0704
 4109SOL     OW23962   1.892   1.138   1.395 -0.2708 -0.0162 -0.1466
 4109SOL    HW123963   1.855   1.050   1.405 -0.0197  0.0153  1.0175
 4109SOL    HW223964   1.886   1.149   1.300 -0.2112 -0.0090 -0.1497
 4110SOL     OW23965   0.573   4.436   1.446  0.2071 -0.1123  0.8077
 4110SOL    HW123966   0.574   4.345   1.417  1.8584  0.7215 -1.7857
 4110SOL    HW223967   0.650   4.475   1.404 -0.1838 -1.9309 -1.5943
 4111SOL     OW23968   4.133   4.158   3.968  0.1600  0.1642  0.9593
 4111SOL    HW123969   4.218   4.154   3.923 -0.4542 -4.5438  0.2913
 4111SOL    HW223970   4.134   4.241   4.016  1.3852  0.9042 -0.3312
 4112SOL     OW23971   1.711   2.209   2.320 -0.8269  0.2583  0.1590
 4112SOL    HW123972   1.638   2.203   2.381  0.7727 -1.3539  1.9494
 4112SOL    HW223973   1.672   2.155   2.252  1.7750 -0.1160 -1.0422
 4113SOL     OW23974   2.444   3.452   1.318 -0.3174 -0.0139 -0.7796
 4113SOL    HW123975   2.534   3.460   1.285 -0.6773  0.4831 -1.6162
 4113SOL    HW223976   2.446   3.369   1.366  1.2072  1.4121  1.6538
 4114SOL     OW23977   3.696   2.474   7.027 -0.2038  0.2916  0.1632
 4114SOL    HW123978   3.728   2.421   7.100  2.7067  2.1175  0.2355
 4114SOL    HW223979   3.616   2.515   7.060  0.1664  0.9494  0.2396
 4115SOL     OW23980   1.784   2.855  10.892  0.1461  0.3311  0.1888
 4115SOL    HW123981   1.836   2.888  10.965  0.3437  3.4771 -1.3591
 4115SOL    HW223982   1.720   2.795  10.930  0.1670 -0.6792 -1.3795
 4116SOL     OW23983   4.114   4.595  16.427 -0.3667 -0.1989 -0.3897
 4116SOL    HW123984   4.152   4.529  16.484 -0.4483  1.8106  2.0012
 4116SOL    HW223985   4.077   4.548  16.352 -0.7051 -1.3770  0.5208
 4117SOL     OW23986   3.767   1.553  13.762  0.6982 -0.0990 -0.7829
 4117SOL    HW123987   3.699   1.574  13.698 -2.3254 -0.8474  2.1161
 4117SOL    HW223988   3.784   1.460  13.752  2.0784 -0.0974  1.4819
 4118SOL     OW23989   2.464   0.136  12.384  0.5709 -0.7680 -0.0707
 4118SOL    HW123990   2.528   0.101  12.445 -0.6562 -0.6802  1.2803
 4118SOL    HW223991   2.412   0.187  12.446  1.9265 -1.7786  1.8824
 4119SOL     OW23992   3.024   3.746   8.603 -0.0657 -0.1006  0.4497
 4119SOL    HW123993   3.034   3.696   8.522 -0.4891  0.6760 -0.0864
 4119SOL    HW223994   2.931   3.767   8.593 -0.1209 -0.9697 -0.8162
 4120SOL     OW23995   1.297   0.804   9.436 -0.1241  0.1200  0.3580
 4120SOL    HW123996   1.359   0.770   9.501 -0.4719  1.7198  1.5081
 4120SOL    HW223997   1.240   0.728   9.424  0.5929 -0.5273  1.0090
 4121SOL     OW23998   1.294   3.988   3.023 -0.5238  0.3572  0.1993
 4121SOL    HW123999   1.200   4.002   3.035 -0.6370  1.8773 -2.4017
 4121SOL    HW224000   1.316   4.071   2.981 -1.3859  0.8539  0.7298
 4122SOL     OW24001   0.271   0.697   0.584  0.4621 -0.0852 -0.5667
 4122SOL    HW124002   0.231   0.686   0.498 -1.6530  0.3189  0.3676
 4122SOL    HW224003   0.266   0.792   0.598 -2.0140 -0.0769 -1.6674
 4123SOL     OW24004   2.074   0.941   7.274  0.4024  0.1281  0.0728
 4123SOL    HW124005   2.083   0.994   7.353 -0.6088  0.8428 -0.2935
 4123SOL    HW224006   1.990   0.977   7.245 -0.4409 -0.9943  1.0717
 4124SOL     OW24007   4.595   2.309   2.137  0.0239 -0.2056 -0.2675
 4124SOL    HW124008   4.578   2.260   2.218 -1.0242  1.1144  0.3264
 4124SOL    HW224009   4.619   2.243   2.072 -1.2913  0.3928 -1.3586
 4125SOL     OW24010   0.511   1.211   3.860  0.3120 -0.1537 -0.1583
 4125SOL    HW124011   0.547   1.271   3.794 -0.0549 -1.5786 -1.6407
 4125SOL    HW224012   0.577   1.223   3.928  0.4532 -0.4206 -0.2491
 4126SOL     OW24013   1.214   3.511  10.301  0.5421  0.2155  0.5331
 4126SOL    HW124014   1.118   3.509  10.291  0.4090  2.6638  1.3549
 4126SOL    HW224015   1.213   3.501  10.396 -0.1872 -0.2998  0.4774
 4127SOL     OW24016   0.015   1.562   3.808  0.1892 -0.0856  0.2482
 4127SOL    HW124017   4.686   1.625   3.829 -0.0154 -0.1879 -0.1163
 4127SOL    HW224018   0.056   1.542   3.892  1.1364 -0.6159 -0.3295
 4128SOL     OW24019   0.859   1.019   5.908 -0.4306 -0.1661  0.0029
 4128SOL    HW124020   0.796   0.965   5.860  0.3765 -0.1566 -1.0817
 4128SOL    HW224021   0.864   1.086   5.840 -0.9640  0.2199  0.3450
 4129SOL     OW24022   0.351   2.543   8.322 -0.9491  0.1242 -0.5710
 4129SOL    HW124023   0.362   2.589   8.238 -0.2405 -1.5905 -1.4053
 4129SOL    HW224024   0.281   2.591   8.367 -0.3631 -0.2239  0.7254
 4130SOL     OW24025   0.129   3.052   7.629  0.1844  0.0947  0.7603
 4130SOL    HW124026   0.190   2.992   7.672  0.5473  0.8339  1.2718
 4130SOL    HW224027   0.053   3.044   7.688  0.3209 -0.9819  0.7904
 4131SOL     OW24028   0.867   4.541   2.995 -0.0723  0.8248  0.1680
 4131SOL    HW124029   0.892   4.523   2.904 -1.0779  0.4316 -0.0288
 4131SOL    HW224030   0.773   4.537   2.981  0.0249 -0.7611 -0.1018
 4132SOL     OW24031   0.332   1.912   2.318 -0.3340  0.1842 -0.2350
 4132SOL    HW124032   0.330   1.849   2.390 -1.6301  0.1076 -0.3256
 4132SOL    HW224033   0.269   1.979   2.346  1.0599  1.5174 -0.3296
 4133SOL     OW24034   1.438   2.448  17.071  0.0134  0.3978  0.0698
 4133SOL    HW124035   1.347   2.441  17.040  0.5152 -4.3273 -0.3613
 4133SOL    HW224036   1.481   2.493  16.999  2.5887 -3.1150 -0.5990
 4134SOL     OW24037   0.363   2.221   7.329 -0.7312  0.1540  0.1477
 4134SOL    HW124038   0.304   2.148   7.311 -0.2496  0.4132 -2.5717
 4134SOL    HW224039   0.450   2.184   7.316 -1.2705 -1.5120  1.2924
 4135SOL     OW24040   1.528   4.257  14.994 -0.4218 -0.1584  0.0325
 4135SOL    HW124041   1.453   4.223  14.946 -0.2369 -0.1331 -0.2789
 4135SOL    HW224042   1.512   4.222  15.081  0.2771  1.0927  0.6718
 4136SOL     OW24043   4.039   0.951   2.507  0.5300 -0.4129 -0.3453
 4136SOL    HW124044   4.019   0.989   2.593 -1.5256 -1.1700 -0.4961
 4136SOL    HW224045   4.098   0.883   2.539 -1.4567 -0.5982  2.9711
 4137SOL     OW24046   3.876   2.161   5.448 -0.2292  0.2775 -0.1176
 4137SOL    HW124047   3.808   2.224   5.425 -0.1748  0.2697 -0.2937
 4137SOL    HW224048   3.846   2.088   5.395  0.6733 -0.3379  0.2191
 4138SOL     OW24049   3.929   4.320   3.686 -0.5356  0.3154 -0.3629
 4138SOL    HW124050   3.932   4.414   3.666 -0.0100  0.5816  0.9477
 4138SOL    HW224051   3.952   4.294   3.597  0.1942 -0.5663  0.0777
 4139SOL     OW24052   2.316   3.711   5.133 -0.1174  0.3057 -0.1550
 4139SOL    HW124053   2.346   3.769   5.204 -1.2155  0.0559  0.5037
 4139SOL    HW224054   2.224   3.698   5.154  0.1195  2.0770  2.0676
 4140SOL     OW24055   1.226   1.317   5.590 -0.1476  0.5461  0.0773
 4140SOL    HW124056   1.178   1.394   5.560 -0.6119  0.7047  1.2097
 4140SOL    HW224057   1.300   1.353   5.640 -1.5136  1.1132  1.6975
 4141SOL     OW24058   4.351   4.445  15.737  0.1583  0.3406 -0.4161
 4141SOL    HW124059   4.277   4.496  15.702 -0.0679  0.5633  0.4002
 4141SOL    HW224060   4.312   4.443  15.824  1.0146  1.7211  0.0043
 4142SOL     OW24061   0.552   0.148   2.534 -0.4775  0.0177 -0.2381
 4142SOL    HW124062   0.580   0.234   2.503 -0.9195  0.4957  0.7016
 4142SOL    HW224063   0.605   0.085   2.484  2.5072 -0.2746  3.3338
 4143SOL     OW24064   4.192   2.469  14.782 -0.4943 -0.1403  0.5398
 4143SOL    HW124065   4.205   2.546  14.728  1.2275  0.2065  1.4339
 4143SOL    HW224066   4.181   2.509  14.869 -0.2769  1.2301 -0.0774
 4144SOL     OW24067   0.157   3.291   6.383 -0.1536 -0.3389 -0.2759
 4144SOL    HW124068   0.228   3.335   6.335 -0.6547 -0.8512 -1.4861
 4144SOL    HW224069   0.085   3.332   6.335  0.4197 -0.8914 -1.6143
 4145SOL     OW24070   0.034   2.314   5.755 -0.2564  0.0766  0.0090
 4145SOL    HW124071   4.692   2.326   5.709 -0.8911  1.0945  1.4028
 4145SOL    HW224072   0.010   2.241   5.812 -1.6286  0.5401  0.0028
 4146SOL     OW24073   1.011   0.285   4.708 -0.2348 -0.1420  0.1267
 4146SOL    HW124074   0.961   0.207   4.734  1.3322 -0.7829  1.2047
 4146SOL    HW224075   1.091   0.279   4.759  1.1956 -1.4637 -2.2714
 4147SOL     OW24076   3.599   2.687   8.959 -0.1939 -0.3147  0.0571
 4147SOL    HW124077   3.559   2.769   8.928 -1.1856 -0.4663  0.9290
 4147SOL    HW224078   3.680   2.726   8.991 -0.7475  1.7120 -0.9937
 4148SOL     OW24079   1.065   3.816   3.677 -0.0193  0.2678  0.2884
 4148SOL    HW124080   1.152   3.782   3.700 -1.1238 -2.7893 -0.0181
 4148SOL    HW224081   1.092   3.902   3.644  0.6007  0.0501  0.2168
 4149SOL     OW24082   3.252   1.480   5.405  0.3002 -0.1784 -0.0435
 4149SOL    HW124083   3.224   1.437   5.485 -0.4873 -0.2234 -0.3504
 4149SOL    HW224084   3.322   1.418   5.383  0.0520  0.8048 -3.5928
 4150SOL     OW24085   3.942   3.632   6.958 -0.2682 -0.7148 -0.2478
 4150SOL    HW124086   3.938   3.579   7.037 -0.8421 -0.4245 -0.0836
 4150SOL    HW224087   3.973   3.557   6.907  0.9248 -0.5342  0.2004
 4151SOL     OW24088   0.455   1.796   3.067 -0.2117 -0.2101  0.1648
 4151SOL    HW124089   0.520   1.824   3.002  1.5067 -2.7287  0.8152
 4151SOL    HW224090   0.381   1.770   3.013 -0.4895 -2.4261  1.5919
 4152SOL     OW24091   1.856   2.056   1.693  0.4850  0.4992  0.1679
 4152SOL    HW124092   1.856   2.116   1.768 -0.4770 -1.4151  1.7119
 4152SOL    HW224093   1.839   2.120   1.624 -0.3766 -1.7871 -1.7450
 4153SOL     OW24094   3.326   2.829   3.041  0.3082  0.8677  0.6741
 4153SOL    HW124095   3.280   2.747   3.058  1.2919  0.0804 -0.4599
 4153SOL    HW224096   3.386   2.795   2.974 -0.1747  2.3340 -0.5085
 4154SOL     OW24097   1.926   1.526   0.193  0.0922 -0.0095 -0.5821
 4154SOL    HW124098   1.907   1.546   0.101  1.0132  3.8030  0.0482
 4154SOL    HW224099   2.000   1.466   0.181  0.3363  0.7214 -2.7242
 4155SOL     OW24100   0.670   4.033  11.267 -0.2737 -0.1506  0.0887
 4155SOL    HW124101   0.631   4.008  11.350 -0.5965 -2.1632 -0.6722
 4155SOL    HW224102   0.592   4.074  11.229  0.6692  1.0268 -0.5879
 4156SOL     OW24103   2.226   3.707   0.603 -0.1979  0.3813 -0.3339
 4156SOL    HW124104   2.186   3.651   0.536 -0.6220 -0.1477  0.3599
 4156SOL    HW224105   2.236   3.793   0.562  0.8425  0.1949 -0.4679
 4157SOL     OW24106   4.075   4.558   6.596  0.9177  0.3074 -0.4308
 4157SOL    HW124107   4.167   4.560   6.624  1.3502 -3.9306 -1.5170
 4157SOL    HW224108   4.084   4.490   6.529 -1.6209  1.4556 -1.9465
 4158SOL     OW24109   2.058   2.358   9.584 -0.0132  0.2534  0.0531
 4158SOL    HW124110   2.051   2.387   9.675 -3.0097 -1.9243  0.5504
 4158SOL    HW224111   2.144   2.381   9.550 -0.3358  1.1710 -0.1591
 4159SOL     OW24112   4.520   3.771  15.074  1.1473 -0.5696 -0.5506
 4159SOL    HW124113   4.584   3.840  15.063 -2.1253  2.1228 -2.6948
 4159SOL    HW224114   4.529   3.759  15.169  0.6448 -0.0909 -0.4421
 4160SOL     OW24115   0.421   3.931  13.433  0.2996  0.2848  0.4350
 4160SOL    HW124116   0.365   3.865  13.473 -0.6252  0.5443 -0.4265
 4160SOL    HW224117   0.510   3.915  13.467 -0.1470  0.3336  1.6524
 4161SOL     OW24118   4.238   3.190   5.800  0.4763  0.1150 -0.3017
 4161SOL    HW124119   4.206   3.163   5.714 -0.2872  0.2960 -0.0697
 4161SOL    HW224120   4.189   3.130   5.857 -0.8505 -0.0463 -1.6144
 4162SOL     OW24121   1.960   0.766  10.492  0.1598 -0.3363 -0.1416
 4162SOL    HW124122   2.002   0.811  10.419 -0.1027  0.2534  0.0674
 4162SOL    HW224123   1.872   0.745  10.462  0.9401 -2.0312 -1.2368
 4163SOL     OW24124   1.309   1.597   9.042 -0.0164  0.0620  0.0288
 4163SOL    HW124125   1.313   1.504   9.021  0.4075  0.4072 -1.3894
 4163SOL    HW224126   1.214   1.612   9.038  0.1436  1.0313 -0.3667
 4164SOL     OW24127   3.698   4.596   2.551  0.4090 -0.0347 -0.3295
 4164SOL    HW124128   3.654   4.677   2.578  0.7127 -0.2897  0.8902
 4164SOL    HW224129   3.704   4.541   2.629 -0.5725  2.2026  1.3259
 4165SOL     OW24130   4.184   0.139  11.392 -0.2086  0.1703  0.1078
 4165SOL    HW124131   4.244   0.200  11.350 -0.0375  0.0649  0.2019
 4165SOL    HW224132   4.138   0.193  11.456 -1.9591  1.1991 -1.9851
 4166SOL     OW24133   1.036   4.499  13.838 -0.2484 -0.0618 -0.0856
 4166SOL    HW124134   1.034   4.451  13.755 -0.1425 -2.9267  1.6010
 4166SOL    HW224135   0.945   4.526  13.849  0.3446  2.3838 -0.9969
 4167SOL     OW24136   0.421   2.236   8.660  0.7364 -0.1048 -0.0868
 4167SOL    HW124137   0.362   2.309   8.679  2.8587  1.2490  1.2119
 4167SOL    HW224138   0.452   2.209   8.746  1.0206 -0.5979 -0.3466
 4168SOL     OW24139   3.905   2.444   6.841 -0.2271  0.6322 -0.4574
 4168SOL    HW124140   3.833   2.452   6.903  0.6712 -0.5649  0.7357
 4168SOL    HW224141   3.986   2.438   6.892 -0.5287 -0.5286 -0.1123
 4169SOL     OW24142   1.886   4.022   2.433  0.1870 -0.1602 -0.1692
 4169SOL    HW124143   1.818   4.067   2.383  0.1202 -0.5792 -0.4513
 4169SOL    HW224144   1.841   3.942   2.459 -3.2571  1.8779  0.1097
 4170SOL     OW24145   2.256   3.517   1.972  0.4794  0.0859  0.0141
 4170SOL    HW124146   2.283   3.508   2.064 -1.5708  2.0051  0.8014
 4170SOL    HW224147   2.207   3.598   1.964  0.5118 -0.0052 -1.0009
 4171SOL     OW24148   4.722   1.099   4.219 -0.5665 -0.0095  0.0943
 4171SOL    HW124149   4.682   1.120   4.304  0.1205  0.0935  0.3882
 4171SOL    HW224150   0.054   1.161   4.218 -0.9611  0.4634  1.3322
 4172SOL     OW24151   0.409   3.125  11.771 -0.3060 -0.3325  0.7567
 4172SOL    HW124152   0.416   3.128  11.866  3.4916 -1.4575  0.5249
 4172SOL    HW224153   0.342   3.193  11.760  0.4124 -0.1200 -2.5050
 4173SOL     OW24154   3.556   0.013  13.868 -0.9188  0.0747  0.5940
 4173SOL    HW124155   3.535   0.042  13.779 -0.8345  0.7074  0.7874
 4173SOL    HW224156   3.473   4.710  13.889 -0.6422  0.5979  2.7030
 4174SOL     OW24157   4.169   0.691   0.656  0.2574  0.0160  0.2913
 4174SOL    HW124158   4.247   0.678   0.603 -0.3118  0.7596 -0.7412
 4174SOL    HW224159   4.167   0.786   0.647 -0.1962 -0.0308 -0.1168
 4175SOL     OW24160   4.692   3.469   6.285  0.0305  0.7848 -0.1640
 4175SOL    HW124161   4.609   3.456   6.330  0.2686 -2.1662 -0.5473
 4175SOL    HW224162   4.704   3.564   6.284  0.2948  0.7578  0.3567
 4176SOL     OW24163   4.393   0.934   0.448 -0.4171  0.1692  0.4450
 4176SOL    HW124164   4.419   0.991   0.521  0.9373  0.1448 -0.0067
 4176SOL    HW224165   4.302   0.951   0.427 -0.3510  0.4829  0.4100
 4177SOL     OW24166   3.277   3.718   7.271 -0.3435  0.1310  0.3500
 4177SOL    HW124167   3.276   3.785   7.203 -1.9091 -0.9131 -0.6483
 4177SOL    HW224168   3.271   3.637   7.220 -1.3382 -0.5764  1.5985
 4178SOL     OW24169   2.559   1.601   4.908 -0.4054 -0.0271  0.5533
 4178SOL    HW124170   2.620   1.585   4.836 -2.3325 -1.8911 -0.6729
 4178SOL    HW224171   2.552   1.517   4.953  2.6847 -0.0154  1.0929
 4179SOL     OW24172   4.476   3.732   3.137 -0.3155  0.1556 -0.7947
 4179SOL    HW124173   4.492   3.819   3.172  0.3034  0.1574 -1.0809
 4179SOL    HW224174   4.451   3.688   3.218 -0.1080 -0.2100 -0.9260
 4180SOL     OW24175   2.169   0.035   1.335  0.6489  0.2378 -0.5402
 4180SOL    HW124176   2.203   4.696   1.376 -0.3886  1.3089  2.4061
 4180SOL    HW224177   2.207   0.091   1.402 -0.0851 -0.2198  0.2498
 4181SOL     OW24178   0.206   1.238  15.936  0.1400 -0.0476  0.4334
 4181SOL    HW124179   0.205   1.328  15.967 -1.1382 -0.1193  0.6244
 4181SOL    HW224180   0.297   1.213  15.950  1.0350  2.6700 -0.5806
 4182SOL     OW24181   4.096   1.805   4.922 -0.0280 -0.4354  0.1672
 4182SOL    HW124182   4.136   1.720   4.908 -0.8058 -0.5000 -1.7697
 4182SOL    HW224183   4.072   1.791   5.014  1.2491 -2.1303  0.2291
 4183SOL     OW24184   1.324   1.145   2.223 -0.2176  0.6039 -0.7171
 4183SOL    HW124185   1.254   1.207   2.203 -0.1752  0.5376 -1.0800
 4183SOL    HW224186   1.320   1.101   2.138 -1.3792 -1.3905  0.3781
 4184SOL     OW24187   4.115   2.604   7.871  0.3861 -0.5709  0.3449
 4184SOL    HW124188   4.107   2.677   7.933  0.3713 -0.8404  0.6579
 4184SOL    HW224189   4.070   2.628   7.790 -0.0844 -0.3998  0.6549
 4185SOL     OW24190   4.440   0.970   7.850  0.5702 -0.7108  0.7035
 4185SOL    HW124191   4.380   0.917   7.903  0.3335  0.3911  1.5414
 4185SOL    HW224192   4.375   0.991   7.783  1.6138  1.4684  0.3712
 4186SOL     OW24193   2.839   2.340   5.658  0.5230 -0.8775  0.0517
 4186SOL    HW124194   2.824   2.301   5.743 -0.5261 -0.3621  0.0962
 4186SOL    HW224195   2.929   2.370   5.672  0.6791 -1.0560 -0.5233
 4187SOL     OW24196   0.980   1.315  10.246  0.3400 -0.1287  0.2825
 4187SOL    HW124197   1.075   1.318  10.255  0.1959 -0.4079  1.9998
 4187SOL    HW224198   0.948   1.328  10.336  0.3133  0.3455  0.2040
 4188SOL     OW24199   2.095   2.839  14.648 -0.0139 -1.0313 -0.0164
 4188SOL    HW124200   2.001   2.833  14.665 -0.1995  1.8578 -0.0377
 4188SOL    HW224201   2.085   2.833  14.553 -1.4096 -0.4632  0.1055
 4189SOL     OW24202   1.083   0.290   7.132  0.0035 -0.6356 -0.0411
 4189SOL    HW124203   1.011   0.277   7.071  0.4462 -3.5089  0.0407
 4189SOL    HW224204   1.050   0.356   7.194 -0.9393 -0.1476 -1.0510
 4190SOL     OW24205   4.235   3.121  14.629 -0.0376 -0.8469  0.2164
 4190SOL    HW124206   4.257   3.110  14.536  1.4966  0.1924  0.4602
 4190SOL    HW224207   4.215   3.215  14.623 -0.8073 -0.9550  1.1577
 4191SOL     OW24208   1.720   4.292  15.786 -0.0548  0.2613 -0.0654
 4191SOL    HW124209   1.721   4.206  15.827 -0.1170 -0.5131 -1.6881
 4191SOL    HW224210   1.696   4.346  15.862 -0.2113  1.3455 -0.8794
 4192SOL     OW24211   3.073   3.909  15.549 -0.1143  0.0728 -0.0074
 4192SOL    HW124212   3.020   3.919  15.470 -2.0985 -0.1517  1.2838
 4192SOL    HW224213   3.008   3.939  15.613 -0.3931 -0.9460  0.1982
 4193SOL     OW24214   1.540   3.606  12.213 -0.0971 -0.2836 -0.4447
 4193SOL    HW124215   1.450   3.635  12.200  0.9316  2.9551 -0.3940
 4193SOL    HW224216   1.582   3.691  12.200 -2.7767  0.9230 -1.1750
 4194SOL     OW24217   1.464   1.845  14.671  0.3595 -0.3692  0.4472
 4194SOL    HW124218   1.407   1.922  14.671  0.8145 -0.0364  0.7923
 4194SOL    HW224219   1.421   1.779  14.726  0.1964 -0.7617 -0.1521
 4195SOL     OW24220   3.738   4.285  13.481  0.2285  0.1346  0.2683
 4195SOL    HW124221   3.663   4.229  13.500  1.3398 -1.6842 -0.7544
 4195SOL    HW224222   3.716   4.313  13.392  1.8520  0.6100  0.0252
 4196SOL     OW24223   1.447   2.707   6.688 -0.0232  0.3337  0.1203
 4196SOL    HW124224   1.413   2.730   6.601  1.7858 -1.5013 -1.0892
 4196SOL    HW224225   1.368   2.687   6.739 -0.5605  1.5498 -0.2456
 4197SOL     OW24226   1.120   1.719   4.556  0.5990 -0.3991  0.1939
 4197SOL    HW124227   1.112   1.722   4.652 -1.2701 -2.9805  0.1173
 4197SOL    HW224228   1.181   1.788   4.530 -0.3290 -0.2809 -1.6592
 4198SOL     OW24229   1.465   3.107   1.669  0.2422 -0.3526  0.7411
 4198SOL    HW124230   1.467   3.047   1.743  0.9490  2.3630  2.9472
 4198SOL    HW224231   1.559   3.121   1.661  0.0323  0.4158 -0.5137
 4199SOL     OW24232   3.035   3.247   8.560 -0.3399  0.1636  0.3240
 4199SOL    HW124233   3.117   3.228   8.515 -0.5735  0.8211 -0.3680
 4199SOL    HW224234   3.065   3.301   8.633 -0.7334 -0.7051  1.1317
 4200SOL     OW24235   1.960   4.122   7.904 -0.1429 -0.2419 -0.4322
 4200SOL    HW124236   1.984   4.203   7.950 -1.7747 -0.1745  0.3412
 4200SOL    HW224237   1.953   4.160   7.816 -2.0753  0.7004  0.1109
 4201SOL     OW24238   2.443   1.920   6.638  0.1124  0.5272  0.2431
 4201SOL    HW124239   2.486   1.893   6.557  0.1883  1.6855 -0.0996
 4201SOL    HW224240   2.447   1.837   6.684  1.8116 -0.0146 -0.8995
 4202SOL     OW24241   0.282   4.502   1.413  0.2846 -0.0838 -0.2668
 4202SOL    HW124242   0.377   4.496   1.404  0.3942  2.0059 -0.3546
 4202SOL    HW224243   0.250   4.412   1.427 -0.7952  0.1294 -1.3307
 4203SOL     OW24244   1.174   1.663   2.788  0.1873 -0.0304 -0.2780
 4203SOL    HW124245   1.125   1.677   2.707  0.4802 -0.0195 -0.4559
 4203SOL    HW224246   1.216   1.748   2.800 -0.8509  0.3861  0.3494
 4204SOL     OW24247   2.391   4.604   5.179 -0.0416 -0.0967  0.6795
 4204SOL    HW124248   2.383   4.659   5.101  1.6683 -0.7061  0.0871
 4204SOL    HW224249   2.358   4.663   5.246  0.1391 -0.6166  1.2199
 4205SOL     OW24250   1.465   3.316   0.835 -0.0242 -0.3019 -0.5196
 4205SOL    HW124251   1.514   3.256   0.779  3.0628  0.0195  1.8328
 4205SOL    HW224252   1.424   3.257   0.898  1.1878  0.7011  1.2087
 4206SOL     OW24253   4.200   0.330   0.654  0.2680 -0.4614  0.5047
 4206SOL    HW124254   4.177   0.239   0.671  1.0119 -0.9892 -1.3172
 4206SOL    HW224255   4.146   0.379   0.717 -0.7340  1.0090 -1.4795
 4207SOL     OW24256   2.951   4.442   6.315 -0.3640 -0.4203 -0.1106
 4207SOL    HW124257   2.910   4.438   6.402 -2.2047  0.9274 -0.9290
 4207SOL    HW224258   2.919   4.358   6.282 -2.0898  0.4598 -0.6897
 4208SOL     OW24259   3.390   0.670   1.987 -0.3682  0.0205 -0.3483
 4208SOL    HW124260   3.371   0.755   2.027 -2.7251 -0.5264 -0.2600
 4208SOL    HW224261   3.317   0.676   1.925  0.8892  1.5949 -1.6449
 4209SOL     OW24262   3.506   2.740  16.400  0.4126 -0.2120  0.4459
 4209SOL    HW124263   3.564   2.810  16.431  0.6945 -0.2760  0.0599
 4209SOL    HW224264   3.418   2.776  16.405  0.5949  0.1704  0.9695
 4210SOL     OW24265   4.360   0.792   9.605 -0.0667 -0.0853 -0.1145
 4210SOL    HW124266   4.309   0.724   9.561 -0.4133 -1.4564  2.3884
 4210SOL    HW224267   4.442   0.753   9.576 -0.1174  0.3517 -0.8554
 4211SOL     OW24268   1.563   2.709  11.000 -0.2200 -0.3888  0.8189
 4211SOL    HW124269   1.614   2.645  10.950  1.0221 -0.6996  2.4616
 4211SOL    HW224270   1.543   2.670  11.084  2.1496  1.8851  2.4597
 4212SOL     OW24271   1.540   3.817   1.715 -0.2806  0.1058 -0.0615
 4212SOL    HW124272   1.632   3.804   1.692 -0.0475  1.2282  0.2306
 4212SOL    HW224273   1.553   3.889   1.777  0.5245 -0.4517  0.4084
 4213SOL     OW24274   1.444   3.888  16.031 -0.0821 -0.0207 -0.1209
 4213SOL    HW124275   1.534   3.860  16.015  0.4784  1.6590  0.0288
 4213SOL    HW224276   1.406   3.804  16.009 -0.1991  0.7507 -2.8441
 4214SOL     OW24277   1.747   1.482  11.733 -0.4372  0.0564  0.5091
 4214SOL    HW124278   1.774   1.421  11.664 -1.7772 -1.0105  0.9168
 4214SOL    HW224279   1.804   1.557  11.719  0.3930 -0.3520  1.6710
 4215SOL     OW24280   0.862   4.375  17.373 -0.3850 -0.1047  0.4296
 4215SOL    HW124281   0.904   4.437  17.313 -0.6204  1.2984  1.7256
 4215SOL    HW224282   0.788   4.345  17.320  0.0142  0.0473 -0.2157
 4216SOL     OW24283   1.107   3.879   3.335 -0.1921  0.7885  0.4940
 4216SOL    HW124284   1.189   3.830   3.337  0.8083  2.5259  2.1579
 4216SOL    HW224285   1.142   3.968   3.328 -1.7464  1.4158  0.9143
 4217SOL     OW24286   3.766   4.585   7.513 -0.1272 -0.4710 -0.0041
 4217SOL    HW124287   3.731   4.518   7.572  0.0381 -1.4638 -1.0410
 4217SOL    HW224288   3.687   4.639   7.514  0.6368  0.6191  1.0289
 4218SOL     OW24289   2.814   3.608   0.560 -0.2359  0.1964  0.7480
 4218SOL    HW124290   2.809   3.584   0.468  0.8318 -0.6887  0.9222
 4218SOL    HW224291   2.770   3.530   0.595  1.7586 -0.9589  0.7017
 4219SOL     OW24292   3.588   1.640   4.894  0.5094 -0.2626 -0.9007
 4219SOL    HW124293   3.641   1.720   4.895  1.8291 -1.1588  1.1747
 4219SOL    HW224294   3.618   1.598   4.814  0.1376  1.6293 -2.0507
 4220SOL     OW24295   2.670   0.128   7.196 -0.0803 -0.2690 -0.5143
 4220SOL    HW124296   2.630   0.121   7.109  0.1641 -0.6830 -0.5972
 4220SOL    HW224297   2.632   0.207   7.234  0.2421  0.2034 -1.1601
 4221SOL     OW24298   3.587   2.275   5.802  0.3332  0.3618 -0.5075
 4221SOL    HW124299   3.551   2.351   5.758 -0.0111  0.2106 -0.4874
 4221SOL    HW224300   3.561   2.208   5.738  1.2645  0.5563 -1.0929
 4222SOL     OW24301   4.308   3.841   4.142 -0.2944  0.4441  0.3108
 4222SOL    HW124302   4.337   3.897   4.214 -1.0470 -0.1125  1.0506
 4222SOL    HW224303   4.383   3.855   4.085 -1.3652 -1.9551 -1.6915
 4223SOL     OW24304   0.547   4.191   7.885 -0.3792 -0.2303  0.1311
 4223SOL    HW124305   0.482   4.135   7.927  1.5954 -2.3257  0.4358
 4223SOL    HW224306   0.607   4.205   7.959 -0.9060  1.5765  0.2156
 4224SOL     OW24307   0.427   3.076  13.580  0.2408 -0.7835  0.4878
 4224SOL    HW124308   0.510   3.037  13.604  0.0795 -0.6173  1.3013
 4224SOL    HW224309   0.359   3.013  13.605  0.8284 -0.6891  2.2857
 4225SOL     OW24310   0.027   4.410   5.943  0.5059 -0.3581 -0.0458
 4225SOL    HW124311   0.018   4.479   6.008  0.1527  0.8097 -1.3601
 4225SOL    HW224312   4.678   4.403   5.908  0.6166 -0.4438 -0.3157
 4226SOL     OW24313   3.170   2.931   3.465  0.3176 -0.1297  0.2630
 4226SOL    HW124314   3.186   2.839   3.446 -1.3971  0.0610 -2.0889
 4226SOL    HW224315   3.201   2.940   3.555  1.9287 -0.4026 -0.2674
 4227SOL     OW24316   1.635   3.409   4.992  0.9524  0.1691  0.6943
 4227SOL    HW124317   1.680   3.490   5.019 -0.2743  1.7287 -1.9248
 4227SOL    HW224318   1.658   3.359   5.070 -2.8345 -1.2026  0.9205
 4228SOL     OW24319   0.334   0.319   3.170  0.0175 -0.3677  0.6121
 4228SOL    HW124320   0.381   0.240   3.195  4.0584  2.4602  1.9070
 4228SOL    HW224321   0.410   0.375   3.154 -1.4747  1.4593 -0.1421
 4229SOL     OW24322   0.865   2.769  15.980 -0.1265  0.0051  0.0431
 4229SOL    HW124323   0.772   2.749  15.972  0.1479 -0.1906 -2.7917
 4229SOL    HW224324   0.892   2.738  15.894  1.4150  1.0629  0.1439
 4230SOL     OW24325   4.324   2.645  13.610  0.2347  0.1026 -0.4254
 4230SOL    HW124326   4.322   2.729  13.565  2.4951  0.9356  1.0126
 4230SOL    HW224327   4.275   2.663  13.691 -1.2336 -2.3120 -0.7740
 4231SOL     OW24328   3.652   3.834   8.993  0.3654  0.3934 -0.6571
 4231SOL    HW124329   3.731   3.780   8.999  0.3409  0.4256 -0.0275
 4231SOL    HW224330   3.658   3.852   8.900 -1.2636  1.6460 -0.5203
 4232SOL     OW24331   0.525   1.714   3.315 -0.2304 -0.2781  0.0959
 4232SOL    HW124332   0.539   1.752   3.228  2.1653 -1.6439 -0.1028
 4232SOL    HW224333   0.436   1.685   3.296 -0.2227 -0.1650 -0.1083
 4233SOL     OW24334   3.347   4.043   3.230  0.3857  0.1748  0.4929
 4233SOL    HW124335   3.263   4.082   3.205  0.5629  0.6072  0.5773
 4233SOL    HW224336   3.328   3.949   3.242 -1.7490  0.3850 -1.3415
 4234SOL     OW24337   2.473   0.621   3.140  0.4098  0.2881  0.2447
 4234SOL    HW124338   2.429   0.665   3.213  0.5722  1.1057 -0.1485
 4234SOL    HW224339   2.433   0.662   3.063  0.1447 -0.5233 -0.0469
 4235SOL     OW24340   3.123   3.636   8.380  0.4744  0.0208 -0.2289
 4235SOL    HW124341   3.049   3.594   8.337 -0.9787  2.0018  0.3162
 4235SOL    HW224342   3.128   3.707   8.316  1.6753  0.0925 -0.0462
 4236SOL     OW24343   0.885   4.313   1.016 -0.3195  0.6725  0.0086
 4236SOL    HW124344   0.848   4.388   0.970  0.0402  0.0565 -1.2913
 4236SOL    HW224345   0.965   4.357   1.046 -1.5204  1.9618  1.3080
 4237SOL     OW24346   0.557   4.591   4.094 -0.4486 -0.4660 -0.0044
 4237SOL    HW124347   0.603   4.507   4.090 -2.2048 -1.4940  1.4629
 4237SOL    HW224348   0.636   4.644   4.102 -1.4682  1.1364 -0.5847
 4238SOL     OW24349   4.512   4.369   6.430 -0.0412 -0.3248  0.3513
 4238SOL    HW124350   4.600   4.337   6.448  0.5837  1.4330  0.3468
 4238SOL    HW224351   4.498   4.369   6.335 -0.7905  1.6519  0.4710
 4239SOL     OW24352   0.428   1.285   2.764  0.6979 -0.2535  0.6693
 4239SOL    HW124353   0.465   1.201   2.737 -0.9598  0.1828 -2.9628
 4239SOL    HW224354   0.367   1.313   2.695 -0.9964 -2.1420  1.4031
 4240SOL     OW24355   1.729   2.539  10.863  0.5354 -0.1133  0.1900
 4240SOL    HW124356   1.725   2.565  10.770  0.1104  1.2673  0.5947
 4240SOL    HW224357   1.767   2.452  10.859  2.3192  0.5209  3.7205
 4241SOL     OW24358   3.852   3.906   1.674  0.2294 -0.2183 -0.0680
 4241SOL    HW124359   3.817   3.994   1.682  0.8012 -0.0932  0.9947
 4241SOL    HW224360   3.859   3.877   1.765 -1.8466 -2.0087 -0.4807
 4242SOL     OW24361   1.932   1.449   1.694  0.1096 -0.1680 -0.2273
 4242SOL    HW124362   1.978   1.496   1.625  2.8550 -2.7112 -0.1481
 4242SOL    HW224363   1.861   1.408   1.645  0.4366 -0.5311 -0.3999
 4243SOL     OW24364   0.654   2.446   4.077 -0.0008  0.3708 -0.5622
 4243SOL    HW124365   0.659   2.383   4.149  2.7936  1.1902 -0.0181
 4243SOL    HW224366   0.668   2.388   4.002 -1.0132  1.1667 -1.3745
 4244SOL     OW24367   1.895   0.695   3.621 -0.3096 -0.0518 -0.0676
 4244SOL    HW124368   1.817   0.744   3.646 -0.1601 -0.1976  0.6952
 4244SOL    HW224369   1.874   0.604   3.638 -1.0898  0.2424  0.5284
 4245SOL     OW24370   0.282   1.855   4.956 -0.1346 -0.3443  0.2576
 4245SOL    HW124371   0.279   1.908   5.035 -0.6977 -1.7629  1.1818
 4245SOL    HW224372   0.262   1.770   4.995 -3.3389 -0.4253 -1.5784
 4246SOL     OW24373   0.286   0.153   8.866 -0.4164  0.3944  0.8286
 4246SOL    HW124374   0.327   0.236   8.890 -0.4757  0.4470  0.7470
 4246SOL    HW224375   0.276   0.170   8.773  1.1600  0.8897  0.7487
 4247SOL     OW24376   1.432   4.365  13.425 -0.4685  0.3460  0.2681
 4247SOL    HW124377   1.484   4.431  13.472  1.2410  0.1682 -1.3655
 4247SOL    HW224378   1.433   4.292  13.487  0.4609  0.5679  0.5182
 4248SOL     OW24379   3.873   1.598   1.823  0.1084  0.1957 -0.6269
 4248SOL    HW124380   3.868   1.640   1.908 -2.4526  2.0335 -1.6866
 4248SOL    HW224381   3.894   1.665   1.758  1.0030 -0.4557 -1.0132
 4249SOL     OW24382   4.644   3.089   2.823  0.2152 -0.4164  0.3320
 4249SOL    HW124383   4.717   3.107   2.882  1.8361 -2.7275 -0.9367
 4249SOL    HW224384   4.664   3.154   2.756 -1.1251  0.5761  0.9131
 4250SOL     OW24385   1.488   1.829   7.543 -0.3574  0.5812 -0.0975
 4250SOL    HW124386   1.475   1.735   7.547 -1.1986  0.6896 -0.2981
 4250SOL    HW224387   1.511   1.851   7.633  1.1463 -3.5204  0.5159
 4251SOL     OW24388   0.369   1.940  13.921  0.1217 -0.7444  0.3533
 4251SOL    HW124389   0.417   2.017  13.889 -1.0395 -0.0718  0.2431
 4251SOL    HW224390   0.388   1.876  13.852 -0.4097 -0.8017  0.2627
 4252SOL     OW24391   2.903   2.279   3.211 -0.2025  0.1319  0.4555
 4252SOL    HW124392   2.837   2.321   3.155  1.6160  0.6738 -1.2839
 4252SOL    HW224393   2.917   2.345   3.279 -0.9521  1.4486 -0.6415
 4253SOL     OW24394   0.550   0.508   4.117  0.0257  0.4157  0.0065
 4253SOL    HW124395   0.533   0.428   4.066 -0.7170  1.0135 -0.6808
 4253SOL    HW224396   0.514   0.472   4.198 -1.2606 -0.3203 -0.8952
 4254SOL     OW24397   0.286   1.905   3.878  0.0685 -0.5242  0.2886
 4254SOL    HW124398   0.196   1.884   3.899 -0.7543  2.6532 -0.0177
 4254SOL    HW224399   0.319   1.934   3.963 -1.2883  0.2028  0.5583
 4255SOL     OW24400   4.629   3.586   0.832  0.2699  0.2281 -0.6507
 4255SOL    HW124401   4.568   3.542   0.891  0.0681  2.1816  0.5951
 4255SOL    HW224402   4.605   3.533   0.756 -0.4969 -1.2760  0.6398
 4256SOL     OW24403   0.165   0.386   0.969  0.5013  0.8578  0.3679
 4256SOL    HW124404   0.076   0.359   0.948  0.2601 -0.0631  2.5826
 4256SOL    HW224405   0.170   0.464   0.915  1.8040 -0.0652 -0.8567
 4257SOL     OW24406   0.180   2.702   8.458  0.0158  0.4227 -0.4299
 4257SOL    HW124407   0.221   2.708   8.544 -1.2734 -0.6918  0.2527
 4257SOL    HW224408   0.150   2.793   8.458  1.6236  0.9441 -2.2802
 4258SOL     OW24409   4.541   3.699   6.556  0.0922  0.6211  0.2429
 4258SOL    HW124410   4.629   3.735   6.546 -0.5333  1.4779 -2.0888
 4258SOL    HW224411   4.532   3.701   6.651  0.8796  0.6974  0.3138
 4259SOL     OW24412   1.221   0.758   2.483 -0.0109 -0.3899  0.1507
 4259SOL    HW124413   1.268   0.833   2.447 -1.6450  0.3640 -0.3967
 4259SOL    HW224414   1.279   0.732   2.555  1.4083  2.1652 -0.0989
 4260SOL     OW24415   2.709   2.583   5.472  0.1411  0.2155 -0.2691
 4260SOL    HW124416   2.785   2.625   5.431 -1.3530  3.2241  0.0245
 4260SOL    HW224417   2.764   2.516   5.511 -2.7726 -0.6706  2.3605
 4261SOL     OW24418   2.206   0.699   5.407 -0.3625 -0.1964  0.2198
 4261SOL    HW124419   2.122   0.658   5.388 -0.6063  0.9994 -1.3920
 4261SOL    HW224420   2.224   0.674   5.497  1.0466 -1.2402 -0.3417
 4262SOL     OW24421   2.091   3.952  17.753  0.5885 -0.2018  0.3484
 4262SOL    HW124422   2.008   3.932  17.709  0.0887 -0.3745  1.3567
 4262SOL    HW224423   2.143   3.880  17.716  0.3813 -1.2760  2.1246
 4263SOL     OW24424   2.547   0.771   2.046  0.3746  0.1664  0.0273
 4263SOL    HW124425   2.523   0.730   2.129 -1.4842  0.8296 -0.1690
 4263SOL    HW224426   2.641   0.758   2.037  0.7437  1.0066  2.7485
 4264SOL     OW24427   2.453   0.229  14.966 -0.5125 -0.2778 -0.5240
 4264SOL    HW124428   2.425   0.310  15.010 -0.6948 -1.6142  1.8723
 4264SOL    HW224429   2.367   0.188  14.972 -0.0495 -1.3058 -1.0443
 4265SOL     OW24430   3.368   1.975  14.733 -0.4441 -0.1980  0.0561
 4265SOL    HW124431   3.391   2.042  14.669  0.0994  0.2983  0.7685
 4265SOL    HW224432   3.280   1.949  14.704  0.1570 -0.4217 -1.5567
 4266SOL     OW24433   1.191   1.151   7.529  0.7822 -0.4202  0.6847
 4266SOL    HW124434   1.188   1.203   7.448  0.8650 -2.0222 -0.3615
 4266SOL    HW224435   1.137   1.202   7.589  0.0280 -0.3288 -0.0586
 4267SOL     OW24436   0.357   2.725   9.134  0.6459  0.0789 -0.3126
 4267SOL    HW124437   0.332   2.635   9.152 -5.0476  1.5013 -0.9807
 4267SOL    HW224438   0.369   2.762   9.222  1.8394 -0.7798 -0.1259
 4268SOL     OW24439   1.639   3.505   7.887 -0.2686 -0.1286  0.2241
 4268SOL    HW124440   1.605   3.540   7.804  1.2022 -0.2657 -0.4455
 4268SOL    HW224441   1.727   3.491   7.851 -0.2905 -0.0471  0.1395
 4269SOL     OW24442   4.545   1.885  15.257 -0.5341 -0.3901 -0.3874
 4269SOL    HW124443   4.585   1.798  15.256  1.2762  0.4425 -0.0497
 4269SOL    HW224444   4.619   1.939  15.229 -0.1682 -1.0966 -0.8087
 4270SOL     OW24445   3.602   2.783   4.237  0.4916 -0.1187 -0.1015
 4270SOL    HW124446   3.656   2.728   4.293 -0.7984 -0.9308  0.3568
 4270SOL    HW224447   3.667   2.834   4.190 -0.7466  0.5057 -1.1284
 4271SOL     OW24448   4.436   4.649   5.517 -0.1902 -0.5302 -0.1808
 4271SOL    HW124449   4.426   4.694   5.433 -1.4339 -0.6041 -0.0751
 4271SOL    HW224450   4.525   4.672   5.543  0.2473 -0.2936 -1.9367
 4272SOL     OW24451   1.519   1.759  11.995 -0.4228  0.4790  0.2081
 4272SOL    HW124452   1.599   1.718  12.028  0.1528 -0.6620 -2.6179
 4272SOL    HW224453   1.455   1.728  12.060 -0.0946  0.0359  0.3192
 4273SOL     OW24454   4.135   3.019   2.886 -0.2716  0.8534  0.6182
 4273SOL    HW124455   4.230   3.012   2.883 -0.1997  2.4157 -0.7228
 4273SOL    HW224456   4.125   3.075   2.808  0.1141  2.4524  1.7238
 4274SOL     OW24457   4.309   1.263   1.559 -0.1263 -0.4926  0.1474
 4274SOL    HW124458   4.322   1.197   1.627  0.3343 -1.2876 -0.7297
 4274SOL    HW224459   4.350   1.215   1.488  1.4077  2.0199 -0.6408
 4275SOL     OW24460   1.355   1.369  10.992  0.5790 -0.1643  0.2392
 4275SOL    HW124461   1.393   1.334  10.911  1.1397 -1.1586  0.9305
 4275SOL    HW224462   1.415   1.440  11.015  1.9677 -0.5313 -2.2610
 4276SOL     OW24463   2.580   2.256   2.748 -0.5313  0.3314  0.1532
 4276SOL    HW124464   2.571   2.351   2.752  1.8669  0.5236  0.6950
 4276SOL    HW224465   2.489   2.228   2.748  0.2253 -2.1522 -1.3133
 4277SOL     OW24466   1.190   4.017  10.361 -0.1261  0.0749  0.2903
 4277SOL    HW124467   1.242   3.943  10.392 -0.7743 -0.3808  0.2898
 4277SOL    HW224468   1.257   4.084  10.362  1.0473 -1.0902  0.2737
 4278SOL     OW24469   2.280   3.224   2.583 -0.2935  0.1919  0.3846
 4278SOL    HW124470   2.184   3.231   2.587 -0.3924 -0.3481 -0.9820
 4278SOL    HW224471   2.298   3.317   2.570 -0.6322  0.2593  0.3795
 4279SOL     OW24472   1.543   0.077   8.070 -0.3109 -0.3201  0.0975
 4279SOL    HW124473   1.535   0.113   8.159  1.2744  0.5268 -0.1107
 4279SOL    HW224474   1.634   0.050   8.062 -0.7180 -0.9773 -2.2929
 4280SOL     OW24475   3.870   4.460   4.953 -0.3018  0.3667  0.0459
 4280SOL    HW124476   3.789   4.410   4.969 -0.2934  0.0380 -0.9498
 4280SOL    HW224477   3.857   4.502   4.868  1.7583 -0.8575 -0.8763
 4281SOL     OW24478   1.385   4.720   3.567  0.7280 -0.4056 -0.5020
 4281SOL    HW124479   1.457   4.660   3.545  0.6681 -0.2382 -1.1557
 4281SOL    HW224480   1.408   0.061   3.523  0.7347  0.2345  0.6768
 4282SOL     OW24481   0.504   0.921   7.615 -0.1527  0.2998  0.4203
 4282SOL    HW124482   0.542   0.868   7.685  0.9937 -0.5253 -0.8136
 4282SOL    HW224483   0.410   0.911   7.633  0.2206  0.2792  2.3531
 4283SOL     OW24484   3.786   1.035   9.699  0.2760  0.1777 -0.0354
 4283SOL    HW124485   3.759   1.045   9.608  0.6815 -0.2412 -0.2007
 4283SOL    HW224486   3.825   0.949   9.686 -2.5607 -0.5279 -4.0885
 4284SOL     OW24487   1.096   2.054   8.503  0.4891 -0.0174 -0.2261
 4284SOL    HW124488   1.085   2.086   8.593 -1.2577  0.4309 -0.5964
 4284SOL    HW224489   1.098   1.962   8.531 -1.3223 -0.5087 -1.6842
 4285SOL     OW24490   1.587   2.138   9.943 -0.1145 -0.3333 -0.0347
 4285SOL    HW124491   1.497   2.133   9.909  0.0580 -2.1432 -0.2329
 4285SOL    HW224492   1.619   2.161   9.856 -2.4516 -1.2812 -1.1591
 4286SOL     OW24493   2.998   3.447   1.345 -0.3893 -0.7858 -0.4890
 4286SOL    HW124494   3.014   3.456   1.251 -0.2448 -0.6871 -0.4558
 4286SOL    HW224495   2.987   3.352   1.353 -0.6578 -0.7781 -0.7740
 4287SOL     OW24496   2.307   1.762   7.181  0.2148  0.0271  0.1185
 4287SOL    HW124497   2.242   1.772   7.251  1.5176  0.8796  1.2003
 4287SOL    HW224498   2.302   1.667   7.166  1.5763  0.1328 -1.0135
 4288SOL     OW24499   3.176   0.250   2.422 -0.8261 -0.2581  0.4424
 4288SOL    HW124500   3.081   0.240   2.416 -0.8341  1.1420 -1.8251
 4288SOL    HW224501   3.207   0.160   2.438  1.2536  0.2391 -0.8599
 4289SOL     OW24502   2.558   2.167   3.017  0.2827  0.1408 -0.0979
 4289SOL    HW124503   2.570   2.170   2.922  2.7405  0.2074  0.2205
 4289SOL    HW224504   2.630   2.226   3.040 -0.5008  1.6845 -1.6352
 4290SOL     OW24505   3.161   1.699   6.465 -0.0742 -0.1181  0.3580
 4290SOL    HW124506   3.104   1.775   6.479  0.8465  1.0639 -2.2825
 4290SOL    HW224507   3.092   1.637   6.443  0.1736 -0.5944  0.9358
 4291SOL     OW24508   2.582   0.915   4.077 -0.1936 -0.3354  0.1615
 4291SOL    HW124509   2.651   0.935   4.013  0.7999 -1.6943  0.8004
 4291SOL    HW224510   2.555   1.000   4.112 -0.8718 -0.4465 -0.1014
 4292SOL     OW24511   1.269   2.854  14.546 -0.1643 -0.4271 -0.1477
 4292SOL    HW124512   1.334   2.807  14.598 -0.9439 -0.2175  1.0076
 4292SOL    HW224513   1.282   2.825  14.456 -2.8150  1.0029 -1.0044
 4293SOL     OW24514   4.107   1.908   2.780 -0.1327 -0.1637  0.3552
 4293SOL    HW124515   4.028   1.952   2.748  0.9795  2.1831  0.8437
 4293SOL    HW224516   4.104   1.819   2.745  1.5206  0.3163 -0.9860
 4294SOL     OW24517   1.425   4.133   8.150 -0.0162  0.6270  0.3074
 4294SOL    HW124518   1.341   4.089   8.146  0.9551 -0.9400 -2.5964
 4294SOL    HW224519   1.451   4.150   8.060  0.8838  1.5580  0.7367
 4295SOL     OW24520   1.615   3.442   4.720 -0.0524  0.0557 -0.8517
 4295SOL    HW124521   1.563   3.463   4.797  0.4239  2.4822 -1.1828
 4295SOL    HW224522   1.611   3.523   4.670  2.1987  1.1553  0.7809
 4296SOL     OW24523   4.637   1.010  13.678  0.0308 -0.7910 -0.4036
 4296SOL    HW124524   4.653   1.064  13.600  0.5616  2.1344  1.7220
 4296SOL    HW224525   4.541   1.009  13.675  0.0014 -1.6296  1.1695
 4297SOL     OW24526   0.196   2.391   2.561 -0.2252  0.3981  0.1774
 4297SOL    HW124527   0.211   2.480   2.593  2.2011 -0.8895  2.6328
 4297SOL    HW224528   0.133   2.404   2.490  0.1081 -0.2414 -0.2247
 4298SOL     OW24529   3.255   4.535  13.371  0.3661 -0.1364  0.0507
 4298SOL    HW124530   3.271   4.446  13.339 -0.4008 -0.5323  0.7616
 4298SOL    HW224531   3.209   4.575  13.297  1.0236  0.8992  0.1971
 4299SOL     OW24532   2.361   1.961   4.447 -0.0024  0.2579 -0.2247
 4299SOL    HW124533   2.367   1.921   4.360  0.2596 -1.5570  0.6305
 4299SOL    HW224534   2.268   1.967   4.466 -0.0368 -2.5727  0.4978
 4300SOL     OW24535   0.740   1.663   4.932  0.1558  0.1397 -0.1713
 4300SOL    HW124536   0.711   1.657   5.023  0.1781 -0.2103 -0.1861
 4300SOL    HW224537   0.658   1.683   4.887 -0.6460  1.8576  2.1077
 4301SOL     OW24538   2.212   3.847   9.273 -0.1496 -0.6560 -0.1540
 4301SOL    HW124539   2.134   3.822   9.223  1.5374 -1.9152 -2.2104
 4301SOL    HW224540   2.271   3.876   9.202 -1.3856  1.6111 -0.2606
 4302SOL     OW24541   2.750   0.994   2.710 -0.4248  0.7210  0.5859
 4302SOL    HW124542   2.833   0.966   2.671 -0.6741 -0.6965  1.0845
 4302SOL    HW224543   2.704   1.002   2.626 -0.3824 -0.6660  0.4271
 4303SOL     OW24544   4.442   4.285  11.135 -0.4046  0.1769  0.6187
 4303SOL    HW124545   4.438   4.199  11.177  1.8380  0.0245  0.5051
 4303SOL    HW224546   4.356   4.302  11.096 -0.1170  1.1705  0.4069
 4304SOL     OW24547   4.117   2.654  13.808  0.0132  0.0526 -0.3637
 4304SOL    HW124548   4.088   2.704  13.731 -0.3389  0.6804  0.1791
 4304SOL    HW224549   4.068   2.696  13.879  1.6562  2.5286 -0.7165
 4305SOL     OW24550   1.376   0.671  15.735  0.2031 -0.3698  0.2931
 4305SOL    HW124551   1.295   0.684  15.783 -0.6071  0.1472 -1.2275
 4305SOL    HW224552   1.352   0.694  15.645 -1.9970 -0.7714  0.7869
 4306SOL     OW24553   2.673   1.723   5.242 -0.0857  0.2073  0.1887
 4306SOL    HW124554   2.713   1.655   5.188 -0.9403 -0.2298  0.1149
 4306SOL    HW224555   2.668   1.795   5.179  0.1098  0.1642  0.1241
 4307SOL     OW24556   1.778   4.380  15.043 -0.0760  0.2901  0.5973
 4307SOL    HW124557   1.700   4.327  15.027  0.2662 -0.1651  0.4570
 4307SOL    HW224558   1.801   4.405  14.953 -3.6356  0.3505 -0.3222
 4308SOL     OW24559   0.915   3.392   1.566 -0.4040  0.3934  0.1031
 4308SOL    HW124560   0.899   3.422   1.476 -0.0443  0.8265  0.1843
 4308SOL    HW224561   0.940   3.476   1.604  0.1408  0.2570  0.0464
 4309SOL     OW24562   4.191   2.392  16.294 -0.3317  0.1380 -0.0965
 4309SOL    HW124563   4.161   2.471  16.339  0.8353  0.6672 -0.2278
 4309SOL    HW224564   4.155   2.324  16.351 -0.5077 -0.8040 -1.3516
 4310SOL     OW24565   0.316   4.020   3.116 -0.0414 -0.0436 -0.5842
 4310SOL    HW124566   0.315   3.995   3.024 -0.4443 -0.3277 -0.5025
 4310SOL    HW224567   0.396   4.067   3.140  0.4720 -2.0216  1.5470
 4311SOL     OW24568   2.708   2.282   8.279 -0.0550  0.3817  0.7677
 4311SOL    HW124569   2.734   2.351   8.340 -0.7218  0.3572  1.0893
 4311SOL    HW224570   2.620   2.314   8.255  1.0700  2.7567 -0.1942
 4312SOL     OW24571   1.498   2.975  12.291  0.3380 -0.6258 -0.5158
 4312SOL    HW124572   1.558   3.022  12.348  0.2915 -1.5604  0.2944
 4312SOL    HW224573   1.451   2.924  12.357  0.3425  0.2398  0.1520
 4313SOL     OW24574   2.226   3.213  16.669  0.2972  0.0407 -0.4044
 4313SOL    HW124575   2.306   3.176  16.707 -0.0198 -1.7488 -1.5076
 4313SOL    HW224576   2.265   3.244  16.588 -0.3132 -0.1887 -0.7841
 4314SOL     OW24577   3.829   4.495   3.375  0.5824  0.1072  0.0540
 4314SOL    HW124578   3.788   4.481   3.461 -1.2533  2.8005 -0.3803
 4314SOL    HW224579   3.879   4.573   3.398 -0.8750  0.8762  0.6037
 4315SOL     OW24580   4.613   0.462   1.346  0.1763  0.1471  0.1657
 4315SOL    HW124581   4.585   0.395   1.408  0.1262  1.1715  1.2659
 4315SOL    HW224582   4.704   0.459   1.375  0.2045 -1.7669 -0.1685
 4316SOL     OW24583   3.369   3.030   3.263  0.1234 -0.8958 -0.7106
 4316SOL    HW124584   3.353   2.961   3.198 -0.4289 -1.1678 -0.2857
 4316SOL    HW224585   3.286   3.051   3.305  0.0081  1.6330 -2.2354
 4317SOL     OW24586   0.017   2.517   1.463  0.0487  0.2647 -0.0121
 4317SOL    HW124587   0.010   2.573   1.386 -1.5825  0.1939  0.0883
 4317SOL    HW224588   4.666   2.496   1.483 -0.2893  0.5103 -1.2797
 4318SOL     OW24589   4.241   4.580   0.785  0.1720  0.5449  0.0481
 4318SOL    HW124590   4.329   4.543   0.796  0.8271  1.4484 -2.2451
 4318SOL    HW224591   4.249   4.620   0.699 -1.7552  1.1072  0.1268
 4319SOL     OW24592   3.259   0.230  17.247  0.0373  0.1516  0.3857
 4319SOL    HW124593   3.238   0.199  17.159 -0.0789  0.7583  0.2032
 4319SOL    HW224594   3.203   0.171  17.297  0.0464  0.8126  1.1730
 4320SOL     OW24595   4.055   0.601   1.516  0.4365  0.1398  0.0691
 4320SOL    HW124596   4.023   0.656   1.588  0.3510 -2.1740  1.7896
 4320SOL    HW224597   4.085   0.518   1.553  1.7241  0.0474 -1.1608
 4321SOL     OW24598   4.130   2.630   2.501 -0.5033 -0.2608  0.4026
 4321SOL    HW124599   4.140   2.600   2.411 -1.9647 -2.7106  1.0302
 4321SOL    HW224600   4.212   2.676   2.518 -0.5428 -0.0351 -0.0207
 4322SOL     OW24601   2.297   3.182   7.780 -0.0570  0.0739 -0.9877
 4322SOL    HW124602   2.388   3.151   7.781 -0.9100 -2.3365  3.0049
 4322SOL    HW224603   2.271   3.152   7.693 -0.5017  1.7782 -1.4273
 4323SOL     OW24604   0.425   2.602   4.093 -0.4637 -0.2254  0.5028
 4323SOL    HW124605   0.370   2.599   4.015 -1.4242  0.8848  1.1436
 4323SOL    HW224606   0.495   2.542   4.068 -0.8409  0.1744 -1.5465
 4324SOL     OW24607   1.286   2.076   2.283 -0.0935 -0.2741 -0.1978
 4324SOL    HW124608   1.238   2.025   2.349  1.5590  0.1947  1.3422
 4324SOL    HW224609   1.304   2.009   2.217 -0.9401 -2.1092  1.4254
 4325SOL     OW24610   4.158   0.590  16.548 -0.2757 -0.8236  0.3897
 4325SOL    HW124611   4.209   0.510  16.538  1.1779  0.1449  0.0827
 4325SOL    HW224612   4.119   0.600  16.461  0.7783 -1.9267 -0.2041
 4326SOL     OW24613   1.311   4.424   3.008 -0.5422 -0.5917  0.0585
 4326SOL    HW124614   1.279   4.480   2.936 -1.6857  0.8725  1.7075
 4326SOL    HW224615   1.229   4.403   3.053 -0.6805  0.9120  0.5194
 4327SOL     OW24616   0.822   2.009   4.225 -0.0307  0.2125 -0.4422
 4327SOL    HW124617   0.911   1.982   4.247 -0.1986  1.0268  1.2763
 4327SOL    HW224618   0.786   1.923   4.205 -0.3532  0.6811 -1.8805
 4328SOL     OW24619   3.417   1.175  14.768  0.0770  0.5544 -0.1947
 4328SOL    HW124620   3.457   1.137  14.689  0.5613  0.1128  0.2593
 4328SOL    HW224621   3.408   1.266  14.740  2.7055  0.7944 -0.2490
 4329SOL     OW24622   2.568   3.241  16.395 -0.4456 -0.1986 -0.1028
 4329SOL    HW124623   2.586   3.331  16.367  1.4438 -1.3134 -2.3835
 4329SOL    HW224624   2.656   3.226  16.429  0.4964  2.3697 -1.3964
 4330SOL     OW24625   4.486   4.272   4.236  0.5867  0.5354 -0.2764
 4330SOL    HW124626   4.467   4.251   4.145 -1.8055 -1.8241  0.7709
 4330SOL    HW224627   4.398   4.255   4.269  0.8094  0.0114  0.0562
 4331SOL     OW24628   2.907   1.631  16.651 -0.3304  0.4737  0.5026
 4331SOL    HW124629   2.881   1.720  16.673  0.9903  0.9242  0.2233
 4331SOL    HW224630   2.842   1.612  16.583 -1.0020  0.7905  1.0688
 4332SOL     OW24631   0.300   1.352   3.803 -0.0503  0.2610 -0.0829
 4332SOL    HW124632   0.343   1.420   3.853  0.4326  0.1879 -0.4014
 4332SOL    HW224633   0.344   1.275   3.840  2.4568  1.4152 -0.7185
 4333SOL     OW24634   1.851   1.796   9.388  0.1012 -0.4548 -0.3441
 4333SOL    HW124635   1.811   1.717   9.353  0.3240 -0.0148 -1.6052
 4333SOL    HW224636   1.934   1.770   9.428  0.1584  1.0342  0.5242
 4334SOL     OW24637   3.194   0.212  10.233 -0.3089 -0.0105  0.5049
 4334SOL    HW124638   3.140   0.269  10.288 -0.1685  1.7009 -1.1587
 4334SOL    HW224639   3.166   0.237  10.146  0.4630  1.7042  0.7542
 4335SOL     OW24640   2.157   1.578   9.734  0.0330 -0.6409 -0.6196
 4335SOL    HW124641   2.131   1.558   9.824  0.0697 -0.3088 -0.5359
 4335SOL    HW224642   2.228   1.639   9.752 -0.6706 -0.3365  1.1320
 4336SOL     OW24643   0.963   2.495  17.448 -0.2110  0.8116  0.0645
 4336SOL    HW124644   0.957   2.469  17.356  1.4148  1.2380 -0.1641
 4336SOL    HW224645   0.874   2.474  17.476  0.4233  0.4174  1.8065
 4337SOL     OW24646   0.848   4.646   1.604 -0.1973 -0.1103  0.0473
 4337SOL    HW124647   0.920   4.656   1.542  0.8182  1.4013  1.4772
 4337SOL    HW224648   0.774   4.675   1.550  0.3366  2.3656  0.6707
 4338SOL     OW24649   2.160   4.147   0.417 -0.0399  0.3884  0.1912
 4338SOL    HW124650   2.088   4.202   0.447  0.6476  0.0316  2.4854
 4338SOL    HW224651   2.148   4.152   0.322  1.5003 -3.4433 -0.2053
 4339SOL     OW24652   2.876   3.002   5.819  0.5683 -0.0156  0.2652
 4339SOL    HW124653   2.855   2.978   5.909 -1.3091 -0.1543 -0.1962
 4339SOL    HW224654   2.800   2.965   5.775  0.6534  1.0553 -0.7862
 4340SOL     OW24655   1.228   1.179   4.687  0.2794  0.1421  0.1808
 4340SOL    HW124656   1.207   1.134   4.768 -0.3755 -0.6558 -0.4343
 4340SOL    HW224657   1.259   1.106   4.634 -2.2125 -0.9936  0.2740
 4341SOL     OW24658   3.920   1.764   7.655 -0.1696  0.1795 -0.2403
 4341SOL    HW124659   3.879   1.757   7.741  3.3071 -1.6879  1.2484
 4341SOL    HW224660   3.867   1.708   7.597 -1.0434 -1.2427  1.9268
 4342SOL     OW24661   2.324   4.477  15.455  0.3844 -0.1527 -0.4656
 4342SOL    HW124662   2.272   4.448  15.529  1.3088 -2.5785 -0.7782
 4342SOL    HW224663   2.309   4.572  15.461  1.5642 -0.1333  2.3623
 4343SOL     OW24664   3.612   1.673   9.200  0.4882  0.1346  0.0422
 4343SOL    HW124665   3.661   1.631   9.271  0.8267  0.2616 -0.1158
 4343SOL    HW224666   3.651   1.638   9.120  2.8023  1.3367  0.6635
 4344SOL     OW24667   1.003   0.593  16.263 -0.1852 -0.4495 -0.0824
 4344SOL    HW124668   0.907   0.586  16.266 -0.2781  0.0338 -1.9922
 4344SOL    HW224669   1.012   0.687  16.244 -0.2839 -0.7102 -1.4263
 4345SOL     OW24670   2.736   1.665   8.331  0.1965  0.1966 -0.0526
 4345SOL    HW124671   2.677   1.730   8.294  2.0960  1.6547 -0.4767
 4345SOL    HW224672   2.779   1.715   8.400 -1.2483  1.0491  0.2249
 4346SOL     OW24673   4.305   4.435   3.036  0.4140 -0.1357 -0.7029
 4346SOL    HW124674   4.336   4.491   2.964 -2.1793 -0.9613 -2.4598
 4346SOL    HW224675   4.301   4.355   2.983 -0.1476 -0.0198 -0.8376
 4347SOL     OW24676   0.432   0.430   6.778  0.6849 -0.3375  0.0986
 4347SOL    HW124677   0.423   0.346   6.734 -0.0586  0.0351 -0.4682
 4347SOL    HW224678   0.524   0.434   6.802  0.4289 -0.5902  1.1336
 4348SOL     OW24679   2.676   3.900   8.960 -0.7010 -0.1647  0.1781
 4348SOL    HW124680   2.655   3.857   8.878  1.5699 -0.2765 -0.3500
 4348SOL    HW224681   2.613   3.972   8.957  0.4587  0.9011  1.4054
 4349SOL     OW24682   1.881   4.008   3.804 -0.0972 -0.6988 -0.5122
 4349SOL    HW124683   1.856   4.061   3.881  0.0560  0.1572 -1.0471
 4349SOL    HW224684   1.839   3.928   3.834 -2.6596  0.6777 -0.3829
 4350SOL     OW24685   1.035   0.522   3.372 -0.4356  0.4106  0.0137
 4350SOL    HW124686   1.000   0.526   3.461  0.9865  1.3967  0.5339
 4350SOL    HW224687   1.003   0.601   3.329 -2.9944  0.2456  1.5967
 4351SOL     OW24688   4.726   0.998   1.484  0.2846 -0.0201 -0.4188
 4351SOL    HW124689   0.021   1.064   1.425 -1.0466  1.3337  0.2808
 4351SOL    HW224690   0.001   0.917   1.435  1.5460  0.7833 -1.3592
 4352SOL     OW24691   3.274   3.752  14.126  0.1716  0.1878  0.2029
 4352SOL    HW124692   3.255   3.693  14.199  1.6817  0.2390  0.6300
 4352SOL    HW224693   3.270   3.689  14.054 -1.1935  0.4153  0.0782
 4353SOL     OW24694   3.113   0.391   5.762  0.1803  0.2805 -0.3735
 4353SOL    HW124695   3.055   0.448   5.711  0.7312 -0.0387 -1.3640
 4353SOL    HW224696   3.138   0.329   5.693  2.3695 -1.0049  1.5751
 4354SOL     OW24697   3.008   2.092   8.108  0.1775  0.5683 -0.3378
 4354SOL    HW124698   2.992   2.108   8.201 -0.2501 -2.3235  0.0678
 4354SOL    HW224699   2.922   2.099   8.067 -0.2820  0.1451  0.5841
 4355SOL     OW24700   2.885   3.069   6.807  0.0661  0.2788 -0.3429
 4355SOL    HW124701   2.915   3.032   6.890 -1.8518  2.4820  1.3319
 4355SOL    HW224702   2.929   3.026   6.733 -0.1522  1.1766 -0.9879
 4356SOL     OW24703   0.772   2.535  15.209  0.2628  0.1843  0.0055
 4356SOL    HW124704   0.861   2.534  15.172  0.3249 -0.7240  0.1794
 4356SOL    HW224705   0.722   2.539  15.127 -0.3742 -0.1559  0.3831
 4357SOL     OW24706   2.347   1.762  13.476  0.2476  0.9065  0.4661
 4357SOL    HW124707   2.338   1.797  13.564  1.3728  4.1045 -0.6992
 4357SOL    HW224708   2.372   1.846  13.436  2.1877  0.3132  0.4289
 4358SOL     OW24709   3.100   0.331   5.369  0.1006 -0.2816  0.9270
 4358SOL    HW124710   3.071   0.314   5.280  0.8251 -1.5268  0.9291
 4358SOL    HW224711   3.022   0.303   5.417  1.8909 -4.1389  1.5835
 4359SOL     OW24712   3.485   0.630   6.016  1.0554 -0.0603 -0.4243
 4359SOL    HW124713   3.538   0.573   6.072  0.8053  0.7636  0.6483
 4359SOL    HW224714   3.432   0.567   5.969  1.4230 -0.3781 -0.4096
 4360SOL     OW24715   1.970   2.114   5.487 -0.1368 -0.1063  0.6126
 4360SOL    HW124716   1.898   2.144   5.543 -0.1698  0.9036  0.0387
 4360SOL    HW224717   1.916   2.083   5.415  0.3241 -0.2172  0.3129
 4361SOL     OW24718   0.774   0.458   4.634  0.2284 -1.0110  0.8197
 4361SOL    HW124719   0.860   0.420   4.653  1.0396  0.4384 -0.0088
 4361SOL    HW224720   0.757   0.431   4.543  0.9075 -2.9004  1.2496
 4362SOL     OW24721   2.370   4.558   7.025  0.4421 -0.1275  0.7330
 4362SOL    HW124722   2.360   4.650   7.050  0.8370  0.2955 -0.6387
 4362SOL    HW224723   2.458   4.555   6.986 -0.0377 -1.6497 -0.2075
 4363SOL     OW24724   3.026   2.286  15.472  0.1792  0.5922  0.1360
 4363SOL    HW124725   2.947   2.340  15.483 -0.5337 -0.3318 -0.5150
 4363SOL    HW224726   2.988   2.199  15.467 -1.4608  1.4438 -2.1106
 4364SOL     OW24727   3.227   3.386   4.156 -0.5066 -0.4204 -0.2210
 4364SOL    HW124728   3.250   3.301   4.120 -0.5518 -0.1201 -0.9571
 4364SOL    HW224729   3.182   3.358   4.236  1.1035  0.5102  1.0234
 4365SOL     OW24730   3.766   3.973   8.319  0.4419  0.3236  0.4709
 4365SOL    HW124731   3.767   3.944   8.228 -1.1034 -1.1326  0.9193
 4365SOL    HW224732   3.727   3.899   8.366  0.6816 -1.1297 -1.6307
 4366SOL     OW24733   0.012   3.015   6.506  0.6559 -0.0050  0.1063
 4366SOL    HW124734   4.706   2.946   6.458  0.9905 -1.0984  1.3669
 4366SOL    HW224735   4.677   3.074   6.510 -1.2778 -2.5018  0.8559
 4367SOL     OW24736   4.719   1.883   2.742 -0.5350  0.1315 -0.0857
 4367SOL    HW124737   4.713   1.885   2.837  1.0468 -3.6568  0.1036
 4367SOL    HW224738   4.637   1.926   2.719  0.7736  2.4745 -0.4013
 4368SOL     OW24739   2.895   2.581  12.707 -0.0721  0.0055  0.0130
 4368SOL    HW124740   2.964   2.559  12.771  1.4196 -1.0293 -1.9599
 4368SOL    HW224741   2.816   2.542  12.745 -2.1427  2.8865 -1.3913
 4369SOL     OW24742   2.440   2.173  15.126  0.4338 -0.1758  0.0110
 4369SOL    HW124743   2.373   2.108  15.149  0.6690 -1.1804 -2.1548
 4369SOL    HW224744   2.464   2.145  15.038 -1.4962 -0.0092 -0.5695
 4370SOL     OW24745   3.282   3.746  15.480 -0.2951  0.1356 -0.2662
 4370SOL    HW124746   3.243   3.711  15.400  3.4029  0.1524 -2.0698
 4370SOL    HW224747   3.219   3.808  15.516 -0.2836 -0.1412  0.2404
 4371SOL     OW24748   1.696   1.169  16.754 -0.1278 -0.2297  0.5935
 4371SOL    HW124749   1.792   1.173  16.757 -0.0632 -2.0150  0.7545
 4371SOL    HW224750   1.693   1.167  16.850 -0.2296 -1.7446  0.5469
 4372SOL     OW24751   0.996   1.533   2.124  0.0867 -0.7083  0.1607
 4372SOL    HW124752   1.008   1.445   2.088 -1.8158 -0.2284 -1.6174
 4372SOL    HW224753   0.926   1.566   2.069 -0.1471  2.2435  2.2145
 4373SOL     OW24754   0.053   3.665   1.718  0.1063 -0.1973 -0.8011
 4373SOL    HW124755   4.716   3.678   1.663 -1.6351 -1.4959  1.3462
 4373SOL    HW224756   0.123   3.683   1.655 -0.3818 -0.2966 -1.3667
 4374SOL     OW24757   0.459   4.583   8.557 -0.5584  0.2141  0.4917
 4374SOL    HW124758   0.375   4.563   8.517 -0.1171  1.8091 -1.2503
 4374SOL    HW224759   0.437   4.575   8.649  1.8265 -1.5372  0.9217
 4375SOL     OW24760   3.412   3.019   4.740  0.4138  0.8112 -0.2495
 4375SOL    HW124761   3.436   3.077   4.668  1.0909  0.9777  0.1166
 4375SOL    HW224762   3.318   3.010   4.723  0.7073  0.3090 -1.6223
 4376SOL     OW24763   3.656   0.953   6.857  0.2059  0.2545 -0.7835
 4376SOL    HW124764   3.606   0.953   6.938  0.2978  0.4163 -0.7293
 4376SOL    HW224765   3.713   0.877   6.871 -0.2890 -0.2884 -1.6780
 4377SOL     OW24766   1.082   1.301   2.847  0.9016 -0.3477  0.2479
 4377SOL    HW124767   1.150   1.262   2.792  1.0313 -0.8658  0.7747
 4377SOL    HW224768   1.066   1.389   2.812  0.5792  0.0680  1.4533
 4378SOL     OW24769   2.542   4.202  16.906 -0.0737 -0.2727 -0.2630
 4378SOL    HW124770   2.576   4.289  16.929 -0.2619 -0.2021 -0.2504
 4378SOL    HW224771   2.508   4.175  16.991  1.7532 -2.8317 -0.3500
 4379SOL     OW24772   1.920   3.706   5.931 -0.4598 -0.0201 -0.1187
 4379SOL    HW124773   1.837   3.685   5.974 -1.0972  1.5149 -0.5939
 4379SOL    HW224774   1.927   3.802   5.933 -1.5960  0.0335  0.9547
 4380SOL     OW24775   0.899   2.025   4.885 -0.0003  0.1324  0.6683
 4380SOL    HW124776   0.976   2.080   4.896  0.3386  0.0477 -1.2795
 4380SOL    HW224777   0.903   2.017   4.790 -0.5464 -0.6071  0.7055
 4381SOL     OW24778   2.479   3.155  16.121 -0.3402  0.2353  0.2098
 4381SOL    HW124779   2.465   3.193  16.208 -1.5405  2.2150 -0.8562
 4381SOL    HW224780   2.512   3.068  16.144  0.1886  0.6182  0.9153
 4382SOL     OW24781   3.718   2.658  16.243 -0.4482  0.3234 -0.5688
 4382SOL    HW124782   3.644   2.679  16.300 -0.6841 -1.3398 -0.2701
 4382SOL    HW224783   3.738   2.742  16.202  0.6243  0.2488 -0.1902
 4383SOL     OW24784   3.904   4.029   5.938 -0.7423  0.0239 -0.0962
 4383SOL    HW124785   3.983   4.028   5.993  0.3769 -0.4560 -1.7149
 4383SOL    HW224786   3.836   4.000   5.999 -0.1212  1.2174  1.1672
 4384SOL     OW24787   2.398   2.927   2.896  0.2746  0.5904 -0.3640
 4384SOL    HW124788   2.305   2.941   2.877  0.3368  0.3919 -0.7875
 4384SOL    HW224789   2.405   2.834   2.874 -2.0959  0.0553  1.1485
 4385SOL     OW24790   2.399   1.764   2.757 -0.1594  0.5763  0.3453
 4385SOL    HW124791   2.369   1.810   2.679  1.0931 -1.8369 -1.5453
 4385SOL    HW224792   2.433   1.680   2.727 -3.9930 -1.1577  0.7678
 4386SOL     OW24793   2.093   4.186   3.751 -0.0893  0.0211  0.1293
 4386SOL    HW124794   2.020   4.126   3.771 -0.8175 -0.3293 -3.6910
 4386SOL    HW224795   2.055   4.270   3.777 -2.2656 -0.6768 -0.7882
 4387SOL     OW24796   1.186   3.969   5.129  0.3819 -0.1098 -0.0248
 4387SOL    HW124797   1.271   3.926   5.134  0.8156  0.7857  0.2808
 4387SOL    HW224798   1.140   3.918   5.196 -1.2744 -0.3666 -1.3409
 4388SOL     OW24799   1.047   0.818   3.749 -0.2846  0.4758 -0.1623
 4388SOL    HW124800   1.121   0.862   3.790  1.2291 -2.2623  0.0106
 4388SOL    HW224801   1.097   0.766   3.686  2.0550  0.6646  1.5640
 4389SOL     OW24802   1.342   3.370  13.846  0.1117 -0.4558  0.2518
 4389SOL    HW124803   1.269   3.433  13.850  1.2457  0.9777 -1.6900
 4389SOL    HW224804   1.327   3.313  13.922  0.5293 -1.1773 -0.2112
 4390SOL     OW24805   0.035   1.942   3.019  0.0139  0.2197  0.4827
 4390SOL    HW124806   0.073   1.870   3.069  0.0711 -0.9020 -1.1738
 4390SOL    HW224807   4.723   1.987   3.085  0.3909 -1.5305  1.9715
 4391SOL     OW24808   0.679   3.544   8.565  0.4889  0.2835  0.0023
 4391SOL    HW124809   0.746   3.613   8.556  0.5500  0.0842 -1.0566
 4391SOL    HW224810   0.611   3.575   8.506  1.0992  0.5701 -0.5428
 4392SOL     OW24811   1.474   4.428   8.706  0.6382 -0.4130 -0.5512
 4392SOL    HW124812   1.443   4.516   8.687  0.2742  0.0753  2.2634
 4392SOL    HW224813   1.395   4.377   8.690  1.3156 -0.9801 -2.1201
 4393SOL     OW24814   3.476   2.663   9.466 -0.4388  0.7559  0.7899
 4393SOL    HW124815   3.443   2.753   9.471 -1.5153  0.4071  0.0220
 4393SOL    HW224816   3.456   2.638   9.376  0.3696 -0.0712  0.8416
 4394SOL     OW24817   4.521   2.350   5.564 -0.3297  0.1961  0.5971
 4394SOL    HW124818   4.447   2.347   5.503 -0.5363  1.6439  0.7842
 4394SOL    HW224819   4.518   2.441   5.591  0.0453  0.6664 -0.9430
 4395SOL     OW24820   0.199   1.999   1.530  0.8616  0.7768 -0.2989
 4395SOL    HW124821   0.233   2.076   1.574  0.7374  0.1899  0.8174
 4395SOL    HW224822   0.130   2.047   1.484 -0.3897  0.6256  1.4249
 4396SOL     OW24823   4.400   3.671   1.892 -0.3231  0.3845  0.4788
 4396SOL    HW124824   4.374   3.759   1.863  1.0442  1.5447  2.7184
 4396SOL    HW224825   4.393   3.613   1.816  1.3005  3.5832 -2.1618
 4397SOL     OW24826   1.864   3.427   0.273 -0.2461 -0.2603 -0.0264
 4397SOL    HW124827   1.811   3.428   0.194 -1.6410 -1.4929  0.8753
 4397SOL    HW224828   1.838   3.343   0.310 -0.0380 -1.1905 -2.0217
 4398SOL     OW24829   4.235   3.149  10.400 -0.9572 -0.2079 -0.2420
 4398SOL    HW124830   4.274   3.234  10.380  1.8164 -1.6053 -0.6522
 4398SOL    HW224831   4.143   3.165  10.421 -0.6654  1.5813 -0.3410
 4399SOL     OW24832   4.389   0.660   0.506  0.6358 -0.5382 -0.1941
 4399SOL    HW124833   4.442   0.702   0.574 -1.1025  0.4559  0.5178
 4399SOL    HW224834   4.393   0.740   0.454 -2.6115 -2.0418 -2.7341
 4400SOL     OW24835   3.210   4.494  12.466 -0.1331 -0.0538 -0.3264
 4400SOL    HW124836   3.147   4.474  12.535 -1.2356 -0.0665 -1.3323
 4400SOL    HW224837   3.202   4.589  12.464  0.6823 -0.0084 -1.8871
 4401SOL     OW24838   2.661   0.101   4.381  0.2987 -0.0278 -0.3614
 4401SOL    HW124839   2.604   0.072   4.309  1.5841 -0.1742 -1.3258
 4401SOL    HW224840   2.748   0.076   4.349  0.2904 -0.3407 -0.1325
 4402SOL     OW24841   3.824   3.274   9.920  0.4806  0.0364 -0.2940
 4402SOL    HW124842   3.843   3.360   9.882 -1.8023  0.6186 -0.1083
 4402SOL    HW224843   3.738   3.266   9.879 -0.5835  1.7983  1.5729
 4403SOL     OW24844   2.242   4.247  14.389  0.4318  0.2084 -0.1923
 4403SOL    HW124845   2.198   4.169  14.355 -1.1553  1.2176 -0.4562
 4403SOL    HW224846   2.197   4.268  14.471 -0.1753 -0.0826 -0.4472
 4404SOL     OW24847   1.156   2.853  13.628  0.2564 -0.5080 -0.6320
 4404SOL    HW124848   1.093   2.787  13.655 -0.4599 -0.9243 -3.2908
 4404SOL    HW224849   1.187   2.879  13.715  0.8776  0.9454 -1.2876
 4405SOL     OW24850   1.740   0.841  17.361  0.4430 -0.0394 -0.0388
 4405SOL    HW124851   1.698   0.921  17.331 -0.3267 -0.4330 -0.0175
 4405SOL    HW224852   1.805   0.824  17.292  0.4750 -0.0793  0.0006
 4406SOL     OW24853   1.494   3.887   4.703 -0.1295 -0.0779  0.1970
 4406SOL    HW124854   1.515   3.973   4.739  0.4464 -0.4954  0.8674
 4406SOL    HW224855   1.548   3.830   4.757  1.5213  1.4271  0.1013
 4407SOL     OW24856   1.795   0.414   5.688  0.2219 -0.5030  0.6361
 4407SOL    HW124857   1.865   0.369   5.735  1.0435  0.1499  0.0342
 4407SOL    HW224858   1.763   0.484   5.745 -0.7741  0.7756 -1.4826
 4408SOL     OW24859   3.082   4.392  13.618  0.4704  0.1096 -0.1997
 4408SOL    HW124860   3.153   4.382  13.555 -0.1074  0.1059 -0.8604
 4408SOL    HW224861   3.084   4.486  13.635 -3.4942  0.0284  0.8447
 4409SOL     OW24862   4.008   4.726   3.444  0.0013  0.2224  0.3887
 4409SOL    HW124863   4.008   0.072   3.402  0.0767  0.1522  0.2464
 4409SOL    HW224864   4.103   4.713   3.444  0.0751  0.6381  2.3769
 4410SOL     OW24865   0.910   4.084   7.682 -0.2705 -0.3422  0.7327
 4410SOL    HW124866   0.819   4.083   7.652 -1.1656  0.1531  3.3633
 4410SOL    HW224867   0.947   4.010   7.634 -0.2852  0.1969 -0.1012
 4411SOL     OW24868   2.444   2.157   8.745 -0.2607 -0.2469 -0.3002
 4411SOL    HW124869   2.422   2.124   8.832  1.5999  4.1269  1.8829
 4411SOL    HW224870   2.374   2.222   8.735  0.6837  1.0769  1.5048
 4412SOL     OW24871   0.734   4.169   0.044  0.4523  0.6619 -0.3056
 4412SOL    HW124872   0.794   4.182   0.118  0.4736 -0.2188 -0.1733
 4412SOL    HW224873   0.796   4.185  17.731  0.6627 -0.4591 -0.3722
 4413SOL     OW24874   2.493   1.553   2.588 -0.4832 -0.2315  0.3216
 4413SOL    HW124875   2.523   1.539   2.498  0.3241  1.2611  0.3609
 4413SOL    HW224876   2.518   1.471   2.632  2.3000  0.7799  0.6266
 4414SOL     OW24877   2.145   2.118  12.503  0.1680  0.4896 -0.1746
 4414SOL    HW124878   2.182   2.135  12.417 -1.8370 -0.3645 -1.1997
 4414SOL    HW224879   2.213   2.162  12.555 -0.0104  0.6122 -0.0444
 4415SOL     OW24880   0.983   3.529   3.640  0.0442  0.4294 -0.5126
 4415SOL    HW124881   1.036   3.524   3.561 -0.4391  1.5664 -0.9030
 4415SOL    HW224882   1.005   3.619   3.663  0.1681 -0.0973  1.5091
 4416SOL     OW24883   2.069   0.407   9.039  0.3866 -0.3378  0.3266
 4416SOL    HW124884   2.027   0.455   9.110 -0.0495  1.1095 -0.9146
 4416SOL    HW224885   2.055   0.316   9.064 -0.4054 -0.9410 -2.2981
 4417SOL     OW24886   4.330   2.376   2.039 -0.2813 -0.0648  0.1353
 4417SOL    HW124887   4.421   2.363   2.065 -0.6348 -1.7415  0.5055
 4417SOL    HW224888   4.313   2.306   1.977  0.4752 -0.7918  0.7475
 4418SOL     OW24889   1.843   2.074   5.717  0.7528  0.4201  0.1906
 4418SOL    HW124890   1.828   1.995   5.665 -1.8019  0.6223  0.6325
 4418SOL    HW224891   1.751   2.098   5.730  0.0522 -1.9537 -0.4462
 4419SOL     OW24892   2.926   4.299   4.984  0.0298  0.4697 -0.3871
 4419SOL    HW124893   2.861   4.364   4.958 -0.1044  0.9785  1.2403
 4419SOL    HW224894   2.875   4.219   4.974 -0.9667  0.9524  0.8160
 4420SOL     OW24895   4.668   1.556   6.530 -0.1132 -0.0984 -1.1092
 4420SOL    HW124896   4.613   1.480   6.549  1.4470 -0.6802  1.0951
 4420SOL    HW224897   4.629   1.624   6.585 -2.5563 -0.3781 -2.4989
 4421SOL     OW24898   0.641   2.446   6.792  0.5354  0.0572  0.1015
 4421SOL    HW124899   0.581   2.380   6.826  1.2200 -0.5852  0.0798
 4421SOL    HW224900   0.620   2.449   6.699  1.4886  0.3149 -0.1156
 4422SOL     OW24901   1.376   2.297   3.995  0.4993  0.3005  0.2555
 4422SOL    HW124902   1.442   2.349   4.041  1.2718  0.6984 -1.2927
 4422SOL    HW224903   1.334   2.356   3.932  0.4118 -0.1592 -0.1180
 4423SOL     OW24904   2.789   2.264   3.606  0.0244 -0.5847  0.0080
 4423SOL    HW124905   2.877   2.230   3.622 -0.1615 -1.4026 -0.7111
 4423SOL    HW224906   2.740   2.184   3.586  0.3208 -0.7501 -0.0455
 4424SOL     OW24907   1.475   3.830   7.813  0.7241  0.2216 -0.0548
 4424SOL    HW124908   1.521   3.758   7.770 -1.2257 -1.0911  0.0626
 4424SOL    HW224909   1.392   3.784   7.824  0.6816  0.4441  0.5348
 4425SOL     OW24910   1.145   0.327   6.008 -0.5148  0.1591 -0.4098
 4425SOL    HW124911   1.202   0.400   6.031  1.8720 -3.6712  5.8032
 4425SOL    HW224912   1.126   0.330   5.914  1.1940 -1.8002 -0.8230
 4426SOL     OW24913   3.440   3.626  11.890  0.0154  0.1477 -0.0350
 4426SOL    HW124914   3.460   3.616  11.983 -2.9619  1.1851  0.7288
 4426SOL    HW224915   3.411   3.538  11.869 -0.1421  0.3165 -0.5333
 4427SOL     OW24916   4.329   1.647   4.393 -0.4438  0.1912  0.5429
 4427SOL    HW124917   4.271   1.576   4.420 -0.2809 -0.0230  0.3203
 4427SOL    HW224918   4.341   1.621   4.302  0.5130  0.2578  0.6449
 4428SOL     OW24919   2.539   0.998   9.414  0.3192 -0.0128 -0.5511
 4428SOL    HW124920   2.602   0.936   9.451  1.8138  2.3125  0.8286
 4428SOL    HW224921   2.583   1.082   9.430 -0.5063  0.3706 -0.2893
 4429SOL     OW24922   3.830   0.199   7.991 -0.4205 -0.6116  0.3599
 4429SOL    HW124923   3.763   0.147   8.035 -1.0759 -0.1213 -0.0609
 4429SOL    HW224924   3.869   0.132   7.935  1.4418  1.4581 -0.7930
 4430SOL     OW24925   0.771   0.313   9.628 -0.4562  0.0087  0.1108
 4430SOL    HW124926   0.744   0.249   9.695 -1.1885  0.4651  0.2501
 4430SOL    HW224927   0.690   0.349   9.592 -0.0596  0.6210 -0.1531
 4431SOL     OW24928   1.430   3.591   7.246  0.7092 -0.5863  0.1789
 4431SOL    HW124929   1.442   3.668   7.190 -2.5724  0.0188  0.2877
 4431SOL    HW224930   1.393   3.521   7.192 -0.4782  0.6568 -0.6236
 4432SOL     OW24931   3.208   1.888   7.286 -0.3634  0.4214 -0.3761
 4432SOL    HW124932   3.258   1.823   7.335 -0.5140  2.3746  2.3386
 4432SOL    HW224933   3.219   1.867   7.193 -0.0879 -0.0802 -0.2352
 4433SOL     OW24934   1.826   0.950   8.131 -0.1423 -0.3565  0.3188
 4433SOL    HW124935   1.910   0.925   8.169  0.7429  0.4608 -1.0646
 4433SOL    HW224936   1.773   0.898   8.191 -0.7020  1.3030  1.2669
 4434SOL     OW24937   4.228   2.815  12.829 -0.2893  0.4007 -0.0350
 4434SOL    HW124938   4.133   2.815  12.816 -0.4172  0.3750  0.8447
 4434SOL    HW224939   4.213   2.835  12.922  0.6990 -0.7336  0.3679
 4435SOL     OW24940   4.458   3.818   5.355  0.8226  0.1978 -0.7496
 4435SOL    HW124941   4.490   3.839   5.267  0.6252  1.4842 -0.5050
 4435SOL    HW224942   4.422   3.903   5.380 -0.1847 -0.5628  0.3571
 4436SOL     OW24943   4.509   3.678   9.230 -0.4831  0.1747  0.0575
 4436SOL    HW124944   4.416   3.667   9.248 -0.2439  1.7110  2.3452
 4436SOL    HW224945   4.509   3.711   9.140 -1.1020  1.9935  0.7288
 4437SOL     OW24946   0.167   1.290  10.515 -0.1944 -0.5164  0.2178
 4437SOL    HW124947   0.250   1.277  10.469  0.1259 -1.7769  1.1716
 4437SOL    HW224948   0.109   1.321  10.445 -1.7794 -0.6540  1.4629
 4438SOL     OW24949   4.470   1.127   3.789 -0.3130  0.4313 -0.3575
 4438SOL    HW124950   4.494   1.112   3.880 -1.6619 -1.5723 -0.3241
 4438SOL    HW224951   4.546   1.177   3.760 -0.2787  0.5990  0.0197
 4439SOL     OW24952   2.733   3.407  12.418 -0.0743  0.1900 -0.3205
 4439SOL    HW124953   2.779   3.418  12.501 -2.0896 -1.0094  0.9505
 4439SOL    HW224954   2.719   3.494  12.380 -0.1329  0.9852  1.5194
 4440SOL     OW24955   2.019   1.056  15.272 -0.1945  0.1180  0.1379
 4440SOL    HW124956   2.032   1.013  15.357 -0.8051  0.2832  0.3116
 4440SOL    HW224957   2.103   1.084  15.236  0.0637 -0.4585  0.2811
 4441SOL     OW24958   0.558   3.016   9.690 -0.2836  1.0210 -0.2135
 4441SOL    HW124959   0.589   2.926   9.684  1.6137  1.5751  1.0833
 4441SOL    HW224960   0.512   3.019   9.773  0.9715  3.6327  0.3811
 4442SOL     OW24961   4.201   2.232   3.977  0.3841 -0.4710  0.0779
 4442SOL    HW124962   4.219   2.235   4.071  0.8249 -1.2217  0.0156
 4442SOL    HW224963   4.288   2.206   3.946 -0.8212 -2.4562 -1.6464
 4443SOL     OW24964   4.560   4.314  14.016  0.2894 -0.1743  0.4114
 4443SOL    HW124965   4.545   4.324  13.922  0.2166 -0.0565  0.4356
 4443SOL    HW224966   4.472   4.329  14.052  0.1418 -3.3899  1.3845
 4444SOL     OW24967   1.580   3.458   1.463  0.0209  0.0902 -0.6611
 4444SOL    HW124968   1.674   3.458   1.479 -0.1497 -1.0221  0.3439
 4444SOL    HW224969   1.559   3.365   1.451  0.0298 -0.2308  1.6790
 4445SOL     OW24970   2.028   2.412   5.775  0.1388 -0.1907  0.5374
 4445SOL    HW124971   2.104   2.384   5.725 -1.4360 -0.7754 -1.5340
 4445SOL    HW224972   2.059   2.484   5.830 -1.7245  0.6458  0.5284
 4446SOL     OW24973   1.212   4.220  15.408  0.3805  0.4152 -0.0479
 4446SOL    HW124974   1.157   4.293  15.436  0.1397 -1.0504  3.2996
 4446SOL    HW224975   1.212   4.178  15.494 -0.1481 -0.3596 -0.4234
 4447SOL     OW24976   0.439   3.213  14.008  0.0056  0.1184 -0.5488
 4447SOL    HW124977   0.453   3.134  14.059  0.8145 -0.1757 -1.2268
 4447SOL    HW224978   0.413   3.268  14.082 -1.5740 -2.1577  0.5614
 4448SOL     OW24979   0.164   3.340   4.782  0.0541  0.4277  0.4025
 4448SOL    HW124980   0.109   3.414   4.809 -0.7782 -0.3196  0.7485
 4448SOL    HW224981   0.167   3.280   4.856 -0.0001  0.4873  0.4533
 4449SOL     OW24982   1.076   4.312   1.846 -0.9866 -0.8577 -0.1888
 4449SOL    HW124983   1.094   4.371   1.772 -0.1329 -1.1666 -0.2238
 4449SOL    HW224984   1.116   4.231   1.815  2.7144  0.8485  0.1234
 4450SOL     OW24985   4.211   1.818   5.954 -0.1387  0.1996 -0.2078
 4450SOL    HW124986   4.143   1.878   5.923  0.5638  0.5090 -1.1470
 4450SOL    HW224987   4.295   1.863   5.940 -0.2313  0.9615  1.6296
 4451SOL     OW24988   3.903   4.473  15.811 -0.0566 -0.5047 -0.3286
 4451SOL    HW124989   3.935   4.412  15.878  0.7511 -2.3357 -2.3791
 4451SOL    HW224990   3.981   4.477  15.756  0.4716 -2.5242  0.2503
 4452SOL     OW24991   1.434   1.687   4.659  0.0394  0.1872  0.1762
 4452SOL    HW124992   1.390   1.615   4.614 -0.5761  1.4071 -1.2150
 4452SOL    HW224993   1.475   1.739   4.589  0.2512 -0.2258 -0.0074
 4453SOL     OW24994   1.718   4.415  12.231  0.0212  0.5482  0.3824
 4453SOL    HW124995   1.722   4.495  12.179 -1.9468 -0.1547 -0.8827
 4453SOL    HW224996   1.782   4.353  12.197 -1.5506 -0.4038 -0.8399
 4454SOL     OW24997   0.721   2.817   8.371  0.2162 -0.1135  0.2165
 4454SOL    HW124998   0.706   2.734   8.326  0.6402  0.4804 -1.0248
 4454SOL    HW224999   0.802   2.784   8.409  1.5158  0.4097 -2.0582
 4455SOL     OW25000   3.441   2.817   3.923  0.4421 -0.0464 -0.6084
 4455SOL    HW125001   3.469   2.861   4.003 -1.2097  2.2003 -1.2786
 4455SOL    HW225002   3.407   2.735   3.959 -1.3393  0.4213 -1.2409
 4456SOL     OW25003   3.022   2.161  16.278  0.3362 -0.8090 -0.3438
 4456SOL    HW125004   3.117   2.156  16.280  0.4226  1.1635  0.9959
 4456SOL    HW225005   3.015   2.131  16.188  0.2476  1.6642 -1.1784
 4457SOL     OW25006   0.807   3.150  10.937  0.2065 -0.4855  0.1945
 4457SOL    HW125007   0.831   3.090  11.007  0.4276  0.9787  1.3705
 4457SOL    HW225008   0.734   3.202  10.971  1.2851  0.2796  1.3600
 4458SOL     OW25009   0.896   2.624   5.036  0.2461 -0.2847  0.1602
 4458SOL    HW125010   0.935   2.682   4.971  2.5092  2.0055  3.5578
 4458SOL    HW225011   0.916   2.543   4.989 -2.4030 -0.9914  0.2857
 4459SOL     OW25012   3.354   2.263  16.474 -0.2554  0.7131  0.2128
 4459SOL    HW125013   3.368   2.307  16.391  2.2767  1.4057  1.0232
 4459SOL    HW225014   3.322   2.178  16.444 -0.6031  1.5952 -1.9200
 4460SOL     OW25015   1.701   0.644  16.336 -0.3129  0.1371  0.3304
 4460SOL    HW125016   1.670   0.693  16.412  0.4207  1.5418 -0.2849
 4460SOL    HW225017   1.629   0.664  16.277 -0.1974 -0.2456  0.0568
 4461SOL     OW25018   1.836   0.166   3.434 -0.1840 -0.4149  0.4979
 4461SOL    HW125019   1.793   0.232   3.379  1.0000 -0.7255 -0.8177
 4461SOL    HW225020   1.819   0.080   3.394 -0.0866  0.6678 -1.9027
 4462SOL     OW25021   2.203   2.039   2.825 -0.4585  0.0929  0.0221
 4462SOL    HW125022   2.248   1.974   2.879 -0.0722  0.9893  0.7759
 4462SOL    HW225023   2.147   1.977   2.777 -0.6349 -0.6444  1.1809
 4463SOL     OW25024   3.513   1.431  15.592  0.3991  0.2185 -0.2651
 4463SOL    HW125025   3.427   1.439  15.550  1.0901  2.3116 -1.2994
 4463SOL    HW225026   3.514   1.493  15.664 -1.0457 -1.3382  1.0942
 4464SOL     OW25027   2.142   2.993  11.097 -0.8034  0.2461  0.4292
 4464SOL    HW125028   2.050   3.016  11.110 -0.7456  0.3797  0.6113
 4464SOL    HW225029   2.158   2.932  11.169  1.1987  2.3683  1.7999
 4465SOL     OW25030   1.252   4.150   6.729 -0.3135 -0.7368 -0.4591
 4465SOL    HW125031   1.337   4.176   6.692  1.1954  0.1226  3.6826
 4465SOL    HW225032   1.206   4.234   6.735  0.0885 -0.5823  0.4346
 4466SOL     OW25033   3.564   0.775  16.883  0.4937  0.4787 -0.3898
 4466SOL    HW125034   3.621   0.714  16.837 -0.2969 -1.8125  1.6570
 4466SOL    HW225035   3.508   0.809  16.814 -0.9070 -0.2692  0.3831
 4467SOL     OW25036   2.435   4.322   4.644 -0.2397  0.7429  0.3867
 4467SOL    HW125037   2.525   4.304   4.617 -0.1246  1.6474  0.1628
 4467SOL    HW225038   2.384   4.343   4.565 -2.8511 -1.0491  1.5903
 4468SOL     OW25039   2.776   0.806   6.248 -0.4267  0.3503 -0.5281
 4468SOL    HW125040   2.841   0.781   6.315 -0.7307 -0.9090 -0.6953
 4468SOL    HW225041   2.805   0.895   6.229 -2.8259  2.0849  3.8441
 4469SOL     OW25042   4.395   1.053   6.483 -0.3686 -0.7868  0.7097
 4469SOL    HW125043   4.467   1.031   6.424  0.4587  0.1603  1.3675
 4469SOL    HW225044   4.377   0.960   6.494 -0.3359 -0.5939  2.2883
 4470SOL     OW25045   0.028   0.726   5.521  0.6517 -0.0660 -0.3768
 4470SOL    HW125046   4.675   0.720   5.502  0.6773 -3.1329  0.4910
 4470SOL    HW225047   0.062   0.732   5.432 -0.8908  0.9431 -0.8932
 4471SOL     OW25048   2.635   3.519   2.097 -0.0665  0.0940 -0.3760
 4471SOL    HW125049   2.602   3.488   2.182  2.3521  1.1971  0.9826
 4471SOL    HW225050   2.647   3.434   2.054 -0.9223 -1.0012  1.5468
 4472SOL     OW25051   3.174   3.236   5.358 -0.0127 -0.3886  0.2665
 4472SOL    HW125052   3.141   3.230   5.448 -0.8423 -0.6718 -0.0624
 4472SOL    HW225053   3.239   3.306   5.366  0.4201 -0.6442 -1.1061
 4473SOL     OW25054   0.804   2.271  16.368  0.4542 -0.3931  0.1895
 4473SOL    HW125055   0.882   2.303  16.413 -0.7980  0.2199  1.9222
 4473SOL    HW225056   0.744   2.344  16.383 -0.3124 -0.8603 -0.5791
 4474SOL     OW25057   0.489   2.646   4.772 -0.3258 -0.5110 -0.3052
 4474SOL    HW125058   0.435   2.647   4.851 -0.1233 -1.4730 -0.1569
 4474SOL    HW225059   0.426   2.632   4.702 -0.1479 -0.4845 -0.4727
 4475SOL     OW25060   3.410   0.298   5.678 -0.3638 -0.4200 -0.4301
 4475SOL    HW125061   3.397   0.328   5.768 -0.5932  0.4382 -0.7460
 4475SOL    HW225062   3.375   0.371   5.628  3.6576  1.0839 -1.0591
 4476SOL     OW25063   0.051   1.358  10.745 -0.1522 -0.0894 -0.2832
 4476SOL    HW125064   0.000   1.426  10.700 -0.4483 -0.7863 -1.0033
 4476SOL    HW225065   0.114   1.337  10.676  0.0850  0.2223 -0.1658
 4477SOL     OW25066   1.086   4.320   9.960  0.1127  0.6686 -0.3044
 4477SOL    HW125067   1.077   4.245  10.019  0.1272  0.9467  0.0501
 4477SOL    HW225068   1.164   4.290   9.914  1.1131 -0.8167  2.3318
 4478SOL     OW25069   0.351   4.436   6.833  0.5703  0.0410 -0.6718
 4478SOL    HW125070   0.259   4.408   6.833  1.0392 -1.4903  0.1318
 4478SOL    HW225071   0.390   4.363   6.786 -0.0582 -0.2842 -0.6906
 4479SOL     OW25072   2.106   2.364   0.019  0.0569 -0.0183 -0.0112
 4479SOL    HW125073   2.026   2.400  17.740 -0.4071 -0.2000  0.8260
 4479SOL    HW225074   2.085   2.380   0.111 -3.0477 -0.1511 -0.7059
 4480SOL     OW25075   4.687   4.503  16.680 -0.4611 -0.1916  0.2188
 4480SOL    HW125076   0.023   4.529  16.733 -1.5758  2.2405  0.6414
 4480SOL    HW225077   4.628   4.573  16.710 -2.3576 -0.8337 -2.0516
 4481SOL     OW25078   4.710   1.535   8.880  0.1195  0.1984  0.1340
 4481SOL    HW125079   4.725   1.441   8.891  1.9263  0.3707 -0.8555
 4481SOL    HW225080   0.045   1.561   8.827 -0.1313  1.1123  0.2253
 4482SOL     OW25081   2.376   1.415   8.392 -0.3927  0.0769  0.3978
 4482SOL    HW125082   2.281   1.414   8.385 -0.4273 -0.9383  0.9907
 4482SOL    HW225083   2.375   1.488   8.454 -0.1571 -0.4277  1.0054
 4483SOL     OW25084   3.798   0.526   5.797 -0.1495 -0.2347  0.3027
 4483SOL    HW125085   3.886   0.489   5.798 -0.2454 -0.5235 -1.2404
 4483SOL    HW225086   3.741   0.451   5.812 -1.6154  0.6946 -0.5736
 4484SOL     OW25087   2.486   3.283   7.541  0.0872  0.1894 -0.2344
 4484SOL    HW125088   2.400   3.242   7.532 -0.6275  1.5891  0.2600
 4484SOL    HW225089   2.544   3.207   7.534 -0.3367 -0.0818 -0.7809
 4485SOL     OW25090   4.542   3.223   7.824 -0.6706  0.3501 -0.0485
 4485SOL    HW125091   4.627   3.263   7.845 -0.3144  0.7698 -2.3045
 4485SOL    HW225092   4.555   3.128   7.818  1.0335  0.6693 -1.7471
 4486SOL     OW25093   2.297   1.730  16.317 -0.0221 -0.3181 -0.4210
 4486SOL    HW125094   2.207   1.699  16.313 -0.2360  0.2067  0.4343
 4486SOL    HW225095   2.345   1.648  16.305 -1.3239 -1.1789  0.3663
 4487SOL     OW25096   1.454   1.642  11.722  0.0238  0.9353  0.5404
 4487SOL    HW125097   1.526   1.657  11.784 -0.9283 -1.3645  2.2091
 4487SOL    HW225098   1.504   1.601  11.651 -0.4482  0.4507  0.4932
 4488SOL     OW25099   4.397   0.096   0.966  0.1001 -0.0406  0.1150
 4488SOL    HW125100   4.434   0.111   1.052 -0.6167 -0.8480  0.5644
 4488SOL    HW225101   4.325   0.037   0.987 -0.4876  0.5991 -0.1090
 4489SOL     OW25102   3.045   4.671   2.465  0.2250  0.5500  0.3802
 4489SOL    HW125103   3.138   4.687   2.451 -0.0678 -0.5216 -2.7655
 4489SOL    HW225104   3.040   4.680   2.560 -0.1728 -0.2781  0.4437
 4490SOL     OW25105   3.652   1.174   6.698 -0.1103  0.0598  0.1964
 4490SOL    HW125106   3.626   1.110   6.631  2.3744 -1.2056  0.4115
 4490SOL    HW225107   3.654   1.114   6.772 -1.7065  1.9719  1.7741
 4491SOL     OW25108   0.567   1.075   2.977  0.1119 -0.7980 -0.0057
 4491SOL    HW125109   0.481   1.048   2.946 -0.7955  1.3292  0.6615
 4491SOL    HW225110   0.562   1.033   3.062 -2.8214  1.9885  1.2112
 4492SOL     OW25111   3.824   2.750  11.547  0.6252  0.1096 -0.1669
 4492SOL    HW125112   3.871   2.831  11.526 -0.8498  1.5496  2.1037
 4492SOL    HW225113   3.871   2.680  11.501  0.8565  0.0840  0.1070
 4493SOL     OW25114   2.527   0.625  14.863  0.0029 -0.0343  0.4148
 4493SOL    HW125115   2.570   0.541  14.847  3.6985  1.4850  2.5111
 4493SOL    HW225116   2.469   0.608  14.937 -0.5632  0.5947  0.1198
 4494SOL     OW25117   1.815   1.835   5.608 -0.1643  0.0410 -0.2225
 4494SOL    HW125118   1.778   1.779   5.676  1.0250  1.0981  1.3035
 4494SOL    HW225119   1.839   1.767   5.546  0.8215  0.0905  0.1080
 4495SOL     OW25120   4.519   2.833   4.433  0.0098 -0.0809 -0.3478
 4495SOL    HW125121   4.574   2.851   4.510  1.0239 -1.6037 -0.7231
 4495SOL    HW225122   4.524   2.914   4.383 -1.2737  0.0093 -0.3281
 4496SOL     OW25123   3.294   2.782   2.163  0.2260 -0.1895 -0.0286
 4496SOL    HW125124   3.267   2.718   2.097 -2.0477  0.3797  0.3407
 4496SOL    HW225125   3.255   2.754   2.246  0.3874 -0.4010 -0.0250
 4497SOL     OW25126   3.369   4.181  11.763 -0.2266  0.5944 -0.2778
 4497SOL    HW125127   3.345   4.231  11.685  2.1359  0.4076 -1.1282
 4497SOL    HW225128   3.363   4.097  11.718 -3.1725  1.0094 -0.6348
 4498SOL     OW25129   1.854   1.178  15.671  0.3726  0.7107  0.3126
 4498SOL    HW125130   1.763   1.148  15.660 -0.3558  2.5538  1.4287
 4498SOL    HW225131   1.853   1.240  15.743 -0.6114  1.1852 -0.1108
 4499SOL     OW25132   1.268   2.331  15.486  0.7956 -0.2609  0.0592
 4499SOL    HW125133   1.294   2.243  15.511  0.0587 -0.0858  1.4181
 4499SOL    HW225134   1.260   2.323  15.391 -0.3250  0.6285  0.0740
 4500SOL     OW25135   0.825   3.003  17.229 -0.0706  0.3603 -0.2279
 4500SOL    HW125136   0.747   3.011  17.284  2.2815  0.7401  3.0568
 4500SOL    HW225137   0.846   3.095  17.213 -1.7540  0.6986 -0.5023
 4501SOL     OW25138   4.442   0.527  14.879  0.1536 -0.2447 -0.6778
 4501SOL    HW125139   4.444   0.472  14.957 -0.3024 -0.6459 -0.9495
 4501SOL    HW225140   4.495   0.601  14.908  2.1982 -1.4559 -1.3146
 4502SOL     OW25141   0.363   0.636  15.281 -0.7504  0.4559 -1.0214
 4502SOL    HW125142   0.306   0.566  15.312 -0.2416 -0.1440 -1.4406
 4502SOL    HW225143   0.313   0.716  15.299 -0.2502  1.0890 -2.5037
 4503SOL     OW25144   4.194   3.473  14.991  0.6984  0.0623 -0.4056
 4503SOL    HW125145   4.160   3.456  14.903 -1.3832 -1.5480  0.6926
 4503SOL    HW225146   4.111   3.489  15.036  0.1908 -1.0417 -0.9447
 4504SOL     OW25147   2.251   2.883   5.057 -0.0889  0.0175  0.1213
 4504SOL    HW125148   2.305   2.804   5.058  0.8841  0.6726  0.0301
 4504SOL    HW225149   2.174   2.850   5.011 -0.3194 -0.7427  1.0387
 4505SOL     OW25150   0.495   4.093   7.135 -0.7832  0.0800  0.4341
 4505SOL    HW125151   0.450   4.156   7.192 -0.7249 -1.0249  1.6871
 4505SOL    HW225152   0.494   4.023   7.200 -0.7307  0.6434  1.0489
 4506SOL     OW25153   3.751   2.854   2.813 -0.3339  0.0292  0.1391
 4506SOL    HW125154   3.771   2.947   2.825 -0.4914 -0.0640  1.0699
 4506SOL    HW225155   3.808   2.834   2.738  0.3996  1.7197  0.2551
 4507SOL     OW25156   4.522   3.741   8.957  0.8024 -0.7560 -0.4636
 4507SOL    HW125157   4.525   3.647   8.939 -0.6482 -0.5696 -1.7262
 4507SOL    HW225158   4.613   3.768   8.943  1.1790 -1.2826  1.0610
 4508SOL     OW25159   2.832   2.609  10.722  0.1632 -0.5440  0.1265
 4508SOL    HW125160   2.864   2.570  10.803 -0.3977  0.6784  0.9396
 4508SOL    HW225161   2.911   2.601  10.669 -0.5803  0.1608 -1.0919
 4509SOL     OW25162   4.711   2.024  15.104  0.2795  0.6614 -0.1313
 4509SOL    HW125163   4.714   2.000  15.012 -3.8296 -0.8141  0.1121
 4509SOL    HW225164   0.010   2.111  15.100  0.2144  0.7174  0.4417
 4510SOL     OW25165   1.576   1.747  16.613 -0.1306 -0.1243 -1.1911
 4510SOL    HW125166   1.504   1.684  16.622  1.9400 -2.1782  1.0310
 4510SOL    HW225167   1.587   1.763  16.707 -2.0990  1.4357 -1.2203
 4511SOL     OW25168   4.142   3.079   1.996 -0.0051 -0.2088  0.1030
 4511SOL    HW125169   4.206   3.142   1.962 -0.0446 -0.0169  0.3811
 4511SOL    HW225170   4.202   3.007   2.016 -0.2587 -0.5733 -0.4531
 4512SOL     OW25171   2.775   0.528   7.172  0.1018 -0.1159  0.4517
 4512SOL    HW125172   2.691   0.482   7.174 -0.4939  0.9428 -0.1626
 4512SOL    HW225173   2.778   0.552   7.079 -0.7368  0.1253  0.4865
 4513SOL     OW25174   2.120   0.067  17.192 -0.6803 -0.5233 -0.7403
 4513SOL    HW125175   2.035   0.109  17.183 -0.9403 -0.5051  1.8012
 4513SOL    HW225176   2.105   4.714  17.178  0.1233 -0.8429  0.5373
 4514SOL     OW25177   2.827   0.813   8.784 -0.1543 -0.2220  0.1084
 4514SOL    HW125178   2.844   0.861   8.865 -0.0701 -1.1169  0.6240
 4514SOL    HW225179   2.804   0.726   8.818  1.6119 -0.4963  0.5500
 4515SOL     OW25180   3.088   3.871   8.215 -0.2200  0.4468 -0.8957
 4515SOL    HW125181   3.089   3.852   8.122  1.7143 -1.5969 -0.4754
 4515SOL    HW225182   3.150   3.943   8.223 -0.6069  0.9477 -2.4026
 4516SOL     OW25183   1.782   3.647  17.690  0.1214 -0.3693  0.2628
 4516SOL    HW125184   1.726   3.667   0.007  3.2653  2.3275  1.9072
 4516SOL    HW225185   1.744   3.559  17.682 -1.8361  0.3288  1.9835
 4517SOL     OW25186   1.006   3.623   4.633  0.5177  0.2937 -0.4605
 4517SOL    HW125187   0.976   3.614   4.543 -0.1797 -0.7891 -0.1149
 4517SOL    HW225188   1.093   3.585   4.644  0.0241 -0.3988  1.0601
 4518SOL     OW25189   0.278   4.712  16.617  0.0341  0.0096 -0.4666
 4518SOL    HW125190   0.324   4.658  16.681 -0.4712 -1.2355 -1.1655
 4518SOL    HW225191   0.339   0.044  16.599  0.8274 -0.4113  0.4975
 4519SOL     OW25192   3.883   0.505   1.950 -0.1329 -0.1091  0.5252
 4519SOL    HW125193   3.803   0.457   1.927 -0.4841  0.6733  0.1372
 4519SOL    HW225194   3.848   0.593   1.937  0.0048 -0.0562  0.5177
 4520SOL     OW25195   4.740   2.006  12.043 -0.0263  0.6264  0.2158
 4520SOL    HW125196   0.027   1.976  12.129  0.6851  1.6479  0.3517
 4520SOL    HW225197   4.653   2.047  12.048 -0.7375 -0.7474 -0.7376
 4521SOL     OW25198   3.824   0.021   6.541  0.1778  0.2049 -0.1639
 4521SOL    HW125199   3.813   4.708   6.620  0.1039 -1.5099 -1.3272
 4521SOL    HW225200   3.809   4.697   6.471  0.4812  0.5592 -0.5539
 4522SOL     OW25201   1.990   1.537   3.524 -0.1234 -0.7944  0.2885
 4522SOL    HW125202   1.963   1.446   3.513  3.0771 -1.4391 -2.3546
 4522SOL    HW225203   2.048   1.551   3.449  0.1041 -0.4307  0.5321
 4523SOL     OW25204   2.181   1.184  13.716 -0.1841 -0.4918 -1.1910
 4523SOL    HW125205   2.180   1.089  13.718 -2.1239 -0.4271  1.4348
 4523SOL    HW225206   2.157   1.205  13.626 -1.6381 -2.4570 -1.2491
 4524SOL     OW25207   3.149   2.976   4.726 -0.2468  0.1105  0.0023
 4524SOL    HW125208   3.099   2.917   4.782  3.1165 -1.0479  1.7486
 4524SOL    HW225209   3.113   3.061   4.751 -2.0163 -1.1137  1.6019
 4525SOL     OW25210   2.889   4.247  15.119 -0.4626 -0.3005  0.5034
 4525SOL    HW125211   2.931   4.237  15.204 -0.3743 -0.6871  0.4120
 4525SOL    HW225212   2.887   4.343  15.119 -0.0554 -0.2802 -0.6925
 4526SOL     OW25213   2.143   3.816  12.470  0.2894  0.2326 -0.3451
 4526SOL    HW125214   2.192   3.790  12.548 -2.6932  1.4310  1.9194
 4526SOL    HW225215   2.191   3.890  12.433  1.3215  0.9664  2.4421
 4527SOL     OW25216   2.450   2.962  14.773 -0.2542  0.2256  0.4220
 4527SOL    HW125217   2.398   3.010  14.709  0.2159 -0.5276 -0.5251
 4527SOL    HW225218   2.377   2.918  14.816  0.1412 -1.2867 -0.4563
 4528SOL     OW25219   4.034   0.315   2.047  0.6126  0.4046 -0.4238
 4528SOL    HW125220   3.999   0.394   2.006 -0.7563  0.2203  0.3813
 4528SOL    HW225221   4.047   0.249   1.978 -0.2874 -0.2852  0.0594
 4529SOL     OW25222   4.127   1.010   5.456  0.8020 -0.5882 -0.4809
 4529SOL    HW125223   4.184   1.082   5.482 -0.3592 -0.2872  1.2653
 4529SOL    HW225224   4.170   0.980   5.376  0.8314 -1.1559 -0.2501
 4530SOL     OW25225   4.202   2.461  12.185 -0.2802 -0.0828  0.3325
 4530SOL    HW125226   4.271   2.435  12.124 -1.7166 -0.2213 -1.2401
 4530SOL    HW225227   4.193   2.555  12.172 -0.3624  0.3638  3.5624
 4531SOL     OW25228   3.998   2.807   8.009  0.9239  0.4764 -0.3146
 4531SOL    HW125229   3.916   2.777   7.969  2.0262 -2.1297 -0.6219
 4531SOL    HW225230   4.007   2.895   7.973 -1.0280  2.1084  3.1701
 4532SOL     OW25231   1.082   4.037   2.393 -0.8315  0.1517  0.3058
 4532SOL    HW125232   1.100   4.023   2.486 -2.8071  0.3979  0.7101
 4532SOL    HW225233   1.069   3.948   2.360 -2.8505  0.7684 -0.5406
 4533SOL     OW25234   3.719   2.139   3.871 -0.4784 -0.4725  0.2626
 4533SOL    HW125235   3.732   2.234   3.871 -1.1573 -0.3757 -0.3185
 4533SOL    HW225236   3.691   2.117   3.783 -0.1564 -0.5140  0.1729
 4534SOL     OW25237   4.703   3.210   0.738 -0.4172  0.7855  0.3012
 4534SOL    HW125238   4.642   3.277   0.707 -1.1818  0.3490  0.8598
 4534SOL    HW225239   4.654   3.160   0.804  0.9956 -0.6851  0.2208
 4535SOL     OW25240   2.972   0.725   6.897 -0.1364 -0.3510  0.5070
 4535SOL    HW125241   2.982   0.807   6.945 -0.7642  0.4491 -0.7329
 4535SOL    HW225242   2.993   0.659   6.964  0.1926  0.8710  1.6031
 4536SOL     OW25243   0.114   4.111  17.493  0.0843  0.1472 -0.3833
 4536SOL    HW125244   0.141   4.039  17.436  1.1821 -0.2141  0.5859
 4536SOL    HW225245   0.184   4.174  17.477 -0.2576 -0.1122 -2.7846
 4537SOL     OW25246   3.979   0.290   9.019 -0.1077  0.9897 -0.3210
 4537SOL    HW125247   4.034   0.336   9.083  1.0967 -0.0027 -0.6405
 4537SOL    HW225248   3.993   0.203   9.057  0.4092  1.4791  0.6355
 4538SOL     OW25249   2.662   0.361  12.365  0.1133  0.4917 -0.0792
 4538SOL    HW125250   2.629   0.271  12.358  2.5120 -0.1720 -2.5578
 4538SOL    HW225251   2.754   0.346  12.344  0.3111 -0.9427  1.7675
 4539SOL     OW25252   1.498   1.304   5.056  0.2162 -0.9942  0.1754
 4539SOL    HW125253   1.514   1.245   5.130  0.2106  1.2898  2.0073
 4539SOL    HW225254   1.474   1.379   5.110 -0.5920  0.7013 -2.6096
 4540SOL     OW25255   1.712   1.026   8.801  0.5326 -0.0140 -0.4705
 4540SOL    HW125256   1.738   1.108   8.842  1.9013  1.2252 -3.8429
 4540SOL    HW225257   1.728   1.046   8.709  2.9815  0.7572  0.1295
 4541SOL     OW25258   3.781   0.845   8.979 -0.0634  0.4862  0.2021
 4541SOL    HW125259   3.858   0.892   8.947 -0.0677  0.0600 -0.4282
 4541SOL    HW225260   3.811   0.755   8.967 -0.6366  0.1866  0.9632
 4542SOL     OW25261   4.698   3.642  10.597  0.6220 -0.5725 -0.0307
 4542SOL    HW125262   4.616   3.600  10.624  0.2048  0.3522  0.1515
 4542SOL    HW225263   4.664   3.728  10.571  0.4588 -0.7706 -0.4657
 4543SOL     OW25264   3.994   3.380   8.367  0.5902 -0.1792  0.1273
 4543SOL    HW125265   4.023   3.441   8.435 -1.1457  0.1539  0.5628
 4543SOL    HW225266   3.953   3.313   8.420  1.7129  1.4878  3.1170
 4544SOL     OW25267   0.199   2.331   3.812  0.0085 -0.0191  0.0295
 4544SOL    HW125268   0.227   2.420   3.835  2.1503 -0.5118 -0.6889
 4544SOL    HW225269   0.211   2.346   3.719  1.6164  0.1944  0.2622
 4545SOL     OW25270   4.364   3.743   0.024  0.0403 -0.1825  0.3956
 4545SOL    HW125271   4.300   3.812   0.044 -0.0671 -0.0168 -0.5157
 4545SOL    HW225272   4.362   3.735  17.686  0.3696  1.4725  0.2417
 4546SOL     OW25273   1.470   3.180  17.135 -0.1138 -0.6601  0.0033
 4546SOL    HW125274   1.472   3.191  17.230  0.6672 -2.0061  0.1382
 4546SOL    HW225275   1.474   3.085  17.128 -0.0877 -0.6592  0.0035
 4547SOL     OW25276   1.436   2.900  10.172 -0.0941 -0.1680 -0.1849
 4547SOL    HW125277   1.343   2.891  10.148 -0.4108 -0.8651  1.2812
 4547SOL    HW225278   1.448   2.994  10.164  0.4352 -0.1253  1.0475
 4548SOL     OW25279   2.284   1.923   5.176 -0.4623  0.2365  0.5642
 4548SOL    HW125280   2.300   1.833   5.147  0.6780  0.9158 -0.8914
 4548SOL    HW225281   2.342   1.968   5.115 -1.3064  0.4846 -0.0512
 4549SOL     OW25282   0.479   0.214   7.614  0.0192  0.3159 -0.6965
 4549SOL    HW125283   0.521   0.281   7.560  1.4723  0.0361  0.0589
 4549SOL    HW225284   0.476   0.140   7.553 -0.0982  0.3601 -0.7441
 4550SOL     OW25285   1.491   4.308   8.340 -0.1572  0.7794  0.2533
 4550SOL    HW125286   1.420   4.358   8.300 -2.9100 -4.1185 -0.9910
 4550SOL    HW225287   1.490   4.228   8.287  0.1718 -0.4220  2.0942
 4551SOL     OW25288   1.485   0.791   3.396 -0.6271  0.7558 -0.0182
 4551SOL    HW125289   1.408   0.827   3.440 -1.6368  0.5656 -1.6278
 4551SOL    HW225290   1.532   0.866   3.358  1.0639 -0.2529  0.0893
 4552SOL     OW25291   0.530   1.208   8.327  0.5932 -0.3316 -0.5036
 4552SOL    HW125292   0.458   1.170   8.278 -0.5838  0.6214  0.4867
 4552SOL    HW225293   0.543   1.142   8.395  1.2546  1.4762  1.1560
 4553SOL     OW25294   2.763   1.390   3.865  0.3653  0.2798  0.8100
 4553SOL    HW125295   2.753   1.328   3.937  0.0099  0.3376  0.8091
 4553SOL    HW225296   2.669   1.394   3.848  0.5733 -0.3898 -0.5097
 4554SOL     OW25297   2.077   4.665   4.687 -0.1922 -0.1983 -0.0419
 4554SOL    HW125298   2.139   4.704   4.749 -0.3198 -1.7578  1.0750
 4554SOL    HW225299   1.988   4.677   4.721 -0.0243  1.4339 -0.1649
 4555SOL     OW25300   1.498   1.469   6.208 -0.3587 -0.0884  0.1013
 4555SOL    HW125301   1.581   1.429   6.182 -0.2097  0.0318  0.3982
 4555SOL    HW225302   1.532   1.547   6.251 -3.1941  1.1786  0.0416
 4556SOL     OW25303   2.670   1.171   5.896 -0.0789 -0.3482 -0.0505
 4556SOL    HW125304   2.575   1.158   5.895 -0.3555  1.6862  1.0955
 4556SOL    HW225305   2.685   1.233   5.825 -0.2171  1.0722  1.1829
 4557SOL     OW25306   4.446   0.706  13.276 -0.1935  0.7237  0.8050
 4557SOL    HW125307   4.406   0.685  13.192  2.8879 -1.0189 -0.2249
 4557SOL    HW225308   4.410   0.642  13.337 -0.1227  0.9058  1.0423
 4558SOL     OW25309   2.830   4.033  14.965 -0.0890 -0.2442  0.6404
 4558SOL    HW125310   2.738   4.043  14.942  0.0520 -1.5329 -0.4617
 4558SOL    HW225311   2.859   4.123  14.978  0.2356 -0.0830 -1.1993
 4559SOL     OW25312   3.040   0.217   6.247  0.4608  0.2403  0.2262
 4559SOL    HW125313   3.083   0.302   6.235  1.1680 -0.5360 -2.8093
 4559SOL    HW225314   2.968   0.229   6.309  0.8317 -1.3466  0.9542
 4560SOL     OW25315   3.601   3.868   2.078  0.0374 -0.0274  0.2874
 4560SOL    HW125316   3.561   3.933   2.020 -0.8023 -1.1134 -0.3523
 4560SOL    HW225317   3.618   3.920   2.156 -0.6762 -1.2188  1.2393
 4561SOL     OW25318   3.221   1.419   9.481  0.0496  0.3102  0.3970
 4561SOL    HW125319   3.300   1.399   9.531  0.5617  2.8832  0.6442
 4561SOL    HW225320   3.184   1.459   9.559  1.0862  0.7871  0.6470
 4562SOL     OW25321   3.827   1.013   5.542  0.4412 -0.2028 -0.2804
 4562SOL    HW125322   3.876   1.026   5.623  0.3326 -0.2684 -0.2033
 4562SOL    HW225323   3.852   0.922   5.528  0.0723 -0.0360 -1.9681
 4563SOL     OW25324   4.401   3.184   0.249 -0.0400 -0.0317 -0.1935
 4563SOL    HW125325   4.391   3.195   0.155 -1.3201 -1.7740 -0.2497
 4563SOL    HW225326   4.322   3.143   0.284  0.1754  0.6944  1.1762
 4564SOL     OW25327   3.317   0.311   7.963  0.2242  0.4587  0.6925
 4564SOL    HW125328   3.411   0.303   7.975 -0.1310 -0.9936  2.4850
 4564SOL    HW225329   3.299   0.284   8.053 -1.9301 -0.4293  0.0115
 4565SOL     OW25330   1.388   1.431   5.920  0.3771 -0.3344  0.0109
 4565SOL    HW125331   1.366   1.522   5.901 -1.4238 -0.2484  2.4491
 4565SOL    HW225332   1.411   1.439   6.013  0.7555 -0.3469 -0.0810
 4566SOL     OW25333   0.847   3.774   2.445  0.1703  0.4890 -0.3351
 4566SOL    HW125334   0.837   3.861   2.482  0.5060  0.7568 -0.8773
 4566SOL    HW225335   0.939   3.779   2.420  0.0512  0.3054 -0.8019
 4567SOL     OW25336   4.679   0.411  13.260  0.5131  0.1420  0.0853
 4567SOL    HW125337   4.671   0.315  13.263  1.6895  0.0120 -1.1311
 4567SOL    HW225338   4.701   0.433  13.350  0.0516 -3.0875  1.0046
 4568SOL     OW25339   4.090   4.184  13.748 -0.2558  0.5839  0.2847
 4568SOL    HW125340   4.186   4.185  13.743 -0.3251 -0.9074 -1.2818
 4568SOL    HW225341   4.088   4.164  13.841  3.7311  0.7316  0.4051
 4569SOL     OW25342   1.775   1.818   4.791  0.3884  0.0176 -0.1712
 4569SOL    HW125343   1.795   1.734   4.750 -0.3636  0.9897 -2.5365
 4569SOL    HW225344   1.724   1.860   4.722 -1.1465 -2.4410 -0.5447
 4570SOL     OW25345   0.873   4.340   8.498 -0.7390  0.3302 -0.3686
 4570SOL    HW125346   0.792   4.361   8.545 -0.8715 -0.1862 -0.3550
 4570SOL    HW225347   0.850   4.380   8.414 -2.2793 -3.2894 -1.6822
 4571SOL     OW25348   0.527   1.517   5.877  0.4216  0.1046  0.5563
 4571SOL    HW125349   0.543   1.611   5.870 -0.6822  0.2425 -0.0775
 4571SOL    HW225350   0.484   1.490   5.796  1.6730 -1.9594  0.5890
 4572SOL     OW25351   0.992   2.729   8.492 -0.7786  0.5899 -0.2359
 4572SOL    HW125352   0.957   2.643   8.469 -1.5860  0.3356  1.9824
 4572SOL    HW225353   0.976   2.736   8.586 -1.0143  0.7754 -0.2906
 4573SOL     OW25354   0.660   4.107   7.615 -0.9531 -0.4643 -0.0175
 4573SOL    HW125355   0.630   4.016   7.618 -2.1851 -0.1442 -3.0663
 4573SOL    HW225356   0.610   4.147   7.686  0.2283  3.1760 -1.2743
 4574SOL     OW25357   4.315   2.368  13.528 -0.0863  0.1280 -0.1291
 4574SOL    HW125358   4.296   2.462  13.530  0.7027  0.2948 -0.3503
 4574SOL    HW225359   4.225   2.338  13.537 -0.6746  1.9678  0.1060
 4575SOL     OW25360   1.296   4.727   6.262 -0.0747 -0.2486 -0.3234
 4575SOL    HW125361   1.310   0.001   6.356 -1.6190  0.2547 -0.1595
 4575SOL    HW225362   1.207   4.694   6.275 -0.4355  0.8865  0.1541
 4576SOL     OW25363   3.357   1.702  14.816 -0.2999  0.3441  0.6981
 4576SOL    HW125364   3.392   1.774  14.763 -1.5476  1.1267  0.9435
 4576SOL    HW225365   3.432   1.678  14.870 -0.1557 -0.8480 -0.0386
 4577SOL     OW25366   1.776   0.132  14.968 -0.0574  0.6160  0.6299
 4577SOL    HW125367   1.688   0.095  14.980  0.4257 -0.9331 -0.6109
 4577SOL    HW225368   1.804   0.144  15.058 -1.4398  2.3669  0.8340
 4578SOL     OW25369   2.230   0.393  16.936  0.1313  0.6694  0.1048
 4578SOL    HW125370   2.284   0.445  16.876 -0.0240  0.7716  0.0512
 4578SOL    HW225371   2.212   0.314  16.885 -0.2310 -0.6816  2.3216
 4579SOL     OW25372   2.116   3.706   6.545 -0.0807 -0.1812  0.0132
 4579SOL    HW125373   2.093   3.672   6.459  2.5050  1.7958 -1.4549
 4579SOL    HW225374   2.036   3.734   6.590 -0.8441 -0.6690 -1.0704
 4580SOL     OW25375   2.221   3.759  17.613  0.0805  0.0223  0.4213
 4580SOL    HW125376   2.296   3.811  17.585  0.0194 -0.0430  0.1441
 4580SOL    HW225377   2.257   3.671  17.603  2.1111  0.6047  2.6681
 4581SOL     OW25378   1.735   1.475   3.247  0.1418  0.0316 -0.5443
 4581SOL    HW125379   1.742   1.552   3.191 -2.9031  1.3200  0.8165
 4581SOL    HW225380   1.825   1.443   3.247 -0.4164 -1.5707  0.3350
 4582SOL     OW25381   1.929   0.645   4.948  0.2038 -0.4926 -0.1951
 4582SOL    HW125382   1.883   0.582   5.004  1.7778 -1.3406  0.1405
 4582SOL    HW225383   1.856   0.701   4.922  1.3826  0.4929 -1.3723
 4583SOL     OW25384   2.792   3.800  12.509 -0.9203  0.4908 -0.3871
 4583SOL    HW125385   2.834   3.806  12.595  1.6125  1.5185 -1.7008
 4583SOL    HW225386   2.773   3.894  12.499 -0.7301  0.2256 -3.2244
 4584SOL     OW25387   0.510   0.790  17.533  0.3880  0.6096 -0.0145
 4584SOL    HW125388   0.498   0.772  17.626 -1.7692  2.0696 -0.0089
 4584SOL    HW225389   0.591   0.742  17.517 -0.0416 -0.0004 -0.3808
 4585SOL     OW25390   2.784   4.669   1.834 -0.2086  0.3275 -0.2401
 4585SOL    HW125391   2.740   4.697   1.754 -1.3431  0.7376  0.5164
 4585SOL    HW225392   2.727   4.703   1.903  0.9285 -2.3523  2.0406
 4586SOL     OW25393   0.551   4.584   6.100  0.1938 -0.1159  0.3227
 4586SOL    HW125394   0.639   4.622   6.097  0.5606 -1.0221 -0.3983
 4586SOL    HW225395   0.556   4.537   6.183  0.4142  0.5676  0.6964
 4587SOL     OW25396   1.336   3.008   4.315  0.2547  0.1437  1.0569
 4587SOL    HW125397   1.250   3.022   4.355 -0.2877 -1.3178  0.3783
 4587SOL    HW225398   1.363   3.099   4.300 -0.3700  0.2922  0.8180
 4588SOL     OW25399   0.243   0.237  12.564  0.2210 -0.0705  0.3468
 4588SOL    HW125400   0.212   0.320  12.529  1.3833  0.7867  1.3560
 4588SOL    HW225401   0.218   0.254  12.654  0.9612  2.6135  0.0434
 4589SOL     OW25402   4.136   0.930  14.386  0.4416 -0.4525 -0.1437
 4589SOL    HW125403   4.117   0.909  14.477 -1.7367  0.2764 -0.4328
 4589SOL    HW225404   4.051   0.910  14.346 -0.4647 -1.0191  2.0920
 4590SOL     OW25405   2.698   3.314   3.085 -0.6321  0.3590  0.7196
 4590SOL    HW125406   2.635   3.278   3.023  1.2664 -0.0144 -0.9639
 4590SOL    HW225407   2.684   3.409   3.086  0.8381  0.5668  0.6942
 4591SOL     OW25408   4.148   2.533   5.474  0.4234  0.2246  0.2339
 4591SOL    HW125409   4.124   2.618   5.438 -0.5139 -0.3345 -0.4512
 4591SOL    HW225410   4.129   2.544   5.568 -1.6116  1.1477 -0.2881
 4592SOL     OW25411   2.989   4.566   6.079 -0.1404 -0.0557  0.0904
 4592SOL    HW125412   2.978   4.526   6.165  2.7652 -1.2395 -0.0827
 4592SOL    HW225413   2.998   4.486   6.027 -0.3754  1.4075 -2.1882
 4593SOL     OW25414   2.033   2.754   8.541 -0.2084  0.7020  0.1879
 4593SOL    HW125415   2.036   2.841   8.582  1.5967  0.5143  0.4297
 4593SOL    HW225416   2.003   2.772   8.452 -1.3921 -0.9178  0.2572
 4594SOL     OW25417   4.626   0.644  12.631  0.4768 -0.0534 -0.4844
 4594SOL    HW125418   4.551   0.658  12.573 -1.4539 -1.4254  1.6618
 4594SOL    HW225419   4.581   0.583  12.689 -0.3391  1.1274  0.1332
 4595SOL     OW25420   2.672   0.157  13.531 -0.2044  0.4538 -0.3627
 4595SOL    HW125421   2.673   0.104  13.611  1.0677 -1.9047 -1.9014
 4595SOL    HW225422   2.743   0.220  13.531  1.0367 -0.9366 -0.3766
 4596SOL     OW25423   2.869   0.835   9.077  0.2781 -0.0225 -0.1170
 4596SOL    HW125424   2.837   0.910   9.127 -0.8707  0.0453 -0.9586
 4596SOL    HW225425   2.964   0.839   9.084  0.3137 -4.5641  2.5662
 4597SOL     OW25426   1.088   2.247   6.265 -0.1440  0.0089  0.6990
 4597SOL    HW125427   1.116   2.221   6.352 -1.3728 -1.1049  0.7734
 4597SOL    HW225428   1.004   2.292   6.278  0.7239  0.9355  3.0121
 4598SOL     OW25429   4.541   3.564   8.713 -0.2103  0.2730 -0.2410
 4598SOL    HW125430   4.627   3.569   8.672 -1.1037  1.8376 -1.9041
 4598SOL    HW225431   4.540   3.497   8.782  1.1249 -0.1434 -0.6377
 4599SOL     OW25432   3.667   4.093  11.475 -0.0575 -0.4311 -0.3666
 4599SOL    HW125433   3.722   4.129  11.544 -0.4848 -0.3656 -0.0647
 4599SOL    HW225434   3.699   4.003  11.467 -1.6532 -0.9698 -0.6551
 4600SOL     OW25435   1.127   3.538   4.119 -0.4380  0.1850 -0.1474
 4600SOL    HW125436   1.189   3.465   4.123 -1.2748 -0.6689 -2.2665
 4600SOL    HW225437   1.051   3.518   4.173 -0.7760 -1.6537 -1.2821
 4601SOL     OW25438   2.137   1.067   7.980  0.0300  0.3299 -0.3243
 4601SOL    HW125439   2.116   1.005   8.050  2.5608  0.7518  0.7859
 4601SOL    HW225440   2.179   1.127   8.041 -1.3028  0.0217  0.8894
 4602SOL     OW25441   3.527   2.046   1.756  0.1360  0.2507 -0.4929
 4602SOL    HW125442   3.605   2.050   1.812  0.3328  1.6840 -0.8513
 4602SOL    HW225443   3.464   1.990   1.799  0.8660  0.1692  0.4631
 4603SOL     OW25444   1.913   3.360   4.712  0.2391  0.3016 -0.0128
 4603SOL    HW125445   1.876   3.322   4.633  1.8450 -0.2609 -0.4889
 4603SOL    HW225446   1.849   3.425   4.742 -1.4509  0.0371 -3.1152
 4604SOL     OW25447   1.628   1.912   4.548  0.3542  0.1602  0.0367
 4604SOL    HW125448   1.703   1.937   4.493  0.9194 -2.2782 -0.3200
 4604SOL    HW225449   1.567   1.881   4.482 -2.7436  3.1248  1.4834
 4605SOL     OW25450   0.106   3.253   3.743 -0.2414  0.4661  0.0764
 4605SOL    HW125451   0.099   3.211   3.828  0.2113  3.0373  1.3758
 4605SOL    HW225452   0.194   3.288   3.756 -0.4752  0.4249  1.7427
 4606SOL     OW25453   0.188   3.087   0.659  0.5911  0.6208 -0.3211
 4606SOL    HW125454   0.126   3.143   0.706  0.9565 -0.5404  1.5432
 4606SOL    HW225455   0.214   3.141   0.584  0.6552  0.9963 -0.0304
 4607SOL     OW25456   2.945   2.548   2.911 -0.6210  0.5904 -0.5548
 4607SOL    HW125457   2.927   2.629   2.960  0.6569 -0.0428  0.9357
 4607SOL    HW225458   2.896   2.571   2.832  2.1971  1.4452 -2.0422
 4608SOL     OW25459   1.571   3.190  17.706 -0.1879 -0.6042 -0.0683
 4608SOL    HW125460   1.542   3.099  17.706 -1.5130 -0.1815  2.0397
 4608SOL    HW225461   1.611   3.184   0.036  0.5436  2.1622 -0.2047
 4609SOL     OW25462   0.461   2.641  15.373 -0.5198 -0.2668 -0.6432
 4609SOL    HW125463   0.391   2.687  15.326 -1.2752  0.1257  0.8695
 4609SOL    HW225464   0.466   2.556  15.329  0.7106 -0.6152  0.1853
 4610SOL     OW25465   0.702   1.258   6.101 -0.1511 -0.1034 -0.1479
 4610SOL    HW125466   0.748   1.266   6.017 -1.5836  0.3655 -0.8889
 4610SOL    HW225467   0.617   1.290   6.070  0.4446  1.1994 -0.4327
 4611SOL     OW25468   2.199   3.493   1.194  0.2917  0.1028  0.1863
 4611SOL    HW125469   2.285   3.468   1.229  0.1912 -1.4018 -0.6182
 4611SOL    HW225470   2.202   3.428   1.123  0.3005  0.5560 -0.2319
 4612SOL     OW25471   1.238   0.969  11.748 -0.2466  0.1028  0.6867
 4612SOL    HW125472   1.161   0.913  11.753  0.5380 -1.1855 -1.2069
 4612SOL    HW225473   1.313   0.912  11.728 -1.1046 -1.6005  2.3655
 4613SOL     OW25474   0.833   2.561   6.448  0.1082 -0.2695 -0.2133
 4613SOL    HW125475   0.893   2.561   6.523 -0.8315 -2.6739  0.5452
 4613SOL    HW225476   0.775   2.635   6.466 -0.1791 -0.5272 -0.0662
 4614SOL     OW25477   0.937   1.029   6.910 -0.4620  0.4702 -0.0945
 4614SOL    HW125478   0.852   1.054   6.874  0.6215  0.7943 -2.4391
 4614SOL    HW225479   0.918   0.964   6.978 -2.8919 -0.5789 -1.8097
 4615SOL     OW25480   3.258   0.217  11.896 -0.3254 -0.1779  0.1678
 4615SOL    HW125481   3.178   0.180  11.860 -0.2336 -1.4207  1.2371
 4615SOL    HW225482   3.237   0.311  11.895 -0.0275 -0.1246 -0.8627
 4616SOL     OW25483   0.534   4.068   4.558  0.8856 -0.1530 -0.1523
 4616SOL    HW125484   0.472   4.040   4.626  2.0440 -0.2343  0.8738
 4616SOL    HW225485   0.498   4.033   4.476  2.0453  0.5276 -0.9480
 4617SOL     OW25486   3.922   3.621   4.038  0.0619  0.3411  0.2368
 4617SOL    HW125487   3.846   3.630   4.096  1.0473 -1.9977  1.9119
 4617SOL    HW225488   3.921   3.701   3.987 -0.9524 -0.5157 -1.0957
 4618SOL     OW25489   0.627   4.483   2.871 -0.0427  0.5243 -0.2980
 4618SOL    HW125490   0.546   4.489   2.922  0.0667 -0.4672 -0.0147
 4618SOL    HW225491   0.595   4.422   2.804 -0.2668 -0.2647  0.5373
 4619SOL     OW25492   1.794   3.760   1.604  0.3763  0.4302  0.5657
 4619SOL    HW125493   1.828   3.840   1.645  0.5769 -0.6515  2.5127
 4619SOL    HW225494   1.845   3.700   1.659 -0.1566 -0.5885 -0.0602
 4620SOL     OW25495   1.118   0.057   5.847  0.5705 -0.4975  0.1198
 4620SOL    HW125496   1.164   0.094   5.922 -0.0114 -2.0123  1.2163
 4620SOL    HW225497   1.180   4.727   5.830  0.2650 -0.2536 -2.1392
 4621SOL     OW25498   0.237   1.483   7.860 -0.0688 -0.1597 -0.5336
 4621SOL    HW125499   0.290   1.562   7.867  0.1025 -0.2747 -0.5401
 4621SOL    HW225500   0.308   1.436   7.816 -0.2368 -0.5568 -0.3816
 4622SOL     OW25501   3.296   3.000   1.947 -0.4988  0.5564  0.7294
 4622SOL    HW125502   3.326   2.972   2.033 -3.4688 -1.2004  1.2007
 4622SOL    HW225503   3.217   2.946   1.938 -0.2470  0.3314 -0.1285
 4623SOL     OW25504   0.323   0.903   9.097  0.2783  0.3082  0.6279
 4623SOL    HW125505   0.316   0.882   9.004  1.4091  2.8668 -0.0189
 4623SOL    HW225506   0.366   0.988   9.095 -1.8827  1.3626 -0.8522
 4624SOL     OW25507   3.652   2.389   1.972  0.4286  0.0326  0.3456
 4624SOL    HW125508   3.631   2.469   2.019  2.3906 -0.7059  2.4704
 4624SOL    HW225509   3.731   2.368   2.022 -0.4085 -0.2154  1.5637
 4625SOL     OW25510   3.084   0.942   2.913 -0.0006 -0.1475 -0.1328
 4625SOL    HW125511   3.090   0.902   3.000  0.6578  1.2259  0.4645
 4625SOL    HW225512   3.128   0.876   2.860 -1.3611 -0.1486 -1.2579
 4626SOL     OW25513   2.896   1.139   2.886 -0.5969 -0.2045 -0.2374
 4626SOL    HW125514   2.968   1.078   2.900  0.0020  0.2335 -1.4733
 4626SOL    HW225515   2.840   1.094   2.823 -0.0937 -0.6819 -0.3459
 4627SOL     OW25516   0.587   0.283  10.695 -0.1053 -0.3779 -0.5950
 4627SOL    HW125517   0.593   0.202  10.747  3.1677  0.6678  0.6998
 4627SOL    HW225518   0.652   0.262  10.628  0.1073 -3.4559  0.5433
 4628SOL     OW25519   3.583   1.777   1.887  0.1241  0.0855 -0.6637
 4628SOL    HW125520   3.631   1.782   1.804  3.3748 -2.3422  1.0654
 4628SOL    HW225521   3.500   1.734   1.866  0.4513 -1.0119  0.3273
 4629SOL     OW25522   4.254   0.126  10.252 -0.6144  0.3932  0.0294
 4629SOL    HW125523   4.321   0.117  10.184 -1.1268  2.3081 -0.7495
 4629SOL    HW225524   4.235   0.220  10.256 -2.3270  0.0376  0.1591
 4630SOL     OW25525   0.927   4.558   2.695 -0.3569 -0.9214 -0.0231
 4630SOL    HW125526   1.002   4.617   2.700  0.2167 -1.5129 -1.4416
 4630SOL    HW225527   0.913   4.575   2.602 -1.0439  0.8713  0.4065
 4631SOL     OW25528   0.693   2.978   5.628  0.4463  0.1270  0.0329
 4631SOL    HW125529   0.718   2.948   5.715 -0.8036  2.0449  1.0303
 4631SOL    HW225530   0.665   3.067   5.650 -3.3547 -0.9946 -0.1900
 4632SOL     OW25531   3.997   1.635   5.955 -0.0308 -0.2639  0.1930
 4632SOL    HW125532   4.065   1.702   5.961 -0.2049 -0.3099  2.7003
 4632SOL    HW225533   3.957   1.647   6.041 -1.5881  2.4018 -0.8654
 4633SOL     OW25534   0.584   2.601   5.071  0.0689 -0.8780  0.0516
 4633SOL    HW125535   0.645   2.664   5.031 -1.2666  1.2135  1.3218
 4633SOL    HW225536   0.636   2.521   5.080 -0.4003 -1.1248  0.5229
 4634SOL     OW25537   2.751   0.925   6.667 -0.0398  0.3546  0.3809
 4634SOL    HW125538   2.773   1.009   6.708  0.5385  0.8170 -0.8816
 4634SOL    HW225539   2.675   0.891   6.714 -0.4822 -0.5653 -0.9949
 4635SOL     OW25540   2.902   1.561   5.675  0.2727 -0.0473  0.1268
 4635SOL    HW125541   2.965   1.509   5.627 -1.0748 -2.6677  1.2136
 4635SOL    HW225542   2.883   1.631   5.611 -1.4312 -0.2752  0.3953
 4636SOL     OW25543   2.067   3.326   5.556 -0.2220 -0.7879 -0.7696
 4636SOL    HW125544   2.108   3.315   5.470  0.0784 -1.2326 -0.5675
 4636SOL    HW225545   2.039   3.239   5.584  1.6556 -1.1460  0.0040
 4637SOL     OW25546   3.896   4.251   8.933 -0.2873 -0.3919  0.3107
 4637SOL    HW125547   3.936   4.306   9.001 -0.0739  0.2646 -0.3422
 4637SOL    HW225548   3.845   4.326   8.901  3.1444  0.6766 -2.7391
 4638SOL     OW25549   3.010   2.605   8.753 -0.5071 -0.4144 -1.0540
 4638SOL    HW125550   2.935   2.616   8.812  1.0915  0.4866  0.8187
 4638SOL    HW225551   3.087   2.630   8.803  0.0180 -3.3259 -0.3909
 4639SOL     OW25552   4.381   3.397   2.202 -0.0956 -0.1741 -0.0504
 4639SOL    HW125553   4.398   3.331   2.269  1.8152 -0.5409 -0.8996
 4639SOL    HW225554   4.305   3.434   2.248  0.4662  0.4350  0.3862
 4640SOL     OW25555   2.408   0.860   5.270  0.1113  0.6278 -0.0613
 4640SOL    HW125556   2.437   0.881   5.359  1.7963  0.1275 -0.4811
 4640SOL    HW225557   2.335   0.803   5.293  0.2299  0.8394  0.8323
 4641SOL     OW25558   3.154   3.777   0.544  0.2533 -0.2382 -0.0345
 4641SOL    HW125559   3.110   3.810   0.623 -0.7348  1.2284 -1.1945
 4641SOL    HW225560   3.158   3.861   0.499 -1.6376  0.5714  1.3096
 4642SOL     OW25561   2.587   0.061   5.071 -0.0301 -0.2567 -0.0072
 4642SOL    HW125562   2.657   0.100   5.018 -0.5085  0.4629 -0.1095
 4642SOL    HW225563   2.631   4.717   5.082  0.4183  0.3252  2.7659
 4643SOL     OW25564   0.692   3.551   4.192  0.3693 -0.6273 -0.2896
 4643SOL    HW125565   0.612   3.499   4.185  1.0714 -1.5029 -1.7303
 4643SOL    HW225566   0.673   3.617   4.126  1.7963  0.0375 -0.0371
 4644SOL     OW25567   3.153   3.065  17.250  0.0687 -0.6390  0.4427
 4644SOL    HW125568   3.143   3.160  17.235 -1.3882 -0.5023  2.3874
 4644SOL    HW225569   3.205   3.036  17.175  0.3310  1.4677 -0.2094
 4645SOL     OW25570   1.241   2.589  15.715 -0.4641 -0.0806  0.0457
 4645SOL    HW125571   1.307   2.523  15.733 -1.2365 -1.3596 -1.8164
 4645SOL    HW225572   1.192   2.542  15.648 -3.5003 -0.1495  2.3010
 4646SOL     OW25573   0.292   0.168   9.728 -0.5647  0.4841  0.3872
 4646SOL    HW125574   0.370   0.127   9.765 -1.6695 -3.0295 -1.1547
 4646SOL    HW225575   0.280   0.112   9.651  2.0577 -1.3054  1.2739
 4647SOL     OW25576   2.459   0.663   4.146 -0.0248  0.5141  0.0822
 4647SOL    HW125577   2.493   0.753   4.150  1.9189 -0.2096 -0.1945
 4647SOL    HW225578   2.459   0.654   4.051 -0.3035  1.1838  0.0200
 4648SOL     OW25579   0.405   3.900   6.355  0.0143  0.0028  0.3263
 4648SOL    HW125580   0.333   3.963   6.355 -1.0318 -1.1956  0.2367
 4648SOL    HW225581   0.413   3.891   6.450 -0.6557 -2.8650  0.1058
 4649SOL     OW25582   2.914   3.557   6.299 -0.0473 -0.4766  0.4644
 4649SOL    HW125583   2.853   3.510   6.241 -0.0357  0.1101 -0.0294
 4649SOL    HW225584   2.966   3.596   6.229 -0.2978 -1.9173 -0.5453
 4650SOL     OW25585   0.837   4.078   1.557 -0.4516 -0.1271  0.6368
 4650SOL    HW125586   0.850   4.068   1.651  0.2118  1.8137  0.7419
 4650SOL    HW225587   0.852   4.172   1.545 -0.1379 -0.1085  1.1635
 4651SOL     OW25588   4.184   1.380   7.360  0.1612  0.2764  0.2977
 4651SOL    HW125589   4.241   1.456   7.348  1.2910 -1.0660 -2.6622
 4651SOL    HW225590   4.200   1.337   7.276 -0.8886  1.2965 -0.4365
 4652SOL     OW25591   4.575   1.540  14.646  0.6553  0.1259 -0.1522
 4652SOL    HW125592   4.521   1.556  14.723  2.9242  1.2381  1.1941
 4652SOL    HW225593   4.509   1.545  14.576  0.7773  0.8164 -0.2100
 4653SOL     OW25594   3.857   3.996   5.685  0.6857  0.1236 -0.2543
 4653SOL    HW125595   3.889   4.033   5.767  0.8190  2.2750 -1.2840
 4653SOL    HW225596   3.780   4.051   5.681 -0.5859 -1.5826  0.8973
 4654SOL     OW25597   4.167   2.088  12.949 -0.5088  0.3205 -0.2938
 4654SOL    HW125598   4.245   2.049  12.990 -1.4485  0.3962  1.5271
 4654SOL    HW225599   4.101   2.019  12.944  1.3783 -1.3940 -2.0652
 4655SOL     OW25600   2.868   0.071  16.460  0.0873 -0.4147 -0.4015
 4655SOL    HW125601   2.880   0.159  16.498 -1.7592 -0.6486  0.7202
 4655SOL    HW225602   2.808   0.084  16.386 -1.3744  0.9584  1.0315
 4656SOL     OW25603   0.215   1.237   9.809  0.7491 -0.0569  0.1926
 4656SOL    HW125604   0.149   1.301   9.784  1.6251  0.5863 -0.4884
 4656SOL    HW225605   0.222   1.183   9.731  1.5945  0.2716  0.0390
 4657SOL     OW25606   0.793   0.279   7.091  0.5444  0.4413 -0.2556
 4657SOL    HW125607   0.822   0.197   7.132  0.9839  1.2612  1.0691
 4657SOL    HW225608   0.714   0.295   7.142 -0.1199 -2.9912 -0.2074
 4658SOL     OW25609   2.790   0.325  10.037  0.0921 -0.5898 -0.0498
 4658SOL    HW125610   2.841   0.368  10.106 -2.9190  3.1298 -0.1533
 4658SOL    HW225611   2.721   0.277  10.083 -0.2871  0.0936  0.0846
 4659SOL     OW25612   1.457   3.716  11.563  0.0441  0.6285 -0.0824
 4659SOL    HW125613   1.498   3.678  11.485 -0.3499 -0.9474  0.4811
 4659SOL    HW225614   1.533   3.743  11.615  0.7372 -0.8949 -0.3050
 4660SOL     OW25615   2.867   0.096   8.829 -0.4120 -0.6637  0.7745
 4660SOL    HW125616   2.791   0.065   8.880 -0.7365  0.3826  0.9253
 4660SOL    HW225617   2.934   0.102   8.896 -0.8405 -1.1471  1.2472
 4661SOL     OW25618   0.823   1.807  14.120  0.1125 -0.1755  0.7087
 4661SOL    HW125619   0.750   1.746  14.117 -2.3358  2.8317 -1.2170
 4661SOL    HW225620   0.831   1.821  14.025 -1.1213 -0.4840  0.5721
 4662SOL     OW25621   2.807   4.354   7.285 -0.0362 -0.1609  0.4120
 4662SOL    HW125622   2.894   4.339   7.248 -0.8322 -0.2784 -1.4249
 4662SOL    HW225623   2.779   4.442   7.259  1.1155  0.1705  0.2667
 4663SOL     OW25624   0.744   3.759   9.450  0.3313 -0.0543 -0.3933
 4663SOL    HW125625   0.806   3.828   9.425  2.8545 -2.6106 -1.0952
 4663SOL    HW225626   0.777   3.694   9.389 -0.0608  0.3159 -0.9954
 4664SOL     OW25627   1.366   2.259  13.581 -0.1350  0.4551 -0.2359
 4664SOL    HW125628   1.449   2.303  13.560  0.7677 -0.4485  1.4286
 4664SOL    HW225629   1.309   2.329  13.613 -1.3716 -0.2356 -0.9264
 4665SOL     OW25630   4.654   2.121   1.260 -0.0998 -0.1041 -0.1624
 4665SOL    HW125631   4.619   2.034   1.279 -4.7912  1.8433  0.1989
 4665SOL    HW225632   4.686   2.158   1.343  1.4588 -1.6185 -0.0955
 4666SOL     OW25633   4.123   2.144   7.831 -0.2629 -0.6106 -0.1643
 4666SOL    HW125634   4.156   2.213   7.888 -1.9385  0.2655 -0.2632
 4666SOL    HW225635   4.116   2.070   7.891  0.6601 -0.1478  0.5149
 4667SOL     OW25636   1.658   2.980  13.301 -1.3241 -0.1006  0.1187
 4667SOL    HW125637   1.640   2.899  13.350 -0.2326  1.0025  2.3268
 4667SOL    HW225638   1.628   3.044  13.365 -0.5216 -0.4315  0.8179
 4668SOL     OW25639   2.987   1.056   8.644  0.0725 -0.4118 -0.3560
 4668SOL    HW125640   2.982   0.965   8.615  1.8683 -0.5124 -0.2985
 4668SOL    HW225641   3.076   1.075   8.614  0.3693  1.0145  1.4377
 4669SOL     OW25642   1.266   2.423   3.790  0.3087  0.8419 -0.0107
 4669SOL    HW125643   1.230   2.334   3.794  0.1548  0.8546 -1.1604
 4669SOL    HW225644   1.221   2.465   3.717 -0.2918  0.5841  0.2159
 4670SOL     OW25645   1.510   2.022   6.360  0.3532  0.2720 -0.6040
 4670SOL    HW125646   1.492   1.988   6.448  0.2622  2.5940  0.2596
 4670SOL    HW225647   1.591   2.066   6.387  2.9966 -3.9130 -1.6122
 4671SOL     OW25648   3.900   1.587   8.357 -0.1828  0.0030  0.0459
 4671SOL    HW125649   3.867   1.660   8.409  0.0524 -0.4131  0.7692
 4671SOL    HW225650   3.835   1.593   8.287 -0.1054  1.1037  0.0607
 4672SOL     OW25651   2.727   3.792   4.960  0.1682  0.0624  0.0051
 4672SOL    HW125652   2.798   3.753   4.910 -0.2226  0.3334 -0.7655
 4672SOL    HW225653   2.646   3.745   4.938  1.1020 -1.6581  0.2735
 4673SOL     OW25654   2.515   4.331   4.918  1.0519 -0.0990 -0.4318
 4673SOL    HW125655   2.485   4.353   4.830  1.4460  1.6897 -0.1271
 4673SOL    HW225656   2.538   4.238   4.915  0.1220 -0.3361  0.1577
 4674SOL     OW25657   2.565   2.779   2.402  0.3363  0.4694  0.0940
 4674SOL    HW125658   2.485   2.788   2.350  1.5321 -1.1753 -2.0716
 4674SOL    HW225659   2.537   2.784   2.493  0.0297 -1.8296  0.1438
 4675SOL     OW25660   3.433   2.031   5.296  0.4763 -0.0067 -0.4531
 4675SOL    HW125661   3.389   2.052   5.214 -0.6518  1.0168  0.4090
 4675SOL    HW225662   3.383   1.955   5.325  0.1037  0.1679 -0.6364
 4676SOL     OW25663   4.346   0.220   4.106  0.3869 -0.3538 -0.1781
 4676SOL    HW125664   4.333   0.270   4.187  0.6848  1.8143 -1.4512
 4676SOL    HW225665   4.395   0.286   4.057  1.6812 -1.6544 -0.6154
 4677SOL     OW25666   2.195   0.694   3.947  0.1705 -0.1707 -0.1615
 4677SOL    HW125667   2.282   0.695   3.909 -1.1732 -1.9888 -3.3163
 4677SOL    HW225668   2.210   0.612   3.996 -1.2633 -2.1639 -3.0561
 4678SOL     OW25669   1.928   1.451   1.216 -0.3891  0.8096 -0.2123
 4678SOL    HW125670   1.870   1.399   1.272  0.6377  1.2192  1.2241
 4678SOL    HW225671   1.961   1.515   1.279  0.9935  1.0440 -1.1981
 4679SOL     OW25672   2.969   3.544  10.364  0.2015 -0.0458  0.1105
 4679SOL    HW125673   2.923   3.483  10.422  1.3201  2.1460  3.2829
 4679SOL    HW225674   2.903   3.554  10.296 -1.2114 -0.1724  1.4412
 4680SOL     OW25675   1.610   4.415   2.258  0.6181  0.3252 -0.3448
 4680SOL    HW125676   1.522   4.419   2.221  1.3800 -1.4852 -2.3203
 4680SOL    HW225677   1.596   4.486   2.321  0.2817  2.3366 -2.6463
 4681SOL     OW25678   1.497   3.916   9.269 -0.0927 -0.1690 -0.1195
 4681SOL    HW125679   1.478   3.824   9.251  0.1453  0.0501 -1.4770
 4681SOL    HW225680   1.414   3.952   9.239  0.7163  2.7617  1.0610
 4682SOL     OW25681   2.025   2.736   8.169 -0.2316  0.0782  0.2769
 4682SOL    HW125682   1.953   2.731   8.107  0.2796  1.7073 -0.4344
 4682SOL    HW225683   1.980   2.769   8.247  1.2727 -0.6313  1.4483
 4683SOL     OW25684   0.338   2.628   8.885  0.4466 -0.1665 -0.7016
 4683SOL    HW125685   0.348   2.700   8.822  1.5101 -0.4513 -0.8518
 4683SOL    HW225686   0.356   2.676   8.966 -0.0787 -0.6198 -0.3141
 4684SOL     OW25687   1.235   0.496   9.824  0.4297  0.1604 -0.4590
 4684SOL    HW125688   1.292   0.556   9.872 -1.6253  0.6579  1.3680
 4684SOL    HW225689   1.286   0.465   9.749 -1.0090  1.5446 -2.0287
 4685SOL     OW25690   0.575   0.815   8.336 -0.0959  0.1430  0.7978
 4685SOL    HW125691   0.536   0.886   8.387  0.9918  0.4042  1.2848
 4685SOL    HW225692   0.619   0.769   8.408  1.1782 -3.2573 -2.1962
 4686SOL     OW25693   2.851   1.075   2.009 -0.1722 -0.2006  0.1114
 4686SOL    HW125694   2.913   1.071   1.936 -0.5339  0.8427 -0.2489
 4686SOL    HW225695   2.776   1.114   1.963 -1.3592 -0.2416  2.0026
 4687SOL     OW25696   1.391   2.293   2.173 -1.0031  0.3934 -0.2509
 4687SOL    HW125697   1.476   2.253   2.157 -1.4990 -0.8511  0.1298
 4687SOL    HW225698   1.337   2.228   2.218  1.5139  0.2681  2.6056
 4688SOL     OW25699   2.326   3.217  14.911 -0.2098  0.4032 -0.1857
 4688SOL    HW125700   2.279   3.230  14.830 -1.1035  1.3798  0.4944
 4688SOL    HW225701   2.321   3.122  14.925 -0.8994  0.8368  2.4872
 4689SOL     OW25702   2.531   1.131   1.412 -0.6587 -0.5437  0.0439
 4689SOL    HW125703   2.585   1.195   1.458 -1.2446 -0.8441  1.1543
 4689SOL    HW225704   2.586   1.111   1.337 -1.0280 -0.5762 -0.2229
 4690SOL     OW25705   4.336   0.338  15.990 -0.0963  0.1499 -0.1144
 4690SOL    HW125706   4.376   0.294  16.066 -0.9326  1.9410  1.3662
 4690SOL    HW225707   4.304   0.415  16.038  0.6345  1.1164 -1.1810
 4691SOL     OW25708   2.321   2.473  12.400 -0.2756 -0.0102  0.6565
 4691SOL    HW125709   2.381   2.545  12.379 -1.5922  0.8468 -0.2569
 4691SOL    HW225710   2.367   2.432  12.473 -0.5383  1.7270  1.7929
 4692SOL     OW25711   4.000   2.922   6.295 -0.3587 -0.6390  0.2557
 4692SOL    HW125712   4.004   2.885   6.384  1.0760 -0.9479  0.0603
 4692SOL    HW225713   4.024   2.842   6.249 -0.9358 -0.1208 -0.9337
 4693SOL     OW25714   4.025   0.519   9.584  0.0157  0.4577 -0.2141
 4693SOL    HW125715   4.032   0.453   9.653 -0.4795  0.2150 -0.3959
 4693SOL    HW225716   3.983   0.597   9.619  0.7784 -0.6044  3.0746
 4694SOL     OW25717   1.693   2.650   6.943  0.0380  0.6644 -0.0241
 4694SOL    HW125718   1.634   2.689   7.009 -1.8379 -1.8684 -0.2227
 4694SOL    HW225719   1.778   2.641   6.986 -0.4471 -0.0560  0.7845
 4695SOL     OW25720   0.747   0.799  16.856 -0.5135 -1.0576 -0.2229
 4695SOL    HW125721   0.776   0.861  16.923  1.3434  1.1660 -3.0965
 4695SOL    HW225722   0.819   0.798  16.794  0.4314  1.9524  0.8110
 4696SOL     OW25723   2.655   3.254   5.042  0.4372 -0.3186 -0.6104
 4696SOL    HW125724   2.629   3.203   5.119  1.7488  0.4876  0.3620
 4696SOL    HW225725   2.566   3.262   5.007  1.2231  0.2008 -2.4756
 4697SOL     OW25726   2.359   1.532   1.883  0.0089  0.1444 -0.0413
 4697SOL    HW125727   2.438   1.575   1.851 -0.5166  0.4916 -0.8482
 4697SOL    HW225728   2.343   1.458   1.824  0.9213 -0.6817  0.7441
 4698SOL     OW25729   4.206   0.186   5.945  0.0905 -0.2831 -0.2250
 4698SOL    HW125730   4.174   0.099   5.920 -1.5346  0.1338  0.4802
 4698SOL    HW225731   4.282   0.193   5.886 -1.0812 -1.1408 -1.8316
 4699SOL     OW25732   0.499   0.003   3.457  0.1637 -0.4718  0.3747
 4699SOL    HW125733   0.483   0.079   3.512 -2.7436  0.3165 -1.5316
 4699SOL    HW225734   0.589   4.715   3.471  0.4315  0.5060  0.6295
 4700SOL     OW25735   2.764   0.001   3.854  0.2135  0.1632  0.0490
 4700SOL    HW125736   2.798   0.081   3.894  2.1307  0.4289 -2.0710
 4700SOL    HW225737   2.820   4.732   3.777  2.3286 -3.7733  2.0583
 4701SOL     OW25738   1.408   1.939  15.933 -1.0284  0.6025 -0.0530
 4701SOL    HW125739   1.360   2.010  15.892 -0.9268  0.9218  0.3782
 4701SOL    HW225740   1.493   1.981  15.944 -0.3122 -0.8552 -0.0083
 4702SOL     OW25741   0.548   4.411   0.840 -0.1195  0.4120 -0.6719
 4702SOL    HW125742   0.527   4.409   0.933 -0.3876  0.5437 -0.7307
 4702SOL    HW225743   0.573   4.503   0.835  0.6889  0.2513  0.5067
 4703SOL     OW25744   2.101   4.021   2.900 -0.3923 -0.0403  0.1244
 4703SOL    HW125745   2.105   4.091   2.966  0.4597 -0.4064  0.4731
 4703SOL    HW225746   2.014   4.022   2.861  0.0777 -2.2818 -1.0016
 4704SOL     OW25747   1.531   3.916   8.401 -0.9689  0.4877 -0.4026
 4704SOL    HW125748   1.616   3.955   8.380 -0.0943 -1.5253 -0.6071
 4704SOL    HW225749   1.539   3.908   8.496  1.4478  0.7221 -0.5988
 4705SOL     OW25750   2.235   2.695   5.571  0.3019  0.1224  0.5149
 4705SOL    HW125751   2.157   2.683   5.626  0.4002 -1.4318  0.3284
 4705SOL    HW225752   2.246   2.610   5.527  0.7066  0.9608 -0.9791
 4706SOL     OW25753   0.978   3.639   6.541  0.0190 -0.5436  0.3678
 4706SOL    HW125754   0.912   3.610   6.478  2.2917  3.1357 -3.7116
 4706SOL    HW225755   1.039   3.686   6.483 -2.1233  0.7549 -0.8115
 4707SOL     OW25756   3.234   3.617   3.992 -0.3111  0.3608  0.7946
 4707SOL    HW125757   3.254   3.543   4.048  0.1047 -0.2773 -0.2073
 4707SOL    HW225758   3.295   3.679   4.034 -0.2543 -1.1661  2.9532
 4708SOL     OW25759   0.664   1.224   7.673  0.1373 -0.0780 -0.0805
 4708SOL    HW125760   0.650   1.148   7.730  1.4997  0.7071  1.2889
 4708SOL    HW225761   0.605   1.283   7.719 -0.1857  0.4824 -1.2348
 4709SOL     OW25762   2.997   0.361  11.552 -0.0409 -0.1676 -0.0781
 4709SOL    HW125763   3.031   0.298  11.616  0.0756 -0.3925 -0.3618
 4709SOL    HW225764   2.912   0.376  11.594  0.5452 -0.7472  1.3265
 4710SOL     OW25765   1.811   3.334  10.594 -0.1506 -0.0840 -0.1763
 4710SOL    HW125766   1.904   3.342  10.571  0.1537 -1.5200  0.5229
 4710SOL    HW225767   1.769   3.372  10.517  1.2273  2.0805  0.1531
 4711SOL     OW25768   4.253   0.589   9.463  0.0833 -0.5570 -0.3240
 4711SOL    HW125769   4.164   0.585   9.496  1.3304 -0.5092  3.0877
 4711SOL    HW225770   4.289   0.502   9.477  0.5296 -0.1569  1.0178
 4712SOL     OW25771   3.675   0.652   2.554  0.7035  0.0598 -0.0867
 4712SOL    HW125772   3.626   0.570   2.549  0.5010  0.2160 -0.8028
 4712SOL    HW225773   3.744   0.631   2.616 -0.2535  0.0870  0.9839
 4713SOL     OW25774   1.587   3.963   1.919 -0.4449 -0.5746  0.0520
 4713SOL    HW125775   1.505   3.971   1.968 -2.7045  0.8428 -3.9077
 4713SOL    HW225776   1.618   4.050   1.943  1.1139 -1.5137  1.3938
 4714SOL     OW25777   3.640   4.196   8.381  0.2318 -0.9627  0.4291
 4714SOL    HW125778   3.710   4.133   8.367  1.2098  0.8653 -2.6980
 4714SOL    HW225779   3.563   4.140   8.370 -0.0687 -0.2543 -1.0754
 4715SOL     OW25780   2.825   3.615  14.088  0.4333  0.0157  0.3480
 4715SOL    HW125781   2.867   3.687  14.136 -0.2262 -1.0742  2.5306
 4715SOL    HW225782   2.883   3.539  14.095  1.2039  0.6300  0.6291
 4716SOL     OW25783   2.048   3.279   7.833  0.3393  0.1178 -0.0428
 4716SOL    HW125784   2.084   3.197   7.867 -0.1139  0.2640  0.8056
 4716SOL    HW225785   2.126   3.302   7.785  0.2202  0.2867 -0.1540
 4717SOL     OW25786   3.439   3.182   6.509 -0.4521 -0.4610 -0.3367
 4717SOL    HW125787   3.514   3.129   6.538 -2.0115 -1.5915  1.5870
 4717SOL    HW225788   3.362   3.153   6.558 -0.9030 -1.5143 -1.6718
 4718SOL     OW25789   4.564   2.331   3.075  0.1609  0.1297 -0.7230
 4718SOL    HW125790   4.620   2.346   3.151 -0.3417  0.2996 -0.3865
 4718SOL    HW225791   4.621   2.270   3.028  1.1310 -0.6681  1.5381
 4719SOL     OW25792   0.239   2.451   8.671 -0.3478  0.9220 -0.3597
 4719SOL    HW125793   0.242   2.510   8.746 -1.0136 -2.0412  2.0196
 4719SOL    HW225794   0.144   2.445   8.656 -0.3539 -1.1384  0.4568
 4720SOL     OW25795   0.855   1.492  12.556 -0.6197  0.2429  0.0882
 4720SOL    HW125796   0.932   1.464  12.605 -0.6991 -0.0754  0.0310
 4720SOL    HW225797   0.801   1.414  12.571 -0.0284 -0.4898 -1.5139
 4721SOL     OW25798   1.763   4.307   8.113  0.1318 -0.8727  0.2881
 4721SOL    HW125799   1.845   4.295   8.064  0.8826 -1.1066  1.6124
 4721SOL    HW225800   1.755   4.224   8.160 -0.4648 -1.9199 -1.6841
 4722SOL     OW25801   0.590   0.681   2.539 -0.0641  0.0388 -0.5312
 4722SOL    HW125802   0.531   0.745   2.580  0.1513 -0.2487  0.2234
 4722SOL    HW225803   0.659   0.740   2.507  2.1953 -0.9189  2.5856
 4723SOL     OW25804   0.923   1.538   4.468 -0.1301 -0.0605  0.6641
 4723SOL    HW125805   0.993   1.603   4.465  0.1986 -0.4603 -0.3972
 4723SOL    HW225806   0.840   1.583   4.482 -1.0537 -1.8247  0.9293
 4724SOL     OW25807   3.095   1.466   6.771  0.4109  0.3762  0.0685
 4724SOL    HW125808   3.131   1.393   6.720  0.0525  0.3718 -0.1726
 4724SOL    HW225809   3.171   1.519   6.796 -0.3155  0.4023  2.2576
 4725SOL     OW25810   4.533   3.646  12.506  0.3231  0.7281  0.2858
 4725SOL    HW125811   4.624   3.626  12.526  0.0574 -1.7835 -0.9604
 4725SOL    HW225812   4.484   3.641  12.588 -3.8012 -1.1727 -2.2695
 4726SOL     OW25813   3.920   4.723   9.900 -0.0844  0.2886  0.0384
 4726SOL    HW125814   3.975   4.739   9.976 -0.8152  2.6626  0.0857
 4726SOL    HW225815   3.844   0.039   9.917  0.0132  0.7880 -1.1365
 4727SOL     OW25816   2.101   0.945  17.061  0.2252 -0.1984  0.1274
 4727SOL    HW125817   2.129   0.885  16.992  0.1977 -1.1601  0.9602
 4727SOL    HW225818   2.092   0.886  17.135 -0.5820 -0.7914 -0.4428
 4728SOL     OW25819   2.069   0.560   7.904  0.0815 -0.1952 -0.6947
 4728SOL    HW125820   2.139   0.553   7.970 -1.1192 -1.2765  0.4541
 4728SOL    HW225821   2.021   0.639   7.930 -0.0456 -0.5643  0.1868
 4729SOL     OW25822   0.869   3.403   4.342 -0.8018 -0.0687 -0.0119
 4729SOL    HW125823   0.832   3.425   4.256 -0.0771 -0.5248 -0.4418
 4729SOL    HW225824   0.793   3.414   4.400  0.2667 -0.6061  1.4814
 4730SOL     OW25825   0.483   4.078   1.685  0.3398 -0.1049  0.8773
 4730SOL    HW125826   0.519   4.167   1.696  1.2194 -0.5386  1.5174
 4730SOL    HW225827   0.390   4.092   1.702 -0.4154 -0.0748 -3.2239
 4731SOL     OW25828   2.172   1.531  14.190 -0.2864  0.2798 -0.1420
 4731SOL    HW125829   2.264   1.514  14.209 -0.4248 -0.4172 -0.0642
 4731SOL    HW225830   2.161   1.485  14.107  0.5021  0.5096 -0.3735
 4732SOL     OW25831   0.429   4.320  11.273  0.6835 -0.0677  0.2368
 4732SOL    HW125832   0.448   4.406  11.236 -1.8059  0.4229  0.0755
 4732SOL    HW225833   0.452   4.320  11.366  2.0914  1.7028 -0.1027
 4733SOL     OW25834   3.804   1.425  16.447  0.4821  0.2695 -0.8292
 4733SOL    HW125835   3.840   1.453  16.532 -0.8208  1.8063 -0.7781
 4733SOL    HW225836   3.871   1.378  16.398 -1.0421 -0.6956 -1.9679
 4734SOL     OW25837   3.587   0.090   6.734 -0.3626 -0.0206 -0.0152
 4734SOL    HW125838   3.522   0.112   6.667 -1.1339 -0.5902  0.5376
 4734SOL    HW225839   3.576   4.736   6.725 -0.8216 -0.1420  1.7290
 4735SOL     OW25840   0.925   3.268  16.519 -0.1872  0.3535 -0.2637
 4735SOL    HW125841   0.900   3.177  16.536 -0.0357  0.5289  0.8913
 4735SOL    HW225842   0.926   3.271  16.423  1.0377  1.4717 -0.2215
 4736SOL     OW25843   2.788   1.419   1.998 -0.4562 -0.0129  0.0574
 4736SOL    HW125844   2.784   1.339   1.946  0.0772 -0.3810  0.5893
 4736SOL    HW225845   2.698   1.440   2.023 -0.7811 -0.9616 -0.3324
 4737SOL     OW25846   2.956   1.448  16.980 -0.2545 -0.3630  0.3946
 4737SOL    HW125847   3.024   1.514  16.967  0.7312 -1.5943 -0.7352
 4737SOL    HW225848   3.002   1.377  16.936 -0.6003 -2.0700  2.7852
 4738SOL     OW25849   4.675   4.545   6.155 -0.2963  0.0059  0.5788
 4738SOL    HW125850   4.693   4.573   6.245 -0.7974  1.6242  0.1798
 4738SOL    HW225851   4.609   4.613   6.139  2.0664  2.3630  0.8148
 4739SOL     OW25852   4.697   1.148   1.052 -0.0626  0.0777 -0.2894
 4739SOL    HW125853   4.613   1.133   1.008 -0.6078  0.5188  0.6111
 4739SOL    HW225854   4.740   1.074   1.010  0.1640  0.6816 -1.1390
 4740SOL     OW25855   4.569   2.548   7.125 -0.3770 -0.2297  0.6558
 4740SOL    HW125856   4.662   2.557   7.102 -0.4547  1.7524  1.1773
 4740SOL    HW225857   4.551   2.463   7.084  0.0392 -0.2370  0.4848
 4741SOL     OW25858   0.900   2.021   5.224  0.0150  0.4720 -0.0849
 4741SOL    HW125859   0.946   2.092   5.180 -0.5152  0.4489 -0.6661
 4741SOL    HW225860   0.868   1.980   5.144  2.0473  1.9257 -1.6779
 4742SOL     OW25861   0.272   4.094   7.481  0.1320  0.0223 -0.0796
 4742SOL    HW125862   0.296   4.004   7.503  2.7746  0.6094 -0.5554
 4742SOL    HW225863   0.196   4.071   7.427 -0.2140 -0.5593  0.6549
 4743SOL     OW25864   4.027   2.911   9.065 -0.0763  0.0788 -0.2493
 4743SOL    HW125865   4.122   2.912   9.048  0.2587  0.6693  1.6582
 4743SOL    HW225866   4.023   2.846   9.135  2.0311  0.4456  0.2116
 4744SOL     OW25867   0.912   0.183   6.507 -0.2003 -0.6939  0.6342
 4744SOL    HW125868   0.951   0.119   6.566 -0.8949  0.6179  2.5159
 4744SOL    HW225869   0.933   0.267   6.549 -3.5849 -0.3294  1.5148
 4745SOL     OW25870   3.848   0.644   7.620  0.1648  0.1110 -0.5408
 4745SOL    HW125871   3.896   0.675   7.697 -0.0863  1.3906 -0.8841
 4745SOL    HW225872   3.803   0.566   7.652  0.4422 -0.5977 -1.9086
 4746SOL     OW25873   3.272   0.384  10.697  0.0023 -0.1654 -0.9866
 4746SOL    HW125874   3.251   0.432  10.777 -0.4019 -1.5348 -0.2724
 4746SOL    HW225875   3.309   0.301  10.727  1.4302  0.6522 -0.4587
 4747SOL     OW25876   1.687   0.752  10.471 -0.4192  0.5654 -0.3009
 4747SOL    HW125877   1.662   0.690  10.539  1.2928  1.5582  1.2205
 4747SOL    HW225878   1.596   0.765  10.443  0.3397  3.8283 -1.2302
 4748SOL     OW25879   0.460   3.334  15.157  0.1606  0.1448  0.2610
 4748SOL    HW125880   0.430   3.307  15.244  1.1504  0.1592  0.6135
 4748SOL    HW225881   0.550   3.302  15.150  0.6077  0.7631  3.1539
 4749SOL     OW25882   4.697   2.276   9.175 -0.1019  0.3022 -0.1502
 4749SOL    HW125883   0.037   2.320   9.147 -0.3402  0.0888 -1.1547
 4749SOL    HW225884   4.677   2.331   9.251 -0.8645 -0.1303 -0.0432
 4750SOL     OW25885   2.375   1.974  17.473  0.2954  0.1954  0.2264
 4750SOL    HW125886   2.409   1.927  17.549 -0.7977 -3.1321 -1.3387
 4750SOL    HW225887   2.448   2.034  17.461 -0.4830  1.1751  0.3605
 4751SOL     OW25888   3.935   0.309   0.819  0.1234  0.0303 -0.2165
 4751SOL    HW125889   3.978   0.226   0.797  1.1839  0.3437  0.6992
 4751SOL    HW225890   4.007   0.368   0.840  0.6976 -0.0193 -2.0396
 4752SOL     OW25891   4.387   1.340  10.198 -0.3232  0.3436 -0.0449
 4752SOL    HW125892   4.319   1.274  10.214 -2.1085  2.4578  1.0972
 4752SOL    HW225893   4.420   1.314  10.112 -0.1869  3.6687 -1.0031
 4753SOL     OW25894   0.702   0.228   2.126  0.5343 -0.1427  0.1036
 4753SOL    HW125895   0.630   0.237   2.188  1.4829  2.4695  0.8391
 4753SOL    HW225896   0.781   0.222   2.179  0.3273 -1.4124  0.2792
 4754SOL     OW25897   1.869   3.716   9.032 -0.0439  0.8856  0.3872
 4754SOL    HW125898   1.886   3.706   9.125 -0.6244 -0.4175  0.3482
 4754SOL    HW225899   1.789   3.766   9.046 -0.1439  0.9142 -0.2637
 4755SOL     OW25900   4.699   3.681   3.954  0.9929  0.0911 -0.2652
 4755SOL    HW125901   4.616   3.645   3.986  0.5801 -0.7870 -2.3239
 4755SOL    HW225902   4.669   3.748   3.893  0.5497 -0.5946 -0.7981
 4756SOL     OW25903   0.558   1.812   1.181  0.0925  0.0046 -0.4858
 4756SOL    HW125904   0.623   1.766   1.233  1.7086  1.2629 -1.3942
 4756SOL    HW225905   0.609   1.882   1.139 -0.6683  0.1070 -1.2520
 4757SOL     OW25906   3.524   0.270   3.317  0.4127 -0.1011 -0.5144
 4757SOL    HW125907   3.525   0.363   3.295  0.3440  0.1980  0.7539
 4757SOL    HW225908   3.574   0.262   3.398 -0.7577  1.0006  0.3032
 4758SOL     OW25909   1.302   1.214   5.356 -0.0266 -0.0742 -0.1389
 4758SOL    HW125910   1.397   1.224   5.353  0.0223 -0.0406  1.1682
 4758SOL    HW225911   1.287   1.242   5.447  0.8107  0.8727 -0.2939
 4759SOL     OW25912   0.622   4.497   5.150 -0.3960  0.0547  0.9375
 4759SOL    HW125913   0.535   4.521   5.183 -0.2885 -0.8638  1.9082
 4759SOL    HW225914   0.595   4.428   5.089  0.2691 -1.6090  2.5202
 4760SOL     OW25915   4.133   4.155   6.350  0.3315 -0.2291  0.3025
 4760SOL    HW125916   4.170   4.127   6.434  1.9560 -0.5059 -0.5018
 4760SOL    HW225917   4.059   4.205   6.385 -0.8541 -0.6051 -1.6969
 4761SOL     OW25918   0.155   2.024   5.617  0.3455  0.3157 -0.2081
 4761SOL    HW125919   0.116   1.985   5.695 -1.2897  2.0851 -0.1450
 4761SOL    HW225920   0.079   2.050   5.566 -0.4044 -1.8189 -0.1737
 4762SOL     OW25921   0.271   3.202   3.362 -0.4862 -0.1356 -0.1650
 4762SOL    HW125922   0.185   3.162   3.355  0.3165 -1.7755 -0.5908
 4762SOL    HW225923   0.275   3.270   3.295 -1.2669  0.9300  0.8630
 4763SOL     OW25924   2.139   2.051   4.151 -0.1445  0.2958 -0.0069
 4763SOL    HW125925   2.222   2.008   4.167 -0.1689  0.0336 -0.5936
 4763SOL    HW225926   2.086   1.972   4.154  0.2798 -0.0644 -2.0849
 4764SOL     OW25927   2.279   1.519   6.344 -0.0225 -0.2151  0.0710
 4764SOL    HW125928   2.280   1.591   6.281  2.2257  0.3273  0.7323
 4764SOL    HW225929   2.369   1.489   6.335 -0.0003  0.0279 -0.5360
 4765SOL     OW25930   0.113   0.790   2.794  0.1629  0.0471 -0.6972
 4765SOL    HW125931   0.116   0.695   2.801  0.4730  0.2721  2.4654
 4765SOL    HW225932   0.022   0.804   2.818  0.5827 -0.5896  1.2547
 4766SOL     OW25933   1.617   3.222   7.661 -0.9264 -0.0779  0.0161
 4766SOL    HW125934   1.679   3.182   7.722 -2.3712 -1.5132  0.5419
 4766SOL    HW225935   1.682   3.247   7.594 -1.8345  2.0608 -0.0897
 4767SOL     OW25936   0.738   4.606  17.109 -0.0864 -0.0465  0.4719
 4767SOL    HW125937   0.715   4.644  17.194 -0.6853  0.4170  0.1060
 4767SOL    HW225938   0.650   4.608  17.071  0.5412  2.4017 -0.8601
 4768SOL     OW25939   0.685   2.076   3.266 -0.6673 -0.0102 -0.5323
 4768SOL    HW125940   0.753   2.030   3.315  1.1165  2.2908 -0.8459
 4768SOL    HW225941   0.674   2.153   3.322  0.3398 -0.0412 -0.2855
 4769SOL     OW25942   3.263   3.558   4.799 -0.3229  0.6329  0.1369
 4769SOL    HW125943   3.276   3.577   4.892 -2.6304  1.3593  0.2958
 4769SOL    HW225944   3.332   3.611   4.758  0.4568 -0.8041 -0.4190
 4770SOL     OW25945   2.538   0.678   5.475  0.0126  0.2173 -0.6851
 4770SOL    HW125946   2.581   0.751   5.431  1.6061 -0.8543 -0.9043
 4770SOL    HW225947   2.612   0.619   5.491 -0.4361  0.0014  0.5859
 4771SOL     OW25948   0.891   0.868   4.381 -0.2536 -0.3797 -0.3596
 4771SOL    HW125949   0.937   0.883   4.464 -0.9324  1.4728 -0.3266
 4771SOL    HW225950   0.840   0.788   4.395 -3.3894  1.6871  0.0283
 4772SOL     OW25951   2.644   4.077   6.814 -0.7422 -0.5321  0.0452
 4772SOL    HW125952   2.736   4.064   6.835 -0.9264 -0.6894  0.7344
 4772SOL    HW225953   2.616   4.065   6.905  2.8771  0.1428  1.2160
 4773SOL     OW25954   0.862   3.096   5.386 -0.6325 -0.0067 -0.1357
 4773SOL    HW125955   0.811   3.036   5.441  1.4018 -1.1731  0.4400
 4773SOL    HW225956   0.849   3.061   5.298 -1.1652  3.6192 -1.5045
 4774SOL     OW25957   1.757   3.834   2.611  0.1293  0.3835 -0.1035
 4774SOL    HW125958   1.690   3.779   2.568  0.1114 -0.1652  0.6253
 4774SOL    HW225959   1.806   3.759   2.646  0.0601 -0.1669 -1.1656
 4775SOL     OW25960   4.728   1.256   5.945 -0.1647 -0.1140 -0.0811
 4775SOL    HW125961   4.719   1.230   5.853 -1.5468 -1.1710  0.3543
 4775SOL    HW225962   4.639   1.269   5.978 -0.0992  0.1882 -0.0257
 4776SOL     OW25963   0.528   0.761   1.209 -0.0537  0.3094  0.1046
 4776SOL    HW125964   0.571   0.705   1.145 -1.1324  1.0825 -1.2808
 4776SOL    HW225965   0.542   0.715   1.292  0.1109  3.0373  1.5871
 4777SOL     OW25966   2.538   1.460   7.391  0.4920  0.7512 -0.0351
 4777SOL    HW125967   2.527   1.482   7.483 -1.2669  1.7321 -0.4782
 4777SOL    HW225968   2.459   1.410   7.371  0.9180 -0.2150  0.7285
 4778SOL     OW25969   2.704   3.381   0.159 -0.0863 -0.2379  0.3233
 4778SOL    HW125970   2.703   3.454   0.221 -2.0816 -0.0874  0.1054
 4778SOL    HW225971   2.794   3.388   0.126 -1.1100  2.2620 -1.8639
 4779SOL     OW25972   0.791   2.510   4.443 -0.2638 -0.5061 -0.3290
 4779SOL    HW125973   0.707   2.532   4.405 -0.3238 -2.4030 -1.2805
 4779SOL    HW225974   0.829   2.440   4.390 -0.6104 -1.0103  0.0976
 4780SOL     OW25975   3.589   0.107   2.686  0.1262  0.0374  0.5432
 4780SOL    HW125976   3.671   0.152   2.663  0.3565 -0.5483  0.2063
 4780SOL    HW225977   3.527   0.179   2.698 -0.6813 -0.6486  0.4944
 4781SOL     OW25978   2.832   2.874   8.118  0.2781 -0.5437 -0.0035
 4781SOL    HW125979   2.859   2.869   8.210  0.8903 -0.9088 -0.2047
 4781SOL    HW225980   2.742   2.841   8.126  0.3922 -0.8254  0.1258
 4782SOL     OW25981   4.725   2.483   6.703  0.1277 -0.6825  0.2348
 4782SOL    HW125982   4.688   2.559   6.749 -0.0418  0.1566 -1.2891
 4782SOL    HW225983   0.069   2.477   6.749  1.4567  2.7903 -1.6947
 4783SOL     OW25984   3.612   2.733   1.654 -0.5489  0.1995 -0.1487
 4783SOL    HW125985   3.629   2.682   1.575 -0.0029 -1.9793  1.3777
 4783SOL    HW225986   3.516   2.729   1.658 -0.7081  1.6311 -2.7503
 4784SOL     OW25987   1.537   4.091  13.745 -0.3020 -0.4760 -0.0471
 4784SOL    HW125988   1.599   4.124  13.679 -1.5193 -0.4574 -1.1857
 4784SOL    HW225989   1.554   3.997  13.731 -2.2499 -0.6174 -1.4236
 4785SOL     OW25990   3.877   2.789   3.047 -0.0013 -0.4723  0.1713
 4785SOL    HW125991   3.829   2.824   2.972  0.3448  0.3014  0.3134
 4785SOL    HW225992   3.898   2.698   3.024  0.1442 -0.6559  1.0109
 4786SOL     OW25993   4.443   4.636   6.932 -0.0792  0.5859  0.4535
 4786SOL    HW125994   4.389   4.599   6.862 -0.5823 -1.5060  1.9536
 4786SOL    HW225995   4.391   4.612   7.009 -0.8229 -0.0963 -0.2597
 4787SOL     OW25996   4.370   0.576   5.112  0.1565  0.6424  0.1651
 4787SOL    HW125997   4.353   0.488   5.146  1.7052  1.1512  2.2525
 4787SOL    HW225998   4.316   0.637   5.164  2.3206  2.2625  0.4816
 4788SOL     OW25999   2.553   1.016  13.813  0.0263  0.1211 -0.0217
 4788SOL    HW126000   2.512   1.004  13.728  1.5721 -0.9406 -0.6153
 4788SOL    HW226001   2.487   1.075  13.849  0.4729  1.6381 -1.6458
 4789SOL     OW26002   4.540   3.945   7.747 -0.3680  0.0669 -0.2043
 4789SOL    HW126003   4.514   3.957   7.839  0.1109 -1.3389  0.1269
 4789SOL    HW226004   4.606   4.014   7.741  0.3231 -0.5927 -0.1917
 4790SOL     OW26005   0.410   1.241  10.370 -0.1629  0.2750  0.3073
 4790SOL    HW126006   0.463   1.162  10.381 -1.3804 -0.6007 -0.1349
 4790SOL    HW226007   0.460   1.280  10.299  0.2704 -2.3324 -0.8217
 4791SOL     OW26008   3.833   0.439  10.680  0.7480  0.3516  0.0590
 4791SOL    HW126009   3.839   0.401  10.767  3.9617 -1.1997 -0.8287
 4791SOL    HW226010   3.917   0.484  10.671 -1.1074  3.9255  0.4342
 4792SOL     OW26011   2.572   3.150   6.134 -0.4032  0.1918 -0.5774
 4792SOL    HW126012   2.563   3.056   6.146 -0.6837  0.2075 -0.6678
 4792SOL    HW226013   2.523   3.190   6.206 -0.7039 -0.9004 -0.1827
 4793SOL     OW26014   0.379   3.249   8.124 -0.1171 -0.0007 -0.7654
 4793SOL    HW126015   0.431   3.171   8.103 -0.6085 -0.4190 -0.4273
 4793SOL    HW226016   0.316   3.198   8.176  0.0026 -0.1265 -0.7424
 4794SOL     OW26017   0.705   4.283   6.657  0.6114 -0.1102  0.1134
 4794SOL    HW126018   0.754   4.215   6.612  1.0273  0.1761  0.1345
 4794SOL    HW226019   0.616   4.250   6.640  1.1589 -1.9819  0.9838
 4795SOL     OW26020   4.198   0.649   8.330 -0.1864  0.0986 -0.2775
 4795SOL    HW126021   4.279   0.699   8.338 -0.9244  0.9838  1.7173
 4795SOL    HW226022   4.144   0.727   8.317  2.2890  1.9861  0.9655
 4796SOL     OW26023   1.174   0.896  16.973  0.5260 -0.5080  0.3132
 4796SOL    HW126024   1.090   0.934  16.999  0.3278 -1.0497  0.4792
 4796SOL    HW226025   1.221   0.943  17.041 -2.3500  0.0328  1.9517
 4797SOL     OW26026   3.194   0.617   1.804  0.1912  0.4209 -0.5387
 4797SOL    HW126027   3.219   0.590   1.716 -1.6173 -1.9778 -0.2967
 4797SOL    HW226028   3.203   0.536   1.854 -1.9109 -0.1349 -1.0438
 4798SOL     OW26029   0.312   2.246   1.640 -0.2801  0.1259 -0.4934
 4798SOL    HW126030   0.332   2.327   1.592  0.8980  0.8342  1.2240
 4798SOL    HW226031   0.260   2.278   1.713  0.9488 -0.1329  0.4843
 4799SOL     OW26032   0.736   3.322  15.106  0.0594 -0.8724 -0.7505
 4799SOL    HW126033   0.713   3.414  15.114  0.8604 -0.7645  0.4256
 4799SOL    HW226034   0.788   3.310  15.186 -2.5166  1.4274  1.2726
 4800SOL     OW26035   2.145   3.549   2.685  0.2831  0.1495  0.6003
 4800SOL    HW126036   2.238   3.555   2.663 -0.1341  2.0824 -0.6964
 4800SOL    HW226037   2.097   3.602   2.621  2.2825 -0.8632 -1.7813
 4801SOL     OW26038   2.429   4.305   1.959  0.3443  0.1444  0.2307
 4801SOL    HW126039   2.458   4.218   1.989  0.5091 -0.3442 -1.3799
 4801SOL    HW226040   2.428   4.285   1.866 -0.9663 -0.5632  0.3975
 4802SOL     OW26041   2.109   2.214   1.815  0.0208 -0.6484  0.1500
 4802SOL    HW126042   2.019   2.248   1.819  0.0247 -0.5206 -0.7529
 4802SOL    HW226043   2.147   2.264   1.742  1.5307 -0.6300  0.9575
 4803SOL     OW26044   4.251   0.038   8.241  0.5649 -0.2610  0.5184
 4803SOL    HW126045   4.165   0.080   8.245  0.8346  0.3962 -0.5226
 4803SOL    HW226046   4.244   0.001   8.153  0.9066 -0.5409  0.6096
 4804SOL     OW26047   3.632   0.852   7.137  0.0203 -0.7578  0.4146
 4804SOL    HW126048   3.667   0.804   7.213 -0.7034 -0.7539  0.7507
 4804SOL    HW226049   3.707   0.855   7.077 -0.3443  2.5825  0.1586
 4805SOL     OW26050   2.189   1.464  12.031 -0.0228  0.2105  0.7637
 4805SOL    HW126051   2.205   1.558  12.027 -1.7561  0.4850  0.2540
 4805SOL    HW226052   2.093   1.464  12.031 -0.0263  0.3326 -0.8475
 4806SOL     OW26053   3.825   1.293   0.282 -0.2478 -0.2443 -0.6164
 4806SOL    HW126054   3.815   1.248   0.367  2.7714 -1.9109 -1.1569
 4806SOL    HW226055   3.810   1.225   0.216 -1.5788 -0.0994 -0.4779
 4807SOL     OW26056   3.285   4.541   9.472  0.5366 -0.2147 -0.1687
 4807SOL    HW126057   3.256   4.502   9.390 -0.8795  0.5765 -0.0509
 4807SOL    HW226058   3.203   4.568   9.515  0.4695 -0.1468 -0.3424
 4808SOL     OW26059   2.464   1.649   9.026 -0.0041 -0.8344  0.2320
 4808SOL    HW126060   2.409   1.571   9.031  1.0639 -1.7345 -1.6637
 4808SOL    HW226061   2.419   1.724   8.989  0.4746 -0.3442  0.6378
 4809SOL     OW26062   3.356   1.151   8.935 -0.4179 -0.0316  0.2068
 4809SOL    HW126063   3.392   1.206   9.004 -1.8268 -1.8488  2.4106
 4809SOL    HW226064   3.410   1.074   8.953  3.5064  3.3395  2.8183
 4810SOL     OW26065   4.340   4.685   3.814 -0.0729 -0.3360  0.1575
 4810SOL    HW126066   4.330   4.610   3.755 -2.5981  0.6795 -0.7318
 4810SOL    HW226067   4.265   4.739   3.789 -0.1051  0.0762  1.1337
 4811SOL     OW26068   3.754   2.248   8.823  0.6019 -0.4693  0.1367
 4811SOL    HW126069   3.840   2.261   8.783  1.1692  0.8373  1.7772
 4811SOL    HW226070   3.770   2.226   8.915  1.2974  0.6572  0.2766
 4812SOL     OW26071   3.035   2.774   4.945  0.2486  0.0915 -0.1695
 4812SOL    HW126072   3.076   2.698   4.986 -0.8410  0.4557  1.5850
 4812SOL    HW226073   2.968   2.729   4.893  1.4253 -0.2395 -1.3912
 4813SOL     OW26074   3.640   4.444   2.822 -0.5609 -0.1433  0.5396
 4813SOL    HW126075   3.622   4.374   2.885  0.4696 -1.1792 -0.3291
 4813SOL    HW226076   3.589   4.516   2.861 -1.9915 -1.2665  0.7270
 4814SOL     OW26077   0.390   2.930   6.947  0.1787 -0.3818 -0.6530
 4814SOL    HW126078   0.374   2.852   6.893 -1.3602 -1.0450  0.7563
 4814SOL    HW226079   0.408   3.005   6.890 -0.1322  2.8916  3.5675
 4815SOL     OW26080   1.358   2.826  15.714  0.1903 -0.0585 -0.2491
 4815SOL    HW126081   1.336   2.886  15.785 -2.7488 -0.0553 -1.1654
 4815SOL    HW226082   1.298   2.753  15.732 -1.1586  1.4595  1.5105
 4816SOL     OW26083   4.303   2.998   8.439  0.5533  0.4288  0.2706
 4816SOL    HW126084   4.297   3.089   8.411 -0.3060 -0.5547 -2.7623
 4816SOL    HW226085   4.212   2.974   8.455  0.3608  1.8361  1.2877
 4817SOL     OW26086   4.044   1.185   7.923 -0.3220 -0.3050 -0.2749
 4817SOL    HW126087   4.041   1.279   7.943 -0.7096 -0.9582  2.6771
 4817SOL    HW226088   4.056   1.179   7.828  2.0059  1.1370 -0.0759
 4818SOL     OW26089   4.350   1.848   7.094  0.7132  0.1541  0.0250
 4818SOL    HW126090   4.389   1.930   7.064  0.4575 -0.5970 -2.3174
 4818SOL    HW226091   4.432   1.806   7.117 -1.1166 -2.4053  1.8603
 4819SOL     OW26092   0.225   0.399   5.637 -0.3970 -0.1356  0.5030
 4819SOL    HW126093   0.196   0.413   5.547 -1.3683  0.0198  0.8390
 4819SOL    HW226094   0.248   0.492   5.644  0.9802 -0.5472  1.4680
 4820SOL     OW26095   3.498   0.160  11.775  0.3475  0.2118 -0.5787
 4820SOL    HW126096   3.498   0.242  11.725 -0.1606 -0.1430 -1.1611
 4820SOL    HW226097   3.423   0.166  11.834  1.1254 -0.6987  0.5164
 4821SOL     OW26098   1.227   0.381   2.857 -0.2476  0.0575  0.1815
 4821SOL    HW126099   1.286   0.402   2.785  0.6975 -0.8538  0.7028
 4821SOL    HW226100   1.217   0.466   2.902  1.1162 -0.2088  0.9954
 4822SOL     OW26101   0.074   0.872  14.199 -0.0778  0.2296  0.4731
 4822SOL    HW126102   0.137   0.942  14.183  2.4102 -2.2271 -0.3981
 4822SOL    HW226103   0.121   0.789  14.194  0.3138  0.4455  0.5771
 4823SOL     OW26104   4.696   0.368   9.359 -0.6668  0.0769 -0.5729
 4823SOL    HW126105   4.638   0.357   9.434  1.0778  2.1432  1.0524
 4823SOL    HW226106   0.002   0.283   9.353 -1.3488 -0.3025 -0.3893
 4824SOL     OW26107   0.071   0.972   7.191 -0.1487  0.1155 -0.3887
 4824SOL    HW126108   0.048   0.881   7.178 -0.4285 -0.1263  1.6919
 4824SOL    HW226109   0.024   0.988   7.274  0.0060 -0.4637 -0.1931
 4825SOL     OW26110   0.875   2.069   0.935 -0.1163  0.4370 -0.2684
 4825SOL    HW126111   0.801   2.089   0.993 -0.9751 -0.0954 -1.1915
 4825SOL    HW226112   0.865   1.975   0.921 -1.6166  0.3038  1.6936
 4826SOL     OW26113   0.143   0.088   4.399 -0.8950  0.3299  0.4676
 4826SOL    HW126114   0.074   0.153   4.407 -0.8873  0.4758 -0.7175
 4826SOL    HW226115   0.083   0.016   4.414  0.1393 -0.1877  2.1434
 4827SOL     OW26116   3.632   2.522   6.117 -0.2200 -0.2190  0.2252
 4827SOL    HW126117   3.615   2.569   6.199 -1.8748  0.6340 -0.6209
 4827SOL    HW226118   3.705   2.574   6.083 -0.4490 -0.5576 -0.7805
 4828SOL     OW26119   4.510   1.312   1.911 -0.4027 -0.3782 -0.3074
 4828SOL    HW126120   4.506   1.235   1.854 -2.3520  0.6502 -1.5709
 4828SOL    HW226121   4.483   1.276   1.995  0.5892 -0.5007 -0.0488
 4829SOL     OW26122   0.915   2.992  16.520  0.2009 -0.0230 -0.5048
 4829SOL    HW126123   0.892   2.950  16.437 -0.6654  1.1090 -0.8350
 4829SOL    HW226124   0.836   2.985  16.573 -0.3531  1.2482 -1.1782
 4830SOL     OW26125   4.257   4.317   2.616  0.1497 -0.1987 -0.1124
 4830SOL    HW126126   4.286   4.342   2.528  0.3064 -1.9105 -0.5584
 4830SOL    HW226127   4.175   4.271   2.597 -0.8607  1.1588  1.0085
 4831SOL     OW26128   1.121   1.953   1.345  0.1978  0.0023 -0.6019
 4831SOL    HW126129   1.150   1.911   1.426  2.4323 -2.1553 -2.5150
 4831SOL    HW226130   1.033   1.987   1.360  0.2221 -0.6508  1.0105
 4832SOL     OW26131   2.553   1.091  11.091  0.0960 -0.4029  0.2047
 4832SOL    HW126132   2.607   1.169  11.096  1.9170 -1.5275 -1.8127
 4832SOL    HW226133   2.479   1.136  11.050 -1.3541 -3.2024 -0.2758
 4833SOL     OW26134   1.588   2.544  11.319 -0.1546 -0.7669  0.5282
 4833SOL    HW126135   1.651   2.613  11.298 -0.5731 -1.0649 -1.7109
 4833SOL    HW226136   1.563   2.554  11.411  2.1812  0.7677  1.0109
 4834SOL     OW26137   3.979   0.434   6.618 -0.4461  0.1571  0.1395
 4834SOL    HW126138   3.907   0.381   6.584  0.2344  0.3558 -1.5749
 4834SOL    HW226139   4.048   0.368   6.619  1.0260  1.6845 -0.6572
 4835SOL     OW26140   3.353   3.877   4.049  0.0024 -0.3744  0.0408
 4835SOL    HW126141   3.400   3.954   4.019 -2.4507  0.6762 -1.0434
 4835SOL    HW226142   3.399   3.855   4.131 -0.4696  3.1558  1.2331
 4836SOL     OW26143   2.866   1.599   0.029 -0.4291  0.0487  0.2459
 4836SOL    HW126144   2.938   1.646   0.072  0.7543 -0.9942 -0.5994
 4836SOL    HW226145   2.843   1.664  17.720 -0.8455 -1.5087 -1.1189
 4837SOL     OW26146   0.077   2.486   7.698 -0.1550  0.3476  0.1162
 4837SOL    HW126147   0.133   2.564   7.705 -1.1946  1.2845 -2.1475
 4837SOL    HW226148   0.056   2.473   7.606  1.5227 -2.1535  0.0955
 4838SOL     OW26149   4.438   4.678   4.090 -0.1587 -0.1343  0.3768
 4838SOL    HW126150   4.409   0.030   4.095 -1.3433 -0.3920 -1.3950
 4838SOL    HW226151   4.396   4.654   4.007  0.1507  1.7321 -0.3368
 4839SOL     OW26152   3.017   1.063   4.720 -0.2861 -0.0158  0.2862
 4839SOL    HW126153   3.102   1.104   4.705  0.2279 -1.0784  0.3099
 4839SOL    HW226154   3.035   0.976   4.755 -0.6988 -1.1295 -2.2438
 4840SOL     OW26155   0.272   0.209   1.441 -0.0655  0.0003 -0.0094
 4840SOL    HW126156   0.303   0.255   1.363 -1.8771 -0.8435 -1.2422
 4840SOL    HW226157   0.322   0.255   1.508 -1.2334  1.4557 -0.1218
 4841SOL     OW26158   3.399   0.116   9.000 -0.6049 -0.0068 -0.8187
 4841SOL    HW126159   3.486   0.155   9.010 -0.6234  0.3174 -1.9326
 4841SOL    HW226160   3.348   0.197   8.995  0.7255  0.9127  0.2241
 4842SOL     OW26161   3.879   2.535   2.949  0.1279 -0.7561  0.5933
 4842SOL    HW126162   3.967   2.516   2.982  0.7895 -1.2481 -1.4409
 4842SOL    HW226163   3.895   2.546   2.856  0.0461 -0.5260  0.6074
 4843SOL     OW26164   3.280   4.068  11.131 -0.0175 -0.1384 -0.4609
 4843SOL    HW126165   3.215   4.102  11.069 -0.5751 -2.0534 -0.9251
 4843SOL    HW226166   3.316   3.991  11.087 -0.1451 -0.9466  0.8668
 4844SOL     OW26167   2.128   3.523  11.922  0.2466  0.4686 -0.1892
 4844SOL    HW126168   2.146   3.561  12.008  1.3361  2.2427 -1.1839
 4844SOL    HW226169   2.203   3.564  11.879  1.7302 -1.3385  0.6967
 4845SOL     OW26170   2.830   1.594   1.771  0.0268 -0.8337  0.1603
 4845SOL    HW126171   2.836   1.533   1.844  1.9502 -0.8803 -0.0233
 4845SOL    HW226172   2.919   1.630   1.779 -0.1500 -0.6575  1.3559
 4846SOL     OW26173   4.403   0.464  15.310  0.2459  0.6652 -0.6603
 4846SOL    HW126174   4.499   0.472  15.304  0.2209  0.3207 -1.4380
 4846SOL    HW226175   4.380   0.378  15.276  0.0480  1.1773 -1.8002
 4847SOL     OW26176   4.165   3.019   7.183 -0.1287  0.3412  0.3787
 4847SOL    HW126177   4.187   3.059   7.268  1.4142  0.5057 -0.1016
 4847SOL    HW226178   4.092   2.961   7.204  0.8898 -1.3321 -0.7281
 4848SOL     OW26179   1.539   4.606   2.432  0.0598  0.0069 -0.3591
 4848SOL    HW126180   1.624   4.648   2.446  1.4196 -2.0096 -2.5776
 4848SOL    HW226181   1.482   4.677   2.464 -0.0036  0.9375 -2.5462
 4849SOL     OW26182   1.845   0.793   7.921 -0.0364 -0.4083 -0.1329
 4849SOL    HW126183   1.783   0.728   7.955  1.1953 -2.1152 -1.0983
 4849SOL    HW226184   1.826   0.862   7.984 -1.5658 -0.7686 -0.2129
 4850SOL     OW26185   4.068   3.664   3.188  0.4775 -0.1463 -0.4175
 4850SOL    HW126186   4.100   3.659   3.278 -0.0054  0.6804 -0.1996
 4850SOL    HW226187   4.123   3.596   3.148  0.9782  0.0561 -0.0780
 4851SOL     OW26188   0.749   3.314   2.470  0.1424 -0.2750  0.3351
 4851SOL    HW126189   0.689   3.277   2.405  0.5744  0.0867 -0.2789
 4851SOL    HW226190   0.820   3.250   2.463 -0.0653 -0.2831 -1.9055
 4852SOL     OW26191   0.438   1.113   9.899  0.1948  0.2080  0.2308
 4852SOL    HW126192   0.382   1.060   9.957  1.4506  1.3532  2.4704
 4852SOL    HW226193   0.375   1.165   9.849 -0.0227 -1.3533 -1.1175
 4853SOL     OW26194   1.471   2.675   1.257  0.3058  0.1031  0.5409
 4853SOL    HW126195   1.530   2.722   1.315  0.2683  1.6698 -0.6869
 4853SOL    HW226196   1.536   2.628   1.204 -0.5462 -0.4468 -0.0185
 4854SOL     OW26197   1.078   3.382  14.270  1.1041 -0.0396 -0.1554
 4854SOL    HW126198   1.042   3.316  14.330  0.3838 -1.3390 -2.0388
 4854SOL    HW226199   1.148   3.413  14.328  1.6505  0.3256 -1.0147
 4855SOL     OW26200   3.662   1.862   5.655  0.5344 -0.6043 -0.1661
 4855SOL    HW126201   3.615   1.822   5.728  1.6252 -0.5665  0.5522
 4855SOL    HW226202   3.754   1.853   5.679  0.5779 -0.1092 -0.1383
 4856SOL     OW26203   4.084   1.977   4.711 -0.1159  0.5926 -0.2511
 4856SOL    HW126204   4.111   1.918   4.782 -0.8996 -0.3124 -0.7117
 4856SOL    HW226205   4.069   2.048   4.773 -0.7744  0.3309 -0.1163
 4857SOL     OW26206   1.286   1.281   9.332 -0.1422  0.0120  0.5696
 4857SOL    HW126207   1.228   1.328   9.272  0.1544 -1.3733 -0.8010
 4857SOL    HW226208   1.302   1.204   9.277  0.3588 -1.5344  2.8912
 4858SOL     OW26209   3.699   1.159   1.776  0.4447  0.3525  0.4465
 4858SOL    HW126210   3.750   1.238   1.757 -0.8547  0.9443 -0.5484
 4858SOL    HW226211   3.615   1.203   1.768  0.4743  0.3559  0.1307
 4859SOL     OW26212   3.675   0.732   1.844  0.2217  0.1610 -0.6229
 4859SOL    HW126213   3.661   0.782   1.764  1.0961 -0.7275 -1.3224
 4859SOL    HW226214   3.588   0.703   1.870  0.3843  0.4809  0.3053
 4860SOL     OW26215   1.616   1.916   1.409 -0.2040  0.3168  0.1115
 4860SOL    HW126216   1.701   1.874   1.426  0.6639  0.9752 -2.5545
 4860SOL    HW226217   1.603   1.890   1.318  0.6387 -1.8534  0.5953
 4861SOL     OW26218   1.788   3.109  11.828  0.2758  0.1785 -0.1916
 4861SOL    HW126219   1.729   3.161  11.773 -0.8151 -0.8973 -0.0501
 4861SOL    HW226220   1.785   3.159  11.910 -1.7936  0.3698 -0.3717
 4862SOL     OW26221   4.416   0.714   3.099  0.2318  0.1900 -0.5462
 4862SOL    HW126222   4.324   0.695   3.116  0.1370  0.8941 -0.2845
 4862SOL    HW226223   4.452   0.646   3.157 -1.1503 -0.3582 -0.3425
 4863SOL     OW26224   1.951   0.564   4.671 -0.6277  0.1221 -0.7285
 4863SOL    HW126225   1.930   0.603   4.756 -1.3892  1.5416 -1.5644
 4863SOL    HW226226   2.043   0.538   4.673 -0.4196  1.0629  1.1714
 4864SOL     OW26227   1.654   4.462   0.067  0.2272 -0.5460  0.9040
 4864SOL    HW126228   1.648   4.448  17.731  1.2853  2.2727  0.4220
 4864SOL    HW226229   1.573   4.418   0.091  2.1948 -2.7159  3.7133
 4865SOL     OW26230   3.665   4.731   5.116  0.0971  0.3696  0.3743
 4865SOL    HW126231   3.713   0.074   5.122 -0.3608  0.8227 -1.9670
 4865SOL    HW226232   3.696   4.692   5.197  0.9429 -0.6698 -0.4445
 4866SOL     OW26233   4.492   2.205  15.080 -0.3182 -0.3799 -0.1451
 4866SOL    HW126234   4.534   2.160  15.007  0.4345  1.3216 -0.7400
 4866SOL    HW226235   4.536   2.147  15.143 -1.3789  2.1942  2.9664
 4867SOL     OW26236   2.225   0.637  11.716 -0.0157 -0.5563 -0.1616
 4867SOL    HW126237   2.200   0.625  11.808 -0.1239 -0.8789 -0.2324
 4867SOL    HW226238   2.310   0.595  11.709  0.1800 -0.3696  0.9937
 4868SOL     OW26239   4.730   0.522  13.504 -0.6002  0.5915 -0.1306
 4868SOL    HW126240   0.069   0.510  13.557  0.8666  1.5802 -2.1033
 4868SOL    HW226241   4.655   0.519  13.563  0.5122 -0.3456  1.2508
 4869SOL     OW26242   1.307   3.971  11.523  0.4158 -0.2220 -0.2141
 4869SOL    HW126243   1.306   3.876  11.526 -0.8863 -0.2718 -2.2338
 4869SOL    HW226244   1.355   3.985  11.605 -1.5880  0.6576  0.8278
 4870SOL     OW26245   4.114   4.670   6.128 -0.2102 -0.6319 -0.2383
 4870SOL    HW126246   4.116   4.575   6.136  2.4955 -0.5704  0.0062
 4870SOL    HW226247   4.149   4.696   6.213 -2.5131  1.0509  0.1698
 4871SOL     OW26248   4.176   0.229   6.440 -0.2952  0.6216 -0.2652
 4871SOL    HW126249   4.235   0.304   6.444  0.1422  0.3367 -1.3489
 4871SOL    HW226250   4.157   0.241   6.347 -0.9556  0.8029 -0.1016
 4872SOL     OW26251   3.061   0.957   1.211  0.0022  0.7879  0.0491
 4872SOL    HW126252   3.029   0.989   1.127  0.0418 -1.9681 -1.0135
 4872SOL    HW226253   2.985   0.900   1.223 -0.5130  1.6323  0.8221
 4873SOL     OW26254   1.803   3.171   7.140 -0.4924 -0.3006  0.0596
 4873SOL    HW126255   1.818   3.086   7.182 -1.2638 -0.3993  0.1486
 4873SOL    HW226256   1.714   3.191   7.169 -0.0576 -0.0061  1.2049
 4874SOL     OW26257   3.393   0.344   7.338 -0.3923 -0.2063 -0.2806
 4874SOL    HW126258   3.309   0.309   7.311 -1.2943 -0.5623  3.0573
 4874SOL    HW226259   3.397   0.330   7.432  0.3505 -0.0127 -0.2791
 4875SOL     OW26260   1.606   2.492   6.761 -0.5896 -0.6933 -0.1985
 4875SOL    HW126261   1.565   2.549   6.696  0.2182 -2.2686 -2.1169
 4875SOL    HW226262   1.617   2.559   6.827 -1.2974  0.7515 -1.5563
 4876SOL     OW26263   1.051   4.452   6.632 -0.2784  0.0777 -0.1487
 4876SOL    HW126264   1.011   4.407   6.558  0.3267  1.7861 -1.5362
 4876SOL    HW226265   1.002   4.535   6.627  0.3617  0.5518  1.5751
 4877SOL     OW26266   3.997   4.629   5.142 -0.1902 -0.1146  0.3322
 4877SOL    HW126267   3.955   4.578   5.211  1.0449 -0.1385  1.0590
 4877SOL    HW226268   3.970   4.575   5.068  1.6841 -0.5476 -0.0228
 4878SOL     OW26269   2.140   3.173   8.828 -0.2944  0.5638 -0.7030
 4878SOL    HW126270   2.053   3.211   8.834 -0.4859 -0.1051  0.7488
 4878SOL    HW226271   2.198   3.244   8.801 -0.3303  0.8889  0.0874
 4879SOL     OW26272   2.138   0.887  10.274 -0.1104  0.6119 -0.8510
 4879SOL    HW126273   2.214   0.905  10.329 -0.4729 -0.4683 -0.0115
 4879SOL    HW226274   2.166   0.808  10.229  1.6067 -0.6490  2.4994
 4880SOL     OW26275   2.332   4.298  13.903 -0.2999  0.1899  0.2881
 4880SOL    HW126276   2.418   4.262  13.924 -0.7990 -1.8327 -1.0718
 4880SOL    HW226277   2.304   4.324  13.991  2.9735  0.7695  1.1545
 4881SOL     OW26278   0.986   4.533  17.188 -0.1399  0.1861  0.6217
 4881SOL    HW126279   0.911   4.575  17.145  0.4235  1.9430  1.3349
 4881SOL    HW226280   1.004   4.462  17.128 -2.2057  0.7228 -0.6463
 4882SOL     OW26281   4.613   2.763   9.486  0.1183  0.3152  0.2753
 4882SOL    HW126282   4.700   2.802   9.481  0.4808 -0.7505 -2.0578
 4882SOL    HW226283   4.552   2.836   9.489  1.0243  1.1388 -1.4511
 4883SOL     OW26284   1.086   1.331   6.509  0.0532 -0.7853 -0.0586
 4883SOL    HW126285   1.172   1.352   6.472 -0.1465  1.7171  0.9638
 4883SOL    HW226286   1.036   1.330   6.427 -1.1966 -0.6792  0.6992
 4884SOL     OW26287   0.515   3.880   2.642 -0.6573 -0.4750 -0.1636
 4884SOL    HW126288   0.560   3.802   2.675  2.3572  1.4273  0.2278
 4884SOL    HW226289   0.523   3.863   2.548 -0.6764  0.2486 -0.2932
 4885SOL     OW26290   0.300   3.689  13.550  0.2563 -0.9234  0.1785
 4885SOL    HW126291   0.314   3.626  13.480  1.7698  0.2635 -0.5890
 4885SOL    HW226292   0.205   3.676  13.551  0.2820 -1.1385 -1.1661
 4886SOL     OW26293   2.976   2.931   5.298 -0.3830  0.3226 -0.1962
 4886SOL    HW126294   2.914   2.980   5.351  1.4941  3.1455 -0.5775
 4886SOL    HW226295   2.978   2.845   5.340  0.0865  0.2104 -0.4500
 4887SOL     OW26296   4.590   0.521   6.238  0.7013 -0.6445  0.1665
 4887SOL    HW126297   4.558   0.461   6.170  1.9699 -1.8764  0.6368
 4887SOL    HW226298   4.680   0.535   6.206  0.5417 -0.4284 -0.1907
 4888SOL     OW26299   3.016   1.195   2.487  0.2082  0.6005  0.5724
 4888SOL    HW126300   2.986   1.129   2.550  1.9818 -0.6617  0.0945
 4888SOL    HW226301   3.049   1.131   2.423  1.0696  2.1019 -0.4868
 4889SOL     OW26302   0.097   1.928   5.880  0.3437 -0.5432  0.5079
 4889SOL    HW126303   0.046   1.934   5.961 -0.0235  0.2713  0.2116
 4889SOL    HW226304   0.156   1.855   5.901  2.6603  0.9496 -0.8375
 4890SOL     OW26305   3.115   0.103   6.889  0.4706 -0.3941  0.8424
 4890SOL    HW126306   3.090   0.134   6.976 -0.8493 -3.3687  1.5176
 4890SOL    HW226307   3.195   0.151   6.868 -0.0820 -0.0961 -0.6395
 4891SOL     OW26308   4.439   1.169   6.964  0.1940 -0.0610 -0.5753
 4891SOL    HW126309   4.401   1.180   6.877 -2.0653  1.5017  0.6046
 4891SOL    HW226310   4.514   1.123   6.928 -0.3015 -0.2325 -1.3968
 4892SOL     OW26311   3.726   2.526   1.478 -0.6051  0.4956 -0.1928
 4892SOL    HW126312   3.727   2.450   1.421 -2.1366  0.3566 -0.0297
 4892SOL    HW226313   3.734   2.480   1.561  0.1534  0.5069 -0.2604
 4893SOL     OW26314   1.694   4.176   4.600 -0.1224 -0.0721 -0.3815
 4893SOL    HW126315   1.727   4.257   4.560 -1.3785 -0.2844 -1.8405
 4893SOL    HW226316   1.655   4.203   4.683  0.2490 -0.3854 -0.1020
 4894SOL     OW26317   1.014   2.287   8.273 -0.7364  0.1161  0.3304
 4894SOL    HW126318   1.062   2.204   8.268  1.2029  1.3087 -0.5632
 4894SOL    HW226319   1.038   2.315   8.361 -0.5822 -3.4318  1.4213
 4895SOL     OW26320   2.643   3.698   4.618  0.2287  0.3480  0.1889
 4895SOL    HW126321   2.557   3.666   4.646  0.2743 -0.3768 -0.4873
 4895SOL    HW226322   2.707   3.642   4.662  2.1153  1.2005 -1.4696
 4896SOL     OW26323   1.873   1.283  12.159  0.7979  0.2053  0.0960
 4896SOL    HW126324   1.782   1.263  12.179  0.9936 -0.8069  0.0176
 4896SOL    HW226325   1.917   1.259  12.241  1.6366  1.3387 -0.0283
 4897SOL     OW26326   0.626   4.717  17.318 -0.5153 -0.2627  0.1387
 4897SOL    HW126327   0.541   4.703  17.275  0.2484 -3.4032 -0.2955
 4897SOL    HW226328   0.607   4.665  17.396 -1.9683 -0.7318 -0.5249
 4898SOL     OW26329   1.895   4.484  15.349 -0.9820 -0.0387 -0.0351
 4898SOL    HW126330   1.801   4.488  15.364 -0.8231  0.7138  0.6913
 4898SOL    HW226331   1.925   4.472  15.439 -1.6972 -3.2669 -0.2343
 4899SOL     OW26332   3.155   0.103   9.614 -0.0956 -0.3726 -0.7668
 4899SOL    HW126333   3.239   0.103   9.659  0.3385  0.0066 -1.5679
 4899SOL    HW226334   3.091   0.097   9.685  1.8413  0.0075  0.9912
 4900SOL     OW26335   3.141   3.775   2.001 -0.3559 -0.0649  0.3112
 4900SOL    HW126336   3.185   3.847   2.046 -0.1674 -1.2986  2.1005
 4900SOL    HW226337   3.068   3.766   2.062 -1.5817 -0.5760 -1.2135
 4901SOL     OW26338   4.585   3.008   1.264 -0.1720 -0.3547 -0.0540
 4901SOL    HW126339   4.622   3.051   1.187 -1.4627  1.5294  0.3844
 4901SOL    HW226340   4.657   3.024   1.325  0.5780 -0.6337 -0.8728
 4902SOL     OW26341   1.598   3.588  11.366 -0.4959  0.0023  0.1728
 4902SOL    HW126342   1.654   3.523  11.410  1.3322  2.1888  1.0822
 4902SOL    HW226343   1.653   3.598  11.288  0.4274 -2.3543  0.5252
 4903SOL     OW26344   3.332   1.289   7.485 -0.2986 -0.6451 -0.6333
 4903SOL    HW126345   3.372   1.205   7.512  2.8769  0.1046 -2.9727
 4903SOL    HW226346   3.287   1.258   7.407  1.2276 -2.0536 -0.9720
 4904SOL     OW26347   4.351   3.013   6.989  0.0784  0.5813 -0.2099
 4904SOL    HW126348   4.294   2.969   6.927  0.4360  1.0123 -0.8472
 4904SOL    HW226349   4.291   3.030   7.061 -0.3765 -1.1422 -0.1918
 4905SOL     OW26350   4.715   3.967  10.561  0.0999 -0.4894 -0.6352
 4905SOL    HW126351   4.721   4.062  10.558  1.4889 -0.4904  2.6430
 4905SOL    HW226352   0.029   3.944  10.637  1.3257  2.7744 -0.5082
 4906SOL     OW26353   3.292   2.318   5.581  0.1265  0.0160  0.1117
 4906SOL    HW126354   3.362   2.376   5.610 -1.4198  1.2305  1.3842
 4906SOL    HW226355   3.313   2.227   5.604  0.0889 -0.4268 -1.5510
 4907SOL     OW26356   0.711   3.268   7.911  0.1619 -0.6589 -0.1581
 4907SOL    HW126357   0.750   3.350   7.942 -2.2633  0.1912  0.6122
 4907SOL    HW226358   0.689   3.230   7.996  1.3415 -2.7788 -0.8207
 4908SOL     OW26359   3.772   2.398   2.426 -0.8924  0.6752 -0.4576
 4908SOL    HW126360   3.719   2.370   2.350 -0.0724 -1.9145 -0.0671
 4908SOL    HW226361   3.763   2.493   2.432 -1.2375  0.4956  1.9678
 4909SOL     OW26362   0.391   3.933  12.350  0.3097  0.1481  0.2730
 4909SOL    HW126363   0.445   4.007  12.322  1.2992 -0.1305  1.4233
 4909SOL    HW226364   0.449   3.856  12.352  0.0354 -0.0518  0.4750
 4910SOL     OW26365   1.232   0.557   6.158  0.4823 -0.1978  0.5081
 4910SOL    HW126366   1.157   0.599   6.199 -0.0565 -1.1298  0.4726
 4910SOL    HW226367   1.281   0.532   6.236  0.4970 -1.8845 -0.0474
 4911SOL     OW26368   1.956   1.268   3.581 -0.0336  0.1846  0.1555
 4911SOL    HW126369   1.963   1.210   3.658  2.6356  0.0035 -0.2223
 4911SOL    HW226370   1.931   1.199   3.519  0.6906 -1.3944  1.6065
 4912SOL     OW26371   0.336   3.642   1.873  0.3889 -0.7167  0.1477
 4912SOL    HW126372   0.315   3.642   1.780  0.5649 -1.6628  0.1104
 4912SOL    HW226373   0.428   3.668   1.881  0.0677  0.8989 -1.4305
 4913SOL     OW26374   3.541   4.544   6.716 -0.2105  0.2004 -0.1739
 4913SOL    HW126375   3.626   4.515   6.684 -0.2230  0.4014 -0.3879
 4913SOL    HW226376   3.531   4.498   6.800 -0.7527  2.1513  0.8143
 4914SOL     OW26377   0.828   2.333   6.284 -0.3013 -0.0434 -0.8150
 4914SOL    HW126378   0.804   2.407   6.339 -0.4028 -1.7639  1.4472
 4914SOL    HW226379   0.762   2.334   6.214  0.1266  2.7271 -1.1921
 4915SOL     OW26380   4.153   1.988   6.927  0.5935  0.0662  0.7885
 4915SOL    HW126381   4.073   2.024   6.968  0.9495 -1.0439  2.4382
 4915SOL    HW226382   4.206   1.969   7.004 -0.3130  0.4474  1.5174
 4916SOL     OW26383   4.615   1.130   4.482  0.4752 -0.4494 -0.6917
 4916SOL    HW126384   4.543   1.112   4.542 -0.2238  1.3915 -0.9839
 4916SOL    HW226385   4.690   1.103   4.536 -0.3706  0.4055  0.9029
 4917SOL     OW26386   1.786   0.747   6.541 -0.3565 -0.1258  0.0212
 4917SOL    HW126387   1.776   0.695   6.462 -0.1813  1.8511 -1.2949
 4917SOL    HW226388   1.692   0.752   6.557 -0.6423 -1.8184 -1.0535
 4918SOL     OW26389   3.919   1.420   8.625 -0.4050  0.4553  0.6324
 4918SOL    HW126390   3.831   1.417   8.661 -0.1942  0.0453  1.1204
 4918SOL    HW226391   3.947   1.507   8.653  2.2651  0.1595 -1.1159
 4919SOL     OW26392   3.640   0.564   9.440 -0.0269 -0.6544 -0.1048
 4919SOL    HW126393   3.651   0.580   9.347  1.1427 -1.6752 -0.1251
 4919SOL    HW226394   3.647   0.469   9.446  0.8056 -0.7607 -2.9746
 4920SOL     OW26395   4.329   2.994   2.406  0.5514  0.3434  0.3128
 4920SOL    HW126396   4.294   2.939   2.476  0.7844  0.4297  0.4919
 4920SOL    HW226397   4.352   2.924   2.345 -1.9707  1.4376 -1.9263
 4921SOL     OW26398   0.168   1.521  16.020  0.0289  0.3479 -0.4982
 4921SOL    HW126399   0.110   1.563  15.956 -1.1058  0.2229  0.4486
 4921SOL    HW226400   0.245   1.577  16.012  1.2392 -0.8442  3.1532
 4922SOL     OW26401   0.701   2.983   2.305  0.2258  0.4508  0.0297
 4922SOL    HW126402   0.644   2.940   2.369 -1.1804 -0.5359 -1.8481
 4922SOL    HW226403   0.785   2.939   2.294  0.8854  1.8009 -0.4065
 4923SOL     OW26404   3.594   2.148   7.915 -0.2879 -0.1623 -0.6625
 4923SOL    HW126405   3.678   2.187   7.893  0.4706 -0.0822  2.3247
 4923SOL    HW226406   3.568   2.116   7.829 -0.8642  0.4396 -0.7186
 4924SOL     OW26407   0.104   3.727   6.576  0.3917  0.3304 -0.5875
 4924SOL    HW126408   0.176   3.770   6.621 -1.4233 -0.3327  2.9806
 4924SOL    HW226409   0.154   3.686   6.506 -0.2530 -0.0817 -0.8113
 4925SOL     OW26410   0.782   0.141   0.675  0.2147 -0.3136 -0.0446
 4925SOL    HW126411   0.736   0.085   0.613 -0.6388 -2.0893  2.2207
 4925SOL    HW226412   0.722   0.145   0.749 -0.7790  1.5224 -0.9613
 4926SOL     OW26413   0.383   3.633   1.309  0.3697 -0.3985 -0.0263
 4926SOL    HW126414   0.390   3.698   1.240  1.2065 -1.3026 -0.7958
 4926SOL    HW226415   0.291   3.608   1.305  0.6953 -1.8010  1.0845
 4927SOL     OW26416   4.513   1.986   1.648 -0.4810 -0.4146 -0.3539
 4927SOL    HW126417   4.595   1.937   1.655  0.0592  0.6585  0.7936
 4927SOL    HW226418   4.502   1.956   1.558  0.2416  0.4046 -0.7128
 4928SOL     OW26419   1.302   1.009   8.066  0.3619  0.4482 -0.4453
 4928SOL    HW126420   1.284   0.926   8.110 -0.5504  0.7510 -0.2388
 4928SOL    HW226421   1.243   1.003   7.991  0.1657  0.7509 -0.3124
 4929SOL     OW26422   2.676   2.142   7.475 -0.0801 -0.0675  0.9300
 4929SOL    HW126423   2.596   2.193   7.492 -0.8120 -1.2428  1.0126
 4929SOL    HW226424   2.692   2.090   7.554  0.2117 -1.7561 -0.2388
 4930SOL     OW26425   2.834   2.451   6.400 -0.4055  0.8809 -0.4381
 4930SOL    HW126426   2.809   2.359   6.398  0.0407  0.7677 -1.0468
 4930SOL    HW226427   2.752   2.492   6.373 -0.2515  0.6599 -1.2450
 4931SOL     OW26428   3.919   0.686   2.322 -0.6140 -0.2485 -0.2932
 4931SOL    HW126429   3.863   0.720   2.252  0.4529  1.2814 -0.4019
 4931SOL    HW226430   3.902   0.595   2.298 -0.5373 -0.1061 -0.8879
 4932SOL     OW26431   4.450   1.971   5.952  0.4571 -0.0819  0.3339
 4932SOL    HW126432   4.525   1.993   6.007  1.4011  0.0388 -1.0135
 4932SOL    HW226433   4.477   2.024   5.877  0.9064  1.0828  1.3244
 4933SOL     OW26434   2.652   0.179  14.213 -0.5689  0.2467 -0.1319
 4933SOL    HW126435   2.670   0.240  14.284 -0.9984 -0.2095  0.3735
 4933SOL    HW226436   2.740   0.166  14.179 -1.3551 -1.1827 -1.6184
 4934SOL     OW26437   2.082   3.888   2.280  0.2150  0.3424 -0.5822
 4934SOL    HW126438   2.095   3.958   2.217 -1.8490  0.7886 -0.5222
 4934SOL    HW226439   2.028   3.933   2.345  2.0429  1.7793 -0.0866
 4935SOL     OW26440   1.238   1.013   4.899 -0.3304 -0.2037  0.2757
 4935SOL    HW126441   1.240   0.921   4.873  1.5068 -0.7231  2.2176
 4935SOL    HW226442   1.178   1.012   4.974 -1.8233  1.4419 -0.9055
 4936SOL     OW26443   4.201   3.212   8.303  0.1766  0.0169 -0.0977
 4936SOL    HW126444   4.142   3.194   8.229  1.9739 -0.3577 -1.4419
 4936SOL    HW226445   4.157   3.294   8.327  1.7658  0.2662  1.8910
 4937SOL     OW26446   1.911   3.953   4.418 -0.1761  0.0597  0.0873
 4937SOL    HW126447   1.900   3.993   4.504  1.5462 -0.0112  0.3443
 4937SOL    HW226448   1.854   4.005   4.361  0.5696  0.5629 -0.1977
 4938SOL     OW26449   4.353   2.554   7.555 -0.0798  0.1964 -0.1468
 4938SOL    HW126450   4.370   2.559   7.461  0.5499  1.2477  0.0231
 4938SOL    HW226451   4.262   2.527   7.546  0.0504 -0.0973 -0.5741
 4939SOL     OW26452   2.348   3.712   4.626  0.2097 -0.8698 -0.0910
 4939SOL    HW126453   2.349   3.723   4.531 -1.2264 -1.7879 -0.2081
 4939SOL    HW226454   2.316   3.623   4.639  1.8626 -1.3253  0.8641
 4940SOL     OW26455   2.854   3.436   1.623 -0.1302 -0.3536  0.2320
 4940SOL    HW126456   2.909   3.382   1.566  1.2575  2.1344 -0.8046
 4940SOL    HW226457   2.777   3.380   1.620 -0.4127  0.0423  0.1830
 4941SOL     OW26458   0.818   0.081   4.772  0.1380  0.1447 -0.2395
 4941SOL    HW126459   0.769   0.093   4.690  0.1635 -1.2704 -0.4545
 4941SOL    HW226460   0.749   0.074   4.837 -0.0236 -0.5252 -0.4825
 4942SOL     OW26461   2.880   0.075   2.693  0.0644  0.1076  0.1919
 4942SOL    HW126462   2.913   0.069   2.783  1.0135 -0.2941 -0.1830
 4942SOL    HW226463   2.788   0.055   2.709 -0.3071 -2.2334 -5.0141
 4943SOL     OW26464   0.089   3.910   8.277  0.1161  0.6309 -0.1628
 4943SOL    HW126465   0.005   3.886   8.236  1.5671  0.3529 -3.0036
 4943SOL    HW226466   0.058   3.865   8.356 -0.5246  0.8051 -0.3131
 4944SOL     OW26467   3.329   1.750   1.307 -0.3317 -0.2228  0.0536
 4944SOL    HW126468   3.355   1.663   1.276  1.8396  0.6110 -0.4333
 4944SOL    HW226469   3.401   1.779   1.364 -1.2241  1.2075  0.4398
 4945SOL     OW26470   0.706   2.223   7.580 -0.1183 -0.1309 -0.0208
 4945SOL    HW126471   0.721   2.267   7.663 -0.1906  0.7890 -0.5039
 4945SOL    HW226472   0.696   2.298   7.522  0.1103 -1.3519 -1.6575
 4946SOL     OW26473   0.566   3.487  12.854 -0.0836  0.0156 -0.1672
 4946SOL    HW126474   0.591   3.433  12.779 -0.2477 -3.0105  1.9341
 4946SOL    HW226475   0.580   3.575  12.821  1.2318 -0.2932 -0.4201
 4947SOL     OW26476   0.793   1.867   6.991 -0.2353  0.2356 -0.1357
 4947SOL    HW126477   0.701   1.839   6.994 -0.5402  1.3006  0.5971
 4947SOL    HW226478   0.784   1.958   6.966  1.6849  0.2569 -0.7380
 4948SOL     OW26479   0.477   0.348   8.978 -0.2349  0.4409 -0.3530
 4948SOL    HW126480   0.485   0.301   9.061  0.1795  0.1510 -0.5634
 4948SOL    HW226481   0.560   0.331   8.935 -0.2723  0.6252 -0.4999
 4949SOL     OW26482   3.655   3.427   3.203  0.3378 -0.5249  0.2194
 4949SOL    HW126483   3.636   3.333   3.194  0.0689 -0.5887  1.4363
 4949SOL    HW226484   3.660   3.456   3.112  3.3319  2.1356  1.2210
 4950SOL     OW26485   2.675   0.565   1.802 -0.1037  0.0261  0.8474
 4950SOL    HW126486   2.680   0.471   1.823 -1.8785 -0.4602 -0.8974
 4950SOL    HW226487   2.711   0.603   1.881 -0.2936 -0.5415  1.2090
 4951SOL     OW26488   0.177   2.654   2.688  0.4268 -0.3352  0.2677
 4951SOL    HW126489   0.139   2.734   2.653  0.9861 -0.3865 -0.4467
 4951SOL    HW226490   0.133   2.646   2.773  1.6521 -0.1795  0.9176
 4952SOL     OW26491   3.596   2.288   0.915 -0.4801 -0.0343  0.0980
 4952SOL    HW126492   3.563   2.237   0.989  1.4696 -0.1629  0.8760
 4952SOL    HW226493   3.673   2.234   0.898 -0.7071 -0.1791 -0.4527
 4953SOL     OW26494   2.881   1.456  12.469  0.3804  0.6060 -0.1315
 4953SOL    HW126495   2.874   1.536  12.522 -1.8322  0.9615 -0.9273
 4953SOL    HW226496   2.882   1.498  12.383  0.6404  1.8981  0.4993
 4954SOL     OW26497   1.026   0.568   5.758  0.2283  0.2211  0.0022
 4954SOL    HW126498   1.088   0.495   5.756 -0.8204 -0.6987  0.9824
 4954SOL    HW226499   1.033   0.604   5.670 -0.5643  0.1814 -0.0720
 4955SOL     OW26500   1.058   3.770   5.312 -1.0819  0.4504  0.3049
 4955SOL    HW126501   1.068   3.675   5.310  1.6322  0.7203  1.0347
 4955SOL    HW226502   1.140   3.792   5.356  0.0091 -0.7319 -1.1043
 4956SOL     OW26503   4.263   2.375   4.264 -0.5453 -0.1602 -0.3043
 4956SOL    HW126504   4.196   2.420   4.316 -0.2341  0.9331 -0.8317
 4956SOL    HW226505   4.329   2.445   4.256 -0.3406 -0.5832 -2.1669
 4957SOL     OW26506   2.373   2.068   6.022 -0.3679 -0.2628  0.1133
 4957SOL    HW126507   2.302   2.132   6.017 -1.2226 -1.2582 -0.4651
 4957SOL    HW226508   2.402   2.063   5.931  0.5720  3.7512  0.2015
 4958SOL     OW26509   3.059   1.603  17.193 -0.2952 -0.1415  0.2988
 4958SOL    HW126510   3.077   1.659  17.118  2.3979 -0.1090  0.9483
 4958SOL    HW226511   3.000   1.532  17.169 -0.1844  0.3972 -1.5191
 4959SOL     OW26512   4.595   2.291   3.520  0.2681 -0.0917  0.1895
 4959SOL    HW126513   4.641   2.298   3.604 -0.1085  1.9872  0.2400
 4959SOL    HW226514   4.516   2.250   3.554  0.0904  1.3660  1.5483
 4960SOL     OW26515   1.436   1.360   6.558  0.2818  0.4983  0.1841
 4960SOL    HW126516   1.518   1.408   6.545 -0.4986  0.9998 -2.9928
 4960SOL    HW226517   1.373   1.428   6.535 -0.3804 -0.5430 -1.1158
 4961SOL     OW26518   2.125   0.104   5.655 -0.0040  0.1273 -0.3613
 4961SOL    HW126519   2.057   0.151   5.704 -0.5210 -0.7823 -0.2136
 4961SOL    HW226520   2.198   0.150   5.697 -1.0143 -2.1850  3.9334
 4962SOL     OW26521   2.657   3.886   3.383 -0.4829 -0.0215 -0.2647
 4962SOL    HW126522   2.702   3.828   3.323 -2.7539 -0.1387 -1.8616
 4962SOL    HW226523   2.648   3.846   3.470  3.6606  0.7491  0.5260
 4963SOL     OW26524   1.682   0.599   4.055 -0.3288 -0.4063  0.4825
 4963SOL    HW126525   1.727   0.559   4.129  1.3254 -1.5332 -1.1182
 4963SOL    HW226526   1.758   0.597   3.998  0.4290  0.0625  1.4869
 4964SOL     OW26527   3.422   2.054   4.471  0.5767  0.0587 -0.1433
 4964SOL    HW126528   3.501   2.105   4.485 -0.4895  1.4766  0.8071
 4964SOL    HW226529   3.365   2.093   4.538  0.5918  0.2835 -0.2599
 4965SOL     OW26530   0.682   1.658  12.665 -0.0300  0.0036  0.6660
 4965SOL    HW126531   0.605   1.640  12.612 -0.2481  0.0791  0.9574
 4965SOL    HW226532   0.752   1.624  12.609  1.0209  0.0598  1.9417
 4966SOL     OW26533   1.131   4.038   8.693  0.5696 -0.2055  0.1144
 4966SOL    HW126534   1.087   3.955   8.705 -0.7878  0.3045 -1.3319
 4966SOL    HW226535   1.178   4.017   8.612 -0.1999 -1.9372  0.1389
 4967SOL     OW26536   1.977   4.685   3.153 -0.0780  0.3501  0.6526
 4967SOL    HW126537   2.052   0.002   3.137  0.8236 -1.1066 -0.2901
 4967SOL    HW226538   1.911   0.008   3.126 -0.3025 -1.1804 -2.3289
 4968SOL     OW26539   2.256   1.567   5.420  0.3789  0.0054 -0.0617
 4968SOL    HW126540   2.210   1.608   5.492  0.1980 -0.8185  0.2926
 4968SOL    HW226541   2.342   1.609   5.416 -0.2348  1.2350 -0.1668
 4969SOL     OW26542   4.274   0.827  16.148 -0.5194 -0.3342  0.0368
 4969SOL    HW126543   4.217   0.875  16.088  0.5205  1.7255  0.6651
 4969SOL    HW226544   4.293   0.906  16.200 -0.3993  0.3533 -1.0601
 4970SOL     OW26545   4.713   4.049  11.077 -0.1196 -0.2045  0.4514
 4970SOL    HW126546   4.637   4.056  11.135 -2.3970 -2.4285 -2.2395
 4970SOL    HW226547   0.040   4.058  11.144  0.8296  1.2360 -0.6677
 4971SOL     OW26548   1.750   4.134   2.060  0.0600 -0.2506  0.0641
 4971SOL    HW126549   1.819   4.199   2.050 -0.4654  0.2647 -0.1443
 4971SOL    HW226550   1.748   4.126   2.155 -1.5376  1.7360  0.1788
 4972SOL     OW26551   0.942   2.033   2.777 -0.5432 -0.1093  0.4796
 4972SOL    HW126552   0.914   1.942   2.788 -0.8098  0.1810  2.1780
 4972SOL    HW226553   0.880   2.070   2.839 -0.9278  0.3450 -0.1716
 4973SOL     OW26554   0.684   1.662   8.735  0.5998  0.0864 -0.4819
 4973SOL    HW126555   0.772   1.659   8.699  1.4948  0.3534  1.6422
 4973SOL    HW226556   0.694   1.742   8.787 -2.5378  1.3084 -1.7329
 4974SOL     OW26557   0.893   1.269   4.944 -0.5242 -0.0017  0.2167
 4974SOL    HW126558   0.879   1.330   4.871  0.5904  2.5528  2.1339
 4974SOL    HW226559   0.969   1.298   4.994  1.9526  0.9951 -4.1343
 4975SOL     OW26560   1.609   1.691   7.197  0.4135  0.1711  0.5902
 4975SOL    HW126561   1.614   1.623   7.265 -3.2770 -0.3450  0.3406
 4975SOL    HW226562   1.633   1.767   7.250  0.0099 -0.6803  1.9910
 4976SOL     OW26563   4.503   4.481   8.404 -0.2914 -0.0750  0.5455
 4976SOL    HW126564   4.432   4.499   8.465  0.0857 -3.0236  1.9160
 4976SOL    HW226565   4.455   4.473   8.322  0.3863 -0.3673  0.1739
 4977SOL     OW26566   4.444   1.212   7.972 -0.3167  0.4869 -0.9195
 4977SOL    HW126567   4.525   1.237   8.017 -1.0094  0.8470  0.1183
 4977SOL    HW226568   4.463   1.121   7.949  3.3267  1.1310 -0.4245
 4978SOL     OW26569   3.010   3.090   9.224  0.1405  0.3806 -0.0773
 4978SOL    HW126570   3.004   2.998   9.252 -1.9693  1.2942  2.4357
 4978SOL    HW226571   2.941   3.128   9.278 -0.2663  0.8903 -0.9666
 4979SOL     OW26572   0.607   2.653   3.136 -0.5657  0.3760 -0.1515
 4979SOL    HW126573   0.647   2.604   3.208 -0.9092 -1.0011 -0.8972
 4979SOL    HW226574   0.660   2.732   3.142  1.8878 -1.1927 -1.0847
 4980SOL     OW26575   0.718   2.439   2.751  0.1659  0.3254 -0.8982
 4980SOL    HW126576   0.744   2.415   2.840 -0.5774  0.9903 -0.4935
 4980SOL    HW226577   0.667   2.518   2.771  0.1462  0.6975 -2.4448
 4981SOL     OW26578   1.115   1.401   0.214  0.7807  0.1311 -0.4025
 4981SOL    HW126579   1.037   1.391   0.160  0.6199  1.3387 -0.4081
 4981SOL    HW226580   1.161   1.479   0.181  0.3498  1.7335  2.7108
 4982SOL     OW26581   3.349   0.362   6.394  0.4881 -0.3426 -0.7565
 4982SOL    HW126582   3.331   0.298   6.462  1.8444  0.9860  0.8614
 4982SOL    HW226583   3.298   0.440   6.417  2.7162  0.2573  2.1419
 4983SOL     OW26584   0.864   4.682   6.169 -0.4375  0.0333  0.2582
 4983SOL    HW126585   0.918   4.634   6.232  0.8275  0.4537 -0.5075
 4983SOL    HW226586   0.889   0.034   6.178  0.8564 -0.3703  0.7242
 4984SOL     OW26587   0.473   2.285   6.924 -0.1349 -0.7240 -0.0662
 4984SOL    HW126588   0.384   2.284   6.961 -0.1864  0.6072 -0.1752
 4984SOL    HW226589   0.524   2.224   6.978  0.0329  0.6537  1.3318
 4985SOL     OW26590   3.456   3.954   7.947 -0.4175  0.0463  0.1452
 4985SOL    HW126591   3.484   3.973   7.858  3.5932 -0.2155  1.3542
 4985SOL    HW226592   3.382   4.014   7.958 -0.3973  0.8103 -4.0485
 4986SOL     OW26593   4.446   0.962   3.414  0.2265 -0.2695  0.5803
 4986SOL    HW126594   4.437   0.894   3.481  0.1137 -0.3883  0.4441
 4986SOL    HW226595   4.525   1.008   3.443  0.4832 -0.3210 -0.0416
 4987SOL     OW26596   1.352   0.692  11.683  0.4349  0.6991  1.2905
 4987SOL    HW126597   1.269   0.663  11.721  0.5719  0.0935  1.1273
 4987SOL    HW226598   1.411   0.636  11.733  0.1793  0.2336  1.0737
 4988SOL     OW26599   4.226   1.988   9.391  0.0213 -0.4670 -0.6367
 4988SOL    HW126600   4.313   1.967   9.424 -0.2665  1.3893  1.3432
 4988SOL    HW226601   4.183   2.027   9.468  0.8411  3.1691 -1.9832
 4989SOL     OW26602   0.062   2.894   2.583  0.3190  0.1633 -0.0007
 4989SOL    HW126603   0.006   2.972   2.577  0.5384  0.3865  0.9755
 4989SOL    HW226604   0.131   2.917   2.520  0.6333 -1.6016 -0.2912
 4990SOL     OW26605   0.397   0.034   7.964 -0.3162  0.6443 -0.2264
 4990SOL    HW126606   0.406   4.679   7.964  2.3539  0.8942  1.2018
 4990SOL    HW226607   0.362   0.056   8.050 -1.8947 -1.6056 -0.2966
 4991SOL     OW26608   3.430   4.265   3.395 -0.6616 -0.2337  0.2358
 4991SOL    HW126609   3.433   4.224   3.309 -2.1716  0.6664 -0.2346
 4991SOL    HW226610   3.456   4.188   3.446  0.8709 -0.7090 -1.2604
 4992SOL     OW26611   3.517   4.737   6.247  0.3016 -0.0339  0.1966
 4992SOL    HW126612   3.527   4.642   6.243  0.9498  0.1104 -1.7931
 4992SOL    HW226613   3.423   0.004   6.232  0.2476  0.1322  0.6320
 4993SOL     OW26614   2.259   3.251   2.894 -0.1023 -0.2407 -0.1938
 4993SOL    HW126615   2.220   3.316   2.952  0.6296  1.2846 -1.4059
 4993SOL    HW226616   2.213   3.264   2.811 -0.9679  1.6379  0.5974
 4994SOL     OW26617   0.009   0.947   3.795  0.5113 -0.5254 -0.3870
 4994SOL    HW126618   4.706   0.868   3.827  0.1715 -0.5583 -0.9277
 4994SOL    HW226619   0.086   0.948   3.853  0.1178  1.4938  0.1217
 4995SOL     OW26620   0.811   1.228   4.511  0.3808 -0.2727 -0.4197
 4995SOL    HW126621   0.832   1.202   4.600  1.3177  0.8572 -0.3099
 4995SOL    HW226622   0.891   1.191   4.474  0.7127 -0.8890  0.9387
 4996SOL     OW26623   0.444   1.051   0.456 -0.4641 -0.0027  0.4045
 4996SOL    HW126624   0.535   1.020   0.456 -0.6132 -0.4365 -2.3456
 4996SOL    HW226625   0.455   1.144   0.435  0.6357 -0.4820 -1.1769
 4997SOL     OW26626   3.270   4.213   0.468  0.2265  0.0803  0.3125
 4997SOL    HW126627   3.335   4.186   0.533 -0.8994  0.6834  1.6856
 4997SOL    HW226628   3.258   4.306   0.487 -1.8974 -0.9662  3.9681
 4998SOL     OW26629   1.459   3.796   7.061  0.4113  0.2172  0.3728
 4998SOL    HW126630   1.467   3.891   7.048  0.0196  0.1218 -0.5489
 4998SOL    HW226631   1.548   3.768   7.081 -0.3275 -1.5988  1.0687
 4999SOL     OW26632   0.954   0.217   6.228  0.8551  0.0657  0.1454
 4999SOL    HW126633   0.937   0.240   6.320  0.3643  1.7764 -0.3833
 4999SOL    HW226634   1.005   0.293   6.202  0.5267  0.2950  0.1614
 5000SOL     OW26635   0.358   3.055   5.805  0.5618  0.7534 -0.1983
 5000SOL    HW126636   0.354   2.961   5.823 -1.3011  0.8234 -0.1653
 5000SOL    HW226637   0.272   3.099   5.805  0.2778  0.1962 -0.6609
 5001SOL     OW26638   1.692   1.899  11.856  0.1239 -0.3276  0.2268
 5001SOL    HW126639   1.673   1.987  11.887  0.6000  0.1144 -0.7080
 5001SOL    HW226640   1.623   1.849  11.898 -1.9587  1.5067 -0.9806
 5002SOL     OW26641   1.124   4.312   8.420  0.0857 -0.0783 -0.8727
 5002SOL    HW126642   1.042   4.333   8.464  0.6921  1.9376 -0.7012
 5002SOL    HW226643   1.186   4.308   8.493  0.6166  0.2897 -1.2997
 5003SOL     OW26644   2.968   3.767   3.927 -0.1362  0.4497  0.1319
 5003SOL    HW126645   3.002   3.846   3.969 -0.5224  0.7185 -0.0599
 5003SOL    HW226646   3.049   3.719   3.915 -0.0530  1.1058 -1.9251
 5004SOL     OW26647   2.328   0.330   2.304 -0.0423  0.0545  0.2981
 5004SOL    HW126648   2.241   0.367   2.288 -0.1461 -1.2152 -2.0133
 5004SOL    HW226649   2.345   0.379   2.385 -0.5260  2.8029 -1.2588
 5005SOL     OW26650   4.557   1.588   1.873  0.0526  0.2221 -0.2359
 5005SOL    HW126651   4.485   1.645   1.901  0.4631 -0.4145  2.1161
 5005SOL    HW226652   4.518   1.501   1.882  0.2631  0.2941  1.4101
 5006SOL     OW26653   0.985   1.737   4.839 -0.0884  0.1450 -0.3659
 5006SOL    HW126654   0.919   1.700   4.898  0.4755  0.0031  0.1841
 5006SOL    HW226655   0.978   1.824   4.878  1.7676  0.4801 -0.8185
 5007SOL     OW26656   3.971   3.674  14.233  0.6750 -0.5786 -0.4348
 5007SOL    HW126657   3.886   3.656  14.194  0.4784  0.2522 -0.3895
 5007SOL    HW226658   4.032   3.603  14.213  0.1040 -1.7817  2.0918
 5008SOL     OW26659   4.629   2.776   6.766 -0.2169  0.6540 -0.2440
 5008SOL    HW126660   4.587   2.850   6.721 -1.3274 -0.8681 -1.7301
 5008SOL    HW226661   4.604   2.788   6.858 -0.2244  2.3708 -0.4695
 5009SOL     OW26662   0.966   0.325   4.423  0.9644 -0.2702  0.4741
 5009SOL    HW126663   0.968   0.409   4.467 -1.8219  0.3888 -0.6362
 5009SOL    HW226664   1.040   0.279   4.464  1.4148 -0.1602 -0.2141
 5010SOL     OW26665   2.691   2.556   8.423 -0.0338 -0.0946 -0.1229
 5010SOL    HW126666   2.635   2.602   8.486 -0.6783 -2.1865  0.8193
 5010SOL    HW226667   2.771   2.606   8.440 -0.4697  0.6541 -0.2860
 5011SOL     OW26668   0.060   3.172  15.506  0.3418 -0.3451  0.2319
 5011SOL    HW126669   0.023   3.255  15.477 -1.1788 -0.2356  2.4995
 5011SOL    HW226670   0.143   3.168  15.459 -0.5470  1.8576 -1.4919
 5012SOL     OW26671   2.276   4.203   3.551 -0.6497  0.4371 -0.1202
 5012SOL    HW126672   2.294   4.109   3.557 -2.1234  0.2632  1.5425
 5012SOL    HW226673   2.199   4.202   3.607 -0.6414  0.2743 -0.1107
 5013SOL     OW26674   0.533   2.192   3.668 -0.3403  0.1410 -0.2754
 5013SOL    HW126675   0.624   2.166   3.688 -0.4937  0.3432  0.6738
 5013SOL    HW226676   0.487   2.111   3.689  1.1276 -0.8533 -0.8999
 5014SOL     OW26677   4.656   2.472   8.849  0.0621  0.5498  0.8980
 5014SOL    HW126678   4.707   2.391   8.858  1.9944  1.7163  0.4893
 5014SOL    HW226679   4.676   2.492   8.758  1.2874 -0.2196  0.9985
 5015SOL     OW26680   1.289   1.444  11.748  0.4208 -0.4780 -0.4092
 5015SOL    HW126681   1.261   1.427  11.658  0.7577  1.2053 -0.8331
 5015SOL    HW226682   1.338   1.526  11.738  0.1193 -0.3178 -0.5673
 5016SOL     OW26683   1.712   1.394   5.760 -0.4371  0.0416 -0.2567
 5016SOL    HW126684   1.653   1.320   5.773 -0.4695 -0.2521 -2.0854
 5016SOL    HW226685   1.745   1.407   5.849 -0.9033  3.6704 -0.6114
 5017SOL     OW26686   4.296   1.068  14.201 -0.1840 -0.9907 -0.2744
 5017SOL    HW126687   4.386   1.070  14.233 -0.3187 -0.6678  0.0868
 5017SOL    HW226688   4.251   0.999  14.250 -1.2228 -0.0543  0.0791
 5018SOL     OW26689   2.626   0.128   7.971 -0.2058  0.2111  0.0037
 5018SOL    HW126690   2.530   0.136   7.969 -0.3114 -0.4398  2.4944
 5018SOL    HW226691   2.642   0.073   8.048  0.9748 -1.3628 -1.3671
 5019SOL     OW26692   4.009   1.760   8.719 -0.1370  0.1903  0.0559
 5019SOL    HW126693   3.936   1.732   8.773 -1.2817 -1.4231 -2.3569
 5019SOL    HW226694   3.966   1.802   8.645  2.0533  0.3574 -1.1361
 5020SOL     OW26695   1.546   3.021   8.561  0.5672  0.4022 -0.6325
 5020SOL    HW126696   1.565   3.080   8.488 -3.3700  1.9362 -0.3872
 5020SOL    HW226697   1.537   2.933   8.526 -1.8739  0.7065 -0.7704
 5021SOL     OW26698   4.281   2.338   2.834 -0.1131 -0.5679  0.1526
 5021SOL    HW126699   4.233   2.386   2.901  1.3547 -0.2133  0.9496
 5021SOL    HW226700   4.351   2.396   2.806 -1.0296 -0.4450 -1.8710
 5022SOL     OW26701   1.205   4.099   1.182  0.2453 -0.0766  0.3372
 5022SOL    HW126702   1.200   4.009   1.151 -0.6998 -0.1010  0.5716
 5022SOL    HW226703   1.111   4.116   1.181  0.0751 -1.0112  1.4478
 5023SOL     OW26704   3.031   1.986  11.877 -0.1573 -0.2904  0.2728
 5023SOL    HW126705   3.000   2.066  11.919 -0.0194 -0.3781  0.5443
 5023SOL    HW226706   2.957   1.949  11.828 -0.1092 -2.1328  1.5818
 5024SOL     OW26707   1.137   2.181   4.184  0.3172 -0.1145  0.3955
 5024SOL    HW126708   1.066   2.198   4.123 -0.7879 -1.0961  1.4213
 5024SOL    HW226709   1.216   2.191   4.131 -0.0219 -0.1962 -0.1168
 5025SOL     OW26710   4.718   0.595   0.461 -0.0979  0.1708 -0.2100
 5025SOL    HW126711   4.720   0.563   0.551 -1.1510 -1.3390 -0.7309
 5025SOL    HW226712   4.709   0.511   0.416 -1.5772  0.4608 -0.4728
 5026SOL     OW26713   4.235   3.705   6.038  0.4476  0.2131 -0.0113
 5026SOL    HW126714   4.208   3.724   5.948 -0.6476 -0.4170  0.1808
 5026SOL    HW226715   4.258   3.612   6.030 -1.6061 -0.2871 -0.0518
 5027SOL     OW26716   2.120   3.842   3.904  0.1156 -0.0813  0.8993
 5027SOL    HW126717   2.109   3.756   3.863  1.6754 -0.3759  1.1027
 5027SOL    HW226718   2.091   3.821   3.993  0.2638 -0.6692  0.8140
 5028SOL     OW26719   0.525   1.165   2.250  0.7021 -0.4820  0.0419
 5028SOL    HW126720   0.551   1.155   2.341  0.2720  0.1969  0.2380
 5028SOL    HW226721   0.434   1.148   2.271  1.0524 -0.0868  1.8421
 5029SOL     OW26722   4.480   4.725   5.989  0.0734  0.2115  0.4642
 5029SOL    HW126723   4.505   0.020   5.903  0.7178 -2.0286 -0.2487
 5029SOL    HW226724   4.424   4.650   5.972 -0.5387  0.6080  0.7323
 5030SOL     OW26725   3.987   0.590   8.912  0.2843  0.2662 -0.4401
 5030SOL    HW126726   4.058   0.584   8.848 -0.1395  0.3130 -0.9159
 5030SOL    HW226727   4.020   0.553   8.994 -0.6619 -0.3854 -0.3561
 5031SOL     OW26728   3.620   4.377   5.004 -0.4990  0.1130 -0.0480
 5031SOL    HW126729   3.566   4.455   4.992  1.4555  1.8464  2.3996
 5031SOL    HW226730   3.600   4.324   4.927  2.0836 -0.3023 -0.4320
 5032SOL     OW26731   1.102   0.642   4.301 -0.1129 -0.0565 -0.2469
 5032SOL    HW126732   1.161   0.675   4.233  0.7255 -1.2380 -0.1100
 5032SOL    HW226733   1.026   0.698   4.291  0.6977  1.4271  2.0409
 5033SOL     OW26734   3.046   4.136   2.821 -0.6163 -0.3229  0.3434
 5033SOL    HW126735   2.997   4.059   2.790 -0.0882  0.5769 -2.7269
 5033SOL    HW226736   2.968   4.187   2.842  0.2171  0.5558  1.2549
 5034SOL     OW26737   2.164   3.551   9.193 -0.2354  0.3057  0.3044
 5034SOL    HW126738   2.143   3.618   9.128  0.3854  0.0663 -0.1332
 5034SOL    HW226739   2.154   3.612   9.266 -1.8521  0.5676 -0.1312
 5035SOL     OW26740   0.478   0.419  10.897  0.0327 -0.2544 -0.3157
 5035SOL    HW126741   0.537   0.387  10.829  0.4092 -1.4973  0.5778
 5035SOL    HW226742   0.399   0.380  10.858 -0.3199  0.1920 -0.0457
 5036SOL     OW26743   1.390   0.609   7.419  0.1655  0.3631  0.0864
 5036SOL    HW126744   1.417   0.608   7.510  1.4579  0.6097 -0.2956
 5036SOL    HW226745   1.298   0.628   7.437 -0.6807 -2.4888 -1.1398
 5037SOL     OW26746   1.849   2.603   7.537 -0.0671 -0.5301  0.2737
 5037SOL    HW126747   1.827   2.675   7.597 -2.0659  0.3875 -1.5430
 5037SOL    HW226748   1.772   2.548   7.547  2.3044 -3.5045  1.8469
 5038SOL     OW26749   3.461   1.198   4.073 -0.4696 -0.2703 -0.5608
 5038SOL    HW126750   3.418   1.117   4.099  1.6793 -0.8806  1.1590
 5038SOL    HW226751   3.532   1.207   4.137 -2.5152 -0.2079  1.6821
 5039SOL     OW26752   2.609   2.634   7.054  0.5618  0.0951 -0.3159
 5039SOL    HW126753   2.689   2.675   7.089  1.3599 -1.7057 -0.0388
 5039SOL    HW226754   2.632   2.544   7.030  0.8708  0.3218 -0.8867
 5040SOL     OW26755   4.707   0.408  12.499  0.6071 -0.3285 -0.0401
 5040SOL    HW126756   4.657   0.356  12.561 -2.3243  0.7806 -1.4701
 5040SOL    HW226757   4.707   0.498  12.531  0.0201 -0.9652  1.7529
 5041SOL     OW26758   1.245   3.109  15.599 -0.0014 -0.4684  0.4705
 5041SOL    HW126759   1.270   3.200  15.615 -1.4058  1.0998 -6.0944
 5041SOL    HW226760   1.231   3.076  15.687 -0.0115 -1.6107  0.0369
 5042SOL     OW26761   4.663   0.947   9.725  0.5020  0.1163 -0.1970
 5042SOL    HW126762   4.640   1.022   9.670 -2.0465  1.0169  2.1208
 5042SOL    HW226763   4.614   0.881   9.675  1.0490 -0.7877  0.4670
 5043SOL     OW26764   0.928   0.808   7.342 -0.4886 -0.0240  0.2107
 5043SOL    HW126765   0.855   0.845   7.392  0.7175  1.5790  0.7736
 5043SOL    HW226766   1.008   0.829   7.390 -0.1739  2.7245 -1.5372
 5044SOL     OW26767   1.617   0.630   8.751 -0.3176 -0.3179 -0.4097
 5044SOL    HW126768   1.612   0.565   8.822  0.8085  0.4972  0.4358
 5044SOL    HW226769   1.531   0.672   8.749  0.5109  1.5387  2.1044
 5045SOL     OW26770   4.254   4.395   2.347 -0.0433  0.8557 -0.0207
 5045SOL    HW126771   4.320   4.342   2.303  1.0613  2.2439 -0.0334
 5045SOL    HW226772   4.166   4.379   2.313 -0.3056  1.5657  0.3267
 5046SOL     OW26773   3.223   3.429   6.405 -0.2959 -0.5372  0.2061
 5046SOL    HW126774   3.262   3.446   6.319  0.7424 -0.8223  0.6207
 5046SOL    HW226775   3.196   3.338   6.393  1.2238 -0.7071 -1.9512
 5047SOL     OW26776   2.499   2.474  15.051  0.6065  0.2051  0.4026
 5047SOL    HW126777   2.486   2.447  14.960  0.3179 -0.8504  0.7632
 5047SOL    HW226778   2.568   2.417  15.085  2.7428  2.4120 -0.2123
 5048SOL     OW26779   4.540   3.242   4.994  0.1581  0.4757  0.7830
 5048SOL    HW126780   4.446   3.249   4.977  0.5561  2.8393 -0.4277
 5048SOL    HW226781   4.561   3.149   4.988  1.4248  0.6928  1.9393
 5049SOL     OW26782   3.207   1.965   7.946  0.1776  0.2942  0.8535
 5049SOL    HW126783   3.163   1.993   7.865 -1.7388  0.8960  2.0972
 5049SOL    HW226784   3.139   1.987   8.009 -1.3029  1.1596 -1.0325
 5050SOL     OW26785   3.205   0.253   3.363  0.0783 -0.5528  0.4464
 5050SOL    HW126786   3.128   0.278   3.414 -0.6356 -1.6046 -0.1283
 5050SOL    HW226787   3.231   0.176   3.414 -2.9824 -1.2877  0.9376
 5051SOL     OW26788   3.597   3.300   5.393 -0.4907 -0.0875  0.1059
 5051SOL    HW126789   3.514   3.338   5.419 -1.5223 -0.4776 -2.6472
 5051SOL    HW226790   3.614   3.258   5.478 -1.2170 -3.8642 -1.6140
 5052SOL     OW26791   2.336   0.698   6.901 -0.1839  0.0551  0.5862
 5052SOL    HW126792   2.295   0.625   6.947 -0.8518 -0.5207 -0.9032
 5052SOL    HW226793   2.369   0.740   6.980  1.5828  1.0818 -0.7042
 5053SOL     OW26794   1.333   0.997   5.892  0.1870 -0.3384 -0.0091
 5053SOL    HW126795   1.256   1.023   5.943 -0.4516 -0.6391 -0.8196
 5053SOL    HW226796   1.347   0.908   5.925  1.5537  0.9995  2.9505
 5054SOL     OW26797   0.518   4.373   2.638 -0.2101 -0.0553 -0.1969
 5054SOL    HW126798   0.424   4.395   2.642 -0.1547 -0.1442  1.8786
 5054SOL    HW226799   0.530   4.368   2.544  0.3399 -0.3516 -0.1069
 5055SOL     OW26800   0.837   2.935   3.516  0.4934 -0.2860 -0.2275
 5055SOL    HW126801   0.788   2.988   3.453 -0.3704 -0.7426  0.0587
 5055SOL    HW226802   0.865   3.004   3.575  0.2087  1.2251 -1.8630
 5056SOL     OW26803   1.957   3.094  14.700  0.1151  0.2668  0.4163
 5056SOL    HW126804   2.013   3.169  14.677  1.9900 -1.0096  0.8322
 5056SOL    HW226805   2.002   3.069  14.781 -0.1290  1.7462  1.0063
 5057SOL     OW26806   1.181   3.095   2.543  0.8304 -0.3333 -0.0883
 5057SOL    HW126807   1.107   3.121   2.488  0.4781 -0.5581  0.2771
 5057SOL    HW226808   1.248   3.154   2.509 -0.2928  2.0223  1.7457
 5058SOL     OW26809   0.183   1.071   4.711  0.8000 -0.5572  0.0010
 5058SOL    HW126810   0.135   1.144   4.672  2.4607  0.2929 -0.4526
 5058SOL    HW226811   0.264   1.117   4.731 -0.8291  2.4889 -0.3546
 5059SOL     OW26812   0.785   2.191   8.436 -0.4654 -0.5228  0.6359
 5059SOL    HW126813   0.795   2.283   8.416 -2.3222 -0.6655 -0.9675
 5059SOL    HW226814   0.867   2.151   8.408 -0.1484 -0.8746  2.0213
 5060SOL     OW26815   3.295   0.593   6.813 -0.2266 -0.2856 -0.2596
 5060SOL    HW126816   3.244   0.529   6.862 -0.6648 -1.4236 -2.2151
 5060SOL    HW226817   3.337   0.645   6.881  1.5283  1.8290 -2.9323
 5061SOL     OW26818   2.268   1.179   8.204 -0.0477 -0.6552 -0.1824
 5061SOL    HW126819   2.340   1.184   8.267  0.4310 -2.8577 -0.5454
 5061SOL    HW226820   2.206   1.233   8.252  2.6026 -0.0810  2.5433
 5062SOL     OW26821   4.732   4.617   8.285 -0.2314  0.0094 -0.7971
 5062SOL    HW126822   4.646   4.589   8.317  1.0077  0.0906  2.6325
 5062SOL    HW226823   4.715   4.710   8.271  1.8255  0.8358  2.2017
 5063SOL     OW26824   1.490   2.173   2.486  0.4838  0.1078  0.2948
 5063SOL    HW126825   1.442   2.172   2.569  0.9327  0.8077  0.5612
 5063SOL    HW226826   1.425   2.171   2.416  0.3713 -0.3256  0.4132
 5064SOL     OW26827   4.335   2.418  16.770  0.3158 -0.3648  0.2679
 5064SOL    HW126828   4.349   2.467  16.851 -1.4450  0.1078  0.2883
 5064SOL    HW226829   4.348   2.326  16.793  1.2686 -0.8117 -2.1024
 5065SOL     OW26830   3.554   2.887   3.477  0.7177  0.4788 -0.0337
 5065SOL    HW126831   3.582   2.817   3.417  0.2355  0.1842  0.0789
 5065SOL    HW226832   3.469   2.911   3.438  0.0510 -2.8729 -0.6703
 5066SOL     OW26833   0.185   3.419   6.853 -0.5358  0.5353 -0.2331
 5066SOL    HW126834   0.145   3.378   6.776  2.4357 -0.2771 -1.3401
 5066SOL    HW226835   0.165   3.511   6.835 -0.1474  0.6175 -0.2475
 5067SOL     OW26836   3.417   1.162   7.821  0.1611  0.3397 -0.1487
 5067SOL    HW126837   3.348   1.099   7.843 -0.4796 -0.3662 -4.1593
 5067SOL    HW226838   3.422   1.217   7.899 -0.6511 -0.4384  0.4552
 5068SOL     OW26839   1.511   2.454  15.726  0.0933 -0.1935  0.2940
 5068SOL    HW126840   1.471   2.414  15.804 -1.0470 -1.1928 -0.8003
 5068SOL    HW226841   1.576   2.390  15.698  1.7499  0.6331  2.2877
 5069SOL     OW26842   2.948   4.069   8.638  0.5333 -0.1200  0.4232
 5069SOL    HW126843   2.957   4.051   8.732  3.0435  2.6460  0.6859
 5069SOL    HW226844   2.882   4.007   8.606  0.0444  0.2811  0.6470
 5070SOL     OW26845   3.373   3.018   5.897  0.3202  0.1635 -0.0342
 5070SOL    HW126846   3.295   2.968   5.874 -0.2019  0.6906  0.6093
 5070SOL    HW226847   3.411   3.029   5.810  2.0577 -3.2695  0.2968
 5071SOL     OW26848   1.176   0.114   3.398 -0.7301  0.0464  0.0887
 5071SOL    HW126849   1.227   0.116   3.317  2.1957  1.9907  1.9664
 5071SOL    HW226850   1.236   0.051   3.437 -0.3314  0.6397  0.4349
 5072SOL     OW26851   3.478   1.351   1.868 -0.4524 -0.4062  0.5688
 5072SOL    HW126852   3.518   1.436   1.888  1.0844 -0.3713 -2.7802
 5072SOL    HW226853   3.527   1.297   1.930  1.1182 -0.5871 -0.8599
 5073SOL     OW26854   3.737   1.324   6.386  0.5367 -0.1059 -0.1267
 5073SOL    HW126855   3.796   1.340   6.459  0.4303 -0.9922  0.1541
 5073SOL    HW226856   3.772   1.240   6.357 -2.3559 -1.3573  0.0187
 5074SOL     OW26857   0.541   1.898   7.039  0.0009 -0.0614  0.1939
 5074SOL    HW126858   0.476   1.920   6.973  0.3971  0.3654 -0.0500
 5074SOL    HW226859   0.494   1.865   7.115  1.8934  0.4840  1.6094
 5075SOL     OW26860   0.827   3.590   2.839  0.1813  0.4612 -0.2276
 5075SOL    HW126861   0.794   3.590   2.749 -0.3454 -3.0225 -0.0258
 5075SOL    HW226862   0.755   3.629   2.889 -1.4525 -0.3399 -1.9364
 5076SOL     OW26863   3.590   3.880   0.796 -0.0187 -0.5270  0.1592
 5076SOL    HW126864   3.507   3.868   0.841 -0.6880 -0.1166 -0.9760
 5076SOL    HW226865   3.630   3.935   0.863  2.6216 -0.3705 -1.5334
 5077SOL     OW26866   3.725   3.631   5.398 -0.2345  0.0737 -0.7371
 5077SOL    HW126867   3.708   3.537   5.402 -1.9480  0.3044 -2.3391
 5077SOL    HW226868   3.777   3.649   5.319  2.9380  0.2733  1.4051
 5078SOL     OW26869   1.951   3.517  11.667 -0.5771 -0.4691  0.5737
 5078SOL    HW126870   2.033   3.560  11.645 -1.6001  1.3201  0.2449
 5078SOL    HW226871   1.941   3.539  11.759  0.1607 -1.2537  0.8337
 5079SOL     OW26872   0.443   3.165   6.090 -0.5306 -0.3376  0.1047
 5079SOL    HW126873   0.388   3.155   6.012 -2.1753 -1.6598  1.4432
 5079SOL    HW226874   0.398   3.107   6.151  1.8508 -2.7524 -0.4495
 5080SOL     OW26875   1.835   1.488   8.330 -0.2857  0.2029  0.3877
 5080SOL    HW126876   1.787   1.477   8.247  1.1887  1.4370 -0.6228
 5080SOL    HW226877   1.761   1.530   8.375  0.0734  1.0144  0.2240
 5081SOL     OW26878   0.014   4.271   6.189  0.5187  0.4621  0.4737
 5081SOL    HW126879   4.720   4.331   6.123  0.6206 -0.3162 -0.2782
 5081SOL    HW226880   0.097   4.245   6.151  0.1290 -0.6983  0.4274
 5082SOL     OW26881   4.065   3.066  16.340 -0.4204  0.1776  0.1770
 5082SOL    HW126882   4.001   3.105  16.400  1.4852 -0.5541  2.7044
 5082SOL    HW226883   4.079   2.985  16.389 -1.4366 -1.1038 -1.6589
 5083SOL     OW26884   1.827   0.584   1.983  0.1887  0.6845 -0.5307
 5083SOL    HW126885   1.866   0.655   2.035 -0.8088 -0.2664  1.5209
 5083SOL    HW226886   1.810   0.632   1.902 -1.9265  4.6749  2.2138
 5084SOL     OW26887   4.383   1.997   5.053 -0.1939 -1.2049  0.1042
 5084SOL    HW126888   4.306   2.053   5.064  0.6033 -0.0513 -0.2713
 5084SOL    HW226889   4.416   1.981   5.141 -0.5580  0.4099  0.5197
 5085SOL     OW26890   0.346   3.390   3.722 -0.4422  0.5115 -0.4586
 5085SOL    HW126891   0.343   3.486   3.729  0.7507  0.4066  1.3643
 5085SOL    HW226892   0.408   3.383   3.649 -0.5108 -0.0366 -0.4634
 5086SOL     OW26893   3.367   1.695   6.249  0.2600 -0.2004  0.0163
 5086SOL    HW126894   3.304   1.717   6.317  1.5329 -0.0078  1.1115
 5086SOL    HW226895   3.428   1.636   6.293  0.0678 -0.7901 -0.4898
 5087SOL     OW26896   3.507   2.368   3.985  0.8239 -0.1052  0.2047
 5087SOL    HW126897   3.579   2.428   3.963  0.7291 -0.2542 -0.5071
 5087SOL    HW226898   3.440   2.426   4.021  1.1785 -0.5920  1.6687
 5088SOL     OW26899   0.300   2.265   7.616 -0.0006  0.1868  0.5713
 5088SOL    HW126900   0.327   2.355   7.636 -0.8490  0.9505 -1.7081
 5088SOL    HW226901   0.329   2.261   7.525 -0.7608  0.6353  0.3045
 5089SOL     OW26902   3.443   4.173   0.676  0.0323 -0.8364 -0.4564
 5089SOL    HW126903   3.508   4.210   0.736 -0.1689  0.0358 -0.7641
 5089SOL    HW226904   3.411   4.099   0.727  1.2590 -1.7336 -1.0130
 5090SOL     OW26905   0.530   2.116   9.500 -0.6534  0.0819  0.4196
 5090SOL    HW126906   0.492   2.040   9.543  2.2745 -0.8882  1.3079
 5090SOL    HW226907   0.593   2.072   9.442 -0.6254 -1.6639  1.7790
 5091SOL     OW26908   1.846   4.497   5.049  0.2485 -0.3902 -0.6130
 5091SOL    HW126909   1.818   4.405   5.055  1.2770 -0.6144  0.6347
 5091SOL    HW226910   1.791   4.534   5.118 -0.6585 -0.6836 -1.1785
 5092SOL     OW26911   0.535   3.200   0.261  0.7573  0.1746  0.0407
 5092SOL    HW126912   0.605   3.266   0.268  0.5641  0.5456 -1.5541
 5092SOL    HW226913   0.528   3.174   0.353  2.3489  1.7974  0.6444
 5093SOL     OW26914   0.625   3.949   5.090 -0.6997 -0.1061 -0.1153
 5093SOL    HW126915   0.675   3.944   5.009 -0.4253  0.6705  0.0057
 5093SOL    HW226916   0.658   3.872   5.136 -2.1329 -0.2802  0.6317
 5094SOL     OW26917   4.606   1.893  10.293 -0.2967  0.2914  0.3872
 5094SOL    HW126918   4.568   1.887  10.206 -0.8407 -2.9640  0.8326
 5094SOL    HW226919   4.641   1.981  10.302  0.5033  0.0350 -0.2871
 5095SOL     OW26920   2.716   0.493   2.379  0.1245 -0.3647 -0.2893
 5095SOL    HW126921   2.697   0.460   2.467 -0.2479  0.4446 -0.0716
 5095SOL    HW226922   2.636   0.531   2.343 -0.0566  0.7305  1.2754
 5096SOL     OW26923   3.450   4.180   6.554  0.9383  0.0954 -0.3340
 5096SOL    HW126924   3.480   4.126   6.480  0.6087 -2.0234  1.0860
 5096SOL    HW226925   3.435   4.119   6.626 -2.0883 -0.0455 -1.1046
 5097SOL     OW26926   0.869   2.094   1.411  0.6369  0.2575  0.7325
 5097SOL    HW126927   0.828   2.048   1.484  0.7148  0.0255  0.6300
 5097SOL    HW226928   0.814   2.172   1.399  2.3325  1.4184  0.4618
 5098SOL     OW26929   0.087   0.520   2.826  0.2397  0.4244  0.5968
 5098SOL    HW126930   0.104   0.515   2.920  1.1354  1.9747  0.5142
 5098SOL    HW226931   0.145   0.451   2.795 -1.2969 -1.6395  2.3004
 5099SOL     OW26932   3.927   0.819  10.113  0.2120 -0.1851 -0.1720
 5099SOL    HW126933   3.933   0.901  10.065  1.7413 -0.1086  0.1343
 5099SOL    HW226934   4.004   0.777  10.073  0.3785 -0.1365  0.0996
 5100SOL     OW26935   2.943   3.958   5.201 -0.2293  0.5351 -0.0351
 5100SOL    HW126936   2.933   3.888   5.137 -0.3491 -1.7617  2.4597
 5100SOL    HW226937   3.028   4.000   5.186 -0.6417  1.5652  0.4932
 5101SOL     OW26938   4.363   1.511   6.714  0.0208  0.8417 -0.2335
 5101SOL    HW126939   4.418   1.435   6.696 -0.7421  0.0201  0.9473
 5101SOL    HW226940   4.426   1.536   6.782 -0.3944  1.7807 -0.1944
 5102SOL     OW26941   1.120   1.894   2.392  0.4303  0.1544 -0.2991
 5102SOL    HW126942   1.062   1.948   2.445  2.7057  1.2944  0.9963
 5102SOL    HW226943   1.065   1.865   2.319  1.8660 -1.1812 -0.8505
 5103SOL     OW26944   2.387   1.713  12.075 -0.5291 -0.3053  0.2995
 5103SOL    HW126945   2.433   1.761  12.144  0.0358  0.8875 -0.8992
 5103SOL    HW226946   2.457   1.688  12.015  1.1324 -0.7352  2.4318
 5104SOL     OW26947   3.064   1.615   9.344 -0.1678 -0.5877 -0.2031
 5104SOL    HW126948   3.140   1.602   9.288  0.8425  0.1797  1.0044
 5104SOL    HW226949   3.002   1.642   9.276 -1.2171  0.2225  1.0746
 5105SOL     OW26950   1.835   3.436   1.549  0.2581 -0.0677 -0.3983
 5105SOL    HW126951   1.837   3.452   1.643 -0.0046 -2.6323  0.0501
 5105SOL    HW226952   1.927   3.413   1.533  0.6616  0.8407  0.6420
 5106SOL     OW26953   3.814   2.036  13.223  0.4863 -0.2068 -0.0270
 5106SOL    HW126954   3.813   2.099  13.151  1.7850 -0.4738 -0.2799
 5106SOL    HW226955   3.853   1.962  13.176  5.2293  1.1760  1.7303
 5107SOL     OW26956   4.373   2.374   8.767 -0.1631  0.0383 -0.2335
 5107SOL    HW126957   4.316   2.376   8.844  0.0306 -2.1619 -0.0228
 5107SOL    HW226958   4.450   2.416   8.805 -1.9357  0.5890  2.7606
 5108SOL     OW26959   1.759   4.305  13.582  0.0235 -0.0006  0.3766
 5108SOL    HW126960   1.845   4.277  13.613 -0.4812 -2.3890 -0.3593
 5108SOL    HW226961   1.740   4.238  13.516  1.6380  0.4208 -0.4997
 5109SOL     OW26962   0.051   0.416   6.500  0.0499 -0.1091  0.4160
 5109SOL    HW126963   0.087   0.348   6.557  0.9569  1.4179  1.6799
 5109SOL    HW226964   0.111   0.485   6.528  0.2215  0.4224 -1.2838
 5110SOL     OW26965   4.289   0.446   2.704  0.1431 -0.0256 -0.2170
 5110SOL    HW126966   4.268   0.381   2.637  3.3153 -0.6539 -0.5700
 5110SOL    HW226967   4.384   0.446   2.706  0.1639 -1.3686 -1.0751
 5111SOL     OW26968   0.388   1.968   6.816  0.5488  0.1286 -0.2847
 5111SOL    HW126969   0.471   1.986   6.772 -0.1108  1.2154 -1.0492
 5111SOL    HW226970   0.336   2.045   6.797 -0.6921 -0.3801  1.0623
 5112SOL     OW26971   2.621   0.519   4.593 -0.2778 -0.7386  0.5885
 5112SOL    HW126972   2.565   0.593   4.570 -2.6308 -1.2457  4.6830
 5112SOL    HW226973   2.689   0.556   4.650  1.2215 -2.3641 -0.1702
 5113SOL     OW26974   1.425   1.575   5.177  0.2882 -0.2134 -0.3813
 5113SOL    HW126975   1.473   1.635   5.233  0.1943 -1.1608  0.7148
 5113SOL    HW226976   1.419   1.632   5.100  0.3618  1.6198  0.9661
 5114SOL     OW26977   2.364   2.214  17.721  0.2432  0.1129 -0.1193
 5114SOL    HW126978   2.281   2.247  17.756 -0.6124 -0.1440 -1.9322
 5114SOL    HW226979   2.400   2.278  17.660  2.7352 -2.4164 -1.3333
 5115SOL     OW26980   0.348   1.003   6.089 -0.8599 -0.1422 -0.0322
 5115SOL    HW126981   0.287   0.930   6.089  0.8538 -1.5947  2.8416
 5115SOL    HW226982   0.377   1.022   6.000 -0.0982 -1.6036 -0.1084
 5116SOL     OW26983   3.924   3.018   4.966  0.4099  0.4053  0.2177
 5116SOL    HW126984   3.916   2.935   5.014  1.2968 -0.2262 -0.6989
 5116SOL    HW226985   4.013   3.007   4.931 -0.4312  2.9064 -2.6128
 5117SOL     OW26986   1.762   1.760   5.180  0.2766  0.0523 -0.3129
 5117SOL    HW126987   1.801   1.692   5.125 -0.3018  1.4055 -2.3897
 5117SOL    HW226988   1.687   1.792   5.130 -1.5245 -0.3411  2.1601
 5118SOL     OW26989   3.255   2.971   5.418  0.7672  0.0242 -0.2167
 5118SOL    HW126990   3.163   2.949   5.436 -0.2357  1.0985 -3.9942
 5118SOL    HW226991   3.244   3.050   5.365  0.6364  0.3528  0.2926
 5119SOL     OW26992   0.522   4.443   9.857  0.3527  0.2466  0.4502
 5119SOL    HW126993   0.476   4.367   9.822 -2.5687  2.1554  0.1553
 5119SOL    HW226994   0.614   4.441   9.830  0.6530 -1.1585  1.5750
 5120SOL     OW26995   1.777   0.532  15.634  0.4324  0.0510  0.4678
 5120SOL    HW126996   1.819   0.508  15.717  2.4691  0.9217 -0.3011
 5120SOL    HW226997   1.724   0.608  15.659  1.5778  0.4951  1.5917
 5121SOL     OW26998   0.507   4.189  16.942  0.4978 -0.7687  0.0185
 5121SOL    HW126999   0.462   4.219  16.863  2.1894  2.5225  0.3132
 5121SOL    HW227000   0.593   4.232  16.944 -0.2684  0.6922  1.2300
 5122SOL     OW27001   2.224   3.830   8.167  0.2914 -0.2793 -0.2975
 5122SOL    HW127002   2.300   3.806   8.115  1.6740  2.0385  0.6332
 5122SOL    HW227003   2.239   3.922   8.190  1.2481 -0.5393  0.1006
 5123SOL     OW27004   0.009   1.201   7.613  0.6199 -0.1042 -0.2450
 5123SOL    HW127005   4.689   1.127   7.608  1.5858 -1.0269  1.8447
 5123SOL    HW227006   0.091   1.163   7.644  1.2112  1.7980  0.5149
 5124SOL     OW27007   1.452   4.250   6.122 -0.4095  0.6634  0.6434
 5124SOL    HW127008   1.371   4.199   6.131  0.3473 -1.2365 -3.0634
 5124SOL    HW227009   1.507   4.199   6.062 -0.0982 -0.7851  2.1801
 5125SOL     OW27010   0.158   4.198   8.226 -0.3075  0.2387 -0.3520
 5125SOL    HW127011   0.148   4.104   8.242  0.5698  0.0291 -1.0635
 5125SOL    HW227012   0.110   4.230   8.303 -0.0137 -0.9755  0.3474
 5126SOL     OW27013   0.971   4.075   3.954 -0.0525  0.1446 -0.3315
 5126SOL    HW127014   1.011   4.155   3.987  0.2893 -0.9092  1.8238
 5126SOL    HW227015   1.042   4.033   3.906 -0.0418 -0.2205  0.0022
 5127SOL     OW27016   2.101   0.930   2.621 -0.6001 -0.1959  0.0422
 5127SOL    HW127017   2.049   1.010   2.630  1.5837  1.2964 -0.4156
 5127SOL    HW227018   2.051   0.856   2.653 -0.1004 -0.0849  1.0849
 5128SOL     OW27019   3.173   2.055  14.973  0.2098  0.3889 -0.0099
 5128SOL    HW127020   3.217   2.117  14.915  1.1751 -1.5649 -1.3576
 5128SOL    HW227021   3.086   2.047  14.935  0.5843 -0.0921 -0.7450
 5129SOL     OW27022   1.615   3.634  16.471  0.3670 -0.2331  0.7289
 5129SOL    HW127023   1.534   3.659  16.427  0.6194 -0.9448 -0.1494
 5129SOL    HW227024   1.596   3.540  16.468  1.5308 -0.4798  1.3150
 5130SOL     OW27025   3.865   3.949   2.607 -0.5969  0.1964 -0.0456
 5130SOL    HW127026   3.811   4.021   2.638 -2.1419  0.2883 -2.9481
 5130SOL    HW227027   3.893   3.978   2.520  1.9247 -0.5392  0.5249
 5131SOL     OW27028   2.713   1.330   8.999  0.5005 -0.0218 -0.1101
 5131SOL    HW127029   2.691   1.389   9.072 -2.1004  0.9026 -1.6321
 5131SOL    HW227030   2.726   1.390   8.925  0.8374 -0.0554 -0.0775
 5132SOL     OW27031   0.753   0.661  17.530 -0.1139  0.0520  0.0108
 5132SOL    HW127032   0.816   0.664  17.458  0.1100  1.1047  0.2503
 5132SOL    HW227033   0.710   0.575  17.529  1.3084 -0.6960  1.6016
 5133SOL     OW27034   3.375   3.725   7.679 -0.2109  0.1220  0.5098
 5133SOL    HW127035   3.465   3.698   7.661 -0.3963 -0.4592  0.4524
 5133SOL    HW227036   3.397   3.732   7.772 -1.5099 -1.9739  0.9684
 5134SOL     OW27037   1.682   3.452  12.024  0.2081  0.1201  0.0190
 5134SOL    HW127038   1.755   3.508  11.997  0.1284  0.6309  0.8911
 5134SOL    HW227039   1.652   3.508  12.096 -0.6814 -1.0750  0.5760
 5135SOL     OW27040   0.662   2.133   1.116 -0.8880 -0.1879  0.7627
 5135SOL    HW127041   0.706   2.198   1.171 -1.4900  0.2238  0.7598
 5135SOL    HW227042   0.582   2.179   1.091 -0.6546 -1.1934 -1.8122
 5136SOL     OW27043   3.623   1.200   9.376 -0.6074 -0.5118  0.1188
 5136SOL    HW127044   3.539   1.162   9.349 -0.2811 -0.8876 -0.3821
 5136SOL    HW227045   3.609   1.286   9.415 -0.2420 -2.1032  3.7508
 5137SOL     OW27046   0.998   3.162  14.453 -0.2897 -0.0532 -0.5513
 5137SOL    HW127047   0.949   3.098  14.505  1.0941  0.0673  0.8814
 5137SOL    HW227048   0.987   3.243  14.501  1.4428 -1.0726  1.5501
 5138SOL     OW27049   3.297   4.207  10.861 -0.0284  0.1585 -0.1865
 5138SOL    HW127050   3.349   4.161  10.795  2.1544  0.2780  1.4637
 5138SOL    HW227051   3.229   4.239  10.801 -0.3202  0.0861  0.1104
 5139SOL     OW27052   1.005   0.178   7.671  0.4070 -0.1352  0.0546
 5139SOL    HW127053   1.099   0.176   7.690  0.5053 -0.7269 -0.4963
 5139SOL    HW227054   0.981   0.114   7.738  1.3955 -0.8944 -0.3130
 5140SOL     OW27055   0.625   1.556   7.146 -0.3559  0.2564  0.3588
 5140SOL    HW127056   0.567   1.479   7.146  0.6073 -0.4889 -2.2666
 5140SOL    HW227057   0.582   1.598   7.071 -0.2832 -2.2275 -1.0625
 5141SOL     OW27058   1.282   3.040  15.908  0.1011 -0.2785  0.4868
 5141SOL    HW127059   1.375   3.028  15.929 -0.0133  0.8667  1.6126
 5141SOL    HW227060   1.251   3.118  15.954  1.2861  1.0999 -1.0319
 5142SOL     OW27061   2.336   1.502   7.099 -0.2952  0.2166 -0.1797
 5142SOL    HW127062   2.333   1.471   7.008  0.3272 -0.9301  0.1971
 5142SOL    HW227063   2.396   1.436   7.133  0.2247  0.0498 -1.4271
 5143SOL     OW27064   0.715   3.925   8.031 -0.1488  0.2546  0.5871
 5143SOL    HW127065   0.631   3.921   8.078  0.9389 -0.9513  2.4381
 5143SOL    HW227066   0.748   4.015   8.034 -0.4374  0.3706  0.2296
 5144SOL     OW27067   3.716   3.247   3.592  0.0919  0.3665  0.0968
 5144SOL    HW127068   3.706   3.216   3.682 -1.2254  0.2623 -0.0786
 5144SOL    HW227069   3.631   3.219   3.557  0.8523 -2.9216  0.8499
 5145SOL     OW27070   1.706   1.611   7.723  0.5118  0.2471 -0.6984
 5145SOL    HW127071   1.675   1.613   7.632  1.6302  0.2582 -1.0841
 5145SOL    HW227072   1.749   1.525   7.719  1.2580  0.5888  0.0330
 5146SOL     OW27073   0.672   1.718   4.482 -0.1563 -0.2830  0.1544
 5146SOL    HW127074   0.684   1.799   4.532  1.7187 -0.6195  0.2347
 5146SOL    HW227075   0.587   1.690   4.515  0.0097  0.2914  1.0579
 5147SOL     OW27076   3.663   2.208   3.627  0.9228 -0.0729 -0.1807
 5147SOL    HW127077   3.592   2.262   3.593  1.7282  1.2202  0.1986
 5147SOL    HW227078   3.730   2.241   3.568  0.3609  0.5897 -0.4506
 5148SOL     OW27079   4.347   3.769  11.215  0.3263 -0.0343 -0.6223
 5148SOL    HW127080   4.366   3.678  11.190  1.9197  0.6158 -1.7578
 5148SOL    HW227081   4.268   3.753  11.266  1.1043  0.2458  0.6884
 5149SOL     OW27082   4.600   0.754  13.776 -0.2612  0.1025  0.5541
 5149SOL    HW127083   4.599   0.849  13.775 -1.9911  0.0794 -0.3227
 5149SOL    HW227084   4.633   0.731  13.862 -0.6034  1.9375  1.1635
 5150SOL     OW27085   3.004   1.469   2.505  0.1082  0.6778 -0.8818
 5150SOL    HW127086   3.004   1.494   2.597 -0.1137  0.2149 -0.7614
 5150SOL    HW227087   3.000   1.374   2.510  0.6056  0.5526 -2.8716
 5151SOL     OW27088   4.414   0.638   7.418 -0.4873  0.3593  0.1970
 5151SOL    HW127089   4.326   0.663   7.445 -0.8142  1.1225 -1.5587
 5151SOL    HW227090   4.455   0.617   7.502 -2.1091 -2.3522  0.3086
 5152SOL     OW27091   0.943   4.067   4.438  0.5692  0.3681 -0.1069
 5152SOL    HW127092   0.875   4.087   4.374 -0.2565  1.4662  1.1251
 5152SOL    HW227093   1.016   4.056   4.377  1.1596  1.5367  0.4051
 5153SOL     OW27094   4.009   0.729   2.843 -0.4208 -0.1166  0.0685
 5153SOL    HW127095   4.031   0.822   2.833  0.6855 -0.7167 -3.0494
 5153SOL    HW227096   4.027   0.701   2.753  2.6126 -0.9133  0.9238
 5154SOL     OW27097   1.842   2.914   3.954  0.1195  0.1915  0.5649
 5154SOL    HW127098   1.936   2.929   3.963  0.2181  0.4711 -0.8525
 5154SOL    HW227099   1.842   2.894   3.860 -1.7527 -0.2467  0.6463
 5155SOL     OW27100   2.408   4.619   5.700 -0.2562 -0.0693  0.0188
 5155SOL    HW127101   2.347   4.575   5.759 -0.0572  0.0569  0.3126
 5155SOL    HW227102   2.452   4.685   5.752 -2.9646  0.1887  1.9716
 5156SOL     OW27103   3.016   3.672  14.610 -0.6779 -0.1371 -0.1467
 5156SOL    HW127104   2.990   3.741  14.549  2.0028 -0.3246 -1.5185
 5156SOL    HW227105   3.026   3.708  14.698 -1.5032  0.9048 -0.4814
 5157SOL     OW27106   4.369   4.212  11.405  0.0854  0.5180 -0.1132
 5157SOL    HW127107   4.455   4.207  11.447 -0.0986  0.1439  0.2204
 5157SOL    HW227108   4.387   4.277  11.337 -1.8087 -0.4575 -1.5450
 5158SOL     OW27109   2.996   3.844  14.099 -0.5060 -1.0582 -0.3377
 5158SOL    HW127110   3.080   3.800  14.087  0.7706  1.9431 -2.4668
 5158SOL    HW227111   2.965   3.862  14.010 -0.0485 -0.8592 -0.4552
 5159SOL     OW27112   1.850   0.203   4.073  0.1077 -0.2300 -0.1032
 5159SOL    HW127113   1.891   0.262   4.010 -1.6475  0.0296 -0.9822
 5159SOL    HW227114   1.929   0.159   4.106  0.3434  1.3989  1.5103
 5160SOL     OW27115   0.758   2.726   1.101  0.0132  0.0727  0.1943
 5160SOL    HW127116   0.770   2.655   1.164  0.5737 -2.0663 -2.3603
 5160SOL    HW227117   0.713   2.795   1.150 -1.4688 -0.2943 -0.6524
 5161SOL     OW27118   0.923   2.773   5.325  0.2135  0.2308  0.1739
 5161SOL    HW127119   0.853   2.734   5.378 -1.3939  3.4741  0.4068
 5161SOL    HW227120   0.868   2.814   5.258 -0.1449 -0.0318  0.3057
 5162SOL     OW27121   0.785   1.653   7.316  0.0028  0.2187 -0.3428
 5162SOL    HW127122   0.808   1.570   7.359 -0.5061 -0.1711 -0.8124
 5162SOL    HW227123   0.725   1.624   7.247 -0.8811  0.1290  0.4609
 5163SOL     OW27124   2.329   3.163  17.239  0.4747  0.5091 -0.4207
 5163SOL    HW127125   2.261   3.096  17.231  0.7697  0.0187  1.1737
 5163SOL    HW227126   2.335   3.196  17.149  3.2557  0.6516 -0.1770
 5164SOL     OW27127   2.044   1.266   7.049  0.4407 -0.1873 -0.1567
 5164SOL    HW127128   2.072   1.192   6.996 -0.3228  0.7217 -1.8438
 5164SOL    HW227129   2.011   1.241   7.135  0.5037  0.5922  0.0967
 5165SOL     OW27130   2.458   2.797  12.204 -0.1005 -0.4308 -0.3971
 5165SOL    HW127131   2.375   2.808  12.158 -0.6714 -1.8694  0.3039
 5165SOL    HW227132   2.523   2.796  12.134  0.1756 -0.9069 -0.1353
 5166SOL     OW27133   3.733   0.635   2.884  0.2665  0.7814  0.3455
 5166SOL    HW127134   3.659   0.686   2.917  0.3740  0.1500  1.5533
 5166SOL    HW227135   3.805   0.692   2.908  0.5892  0.3021  0.5166
 5167SOL     OW27136   1.941   1.882   4.153  0.3995  0.5707  0.2924
 5167SOL    HW127137   1.929   1.790   4.176 -0.0707  0.0882 -1.9207
 5167SOL    HW227138   1.896   1.891   4.069  2.0784  3.6279 -0.2843
 5168SOL     OW27139   1.298   0.463   3.486  0.1660 -0.3036  0.6978
 5168SOL    HW127140   1.222   0.511   3.452 -0.5837 -0.4678  2.1481
 5168SOL    HW227141   1.267   0.431   3.570 -0.4262 -0.6265  0.3514
 5169SOL     OW27142   1.909   3.814  12.343 -0.1491  0.1888 -0.1739
 5169SOL    HW127143   1.992   3.816  12.391  0.7169  2.4594 -1.7472
 5169SOL    HW227144   1.936   3.876  12.275 -2.1399 -0.7730 -1.8291
 5170SOL     OW27145   1.258   4.288   6.401  0.2876 -0.3994  0.0670
 5170SOL    HW127146   1.265   4.337   6.319 -0.3153 -1.6860 -0.7677
 5170SOL    HW227147   1.246   4.198   6.369  0.2219 -0.6776  0.8897
 5171SOL     OW27148   1.371   1.646   7.721 -0.6943  0.1004  0.0519
 5171SOL    HW127149   1.296   1.652   7.781 -0.5960  1.2251  0.0615
 5171SOL    HW227150   1.325   1.596   7.654 -2.9240  0.1316  1.5452
 5172SOL     OW27151   2.162   1.958   2.252 -0.6525  0.3359  0.9259
 5172SOL    HW127152   2.240   1.948   2.308  0.7462 -0.0381 -1.1060
 5172SOL    HW227153   2.115   2.017   2.312 -0.4101  2.4373 -0.9413
 5173SOL     OW27154   1.164   0.482  16.035  0.6753 -0.1768 -0.1353
 5173SOL    HW127155   1.129   0.500  16.122 -2.4513 -1.4541 -1.1480
 5173SOL    HW227156   1.132   0.554  15.980 -0.3164 -0.7217 -0.2631
 5174SOL     OW27157   2.256   4.619   0.679  0.4737 -0.4276  0.1905
 5174SOL    HW127158   2.275   4.526   0.665 -1.9973 -1.0986  1.2529
 5174SOL    HW227159   2.276   4.641   0.588 -0.7278  3.2160  0.8267
 5175SOL     OW27160   4.465   0.959   0.985  0.3147  0.1871  0.0298
 5175SOL    HW127161   4.372   0.954   1.009  0.1314  1.0840 -0.4927
 5175SOL    HW227162   4.512   0.928   1.062  2.3032 -2.6622 -2.3477
 5176SOL     OW27163   2.603   2.505   6.312 -0.2395 -0.1696 -0.1053
 5176SOL    HW127164   2.542   2.458   6.370 -1.2131 -1.0921 -1.8780
 5176SOL    HW227165   2.541   2.569   6.277  0.7485  0.2613 -1.0322
 5177SOL     OW27166   1.905   3.130   5.204  0.5683  0.1954  0.6976
 5177SOL    HW127167   1.885   3.040   5.178 -0.8879  1.4639 -2.6064
 5177SOL    HW227168   1.998   3.141   5.183  0.3298  0.7960 -0.0456
 5178SOL     OW27169   0.630   0.053  12.095  0.1847  0.1318 -0.1292
 5178SOL    HW127170   0.703   0.106  12.127 -0.0059  1.1398 -1.3524
 5178SOL    HW227171   0.686   4.726  12.057 -0.3888 -1.0007  1.0687
 5179SOL     OW27172   3.794   3.691   8.149 -0.2077  0.4594  0.1644
 5179SOL    HW127173   3.714   3.701   8.200 -0.4585 -0.9648  0.0451
 5179SOL    HW227174   3.750   3.662   8.070 -2.0445  1.5126  0.8041
 5180SOL     OW27175   2.715   1.066   7.855  0.1661 -0.0047  0.7784
 5180SOL    HW127176   2.737   1.133   7.920 -0.4653  0.8179  0.1402
 5180SOL    HW227177   2.656   1.014   7.910 -1.6832 -1.1801 -2.3359
 5181SOL     OW27178   4.178   0.690  12.161  0.3464 -0.2070 -0.3482
 5181SOL    HW127179   4.231   0.612  12.176 -0.0172 -0.0766  1.5798
 5181SOL    HW227180   4.087   0.663  12.152  0.7025 -0.7265 -2.2860
 5182SOL     OW27181   0.476   0.665   0.358  1.1209 -0.3179  0.0095
 5182SOL    HW127182   0.448   0.660   0.450  1.4276 -0.5162  0.0919
 5182SOL    HW227183   0.568   0.692   0.365  1.3541 -1.7845  2.5656
 5183SOL     OW27184   2.337   4.380   3.156  0.1936 -0.0118  0.5314
 5183SOL    HW127185   2.349   4.390   3.251  2.1494 -2.0154  0.5114
 5183SOL    HW227186   2.305   4.468   3.138  1.1259  0.0011 -1.0689
 5184SOL     OW27187   4.482   4.078   6.738 -0.0783  0.2860 -0.4894
 5184SOL    HW127188   4.547   4.012   6.717  0.2839  0.0940  1.1911
 5184SOL    HW227189   4.437   4.075   6.654 -0.9566 -0.8676  0.0156
 5185SOL     OW27190   2.505   4.494   5.477  0.0015 -0.5808 -0.4636
 5185SOL    HW127191   2.446   4.544   5.533  0.8985  1.5564 -1.4388
 5185SOL    HW227192   2.461   4.509   5.393  2.4171 -0.9397 -1.7837
 5186SOL     OW27193   3.440   1.582   8.605  0.2986 -0.0974  0.0151
 5186SOL    HW127194   3.511   1.533   8.564  0.7963 -2.7492  4.0212
 5186SOL    HW227195   3.381   1.610   8.534  2.4909 -0.8938 -2.1024
 5187SOL     OW27196   4.307   0.831   5.638  0.4018  0.2450 -0.1958
 5187SOL    HW127197   4.273   0.859   5.723  3.5466  0.3928  1.0253
 5187SOL    HW227198   4.280   0.909   5.590  1.4344 -0.0935 -1.3302
 5188SOL     OW27199   2.766   4.168  11.721  0.7842 -1.0224 -0.2526
 5188SOL    HW127200   2.794   4.084  11.685 -0.6341 -1.1801 -0.9674
 5188SOL    HW227201   2.696   4.134  11.777  0.7447  1.3753  1.1962
 5189SOL     OW27202   0.839   3.574   6.042 -0.2272 -0.3648 -0.3965
 5189SOL    HW127203   0.876   3.500   6.089  0.8068 -0.3536 -1.2072
 5189SOL    HW227204   0.754   3.541   6.013  0.1885 -0.9921 -0.8882
 5190SOL     OW27205   0.691   2.156   7.121  0.4799 -0.7219  0.4366
 5190SOL    HW127206   0.652   2.091   7.063 -1.4362 -0.1167  1.0426
 5190SOL    HW227207   0.662   2.128   7.208  0.3536 -0.4450  0.4810
 5191SOL     OW27208   1.361   1.769   3.543 -0.0020  0.1486 -0.0770
 5191SOL    HW127209   1.408   1.753   3.625  0.4322  2.7067  0.1831
 5191SOL    HW227210   1.272   1.737   3.561  0.5181 -1.5212 -0.4792
 5192SOL     OW27211   0.163   0.743   9.425  0.2488 -0.2637  0.4241
 5192SOL    HW127212   0.142   0.829   9.388  2.5174 -0.3726 -1.1444
 5192SOL    HW227213   0.133   0.675   9.365  0.1582 -0.7863  1.0627
 5193SOL     OW27214   2.497   4.062   4.976  0.0376 -0.2908 -0.2975
 5193SOL    HW127215   2.415   4.021   5.005 -1.0383  2.0851  0.0376
 5193SOL    HW227216   2.556   4.032   5.045 -0.0134  0.1783 -0.0545
 5194SOL     OW27217   2.753   1.299   3.117 -1.0965 -0.0478 -0.0415
 5194SOL    HW127218   2.729   1.214   3.155  0.4817 -0.4080  0.1612
 5194SOL    HW227219   2.785   1.261   3.035  1.8914 -0.2236  1.2035
 5195SOL     OW27220   2.086   1.214   4.417  0.2935  0.1300  0.0696
 5195SOL    HW127221   2.030   1.142   4.392  3.4581 -1.3488 -2.8047
 5195SOL    HW227222   2.039   1.251   4.492  0.8180  0.3504  0.2969
 5196SOL     OW27223   0.100   2.857   1.403  0.3898 -0.0377  0.3257
 5196SOL    HW127224   0.065   2.943   1.425  0.5740  0.1060  0.0530
 5196SOL    HW227225   0.087   2.809   1.485 -0.5601  0.6291  0.5585
 5197SOL     OW27226   2.756   4.161   0.513  0.4647  0.1677  0.7153
 5197SOL    HW127227   2.734   4.095   0.578  0.2490  0.2123  0.6862
 5197SOL    HW227228   2.695   4.144   0.442 -0.2196 -0.0959  1.3669
 5198SOL     OW27229   0.798   3.479   7.521 -0.1648  0.0721  0.7555
 5198SOL    HW127230   0.742   3.446   7.591 -1.7355  0.8473 -0.1502
 5198SOL    HW227231   0.838   3.555   7.564 -1.1554  0.7116  0.5398
 5199SOL     OW27232   4.129   0.560   1.264 -0.2527  0.0442 -0.2371
 5199SOL    HW127233   4.106   0.574   1.356 -1.0716  1.9657 -0.7101
 5199SOL    HW227234   4.065   0.499   1.226 -2.0868  1.5283  0.4262
 5200SOL     OW27235   2.730   1.211   4.085  0.1851 -0.1719  0.0020
 5200SOL    HW127236   2.736   1.231   4.178 -1.2362 -0.1641  0.0969
 5200SOL    HW227237   2.635   1.199   4.081  0.5149 -2.3775 -1.2377
 5201SOL     OW27238   3.988   2.786  17.211  0.0114 -0.1259 -0.3883
 5201SOL    HW127239   4.020   2.789  17.121 -0.1083  1.3698 -0.3932
 5201SOL    HW227240   3.987   2.880  17.232 -0.0721 -0.3462  0.5782
 5202SOL     OW27241   4.639   0.383   1.614  0.2061 -0.3052  0.0853
 5202SOL    HW127242   4.724   0.397   1.573 -0.1833 -0.7478 -0.8689
 5202SOL    HW227243   4.661   0.307   1.669 -1.0731 -1.3355 -0.8294
 5203SOL     OW27244   0.293   3.409   3.151 -0.0133  0.2149  0.2666
 5203SOL    HW127245   0.372   3.461   3.162  0.6949 -1.8514  5.1057
 5203SOL    HW227246   0.238   3.468   3.203  0.1245 -0.0608  0.7235
 5204SOL     OW27247   2.707   2.173   2.488 -0.1468 -0.0551  0.2045
 5204SOL    HW127248   2.663   2.243   2.439 -1.7788 -0.7509  0.6443
 5204SOL    HW227249   2.672   2.193   2.574 -1.3687  0.3005 -0.3682
 5205SOL     OW27250   1.613   3.126   3.664  0.1481 -0.4526  0.2771
 5205SOL    HW127251   1.681   3.140   3.731 -1.3086 -0.7674  1.8087
 5205SOL    HW227252   1.597   3.219   3.648 -0.4882 -0.3007  1.8477
 5206SOL     OW27253   4.589   0.028   6.351 -0.4392  0.3582  0.5081
 5206SOL    HW127254   4.494   0.032   6.358 -0.5681 -1.2058 -0.3102
 5206SOL    HW227255   4.612   4.721   6.432 -3.0245 -0.2836  0.8713
 5207SOL     OW27256   3.557   0.701   4.556  0.3623 -0.4148 -0.4435
 5207SOL    HW127257   3.552   0.613   4.594  0.6307 -0.4057 -0.3828
 5207SOL    HW227258   3.602   0.672   4.477  1.9115 -0.4073  0.4267
 5208SOL     OW27259   3.729   2.522   5.159  0.0266 -0.0788 -0.5068
 5208SOL    HW127260   3.734   2.452   5.225  0.2048  0.6196  0.2171
 5208SOL    HW227261   3.761   2.480   5.079  1.7008  0.7535 -0.2571
 5209SOL     OW27262   3.703   2.549   4.702 -0.2386 -0.1444  0.1243
 5209SOL    HW127263   3.745   2.514   4.780  0.3518  0.5684  0.1307
 5209SOL    HW227264   3.632   2.598   4.744  0.5093  1.7513 -0.8031
 5210SOL     OW27265   3.701   3.977  10.060 -0.1043 -0.1810 -0.5914
 5210SOL    HW127266   3.718   4.068  10.033  0.0606 -0.0701 -0.1105
 5210SOL    HW227267   3.668   3.940   9.978 -2.1645  0.1686  0.0988
 5211SOL     OW27268   2.498   0.760   4.563 -0.0250  0.5487 -0.5862
 5211SOL    HW127269   2.406   0.779   4.545 -0.1475 -0.1114 -0.6709
 5211SOL    HW227270   2.538   0.843   4.538  0.9822 -0.2914 -1.7820
 5212SOL     OW27271   1.198   4.196   0.836  0.1545  0.4799 -0.3304
 5212SOL    HW127272   1.260   4.268   0.824  1.8865 -1.0005 -0.2655
 5212SOL    HW227273   1.156   4.228   0.916 -0.0495  0.5191 -0.4543
 5213SOL     OW27274   3.750   2.749   1.889 -0.6448  0.5633 -0.1236
 5213SOL    HW127275   3.834   2.790   1.868  0.5322 -0.2968  2.8187
 5213SOL    HW227276   3.705   2.740   1.806  0.7126 -1.6407 -0.6225
 5214SOL     OW27277   0.818   2.643   6.814 -0.2557 -0.5803  0.0685
 5214SOL    HW127278   0.753   2.575   6.830 -0.8418  0.0493  0.3958
 5214SOL    HW227279   0.897   2.597   6.844 -0.9391 -1.0680  1.1376
 5215SOL     OW27280   2.689   0.900   8.567 -0.2086 -0.2618 -0.7054
 5215SOL    HW127281   2.750   0.880   8.495 -1.2204 -2.3401 -0.9837
 5215SOL    HW227282   2.756   0.912   8.634 -1.2098 -0.3141  0.2988
 5216SOL     OW27283   2.855   0.205   2.073  0.1984 -0.1172  0.4855
 5216SOL    HW127284   2.812   0.119   2.077  0.8691 -0.5490 -1.2923
 5216SOL    HW227285   2.814   0.238   1.994 -0.1817 -1.3109  0.1815
 5217SOL     OW27286   3.041   2.535  12.957  0.2751 -0.7256 -0.8077
 5217SOL    HW127287   3.075   2.535  13.046 -0.0866  1.5098 -0.6712
 5217SOL    HW227288   2.953   2.501  12.972  0.2206 -0.0833  0.2866
 5218SOL     OW27289   4.604   1.266  15.061 -0.7443  0.2573 -0.3024
 5218SOL    HW127290   4.630   1.237  14.974  0.8977 -3.6461  1.4886
 5218SOL    HW227291   4.517   1.230  15.074 -0.7118  0.5422  0.7819
 5219SOL     OW27292   0.952   4.182   5.418  0.1212 -0.1172 -0.1269
 5219SOL    HW127293   0.932   4.255   5.477 -0.8148 -1.2414  0.9675
 5219SOL    HW227294   1.045   4.193   5.401  0.0469  0.8384  0.0880
 5220SOL     OW27295   0.038   0.524   4.845 -0.2714  0.2231 -0.2381
 5220SOL    HW127296   0.114   0.578   4.867 -0.0684 -0.5529  0.9981
 5220SOL    HW227297   4.738   0.521   4.932 -0.3066 -0.4790 -0.2718
 5221SOL     OW27298   3.261   3.211   3.713  0.3026 -0.2479 -0.0450
 5221SOL    HW127299   3.177   3.197   3.670 -0.0021 -0.4865  0.6234
 5221SOL    HW227300   3.302   3.130   3.683  0.3137 -1.3090  2.7442
 5222SOL     OW27301   3.607   1.556   6.288 -0.0751  0.3457  0.5980
 5222SOL    HW127302   3.635   1.645   6.308 -0.5139  0.5876  0.1483
 5222SOL    HW227303   3.661   1.503   6.347  1.1506  0.0870 -0.7502
 5223SOL     OW27304   0.914   1.271  12.039  0.3082  0.2645 -0.1834
 5223SOL    HW127305   1.006   1.298  12.043  0.6713 -1.1739  1.2099
 5223SOL    HW227306   0.903   1.260  11.945  1.0037  0.3138 -0.2692
 5224SOL     OW27307   1.074   2.830   3.778  0.6601 -0.0224  0.1663
 5224SOL    HW127308   1.026   2.905   3.812 -1.0307 -0.6416 -0.8182
 5224SOL    HW227309   1.018   2.795   3.708  1.8734 -0.3428 -0.6322
 5225SOL     OW27310   3.510   2.713   2.853 -0.1886  0.2071 -0.2695
 5225SOL    HW127311   3.525   2.620   2.837  3.6141  0.5189  1.5660
 5225SOL    HW227312   3.600   2.742   2.835  0.0735 -0.1026  0.5561
 5226SOL     OW27313   2.247   1.159   2.366  0.2533  0.3015 -0.0421
 5226SOL    HW127314   2.279   1.097   2.300  0.1061  0.4845 -0.2871
 5226SOL    HW227315   2.333   1.181   2.401  0.2676 -0.1668  0.2123
 5227SOL     OW27316   4.634   2.603   5.886 -0.2489 -0.4685 -0.6041
 5227SOL    HW127317   4.658   2.512   5.870  0.5238 -0.6328  1.3890
 5227SOL    HW227318   4.617   2.626   5.795 -1.5834 -1.4901 -0.6052
 5228SOL     OW27319   3.405   4.225  17.106  0.0614  0.4579  0.3276
 5228SOL    HW127320   3.426   4.317  17.093 -1.8422  0.5535 -2.0246
 5228SOL    HW227321   3.311   4.230  17.123  0.0632 -0.1801  0.5242
 5229SOL     OW27322   3.925   3.145  10.387 -0.4001 -0.5130  0.0948
 5229SOL    HW127323   3.839   3.185  10.376 -1.3024 -2.3534  0.4960
 5229SOL    HW227324   3.904   3.056  10.357  3.4937 -1.4333  0.0491
 5230SOL     OW27325   1.027   1.412   3.320 -0.4125  0.5366  0.1424
 5230SOL    HW127326   1.101   1.440   3.374  0.0684 -0.6917  0.1300
 5230SOL    HW227327   1.068   1.365   3.248 -1.4565 -0.7097  0.3621
 5231SOL     OW27328   3.024   3.240   7.361 -0.1849 -0.1646 -0.5215
 5231SOL    HW127329   3.093   3.233   7.295 -0.8715 -0.1898 -1.2375
 5231SOL    HW227330   3.083   3.245   7.436 -1.3992  0.0247  0.4141
 5232SOL     OW27331   4.213   3.380  15.218 -0.2683  0.0453 -0.1574
 5232SOL    HW127332   4.122   3.351  15.210 -0.2006  0.3253 -1.7855
 5232SOL    HW227333   4.228   3.409  15.128 -0.6750  0.1854 -0.1790
 5233SOL     OW27334   0.081   2.296   0.608  0.3541 -0.2385  0.6824
 5233SOL    HW127335   0.135   2.220   0.586 -0.2668  0.2727 -2.5811
 5233SOL    HW227336   0.072   2.295   0.704 -0.2159  1.7172  0.6460
 5234SOL     OW27337   0.766   3.762   5.252 -0.2789 -0.1602 -0.4811
 5234SOL    HW127338   0.812   3.830   5.302 -2.2601  1.3225 -0.6893
 5234SOL    HW227339   0.838   3.750   5.191  1.6859  2.9441  1.1980
 5235SOL     OW27340   3.325   3.997   0.889  0.9568 -0.2525 -0.5595
 5235SOL    HW127341   3.243   3.949   0.900  0.9369  0.2048  1.1874
 5235SOL    HW227342   3.353   4.018   0.978 -1.3352 -2.4505  0.6927
 5236SOL     OW27343   4.400   0.889   3.683 -0.2700  0.5064  0.2263
 5236SOL    HW127344   4.430   0.979   3.696 -1.6697  1.1775 -1.1793
 5236SOL    HW227345   4.469   0.831   3.714 -0.9227 -0.3118  0.1263
 5237SOL     OW27346   0.594   3.495   9.567  0.0439  0.0514 -0.4033
 5237SOL    HW127347   0.636   3.555   9.628 -2.9452  2.5280 -0.7925
 5237SOL    HW227348   0.545   3.439   9.627 -1.7489  1.5031 -0.5010
 5238SOL     OW27349   0.435   4.269   7.356 -0.1144 -0.0612  0.2592
 5238SOL    HW127350   0.388   4.197   7.399 -1.8619  1.0243  0.1494
 5238SOL    HW227351   0.413   4.344   7.411 -4.0218  0.3056 -1.8942
 5239SOL     OW27352   3.090   3.727   2.715 -0.0138  0.4474  0.3743
 5239SOL    HW127353   3.135   3.672   2.779 -3.0074 -1.6372  0.7304
 5239SOL    HW227354   3.060   3.658   2.655 -0.1583  2.0473 -1.4093
 5240SOL     OW27355   1.226   1.900  16.160 -0.4900  0.0165  0.4814
 5240SOL    HW127356   1.272   1.961  16.218  0.7840  1.9539 -2.5338
 5240SOL    HW227357   1.268   1.903  16.074  1.3211  0.4928  1.3801
 5241SOL     OW27358   1.206   0.207   9.610  0.3270 -0.1453 -0.3698
 5241SOL    HW127359   1.292   0.247   9.627  0.5821 -1.3107  1.0873
 5241SOL    HW227360   1.207   0.152   9.532  2.1477 -2.6534  1.4402
 5242SOL     OW27361   2.541   0.305   8.228 -0.3006  0.1492 -0.0789
 5242SOL    HW127362   2.549   0.220   8.272  0.2672 -0.2544 -0.9673
 5242SOL    HW227363   2.449   0.299   8.204 -0.2232 -2.0727  0.1593
 5243SOL     OW27364   0.980   0.232   5.178 -0.0994 -0.4076 -0.1445
 5243SOL    HW127365   1.066   0.191   5.180  1.3246  2.7409  2.9364
 5243SOL    HW227366   0.992   0.306   5.119  2.3171  0.4232  1.4001
 5244SOL     OW27367   4.198   2.899   7.651  0.6030  0.0450  0.5916
 5244SOL    HW127368   4.116   2.851   7.656  1.6537 -2.0143 -1.8718
 5244SOL    HW227369   4.188   2.952   7.729 -0.9729  0.4294  0.1169
 5245SOL     OW27370   2.812   3.205  13.563  0.0718  0.5484  0.1116
 5245SOL    HW127371   2.882   3.146  13.593 -1.6474 -0.7682  1.5389
 5245SOL    HW227372   2.848   3.237  13.481  2.1927  0.1090  0.8659
 5246SOL     OW27373   3.928   3.583  11.309 -0.4316  0.3060  0.0949
 5246SOL    HW127374   3.859   3.559  11.248  0.3220  0.5282 -0.8295
 5246SOL    HW227375   3.873   3.604  11.385  0.4971 -0.9103  1.1160
 5247SOL     OW27376   2.984   0.805   3.989 -0.7981 -0.0521  0.0551
 5247SOL    HW127377   3.060   0.823   4.045  0.3707  0.8923 -1.8524
 5247SOL    HW227378   2.940   0.889   3.978 -0.7071 -0.2537 -1.7627
 5248SOL     OW27379   0.498   1.781   9.372 -0.1540  0.3320  0.3753
 5248SOL    HW127380   0.526   1.727   9.445 -0.9588  0.4259  0.7575
 5248SOL    HW227381   0.578   1.830   9.352  0.9286 -1.2745  0.7686
 5249SOL     OW27382   3.458   0.817   4.954 -0.4476 -0.4544  0.0155
 5249SOL    HW127383   3.549   0.788   4.952 -0.8744 -1.6603 -1.8837
 5249SOL    HW227384   3.452   0.859   5.040 -0.9251  1.1521 -0.8269
 5250SOL     OW27385   0.863   0.747   4.731 -0.2395  0.0620 -0.2510
 5250SOL    HW127386   0.815   0.679   4.683 -0.3703  1.2462 -1.8013
 5250SOL    HW227387   0.822   0.830   4.709 -1.8034 -0.8921 -0.8881
 5251SOL     OW27388   3.696   2.719   7.947  0.4011 -0.6118  0.1975
 5251SOL    HW127389   3.672   2.725   7.855 -1.7874 -1.5173  0.7119
 5251SOL    HW227390   3.608   2.716   7.986 -0.2476  2.0498 -1.0420
 5252SOL     OW27391   3.083   1.808  16.279 -1.3892 -0.1680  0.0264
 5252SOL    HW127392   3.077   1.802  16.374  1.9598 -0.3400  0.2329
 5252SOL    HW227393   2.991   1.822  16.258 -0.3869  2.2140 -2.7091
 5253SOL     OW27394   1.158   4.706   7.262 -0.1345 -0.4402 -0.3227
 5253SOL    HW127395   1.081   4.690   7.315 -0.9223 -1.5810 -1.8178
 5253SOL    HW227396   1.174   0.060   7.264  2.2923 -0.8730  0.8784
 5254SOL     OW27397   0.125   0.451   6.245  0.0239  0.4530  0.3124
 5254SOL    HW127398   0.126   0.369   6.195 -0.4601  1.1627 -0.8852
 5254SOL    HW227399   0.118   0.432   6.338  0.5218  1.3263  0.5304
 5255SOL     OW27400   2.978   2.970   7.048 -0.0425  0.1327 -0.4378
 5255SOL    HW127401   3.016   2.884   7.063 -1.2095 -0.3157 -0.0052
 5255SOL    HW227402   2.926   2.992   7.126 -0.1232  2.9602 -1.2783
 5256SOL     OW27403   4.235   2.002  15.983 -0.1320  0.8018  0.3537
 5256SOL    HW127404   4.238   2.097  15.983 -1.5718  0.8554  2.0411
 5256SOL    HW227405   4.196   1.994  16.071 -2.5854 -1.3702 -0.9201
 5257SOL     OW27406   2.406   1.511  11.012  0.5718 -0.3459  0.0838
 5257SOL    HW127407   2.487   1.536  10.967 -0.6911 -1.1274 -2.6768
 5257SOL    HW227408   2.392   1.419  10.990  2.1671  0.1250 -3.0075
 5258SOL     OW27409   4.696   3.826   4.288  0.1076  0.0756  0.4108
 5258SOL    HW127410   4.725   3.735   4.289  1.0453  0.3831  1.7107
 5258SOL    HW227411   0.003   3.851   4.208  0.1095  0.8902  0.6681
 5259SOL     OW27412   3.079   1.023   1.824 -0.9183  0.4625 -0.8683
 5259SOL    HW127413   3.089   1.026   1.729  0.1942  0.8461 -0.7455
 5259SOL    HW227414   3.173   1.017   1.844 -1.0547  2.1381  0.3125
 5260SOL     OW27415   2.493   0.564   8.311 -0.2962  0.1990 -0.3963
 5260SOL    HW127416   2.534   0.480   8.293  0.6747  1.0000 -1.9247
 5260SOL    HW227417   2.567   0.623   8.297 -0.3817  0.5071  0.3974
 5261SOL     OW27418   2.461   0.247  10.638 -0.6200 -0.0213 -0.0306
 5261SOL    HW127419   2.511   0.286  10.710  0.2538 -3.0807  1.0034
 5261SOL    HW227420   2.369   0.264  10.660  0.0213 -0.6159  3.1286
 5262SOL     OW27421   3.523   4.188  11.036 -0.5023 -0.3755 -0.3489
 5262SOL    HW127422   3.453   4.143  11.084  0.2988  0.1296  1.3112
 5262SOL    HW227423   3.479   4.234  10.965 -1.3453 -2.0818 -0.9222
 5263SOL     OW27424   1.576   3.811   3.786 -0.0216  0.3645  0.1170
 5263SOL    HW127425   1.655   3.762   3.765 -2.2537 -3.0121 -0.3743
 5263SOL    HW227426   1.593   3.828   3.879  0.8822 -2.6465  0.4968
 5264SOL     OW27427   1.601   3.197   4.612 -0.0100 -0.1513  0.2158
 5264SOL    HW127428   1.618   3.151   4.694  1.0539  0.0488  0.1044
 5264SOL    HW227429   1.613   3.287   4.643 -0.9650 -0.2935  1.0099
 5265SOL     OW27430   3.625   1.968  13.684  0.1943 -0.2375 -0.5469
 5265SOL    HW127431   3.588   1.881  13.682 -0.9383  0.1975  1.7166
 5265SOL    HW227432   3.613   1.994  13.592 -1.0398 -1.3218 -0.6831
 5266SOL     OW27433   1.394   3.141   7.179 -0.3859 -0.5366 -0.4958
 5266SOL    HW127434   1.464   3.134   7.243 -0.0444 -0.4914 -0.8645
 5266SOL    HW227435   1.372   3.234   7.168 -0.4816 -1.0285 -4.4469
 5267SOL     OW27436   4.447   1.765  10.089  0.2641  0.0189  0.2518
 5267SOL    HW127437   4.491   1.681  10.102  1.9887  0.6558 -1.4262
 5267SOL    HW227438   4.362   1.737  10.056  0.3539  1.6246 -1.4038
 5268SOL     OW27439   1.228   3.041  10.453 -0.2160 -0.1256 -0.0998
 5268SOL    HW127440   1.320   3.065  10.461 -0.1460 -0.9228  1.5313
 5268SOL    HW227441   1.191   3.107  10.513 -1.6607 -0.9696 -0.0594
 5269SOL     OW27442   4.343   2.200   3.592 -0.1969 -0.1119  0.0755
 5269SOL    HW127443   4.250   2.221   3.599 -0.0856 -0.1196  1.5243
 5269SOL    HW227444   4.340   2.157   3.506 -0.2386  0.1690 -0.0652
 5270SOL     OW27445   4.378   4.384   7.466 -0.4316  0.1775  0.3870
 5270SOL    HW127446   4.414   4.468   7.436 -0.1625  0.1181  0.5359
 5270SOL    HW227447   4.294   4.424   7.487 -1.6473 -2.0775 -0.1582
 5271SOL     OW27448   1.970   2.577   7.065 -0.3555  0.3498  0.7004
 5271SOL    HW127449   2.029   2.590   7.139  0.6889 -0.5002  0.0187
 5271SOL    HW227450   1.948   2.484   7.071  1.3771 -0.1461 -0.7777
 5272SOL     OW27451   1.521   1.757   4.301 -0.0230  0.0428  0.8428
 5272SOL    HW127452   1.577   1.681   4.315  1.7360  1.1227 -0.2633
 5272SOL    HW227453   1.538   1.773   4.208 -0.8692 -0.6670  0.5719
 5273SOL     OW27454   0.302   1.908   3.489  0.0016 -0.4035  0.3401
 5273SOL    HW127455   0.315   1.951   3.405 -1.2102  2.5405  1.6416
 5273SOL    HW227456   0.265   1.823   3.464 -1.3457  0.8064 -1.7726
 5274SOL     OW27457   2.622   2.433   9.709 -0.3521  0.9918 -0.0017
 5274SOL    HW127458   2.684   2.502   9.689  1.8113 -1.5515 -2.1283
 5274SOL    HW227459   2.656   2.365   9.650  1.1443 -0.6125  2.7027
 5275SOL     OW27460   0.263   0.429   8.265  0.2616  0.2653  0.5662
 5275SOL    HW127461   0.343   0.383   8.290 -0.5994 -2.3378 -1.3964
 5275SOL    HW227462   0.209   0.411   8.342 -2.5020  0.2520 -1.3660
 5276SOL     OW27463   3.865   0.176   4.478  0.1889 -0.2641  0.3949
 5276SOL    HW127464   3.806   0.238   4.521  0.6528  0.6601 -0.3018
 5276SOL    HW227465   3.867   0.220   4.393 -1.2291  1.6818  1.3420
 5277SOL     OW27466   0.191   4.480   4.699 -0.3354  0.2895  0.5413
 5277SOL    HW127467   0.277   4.494   4.660 -0.0704 -1.0600  0.6399
 5277SOL    HW227468   0.185   4.385   4.695  1.5533  0.2033 -0.0715
 5278SOL     OW27469   1.489   4.128   7.802  0.0523 -0.5437 -0.6282
 5278SOL    HW127470   1.449   4.042   7.800  1.4117 -1.1454 -1.7294
 5278SOL    HW227471   1.537   4.126   7.718  2.9230 -3.1573  1.0832
 5279SOL     OW27472   4.299   1.949   3.850  0.7428  0.0251 -0.0628
 5279SOL    HW127473   4.357   2.024   3.839  0.9658 -0.4398 -2.0266
 5279SOL    HW227474   4.332   1.920   3.935  1.1155  1.4222  0.2745
 5280SOL     OW27475   1.069   2.552   7.526  0.2251 -0.3114 -0.3958
 5280SOL    HW127476   1.112   2.492   7.586  0.1871 -1.9306 -2.0003
 5280SOL    HW227477   0.992   2.578   7.576  0.8616  1.2750 -0.2356
 5281SOL     OW27478   0.753   3.563   2.575  0.9377 -0.0448  0.3282
 5281SOL    HW127479   0.740   3.489   2.517  1.3099 -0.4638  0.7822
 5281SOL    HW227480   0.796   3.628   2.519 -0.7227  0.1919 -0.6600
 5282SOL     OW27481   1.298   1.511   2.980 -0.1003  0.5804 -0.0617
 5282SOL    HW127482   1.240   1.576   2.940 -0.2800  0.1052 -0.5739
 5282SOL    HW227483   1.305   1.556   3.065 -1.0400 -0.5453  0.6209
 5283SOL     OW27484   4.509   1.010   7.488 -0.0760 -0.5291 -0.1966
 5283SOL    HW127485   4.525   0.917   7.502  1.0357 -0.3259 -0.0894
 5283SOL    HW227486   4.433   1.019   7.545 -0.5170 -0.0429 -0.8672
 5284SOL     OW27487   3.855   1.274   5.425  0.3406 -0.0600  0.0741
 5284SOL    HW127488   3.840   1.196   5.479  2.1410  0.1097  0.8297
 5284SOL    HW227489   3.862   1.233   5.339  1.1581  1.8590 -0.7506
 5285SOL     OW27490   3.057   1.977   3.361  0.0563  0.1419 -0.1391
 5285SOL    HW127491   3.019   1.941   3.441 -2.0112  1.1400 -0.6668
 5285SOL    HW227492   3.092   2.064   3.382  0.7151  0.1987 -1.4681
 5286SOL     OW27493   0.586   1.951  13.591 -0.3818 -0.0365 -0.0706
 5286SOL    HW127494   0.542   2.000  13.660 -2.1405 -0.4464 -0.8853
 5286SOL    HW227495   0.531   1.973  13.516 -1.4834 -1.2802  0.3693
 5287SOL     OW27496   0.396   0.422   1.601  0.0725  0.1905 -0.3511
 5287SOL    HW127497   0.404   0.461   1.688 -0.4961  0.5525 -0.4576
 5287SOL    HW227498   0.408   0.331   1.626  1.2742 -0.5829 -3.7259
 5288SOL     OW27499   0.845   2.868   1.670  0.8602 -0.4100  0.1779
 5288SOL    HW127500   0.887   2.953   1.654  1.1316 -0.8690 -1.5231
 5288SOL    HW227501   0.781   2.900   1.734  2.4552  1.1142  1.0332
 5289SOL     OW27502   2.255   3.889  13.556 -0.2113  0.5816 -0.3958
 5289SOL    HW127503   2.346   3.871  13.531 -0.2633 -0.6493  0.3182
 5289SOL    HW227504   2.271   3.957  13.621  2.1182 -0.2880 -0.0338
 5290SOL     OW27505   0.430   0.071  10.842  0.0759  0.2488 -0.3093
 5290SOL    HW127506   0.356   0.132  10.836 -0.1909 -0.0276  0.1850
 5290SOL    HW227507   0.454   0.076  10.934 -0.7171  2.0725 -0.1908
 5291SOL     OW27508   1.513   4.687   7.645 -0.4520 -0.1876 -0.2331
 5291SOL    HW127509   1.599   4.722   7.671 -1.5413  1.2704  1.4555
 5291SOL    HW227510   1.501   4.724   7.558  2.4291  0.4416 -0.3589
 5292SOL     OW27511   1.957   3.292  12.600  0.2759 -0.4488 -0.4179
 5292SOL    HW127512   1.887   3.354  12.620 -1.3551 -2.0338 -1.1782
 5292SOL    HW227513   2.022   3.349  12.558  1.5058 -0.2261  1.7678
 5293SOL     OW27514   3.288   2.469   6.540 -0.2770 -0.3488  0.6656
 5293SOL    HW127515   3.202   2.437   6.566 -1.2085  1.9334  0.3424
 5293SOL    HW227516   3.287   2.559   6.571 -1.2208 -0.4181  0.8403
 5294SOL     OW27517   2.890   0.092   3.226 -0.2677 -0.1432 -0.3353
 5294SOL    HW127518   2.871   0.176   3.269  0.4212  0.9676 -2.1616
 5294SOL    HW227519   2.932   0.037   3.292  1.1427  2.3058  0.8230
 5295SOL     OW27520   2.643   0.242  17.707  0.1450 -0.1237  0.0258
 5295SOL    HW127521   2.638   0.337  17.691 -0.6616 -0.1082  0.3882
 5295SOL    HW227522   2.615   0.230   0.040  0.2979  0.6218  0.1727
 5296SOL     OW27523   1.640   1.673   6.357  0.0258  0.0531  0.3325
 5296SOL    HW127524   1.711   1.733   6.335  1.1865 -0.8583  1.5941
 5296SOL    HW227525   1.577   1.733   6.395 -1.4577 -1.6430  0.5562
 5297SOL     OW27526   0.604   4.339   8.605  0.1066  0.0311  0.0204
 5297SOL    HW127527   0.534   4.279   8.580 -0.2548  0.8962 -1.0620
 5297SOL    HW227528   0.559   4.424   8.602 -0.6912 -0.4159 -0.6734
 5298SOL     OW27529   3.903   1.227   5.802  0.0755  0.7756 -0.4439
 5298SOL    HW127530   3.857   1.176   5.869  2.0512 -2.4779 -1.5643
 5298SOL    HW227531   3.954   1.282   5.862 -0.6450 -0.4188  1.2652
 5299SOL     OW27532   0.931   4.554   5.911  0.1690 -0.0957  0.0068
 5299SOL    HW127533   0.929   4.617   5.984  2.5929  1.5047 -1.2882
 5299SOL    HW227534   1.022   4.562   5.883  0.1500  2.0988  0.5283
 5300SOL     OW27535   2.993   3.541  13.315  0.3869 -0.0003  0.2992
 5300SOL    HW127536   3.040   3.622  13.296 -2.2862  0.8305 -2.8875
 5300SOL    HW227537   3.055   3.500  13.375  2.3426 -0.0633 -1.7963
 5301SOL     OW27538   2.818   3.273  16.969  0.0194 -0.1141 -0.2244
 5301SOL    HW127539   2.771   3.355  16.954  0.8272  0.7822  2.0471
 5301SOL    HW227540   2.875   3.301  17.041  1.9022 -1.4952 -1.1831
 5302SOL     OW27541   3.231   3.992   2.140  0.0304 -0.0958 -0.4011
 5302SOL    HW127542   3.264   4.063   2.086  2.3947  1.5326  3.1427
 5302SOL    HW227543   3.146   4.027   2.168 -0.0418 -0.5637 -0.0307
 5303SOL     OW27544   2.716   2.951   9.115 -0.3423  0.4039  0.0799
 5303SOL    HW127545   2.740   2.992   9.198 -0.8343 -2.2469  1.5435
 5303SOL    HW227546   2.762   3.011   9.056 -1.3695  1.9071  0.8147
 5304SOL     OW27547   0.358   0.983   6.892  0.2104 -0.2223 -0.4613
 5304SOL    HW127548   0.451   1.008   6.894  0.1923 -0.1288 -0.8042
 5304SOL    HW227549   0.376   0.891   6.869  0.2849  0.0106 -1.3500
 5305SOL     OW27550   4.659   2.152  10.400 -0.4971 -0.2998  0.4276
 5305SOL    HW127551   4.712   2.171  10.323 -0.0017 -0.8252  0.6459
 5305SOL    HW227552   4.581   2.205  10.384 -0.4100 -0.6789 -1.2427
 5306SOL     OW27553   0.270   2.054   2.023 -0.3181 -0.9516 -0.7325
 5306SOL    HW127554   0.358   2.085   2.001 -1.1861  2.6469  0.7947
 5306SOL    HW227555   0.248   2.106   2.101  1.0946 -1.6787  0.1582
 5307SOL     OW27556   1.926   3.674   4.653 -0.1982  0.1880 -0.3052
 5307SOL    HW127557   1.909   3.649   4.744 -0.2150  0.8841 -0.1201
 5307SOL    HW227558   1.922   3.769   4.650 -0.2277  0.1812 -0.4767
 5308SOL     OW27559   3.456   3.522   4.243 -0.2424 -0.5591  0.1149
 5308SOL    HW127560   3.376   3.472   4.236 -0.9517  0.3350  1.7883
 5308SOL    HW227561   3.523   3.458   4.268 -2.4526 -2.1236  1.9545
 5309SOL     OW27562   1.563   0.386   7.432  0.4047 -0.4180 -0.3190
 5309SOL    HW127563   1.536   0.322   7.366  0.4683 -1.0422  0.2574
 5309SOL    HW227564   1.509   0.462   7.415  2.0394  0.6813 -0.6201
 5310SOL     OW27565   2.264   1.610  11.749  0.3233  0.5582  0.2873
 5310SOL    HW127566   2.184   1.624  11.799  0.1461  0.9119 -0.1009
 5310SOL    HW227567   2.240   1.589  11.659  1.9133 -0.1038  0.0144
 5311SOL     OW27568   3.856   2.679   6.456 -0.2370  0.4119 -0.1114
 5311SOL    HW127569   3.903   2.685   6.539  0.3980  1.1666 -0.5263
 5311SOL    HW227570   3.905   2.610   6.410 -0.2116  0.8003 -0.6681
 5312SOL     OW27571   2.320   1.460   4.013 -0.3238  0.0130 -0.5191
 5312SOL    HW127572   2.286   1.439   4.100  1.6084 -0.6306  0.0697
 5312SOL    HW227573   2.239   1.495   3.976  0.2488 -1.1934 -2.9248
 5313SOL     OW27574   0.178   2.903   7.898  0.1014 -0.0814  0.2287
 5313SOL    HW127575   0.253   2.940   7.946  0.3745  0.5348 -0.6693
 5313SOL    HW227576   0.132   2.859   7.969 -1.2913  0.4699 -0.3389
 5314SOL     OW27577   1.829   3.530   1.986 -0.6475  0.8335  0.3482
 5314SOL    HW127578   1.851   3.600   1.925  0.8009 -0.1450 -0.2469
 5314SOL    HW227579   1.736   3.548   1.998 -1.5399 -3.3017 -0.1183
 5315SOL     OW27580   2.011   1.894   6.188 -0.1264 -0.1092 -0.2825
 5315SOL    HW127581   2.027   1.830   6.118  0.5181 -0.9082  0.5816
 5315SOL    HW227582   1.929   1.931   6.155 -0.4595 -1.7645 -1.3320
 5316SOL     OW27583   0.802   3.226  13.140  0.2156 -1.2132 -0.4994
 5316SOL    HW127584   0.776   3.135  13.124 -0.4543 -1.3842  1.5130
 5316SOL    HW227585   0.746   3.236  13.217  0.2249 -1.4887 -0.4552
 5317SOL     OW27586   0.567   1.607  10.376 -0.5887 -0.1311  0.3008
 5317SOL    HW127587   0.614   1.679  10.418  1.0152  0.1004 -1.9022
 5317SOL    HW227588   0.509   1.651  10.315 -2.0068 -2.1153  0.2159
 5318SOL     OW27589   3.364   3.800   9.035  0.1046  0.0477 -0.4523
 5318SOL    HW127590   3.439   3.811   8.976 -0.6681 -3.2762 -2.1028
 5318SOL    HW227591   3.387   3.865   9.101 -0.0008  0.3929 -0.7565
 5319SOL     OW27592   2.004   1.347   7.887  0.0170  0.6396  0.8962
 5319SOL    HW127593   2.052   1.403   7.949 -0.6333 -0.2259  2.1671
 5319SOL    HW227594   1.943   1.300   7.944  0.0543  0.9607  1.2084
 5320SOL     OW27595   1.497   3.136  11.467 -0.7172 -0.0056 -0.5198
 5320SOL    HW127596   1.513   3.077  11.393  0.3858  1.0916 -1.1425
 5320SOL    HW227597   1.438   3.202  11.429 -0.3234  0.1450 -0.8712
 5321SOL     OW27598   3.303   0.474   5.509 -0.2565  0.2069 -0.0734
 5321SOL    HW127599   3.221   0.524   5.509 -1.3332 -1.5217  2.8124
 5321SOL    HW227600   3.293   0.413   5.436  2.0649 -0.2353 -0.0201
 5322SOL     OW27601   0.176   0.604  14.560 -0.1740  0.2017  0.4244
 5322SOL    HW127602   0.201   0.679  14.613 -0.0863  0.3458  0.1789
 5322SOL    HW227603   0.179   0.639  14.471  0.0127  0.8931  0.7104
 5323SOL     OW27604   2.936   2.186   2.350 -0.3886 -0.4149  0.1678
 5323SOL    HW127605   2.863   2.175   2.411  1.7347 -1.0309  2.5983
 5323SOL    HW227606   2.962   2.094   2.356  1.4384 -0.0470 -2.0273
 5324SOL     OW27607   4.576   0.480   4.326 -0.7897  0.0956 -0.0282
 5324SOL    HW127608   4.586   0.568   4.362  0.4412 -0.3485  0.7136
 5324SOL    HW227609   4.484   0.475   4.298 -0.6274  1.5145 -0.7994
 5325SOL     OW27610   0.232   1.507   4.344 -0.2159 -0.3134 -0.0286
 5325SOL    HW127611   0.208   1.417   4.368 -0.5905 -0.0691  0.4990
 5325SOL    HW227612   0.307   1.486   4.288  1.0752 -1.7654  2.2251
 5326SOL     OW27613   1.568   0.530   2.840 -0.0915  0.0221 -0.0075
 5326SOL    HW127614   1.655   0.490   2.850 -0.4029 -0.4492  0.8325
 5326SOL    HW227615   1.542   0.542   2.931  1.3812  0.1955  0.3879
 5327SOL     OW27616   1.198   2.476  13.588 -0.1469  0.0321 -0.0897
 5327SOL    HW127617   1.152   2.432  13.516 -1.5770  0.8976  0.3043
 5327SOL    HW227618   1.122   2.529  13.613 -0.4838  0.0601 -1.1666
 5328SOL     OW27619   3.316   4.272   4.194  0.1273  0.1543  0.3003
 5328SOL    HW127620   3.351   4.327   4.265  1.3385  1.5723 -1.3901
 5328SOL    HW227621   3.390   4.264   4.134 -0.2580  0.9511 -0.2869
 5329SOL     OW27622   2.748   1.519  15.778 -0.2652  0.1473 -0.0589
 5329SOL    HW127623   2.679   1.579  15.805 -1.0126  0.0343 -1.7232
 5329SOL    HW227624   2.811   1.579  15.738  0.6425 -0.3534  0.5969
 5330SOL     OW27625   1.215   1.109   3.317  0.1166  0.2731  0.0554
 5330SOL    HW127626   1.201   1.177   3.250 -1.3948  1.4020  1.5043
 5330SOL    HW227627   1.309   1.095   3.316 -0.1323 -1.4071 -0.0623
 5331SOL     OW27628   2.334   0.746   2.931 -0.3582  0.8727 -0.1526
 5331SOL    HW127629   2.287   0.707   2.858  1.5908  1.8251 -1.9139
 5331SOL    HW227630   2.387   0.809   2.882  1.3757  0.4897  1.2016
 5332SOL     OW27631   1.733   3.166   2.885 -0.2674  0.4445 -0.5145
 5332SOL    HW127632   1.769   3.105   2.950 -1.0262 -0.5189 -0.9845
 5332SOL    HW227633   1.799   3.235   2.881  1.0596 -0.7331  0.8042
 5333SOL     OW27634   1.270   3.344   8.292 -0.3012 -0.0264  0.2753
 5333SOL    HW127635   1.344   3.381   8.242 -0.7688  1.0839  0.4125
 5333SOL    HW227636   1.211   3.310   8.225  0.1279 -2.0970  0.9376
 5334SOL     OW27637   1.220   2.605   5.474  0.4859 -0.1493  0.0087
 5334SOL    HW127638   1.186   2.523   5.509 -0.7430  0.3474 -0.0238
 5334SOL    HW227639   1.254   2.651   5.551 -0.9862 -1.3295  1.3873
 5335SOL     OW27640   4.139   2.938  11.326  0.0026  0.2184 -0.4597
 5335SOL    HW127641   4.168   3.007  11.387 -1.8737 -0.9911  1.8230
 5335SOL    HW227642   4.214   2.930  11.267  1.9201  1.3634  1.7807
 5336SOL     OW27643   0.099   0.866   4.891 -0.2696  0.0237 -0.0828
 5336SOL    HW127644   0.163   0.795   4.900  0.0460  0.1866 -0.9482
 5336SOL    HW227645   0.145   0.913   4.821 -1.0808  0.6350 -0.2034
 5337SOL     OW27646   4.131   1.310   4.223 -0.2140  0.9700 -0.0910
 5337SOL    HW127647   4.160   1.307   4.132  0.9036  3.2516  0.1790
 5337SOL    HW227648   4.215   1.291   4.264  0.9964  0.9565 -2.6086
 5338SOL     OW27649   2.091   4.680   5.086  0.0499 -0.3765  0.0119
 5338SOL    HW127650   2.014   4.624   5.100 -0.0929 -0.0628  0.4802
 5338SOL    HW227651   2.045   0.024   5.088  0.3026 -0.1659 -2.1059
 5339SOL     OW27652   2.935   0.763   1.597 -0.1139 -0.1238  0.4652
 5339SOL    HW127653   3.004   0.802   1.650 -0.4358 -0.3085  1.0177
 5339SOL    HW227654   2.889   0.841   1.568 -1.0295  0.1210  2.5762
 5340SOL     OW27655   1.447   4.723   3.875 -0.3009 -0.1863  0.3766
 5340SOL    HW127656   1.541   4.710   3.859 -0.5510 -1.1135 -0.3381
 5340SOL    HW227657   1.402   4.685   3.799  1.9002 -1.7230 -0.1704
 5341SOL     OW27658   1.875   2.501   6.691  0.0721  0.1266  0.2866
 5341SOL    HW127659   1.794   2.505   6.741 -0.0720 -1.4330  0.1846
 5341SOL    HW227660   1.848   2.465   6.606  0.3915  1.0930 -0.2230
 5342SOL     OW27661   4.397   4.303   3.784 -0.3342  0.0686 -0.8303
 5342SOL    HW127662   4.477   4.355   3.783 -0.0754 -0.3213 -0.2706
 5342SOL    HW227663   4.347   4.352   3.720  1.8813  1.3648 -1.5527
 5343SOL     OW27664   4.403   0.335   9.508 -0.1297  0.1152 -0.0048
 5343SOL    HW127665   4.460   0.385   9.567 -1.8420 -0.8483  2.4634
 5343SOL    HW227666   4.410   0.247   9.545 -2.1766  1.1244  2.7423
 5344SOL     OW27667   1.292   1.866   8.288  0.1064  0.2848 -0.1689
 5344SOL    HW127668   1.279   1.788   8.235  0.6677 -0.6743  1.0967
 5344SOL    HW227669   1.285   1.834   8.378  2.7840  0.7777  0.2119
 5345SOL     OW27670   0.892   3.740  16.778  0.1222 -0.6861 -0.1788
 5345SOL    HW127671   0.902   3.715  16.686  1.6658  3.7698 -1.2042
 5345SOL    HW227672   0.952   3.677  16.817  0.9948  0.3067  0.0775
 5346SOL     OW27673   4.616   2.953   5.052 -0.4509  0.1608 -0.4988
 5346SOL    HW127674   4.613   2.888   5.122  0.6823 -0.0795 -0.6783
 5346SOL    HW227675   4.675   2.910   4.990 -0.3955  0.7349 -0.8511
 5347SOL     OW27676   4.248   0.552  13.087 -0.2468 -0.0082 -0.2535
 5347SOL    HW127677   4.190   0.596  13.150 -2.0739  0.6429 -2.3982
 5347SOL    HW227678   4.248   0.460  13.115 -0.7914  0.2543  0.6091
 5348SOL     OW27679   3.776   1.765   6.736  0.4476 -0.2746 -0.0901
 5348SOL    HW127680   3.833   1.841   6.726 -1.3214  0.6825 -2.7026
 5348SOL    HW227681   3.686   1.793   6.725  0.0490 -0.8144  1.7374
 5349SOL     OW27682   2.038   2.643   7.338 -0.4388 -0.1731  0.4693
 5349SOL    HW127683   2.110   2.694   7.375 -0.0322 -1.0846  0.9342
 5349SOL    HW227684   1.978   2.626   7.410  1.1826 -1.2494  1.5535
 5350SOL     OW27685   1.410   4.646  16.196 -0.2881 -0.0143  0.4015
 5350SOL    HW127686   1.405   4.718  16.133 -0.0213 -1.1204 -0.8625
 5350SOL    HW227687   1.496   4.658  16.236  0.8045  1.3244 -2.3749
 5351SOL     OW27688   1.338   3.120   8.100  0.1402  0.0427  0.3721
 5351SOL    HW127689   1.246   3.131   8.123  0.3751  1.6615  0.4748
 5351SOL    HW227690   1.360   3.207   8.068  0.8362 -0.6809 -1.1365
 5352SOL     OW27691   3.488   3.712  12.364 -0.3414  0.0319 -0.3450
 5352SOL    HW127692   3.398   3.684  12.349 -0.4163  1.2853 -2.1262
 5352SOL    HW227693   3.467   3.805  12.359  0.6336  0.2942  0.3720
 5353SOL     OW27694   2.547   4.136   2.539 -0.2320 -0.2289  0.0217
 5353SOL    HW127695   2.543   4.134   2.634 -2.3358 -2.3831 -0.1049
 5353SOL    HW227696   2.642   4.141   2.528 -0.1232 -3.4111 -0.5327
 5354SOL     OW27697   0.276   2.432   7.925 -0.5114  0.0730 -0.0508
 5354SOL    HW127698   0.332   2.509   7.926 -2.3289  1.3633  1.3757
 5354SOL    HW227699   0.219   2.445   7.850  0.6964  0.6154 -0.8614
 5355SOL     OW27700   3.565   1.488   4.022  0.4933  0.2683 -0.6355
 5355SOL    HW127701   3.502   1.444   3.965 -0.0508  0.1206  0.0825
 5355SOL    HW227702   3.513   1.524   4.094  3.3093  0.8658  1.1092
 5356SOL     OW27703   2.781   3.283   5.754  0.1885  0.3049 -0.2307
 5356SOL    HW127704   2.804   3.211   5.812  1.0731  0.9547  0.2333
 5356SOL    HW227705   2.783   3.352   5.821 -0.2428  0.4118 -0.3287
 5357SOL     OW27706   2.289   1.665   6.586 -0.3984  0.0193 -0.1036
 5357SOL    HW127707   2.374   1.652   6.627 -0.3161 -3.4864 -1.4014
 5357SOL    HW227708   2.291   1.601   6.515 -1.4887 -1.1425  0.9117
 5358SOL     OW27709   3.707   1.068   2.942  0.4741 -0.1249 -0.6548
 5358SOL    HW127710   3.706   1.164   2.953 -2.8391 -0.3497  1.2075
 5358SOL    HW227711   3.696   1.069   2.846 -0.8683 -4.0463 -0.5433
 5359SOL     OW27712   1.613   1.106   3.724 -0.3512 -0.4446 -0.1991
 5359SOL    HW127713   1.652   1.190   3.746  0.1790 -0.5584 -0.7214
 5359SOL    HW227714   1.545   1.094   3.790  1.4252 -1.2869  1.4557
 5360SOL     OW27715   0.763   2.268   8.883  0.4057  0.7421  0.1599
 5360SOL    HW127716   0.678   2.311   8.873  1.5966  2.2438 -3.4927
 5360SOL    HW227717   0.743   2.219   8.963 -0.0334  3.0259  1.4678
 5361SOL     OW27718   3.208   2.561   6.965  0.6401  0.1821  0.4571
 5361SOL    HW127719   3.237   2.472   6.946  0.7845  0.0846  1.1071
 5361SOL    HW227720   3.153   2.589   6.892  1.1164 -1.9119 -0.6828
 5362SOL     OW27721   2.395   3.233   4.907 -0.0277 -0.3034 -1.1070
 5362SOL    HW127722   2.400   3.280   4.990 -1.2640 -3.1797  0.5908
 5362SOL    HW227723   2.301   3.237   4.889 -0.3263  1.5223  0.8422
 5363SOL     OW27724   2.561   4.056   7.047 -0.0192 -0.6236 -0.0517
 5363SOL    HW127725   2.562   4.113   7.124 -0.9290 -0.3220 -0.2651
 5363SOL    HW227726   2.535   3.973   7.085 -0.7435 -0.3136  0.1131
 5364SOL     OW27727   0.537   4.238  14.360  0.0388  0.1218  0.3469
 5364SOL    HW127728   0.587   4.162  14.330  3.0732  2.0516  0.4878
 5364SOL    HW227729   0.464   4.227  14.299  0.2264  2.1332 -0.2207
 5365SOL     OW27730   1.447   2.097   4.281  0.0118 -0.3327  0.4238
 5365SOL    HW127731   1.502   2.074   4.206 -0.5403 -0.2266 -0.0068
 5365SOL    HW227732   1.487   2.182   4.301  0.7938 -0.4676 -0.6009
 5366SOL     OW27733   3.276   1.730   8.437  0.1518  0.0931 -0.3974
 5366SOL    HW127734   3.287   1.823   8.454 -1.0374 -0.0806  1.2521
 5366SOL    HW227735   3.203   1.703   8.492  1.1007 -1.5337  0.0835
 5367SOL     OW27736   3.233   2.096   9.022 -0.6948 -0.3585 -0.1689
 5367SOL    HW127737   3.294   2.049   9.078 -2.1732  0.9073  2.5104
 5367SOL    HW227738   3.215   2.024   8.963  1.5458 -0.3820 -0.8162
 5368SOL     OW27739   1.766   2.239  13.889  0.2838 -0.4937 -0.2513
 5368SOL    HW127740   1.755   2.292  13.811 -1.3695  0.7688  0.8376
 5368SOL    HW227741   1.861   2.227  13.892  0.4993  1.1593 -0.4673
 5369SOL     OW27742   0.609   1.426   2.186  0.6055  0.4657  1.0099
 5369SOL    HW127743   0.587   1.334   2.193  1.5467  0.1213 -0.5658
 5369SOL    HW227744   0.569   1.461   2.265 -2.4201 -0.5585 -0.0910
 5370SOL     OW27745   1.436   3.526   8.144  0.0562  0.1648 -0.1443
 5370SOL    HW127746   1.525   3.501   8.171  0.1296  0.2683 -0.2918
 5370SOL    HW227747   1.458   3.553   8.055  0.8204  0.9515  0.2831
 5371SOL     OW27748   3.455   0.472   2.712  0.0600  0.3812  0.8274
 5371SOL    HW127749   3.440   0.542   2.776  3.0446  0.0283  1.9275
 5371SOL    HW227750   3.427   0.393   2.759  2.5361  0.6527  2.7553
 5372SOL     OW27751   3.011   2.920   3.244  0.2274  0.2102  0.3158
 5372SOL    HW127752   2.960   3.001   3.244  3.2277  2.1041 -1.6358
 5372SOL    HW227753   3.069   2.930   3.319 -0.7228 -2.7528  1.4234
 5373SOL     OW27754   2.937   0.420   2.209  0.7047 -0.0368  0.3800
 5373SOL    HW127755   2.870   0.443   2.274 -0.7917 -0.0207 -1.1712
 5373SOL    HW227756   2.916   0.332   2.177  0.7945  0.0052  0.2091
 5374SOL     OW27757   3.044   1.832   3.601 -0.3779 -0.0766  0.0354
 5374SOL    HW127758   3.038   1.828   3.697 -1.7566 -3.9791 -0.2334
 5374SOL    HW227759   2.951   1.824   3.579 -0.0203 -2.2103 -0.7626
 5375SOL     OW27760   4.405   2.839   3.702 -0.1371 -0.0812  0.5969
 5375SOL    HW127761   4.483   2.815   3.652 -0.2925 -3.9015  2.2096
 5375SOL    HW227762   4.409   2.935   3.696 -0.5567 -0.0233  1.2365
 5376SOL     OW27763   2.623   3.492  14.534 -0.3931 -0.0118  0.1196
 5376SOL    HW127764   2.674   3.481  14.615 -0.8530  0.1415  0.4265
 5376SOL    HW227765   2.610   3.405  14.496  1.0356  0.6309 -1.8202
 5377SOL     OW27766   4.097   0.083   4.127  0.6504 -0.2054 -0.1751
 5377SOL    HW127767   4.103   0.012   4.063  0.5418  0.2212 -0.6533
 5377SOL    HW227768   4.168   0.142   4.101  0.7056  0.1037  0.6582
 5378SOL     OW27769   1.858   4.386   4.540  0.1669  0.4482  0.1946
 5378SOL    HW127770   1.879   4.463   4.593 -1.1165  1.2131 -0.4024
 5378SOL    HW227771   1.907   4.406   4.460  1.7999 -1.0681  0.8298
 5379SOL     OW27772   4.601   2.403  12.451  0.4018  0.1165 -0.1358
 5379SOL    HW127773   4.534   2.365  12.509 -1.5610  1.9646 -1.1916
 5379SOL    HW227774   4.638   2.467  12.512 -0.0862 -2.5217  2.9745
 5380SOL     OW27775   4.620   2.177  12.727 -0.3695 -0.0227  0.5380
 5380SOL    HW127776   4.582   2.217  12.805 -1.5804  1.0821 -0.6127
 5380SOL    HW227777   4.562   2.107  12.697  1.6372 -0.0184 -3.3275
 5381SOL     OW27778   1.358   1.358   2.771  0.1045  0.2731  0.1109
 5381SOL    HW127779   1.302   1.418   2.820  0.4439  0.6471  0.0434
 5381SOL    HW227780   1.396   1.419   2.707  0.9823 -0.8190 -0.4006
 5382SOL     OW27781   0.764   1.751  10.526 -0.4386  0.4538 -0.2144
 5382SOL    HW127782   0.856   1.775  10.524 -0.4534  0.3670 -1.7173
 5382SOL    HW227783   0.727   1.828  10.570 -1.3073 -0.5366  0.8110
 5383SOL     OW27784   0.775   3.346   5.276  0.4301  0.0325 -0.9917
 5383SOL    HW127785   0.795   3.281   5.343  0.2631 -0.4301 -1.3859
 5383SOL    HW227786   0.694   3.307   5.243 -0.2835  0.0440  0.7528
 5384SOL     OW27787   0.393   1.335   6.881  0.2892 -0.5391  0.0723
 5384SOL    HW127788   0.357   1.330   6.792 -1.8353 -1.9342  1.0044
 5384SOL    HW227789   0.377   1.249   6.920  0.1930  0.1839  1.6230
 5385SOL     OW27790   2.948   0.333   9.196  0.3188 -0.5534  0.7727
 5385SOL    HW127791   2.964   0.264   9.260  1.5938  1.4411  2.6130
 5385SOL    HW227792   2.943   0.409   9.254  0.5472 -0.7575  1.0588
 5386SOL     OW27793   2.131   0.352   4.654 -0.1047 -0.1615  0.5588
 5386SOL    HW127794   2.219   0.329   4.626  0.2562  1.9451 -0.0471
 5386SOL    HW227795   2.149   0.347   4.748  1.8138 -1.1301  0.1314
 5387SOL     OW27796   0.026   1.720  11.678 -0.2398 -0.0380  0.0178
 5387SOL    HW127797   0.107   1.700  11.630 -0.5354 -0.1236 -0.4491
 5387SOL    HW227798   0.022   1.813  11.655  0.3292 -0.1879 -0.6834
 5388SOL     OW27799   4.563   2.436   3.980  0.1560 -0.2876  0.7080
 5388SOL    HW127800   4.503   2.367   3.953  1.2681 -2.2854  3.3356
 5388SOL    HW227801   4.587   2.491   3.905  2.9831 -0.1904  1.6570
 5389SOL     OW27802   1.232   2.021   0.962 -0.5253  0.0532  0.2563
 5389SOL    HW127803   1.307   2.066   1.000  1.0169 -0.1326 -2.5386
 5389SOL    HW227804   1.273   2.005   0.877 -1.4689  0.8954 -0.3554
 5390SOL     OW27805   0.275   2.288   5.906  0.3666 -0.0810 -0.3366
 5390SOL    HW127806   0.223   2.316   5.830  0.0124  0.6145  0.1556
 5390SOL    HW227807   0.242   2.355   5.966 -0.3009  0.1399 -0.9573
 5391SOL     OW27808   4.420   3.833  12.752 -0.0796 -0.2966 -0.2043
 5391SOL    HW127809   4.410   3.882  12.671  0.0905  0.9039  0.4938
 5391SOL    HW227810   4.489   3.875  12.803  0.6461 -0.1681 -1.3034
 5392SOL     OW27811   2.707   3.704   6.402 -0.2331  0.9496 -0.3008
 5392SOL    HW127812   2.789   3.676   6.361 -1.2000  0.5229 -1.9153
 5392SOL    HW227813   2.668   3.770   6.346  0.4149  0.9731 -0.7140
 5393SOL     OW27814   1.576   2.793   7.147  0.0271 -0.3797 -0.5341
 5393SOL    HW127815   1.652   2.769   7.200 -1.6817 -0.3759  1.9249
 5393SOL    HW227816   1.534   2.838   7.220  1.2184 -2.7583  1.6580
 5394SOL     OW27817   2.349   1.620   9.485  0.3486  0.2365 -0.0733
 5394SOL    HW127818   2.407   1.590   9.556 -0.2968  1.3465  0.9254
 5394SOL    HW227819   2.345   1.546   9.425 -0.5712  0.7599 -0.6626
 5395SOL     OW27820   1.771   0.431   2.212 -0.5353 -0.1993 -0.3054
 5395SOL    HW127821   1.752   0.346   2.173 -0.3572 -0.2887 -0.1932
 5395SOL    HW227822   1.786   0.490   2.138  0.0386  0.7693  0.5813
 5396SOL     OW27823   0.026   3.903   5.246  0.2975 -0.0731 -0.1223
 5396SOL    HW127824   0.011   3.956   5.169  2.6513  1.0021  0.1816
 5396SOL    HW227825   0.109   3.942   5.273  0.3537 -0.3725  0.1493
 5397SOL     OW27826   0.673   2.977  16.649  0.1382 -0.2590  0.6764
 5397SOL    HW127827   0.580   2.983  16.670 -0.5512  1.8893 -2.9149
 5397SOL    HW227828   0.681   2.887  16.615  1.1897 -0.1748  0.6932
 5398SOL     OW27829   1.677   1.182   7.181 -0.4950 -0.1498  0.1571
 5398SOL    HW127830   1.746   1.116   7.168  1.3800  2.0169 -1.1076
 5398SOL    HW227831   1.682   1.244   7.108 -1.4916 -1.1880 -0.7899
 5399SOL     OW27832   2.307   3.407   8.762 -0.3887  0.0342  0.1671
 5399SOL    HW127833   2.356   3.398   8.843 -0.4548 -0.5711  0.1367
 5399SOL    HW227834   2.279   3.498   8.775 -1.4866 -0.0643 -1.5832
 5400SOL     OW27835   3.708   2.937  16.433  0.4278 -0.6062 -0.0707
 5400SOL    HW127836   3.722   2.943  16.339 -0.2837 -0.2776 -0.1555
 5400SOL    HW227837   3.749   3.014  16.474 -1.3282  1.3725 -2.0674
 5401SOL     OW27838   0.890   3.712  10.560 -0.3032  0.5451 -0.3900
 5401SOL    HW127839   0.922   3.799  10.537  0.4469 -0.0336 -1.5100
 5401SOL    HW227840   0.842   3.685  10.482 -0.9933 -0.7935  0.4859
 5402SOL     OW27841   1.866   0.452   8.498  0.0348  0.0123  0.0133
 5402SOL    HW127842   1.915   0.510   8.556 -1.2887 -0.7896  1.9511
 5402SOL    HW227843   1.787   0.501   8.476  1.2149  1.7090 -0.4190
 5403SOL     OW27844   1.157   3.778   6.400  0.7313 -0.0003 -0.0308
 5403SOL    HW127845   1.243   3.808   6.370  0.5251  2.2702  1.5805
 5403SOL    HW227846   1.102   3.799   6.325  2.8706  1.1555 -1.2741
 5404SOL     OW27847   1.793   3.447   3.333  0.0521  0.2122  0.5775
 5404SOL    HW127848   1.815   3.528   3.378 -2.9206 -0.7002  3.7095
 5404SOL    HW227849   1.858   3.447   3.263 -0.2445 -0.1248  0.3002
 5405SOL     OW27850   1.180   2.673   3.991  0.0853 -0.4114 -0.9912
 5405SOL    HW127851   1.112   2.717   3.939  0.1998  0.0625 -0.7363
 5405SOL    HW227852   1.192   2.601   3.929 -0.2850  0.5751 -2.2059
 5406SOL     OW27853   4.248   4.035  16.168  0.1561 -1.0000  0.1195
 5406SOL    HW127854   4.302   4.104  16.130  0.7971  0.4783  3.6740
 5406SOL    HW227855   4.184   4.099  16.198  0.5482 -0.1320 -0.9034
 5407SOL     OW27856   1.869   1.794   8.530 -0.5244 -0.5063  0.0988
 5407SOL    HW127857   1.790   1.741   8.538 -0.6061 -0.5175 -0.7756
 5407SOL    HW227858   1.837   1.864   8.473 -0.0693  0.6032  1.2171
 5408SOL     OW27859   2.910   0.794   3.420  0.3775 -0.0519  0.4713
 5408SOL    HW127860   2.826   0.757   3.448  0.2062  1.2864  1.7336
 5408SOL    HW227861   2.980   0.749   3.468  0.0154  0.0530  1.0972
 5409SOL     OW27862   2.637   1.873   1.556  0.0547 -0.3356 -0.1319
 5409SOL    HW127863   2.565   1.935   1.554  2.5053  2.4778 -1.7677
 5409SOL    HW227864   2.620   1.819   1.479 -0.4344  0.8356 -0.8449
 5410SOL     OW27865   0.109   3.407   8.701 -0.4269  0.1737 -0.0122
 5410SOL    HW127866   0.161   3.451   8.769  0.3409  0.0620 -0.5246
 5410SOL    HW227867   0.092   3.323   8.743 -1.2942 -0.4047 -1.5222
 5411SOL     OW27868   3.424   2.412   5.025  0.3061  0.5958 -0.4297
 5411SOL    HW127869   3.447   2.406   5.118 -1.2659 -0.1508 -0.0829
 5411SOL    HW227870   3.436   2.324   4.991  0.1614 -0.5742  2.5928
 5412SOL     OW27871   2.078   3.403  16.789  0.0277 -0.4305 -0.0265
 5412SOL    HW127872   2.150   3.368  16.737  0.7572  1.4434 -0.3087
 5412SOL    HW227873   2.073   3.348  16.867 -1.2233 -1.2228 -0.6766
 5413SOL     OW27874   1.895   3.277   8.846  0.4522 -0.7823 -0.0830
 5413SOL    HW127875   1.853   3.357   8.877 -0.0903 -1.1025  0.0110
 5413SOL    HW227876   1.846   3.274   8.764 -0.0498 -0.9181  0.2208
 5414SOL     OW27877   1.156   4.587   7.005 -0.1143  0.3274 -0.3633
 5414SOL    HW127878   1.164   4.614   7.096  0.4302 -1.3621  0.0856
 5414SOL    HW227879   1.154   4.671   6.960 -2.0442  0.6430  0.3096
 5415SOL     OW27880   2.193   3.053   1.739 -0.0349  0.6906  0.0691
 5415SOL    HW127881   2.162   3.137   1.706 -0.7142 -0.7117 -2.8826
 5415SOL    HW227882   2.249   3.078   1.813  1.0959  0.3838 -0.6888
 5416SOL     OW27883   3.321   0.845   3.985  0.9006 -0.2407  0.1764
 5416SOL    HW127884   3.283   0.911   4.043 -1.5103  0.1113 -1.7826
 5416SOL    HW227885   3.384   0.896   3.934 -0.2277 -1.6269 -2.6409
 5417SOL     OW27886   0.060   1.436   4.061  0.4957  0.2516 -0.7358
 5417SOL    HW127887   0.123   1.402   4.124 -0.2554  0.9543  0.4049
 5417SOL    HW227888   0.041   1.356   4.011  0.1864  1.5422 -2.6807
 5418SOL     OW27889   2.501   3.431   8.544 -0.1315 -0.1501 -0.4798
 5418SOL    HW127890   2.443   3.424   8.468 -3.1246  2.2471  1.6058
 5418SOL    HW227891   2.440   3.463   8.610 -0.1914  0.7136 -0.9387
 5419SOL     OW27892   1.696   3.910   0.222  0.5374 -0.0978 -0.5482
 5419SOL    HW127893   1.733   3.836   0.270  0.6245  1.1987  1.3785
 5419SOL    HW227894   1.603   3.897   0.239  0.4264  2.6397  0.9790
 5420SOL     OW27895   3.485   4.063   5.580  0.3314  0.2478  0.0078
 5420SOL    HW127896   3.523   3.978   5.559 -0.2636 -0.3432  1.2736
 5420SOL    HW227897   3.561   4.108   5.618  1.0217 -0.8786 -0.0554
 5421SOL     OW27898   1.295   0.955   3.588  0.0265 -0.1199 -0.1232
 5421SOL    HW127899   1.340   1.039   3.577  1.0275 -0.9467 -2.3736
 5421SOL    HW227900   1.265   0.963   3.678  2.4702 -2.0833  0.8434
 5422SOL     OW27901   1.329   2.871   0.145 -0.1204  0.0938 -0.2297
 5422SOL    HW127902   1.371   2.888   0.229  0.2724  1.0132 -0.6037
 5422SOL    HW227903   1.307   2.778   0.147 -1.0750  0.3155 -0.4741
 5423SOL     OW27904   0.418   4.311   4.328  0.3142  0.1523 -1.2130
 5423SOL    HW127905   0.383   4.399   4.343 -3.0094 -1.6853  1.9691
 5423SOL    HW227906   0.371   4.285   4.250  0.0854  0.5361 -1.2038
 5424SOL     OW27907   2.648   4.157  13.918 -0.2044 -0.3853  1.1615
 5424SOL    HW127908   2.722   4.121  13.868 -0.9816 -0.0335 -0.2260
 5424SOL    HW227909   2.698   4.217  13.974  3.0220 -2.5040  0.5528
 5425SOL     OW27910   4.061   0.288  13.146 -0.4599  0.3587 -0.6842
 5425SOL    HW127911   4.079   0.234  13.069 -2.5575 -0.5593 -0.5257
 5425SOL    HW227912   3.966   0.301  13.148 -0.1063  3.1540 -2.1417
 5426SOL     OW27913   0.237   2.250   0.119 -0.3091 -0.0118 -1.1188
 5426SOL    HW127914   0.223   2.344   0.129  1.5821  0.2105 -0.5505
 5426SOL    HW227915   0.233   2.234   0.213 -3.0879  1.0108 -1.0863
 5427SOL     OW27916   3.060   0.749   9.949 -0.2331  0.5491 -0.3833
 5427SOL    HW127917   3.069   0.710   9.863  3.7452 -0.5037  0.5004
 5427SOL    HW227918   3.151   0.764   9.976 -0.1773 -1.2945  0.4834
 5428SOL     OW27919   0.364   2.350   5.117 -0.6806  0.4136 -0.1921
 5428SOL    HW127920   0.422   2.416   5.155 -1.5460  1.5740 -0.8883
 5428SOL    HW227921   0.397   2.338   5.027  0.6067 -2.2771  0.6469
 5429SOL     OW27922   1.850   0.832  15.541  0.5512  0.1632 -0.0427
 5429SOL    HW127923   1.789   0.803  15.607  0.4923  0.8560  0.2072
 5429SOL    HW227924   1.823   0.776  15.467 -1.4919  1.4086 -0.2344
 5430SOL     OW27925   3.827   2.697   6.038 -0.1177 -0.1766 -0.5929
 5430SOL    HW127926   3.798   2.788   6.027  0.8346  0.0573 -1.2598
 5430SOL    HW227927   3.884   2.700   6.115  0.5292 -0.0460 -1.0717
 5431SOL     OW27928   2.747   4.330  13.572  0.4170 -0.1884 -0.6002
 5431SOL    HW127929   2.775   4.340  13.481  0.4687 -0.2847 -0.5946
 5431SOL    HW227930   2.720   4.421  13.588 -1.0563 -0.5256 -1.2299
 5432SOL     OW27931   4.684   4.423   5.587 -0.2044  0.3418 -0.1424
 5432SOL    HW127932   4.617   4.362   5.555  0.3626 -1.0203  1.2770
 5432SOL    HW227933   4.692   4.478   5.509  0.6015  1.0110  0.4082
 5433SOL     OW27934   2.632   0.387  14.841 -0.6848 -0.4778 -0.7767
 5433SOL    HW127935   2.578   0.343  14.907 -1.7529  0.8461 -0.7757
 5433SOL    HW227936   2.673   0.310  14.800  0.4899 -0.0793 -0.3424
 5434SOL     OW27937   3.737   4.185   2.711  0.2245 -0.1030  0.5304
 5434SOL    HW127938   3.711   4.260   2.765  1.2690  1.5782 -1.3141
 5434SOL    HW227939   3.670   4.120   2.734 -0.2797  0.2714  0.1133
 5435SOL     OW27940   0.319   3.407  10.792 -0.3606 -0.1675 -0.2308
 5435SOL    HW127941   0.288   3.497  10.799 -0.6883 -0.3990  1.2787
 5435SOL    HW227942   0.299   3.373  10.879  0.0306  0.3698  0.0639
 5436SOL     OW27943   4.659   0.496   0.718  0.5185 -0.0940  0.3369
 5436SOL    HW127944   4.693   0.561   0.780 -0.0241  1.2175 -0.7460
 5436SOL    HW227945   4.567   0.496   0.745 -0.2429  1.2715 -2.2304
 5437SOL     OW27946   4.611   1.822   8.339  0.0070 -0.3158  0.2670
 5437SOL    HW127947   4.639   1.911   8.319 -1.2530  0.1135  0.4157
 5437SOL    HW227948   4.552   1.815   8.264 -0.6050  1.5808  0.5810
 5438SOL     OW27949   2.872   1.050   7.616 -0.0672 -0.2651  0.1582
 5438SOL    HW127950   2.858   0.959   7.591  2.7045 -0.2117 -1.6154
 5438SOL    HW227951   2.801   1.066   7.679 -0.3153 -0.8151  0.0197
 5439SOL     OW27952   0.575   3.692   4.514 -0.0705  0.5154  0.8663
 5439SOL    HW127953   0.658   3.723   4.477  0.3043 -0.8643  0.5593
 5439SOL    HW227954   0.598   3.703   4.606  0.3266  0.1274  0.8156
 5440SOL     OW27955   3.365   4.538  13.906  0.0019 -0.3587  0.4438
 5440SOL    HW127956   3.395   4.463  13.854 -0.0529  1.5329 -2.3087
 5440SOL    HW227957   3.271   4.518  13.906 -0.3771  1.4864 -0.1541
 5441SOL     OW27958   3.445   3.057   2.238 -0.5741  0.2501 -0.9311
 5441SOL    HW127959   3.524   3.078   2.187 -0.6316 -1.3442 -1.6893
 5441SOL    HW227960   3.431   2.980   2.183 -0.6031 -0.4952  0.1144
 5442SOL     OW27961   2.514   4.100   3.252 -0.3257  0.3854  0.2750
 5442SOL    HW127962   2.528   4.023   3.308 -1.7064 -0.3067 -0.3223
 5442SOL    HW227963   2.522   4.175   3.311  1.9704 -0.2989  0.8411
 5443SOL     OW27964   3.139   3.998   5.467  0.5990  0.1602  0.3044
 5443SOL    HW127965   3.187   3.945   5.531  2.6537 -1.7198 -2.8015
 5443SOL    HW227966   3.126   3.933   5.398  1.4764 -0.8393  1.0800
 5444SOL     OW27967   3.665   0.872   5.352  0.4701  0.0427  0.5332
 5444SOL    HW127968   3.611   0.829   5.418  1.8974 -2.2207  0.2084
 5444SOL    HW227969   3.705   0.936   5.412 -0.6039 -0.2835  1.5895
 5445SOL     OW27970   1.512   3.158  10.144 -0.5773 -0.4620  1.2083
 5445SOL    HW127971   1.444   3.207  10.098  1.0545  1.5922  0.9885
 5445SOL    HW227972   1.583   3.223  10.145  1.2560 -2.4502  0.5622
 5446SOL     OW27973   4.082   3.935   3.055  0.4868  0.1541 -0.2214
 5446SOL    HW127974   3.998   3.939   3.100  1.2510 -1.1184  1.3013
 5446SOL    HW227975   4.099   3.841   3.056  1.3289  0.2919 -0.8544
 5447SOL     OW27976   2.986   0.757   8.155  0.3650  0.5892  0.2542
 5447SOL    HW127977   3.023   0.721   8.236  1.2319 -0.1503 -0.4673
 5447SOL    HW227978   3.069   0.759   8.108 -0.9595 -0.5011 -2.1374
 5448SOL     OW27979   4.047   4.530   7.974  0.3321 -0.1972 -0.0535
 5448SOL    HW127980   4.018   4.458   7.919 -0.7320  0.6650 -0.6116
 5448SOL    HW227981   4.010   4.511   8.061 -1.4883  1.4315 -0.4846
 5449SOL     OW27982   0.620   3.143  17.366  0.2816 -0.0570  0.0030
 5449SOL    HW127983   0.567   3.111  17.440 -0.4733  3.0526  0.8185
 5449SOL    HW227984   0.576   3.223  17.336  0.6769 -0.5034 -1.7538
 5450SOL     OW27985   2.759   4.155   8.315  0.4371 -0.7866  0.3277
 5450SOL    HW127986   2.845   4.193   8.299  1.1742 -2.3438  0.5884
 5450SOL    HW227987   2.749   4.181   8.407 -0.8762  0.0005 -0.0323
 5451SOL     OW27988   3.317   1.470   2.812  0.1852  0.1373  0.2660
 5451SOL    HW127989   3.348   1.518   2.889 -0.7537  0.0931  0.6682
 5451SOL    HW227990   3.242   1.520   2.782  0.0192 -1.2501 -1.5854
 5452SOL     OW27991   1.438   3.916   5.164 -0.1948  0.2668 -0.0258
 5452SOL    HW127992   1.528   3.891   5.141  0.0771 -0.7933  2.1794
 5452SOL    HW227993   1.454   3.986   5.228  0.0536 -0.8303  1.1270
 5453SOL     OW27994   0.659   4.334   5.626 -0.6889  0.5891  0.4394
 5453SOL    HW127995   0.663   4.353   5.720  0.3369 -0.6092  0.6383
 5453SOL    HW227996   0.577   4.375   5.596  0.4208  0.8489 -2.2450
 5454SOL     OW27997   4.476   2.086   4.725  0.2104  0.1583  0.1338
 5454SOL    HW127998   4.464   2.010   4.782 -1.4698 -0.1720 -0.6309
 5454SOL    HW227999   4.408   2.147   4.754 -2.0552 -2.2782 -0.0402
 5455SOL     OW28000   0.873   3.427  10.747  0.2566  0.7818  0.6813
 5455SOL    HW128001   0.787   3.398  10.775  0.6932 -0.0460  1.1748
 5455SOL    HW228002   0.873   3.442  10.652 -2.3713  1.9602  0.8832
 5456SOL     OW28003   2.543   3.407   2.330  0.4881  0.0074  0.5260
 5456SOL    HW128004   2.531   3.383   2.422  1.4405  1.6456  1.0830
 5456SOL    HW228005   2.551   3.317   2.300  0.0488  0.6532 -1.5148
 5457SOL     OW28006   4.659   1.090   1.763 -0.8308  0.2521  0.3654
 5457SOL    HW128007   4.693   1.061   1.678 -1.6575 -0.5338  0.3028
 5457SOL    HW228008   4.732   1.138   1.803 -0.4483 -0.7991  0.9341
 5458SOL     OW28009   3.863   3.470  13.673 -0.6151  0.1999 -0.2324
 5458SOL    HW128010   3.810   3.442  13.599 -1.1183  1.0100 -0.1849
 5458SOL    HW228011   3.899   3.554  13.645  0.6154  0.0546  0.8850
 5459SOL     OW28012   4.328   4.423   6.828  0.4908  0.4959 -0.0223
 5459SOL    HW128013   4.239   4.390   6.830  0.1160  1.4546 -1.0343
 5459SOL    HW228014   4.336   4.407   6.734 -0.9736  0.2527 -0.0987
 5460SOL     OW28015   2.097   3.536  13.636  0.1999  0.3231 -0.4019
 5460SOL    HW128016   2.098   3.550  13.541  0.6941  0.7341 -0.3378
 5460SOL    HW228017   2.039   3.605  13.668 -2.0475 -0.6643 -2.4026
 5461SOL     OW28018   3.934   1.207   5.176 -0.3808  0.0632  0.0511
 5461SOL    HW128019   3.881   1.187   5.098 -0.1683 -3.0026  0.6755
 5461SOL    HW228020   3.998   1.136   5.173 -0.0911  0.3881 -1.2644
 5462SOL     OW28021   3.976   2.309   6.171 -0.1097 -0.1132  0.0532
 5462SOL    HW128022   3.936   2.342   6.091 -0.3188  1.5192  0.8219
 5462SOL    HW228023   3.988   2.392   6.218 -1.8661  1.8857 -3.0087
 5463SOL     OW28024   1.232   0.282   7.415 -0.2370 -0.1712  0.4981
 5463SOL    HW128025   1.147   0.274   7.372 -0.3121 -2.1537  1.0152
 5463SOL    HW228026   1.220   0.368   7.455  0.8094  0.1829  0.0438
 5464SOL     OW28027   1.849   1.756   2.260  0.3340  0.4296 -0.5105
 5464SOL    HW128028   1.860   1.812   2.183  1.0290  0.8462 -0.1064
 5464SOL    HW228029   1.884   1.676   2.221 -0.1793 -0.5308  1.0194
 5465SOL     OW28030   2.589   2.617  12.922  0.7793  0.0919 -0.4178
 5465SOL    HW128031   2.520   2.646  12.982 -1.1986 -1.0444 -2.1113
 5465SOL    HW228032   2.637   2.697  12.900 -1.6892  1.2807 -1.4508
 5466SOL     OW28033   1.094   0.576  11.029  0.1927  0.5136  0.0735
 5466SOL    HW128034   1.091   0.671  11.035  0.0527  0.5875 -1.0425
 5466SOL    HW228035   1.062   0.537  11.110 -2.0016  0.5845 -0.7595
 5467SOL     OW28036   0.640   0.091   4.534 -0.6341 -0.0140  0.3996
 5467SOL    HW128037   0.630   0.126   4.445 -0.9305  0.0502  0.4563
 5467SOL    HW228038   0.569   0.140   4.576  0.8834  3.5470 -1.1484
 5468SOL     OW28039   1.856   3.344   6.434  0.6498  0.0420 -0.3595
 5468SOL    HW128040   1.873   3.251   6.452 -0.6868 -0.0492  0.4359
 5468SOL    HW228041   1.869   3.381   6.522 -1.5076  1.0708 -0.4736
 5469SOL     OW28042   3.234   0.817  15.820  0.6682  0.1885 -0.4091
 5469SOL    HW128043   3.277   0.888  15.772  1.2748 -0.6299 -1.0714
 5469SOL    HW228044   3.294   0.812  15.894  0.0128 -0.0563  0.1065
 5470SOL     OW28045   1.248   1.469  12.379 -0.2049 -0.0881  0.9492
 5470SOL    HW128046   1.199   1.390  12.356  2.4272 -1.7348  1.0365
 5470SOL    HW228047   1.295   1.442  12.457  0.8332  0.1694  0.4132
 5471SOL     OW28048   2.824   3.623   1.928 -0.1447  0.0971  0.0705
 5471SOL    HW128049   2.742   3.581   1.953  0.6788 -0.8363  1.2151
 5471SOL    HW228050   2.796   3.656   1.843  2.5117 -2.3563 -1.7936
 5472SOL     OW28051   0.010   4.236  10.560  0.1857 -0.3172 -0.0193
 5472SOL    HW128052   0.034   4.282  10.641  1.8350  0.9543 -1.2133
 5472SOL    HW228053   0.066   4.285  10.500  0.2325 -1.5099 -0.9495
 5473SOL     OW28054   2.180   0.104   3.788  0.0899 -0.3647 -0.2984
 5473SOL    HW128055   2.157   0.108   3.695 -2.7426 -3.9495  0.2425
 5473SOL    HW228056   2.210   0.013   3.792 -0.7375 -0.6173  0.2020
 5474SOL     OW28057   2.075   2.859   9.373 -0.0360  0.0503  0.1129
 5474SOL    HW128058   2.132   2.935   9.384  0.8471 -0.9269  2.4184
 5474SOL    HW228059   2.112   2.789   9.427 -1.6686 -0.1067  1.0192
 5475SOL     OW28060   3.933   0.714   4.989  0.2065 -0.2050  0.1775
 5475SOL    HW128061   3.852   0.713   5.041 -0.3387  2.7846 -0.5836
 5475SOL    HW228062   3.969   0.631   5.019 -0.0710 -0.8546 -1.3055
 5476SOL     OW28063   1.223   4.055   6.232 -0.1014  0.2621  0.0147
 5476SOL    HW128064   1.155   4.062   6.165 -0.2718 -1.0378  0.0518
 5476SOL    HW228065   1.271   3.980   6.196  0.8169 -0.0752  1.9753
 5477SOL     OW28066   4.700   2.081   8.275 -0.3031 -0.3871  0.0747
 5477SOL    HW128067   0.056   2.089   8.273 -0.3983  0.8404  0.2252
 5477SOL    HW228068   4.679   2.145   8.207  1.7821 -0.6584 -0.8355
 5478SOL     OW28069   1.975   0.539   8.809 -0.3555  0.3141  0.3007
 5478SOL    HW128070   2.000   0.499   8.892 -0.8397 -1.8903 -0.6117
 5478SOL    HW228071   1.903   0.594   8.841  0.0283 -0.2344  2.0942
 5479SOL     OW28072   0.474   4.677   4.854 -0.0115 -0.2350 -0.0112
 5479SOL    HW128073   0.557   4.689   4.900  1.0414 -2.1907 -1.3837
 5479SOL    HW228074   0.471   0.008   4.790  0.9625  0.1724  0.3997
 5480SOL     OW28075   2.029   0.528  11.562  0.1383  0.1985 -0.2794
 5480SOL    HW128076   2.093   0.475  11.515 -0.6954  0.6466 -1.8937
 5480SOL    HW228077   2.083   0.596  11.603  0.9860 -1.0994  0.7390
 5481SOL     OW28078   3.042   2.500   6.041 -0.1483 -0.2733  0.2325
 5481SOL    HW128079   3.057   2.449   5.961 -0.2791  1.4219 -0.8839
 5481SOL    HW228080   2.948   2.513   6.035  0.0514  0.3380 -1.5741
 5482SOL     OW28081   2.207   1.235  17.090  0.0222 -0.3510 -0.3081
 5482SOL    HW128082   2.151   1.170  17.046 -1.0061  1.3215 -1.4869
 5482SOL    HW228083   2.287   1.232  17.038  1.9542  1.3158  2.6017
 5483SOL     OW28084   4.557   2.847   7.019  0.2772  0.1684  0.3082
 5483SOL    HW128085   4.476   2.895   7.001 -0.6134 -0.7703  1.7948
 5483SOL    HW228086   4.578   2.856   7.112 -0.3131  1.0083  0.3586
 5484SOL     OW28087   1.586   2.377   3.535  0.2487  0.3766  0.1788
 5484SOL    HW128088   1.551   2.303   3.586 -0.0185 -0.1588 -0.7892
 5484SOL    HW228089   1.551   2.453   3.582  1.1402  0.8175  0.1305
 5485SOL     OW28090   1.711   4.199  14.118 -0.3467 -0.1653  0.4783
 5485SOL    HW128091   1.698   4.292  14.102 -0.4833 -0.2778 -0.0826
 5485SOL    HW228092   1.748   4.164  14.036 -1.0723 -1.4391  0.7003
 5486SOL     OW28093   3.553   3.235   8.798  0.0456 -0.0746  0.0465
 5486SOL    HW128094   3.492   3.273   8.735  0.3457  0.5758  0.1474
 5486SOL    HW228095   3.622   3.198   8.742  0.6622  3.1072 -1.2753
 5487SOL     OW28096   0.888   2.659   0.205 -0.2186 -0.2665 -0.1756
 5487SOL    HW128097   0.840   2.619   0.277  2.9031  0.1740  2.1406
 5487SOL    HW228098   0.874   2.601   0.130  0.2344  0.2131 -0.6288
 5488SOL     OW28099   1.777   3.418  11.493  0.4792  0.1664  0.0419
 5488SOL    HW128100   1.838   3.452  11.558 -0.1909 -1.1605  1.3400
 5488SOL    HW228101   1.729   3.363  11.555 -1.1160 -1.3222 -2.5144
 5489SOL     OW28102   0.392   2.780   8.666 -0.2926 -0.2232  0.2113
 5489SOL    HW128103   0.421   2.866   8.635  1.9109 -0.6874  1.0269
 5489SOL    HW228104   0.469   2.731   8.637  0.8674  0.9750  1.2374
 5490SOL     OW28105   2.196   1.775   4.685 -0.3537 -0.4166 -0.1007
 5490SOL    HW128106   2.118   1.768   4.630 -0.2262  0.3103 -0.3726
 5490SOL    HW228107   2.200   1.862   4.724 -1.1317 -0.4244 -0.0130
 5491SOL     OW28108   1.787   2.949   5.710 -0.2693 -0.2934 -0.4836
 5491SOL    HW128109   1.816   2.938   5.801 -0.1246 -3.2332 -0.8624
 5491SOL    HW228110   1.851   3.004   5.666  0.1953 -1.0627 -0.7759
 5492SOL     OW28111   0.564   0.235   3.644  0.0830 -0.0307  0.0871
 5492SOL    HW128112   0.609   0.279   3.572 -0.6598  1.5459  0.5786
 5492SOL    HW228113   0.611   0.289   3.709 -0.0818  0.2902 -0.0614
 5493SOL     OW28114   2.407   3.465  16.692 -0.4660  0.4429 -0.7011
 5493SOL    HW128115   2.478   3.527  16.676 -0.9594  1.4824  1.1042
 5493SOL    HW228116   2.344   3.520  16.739  0.7913  0.3496  1.0948
 5494SOL     OW28117   1.216   1.998   1.664  0.1577 -0.0232 -0.0130
 5494SOL    HW128118   1.267   1.943   1.605  0.7790 -0.3771  0.8557
 5494SOL    HW228119   1.291   2.043   1.704  0.7650  0.0291 -1.2332
 5495SOL     OW28120   3.789   3.958   7.874 -0.7234  0.1200  0.2449
 5495SOL    HW128121   3.721   3.969   7.808 -0.8915  0.2290  0.4349
 5495SOL    HW228122   3.785   3.864   7.896  1.6333 -0.2123 -0.6958
 5496SOL     OW28123   3.766   0.692  15.613 -0.3063 -0.4701  0.8576
 5496SOL    HW128124   3.724   0.760  15.561 -0.9185 -1.0393  0.6163
 5496SOL    HW228125   3.738   0.611  15.572 -0.8316 -0.8068  1.8854
 5497SOL     OW28126   2.376   1.770   7.781  0.3354 -0.2792 -0.1592
 5497SOL    HW128127   2.371   1.857   7.821 -0.2474 -0.4781  0.2078
 5497SOL    HW228128   2.439   1.793   7.712  0.4766  0.0810  0.0942
 5498SOL     OW28129   0.842   1.438   1.751  0.1365  0.3280 -0.1912
 5498SOL    HW128130   0.882   1.521   1.776 -0.8952  0.2278  1.7216
 5498SOL    HW228131   0.818   1.400   1.835  0.9876  0.5521  0.1503
 5499SOL     OW28132   0.666   4.544   3.622  0.0985  0.3435 -0.3372
 5499SOL    HW128133   0.749   4.580   3.590  0.8484 -0.0381  1.1958
 5499SOL    HW228134   0.663   4.464   3.570  2.1230  1.3896 -2.0811
 5500SOL     OW28135   2.549   2.008   9.570  0.1774  0.2772 -0.0582
 5500SOL    HW128136   2.511   1.964   9.494 -1.9390  0.3011  0.9805
 5500SOL    HW228137   2.505   2.089   9.544 -0.5794 -0.7072 -1.8647
 5501SOL     OW28138   1.961   1.231   3.259  0.2430  0.2967  0.7599
 5501SOL    HW128139   2.008   1.266   3.183  0.8373  1.8714  1.8525
 5501SOL    HW228140   1.879   1.201   3.220 -0.1721  1.8445  0.4492
 5502SOL     OW28141   1.270   0.668   2.970  0.6154 -0.6420 -0.1767
 5502SOL    HW128142   1.192   0.721   2.953 -0.5359 -2.7179 -1.4264
 5502SOL    HW228143   1.309   0.674   2.883 -0.2306 -0.8629 -0.5667
 5503SOL     OW28144   0.383   1.091  14.768 -0.2036 -0.3247 -0.2437
 5503SOL    HW128145   0.454   1.038  14.805 -0.9303 -0.0708  1.5171
 5503SOL    HW228146   0.436   1.171  14.762  0.2713 -0.4549  1.8993
 5504SOL     OW28147   1.309   3.519   2.953  0.2922  1.0440 -0.0893
 5504SOL    HW128148   1.331   3.562   3.036 -0.5551  0.4672  0.4214
 5504SOL    HW228149   1.220   3.489   2.970  0.5561 -0.4990 -1.5204
 5505SOL     OW28150   0.977   0.556   1.186  0.1669  0.1261  0.0782
 5505SOL    HW128151   1.018   0.479   1.227  0.0056  0.3492  0.6544
 5505SOL    HW228152   1.026   0.612   1.245  1.2286 -2.2502  1.4594
 5506SOL     OW28153   4.002   2.263  14.823 -0.4281 -0.1004 -0.2810
 5506SOL    HW128154   4.012   2.268  14.918  0.7233  1.3868 -0.4778
 5506SOL    HW228155   4.067   2.326  14.793 -1.9448  1.3176 -0.5393
 5507SOL     OW28156   0.136   0.886   4.490  0.3171 -0.2113  0.0666
 5507SOL    HW128157   0.172   0.951   4.550 -1.2767 -1.0830  1.9545
 5507SOL    HW228158   0.043   0.898   4.512 -0.3107 -4.1141 -0.4557
 5508SOL     OW28159   3.735   2.707   3.301 -0.7057  0.0046 -0.2208
 5508SOL    HW128160   3.803   2.687   3.365 -0.0640  0.9307 -0.6200
 5508SOL    HW228161   3.786   2.742   3.228  0.4800  0.7955  0.9911
 5509SOL     OW28162   0.218   2.103   9.101 -0.6852 -0.4568  0.1748
 5509SOL    HW128163   0.250   2.137   9.184 -1.8793 -0.5196  0.6597
 5509SOL    HW228164   0.131   2.139   9.084 -0.2843  0.0009 -0.9370
 5510SOL     OW28165   3.409   0.809  11.101 -0.5323 -0.1765 -0.4915
 5510SOL    HW128166   3.452   0.872  11.159  0.9745 -0.9435 -0.7594
 5510SOL    HW228167   3.372   0.745  11.161 -0.3435  1.1437  1.0579
 5511SOL     OW28168   2.809   3.251   2.826 -0.5836  0.1075  0.1963
 5511SOL    HW128169   2.717   3.236   2.848 -0.3817 -1.3383  0.0390
 5511SOL    HW228170   2.840   3.161   2.837  1.6056  0.8123 -0.1370
 5512SOL     OW28171   0.548   2.799   7.298 -0.1816 -0.5436 -0.9702
 5512SOL    HW128172   0.603   2.723   7.280 -0.7382 -1.0592 -0.4858
 5512SOL    HW228173   0.607   2.864   7.260 -0.0700 -1.5298 -2.4867
 5513SOL     OW28174   1.133   2.178   3.734  0.3174  0.4535  0.1386
 5513SOL    HW128175   1.150   2.086   3.755 -3.2221 -0.3707 -0.6206
 5513SOL    HW228176   1.172   2.169   3.647  1.7759 -0.9721  0.9502
 5514SOL     OW28177   1.493   2.640  17.541  0.6419 -0.1149 -0.3044
 5514SOL    HW128178   1.544   2.577  17.489  0.5414  0.9747 -1.7450
 5514SOL    HW228179   1.439   2.684  17.476  0.3721  1.0300  0.7035
 5515SOL     OW28180   0.310   3.694   1.592 -0.1067 -0.0066  0.7599
 5515SOL    HW128181   0.386   3.747   1.617 -0.0363  0.7046 -0.9618
 5515SOL    HW228182   0.350   3.656   1.514 -0.6109 -0.2294  0.6126
 5516SOL     OW28183   2.420   4.080  12.580  0.1068  0.0927 -0.8282
 5516SOL    HW128184   2.407   4.044  12.668  3.4339  0.6552 -0.1107
 5516SOL    HW228185   2.334   4.088  12.539  0.3073  0.0363 -1.2541
 5517SOL     OW28186   2.575   1.446   2.201 -0.0836 -0.3687 -0.5427
 5517SOL    HW128187   2.637   1.389   2.246  0.6740  0.7116 -0.2078
 5517SOL    HW228188   2.574   1.527   2.253 -1.4244 -0.1656 -0.8910
 5518SOL     OW28189   3.863   2.281   7.160 -0.0896  0.5649  0.7011
 5518SOL    HW128190   3.858   2.213   7.093  0.6503 -0.4320  1.6672
 5518SOL    HW228191   3.933   2.244   7.214  0.7181  0.5578 -0.3327
 5519SOL     OW28192   3.392   2.455  12.912  0.0826 -0.0598 -0.1132
 5519SOL    HW128193   3.396   2.361  12.896 -0.0329 -0.1196  0.2241
 5519SOL    HW228194   3.345   2.468  12.994 -1.6212 -4.4955 -0.3686
 5520SOL     OW28195   2.962   2.097   8.376  0.3868  0.5157  0.5228
 5520SOL    HW128196   2.938   2.161   8.443 -2.2591 -1.1557  1.1450
 5520SOL    HW228197   3.002   2.023   8.421  1.7260  1.2767  0.5964
 5521SOL     OW28198   2.664   3.144  12.466 -0.4818 -0.8018 -0.8288
 5521SOL    HW128199   2.693   3.232  12.444 -1.3349 -0.1358  0.6795
 5521SOL    HW228200   2.710   3.130  12.549 -2.8529  2.3767  1.0109
 5522SOL     OW28201   2.792   2.191   6.355 -0.3633 -0.0144 -0.1749
 5522SOL    HW128202   2.740   2.175   6.276  0.1795 -0.4146 -0.4490
 5522SOL    HW228203   2.796   2.100   6.385  0.7843  0.4882  1.1623
 5523SOL     OW28204   2.282   2.978   8.485 -0.4169 -0.4530 -0.2760
 5523SOL    HW128205   2.268   2.925   8.563  0.9515 -2.9659 -1.7213
 5523SOL    HW228206   2.324   3.060   8.511 -2.9292  0.3129  1.3578
 5524SOL     OW28207   2.462   2.512   3.810 -0.4495  0.0390 -0.2119
 5524SOL    HW128208   2.405   2.533   3.885 -1.5683  0.2689 -1.1340
 5524SOL    HW228209   2.446   2.591   3.759 -0.5340  0.1262 -0.0522
 5525SOL     OW28210   1.826   2.412   9.100 -0.2739  0.3140  0.2793
 5525SOL    HW128211   1.890   2.361   9.050 -0.3813  0.1075  0.3534
 5525SOL    HW228212   1.825   2.362   9.181 -1.6005 -1.0743 -0.5814
 5526SOL     OW28213   4.444   1.004  13.376 -0.7088  0.0164 -0.3569
 5526SOL    HW128214   4.493   1.040  13.302  0.5235 -0.9432  0.0035
 5526SOL    HW228215   4.416   0.923  13.332  0.9798 -1.2990  1.0128
 5527SOL     OW28216   3.642   1.959   8.336  0.4444  0.2467 -0.0378
 5527SOL    HW128217   3.658   2.019   8.410  1.1195  1.0140 -0.8138
 5527SOL    HW228218   3.572   2.006   8.290  0.8188  0.5351 -0.3146
 5528SOL     OW28219   0.772   4.203   1.846  0.5862 -0.2598  0.3704
 5528SOL    HW128220   0.829   4.270   1.810 -2.0675  1.7693 -0.0862
 5528SOL    HW228221   0.683   4.228   1.818  0.5750 -1.0836 -0.2982
 5529SOL     OW28222   0.786   2.791  13.782 -0.5536  0.6244  0.2610
 5529SOL    HW128223   0.762   2.884  13.789 -2.0376  0.1733  0.9979
 5529SOL    HW228224   0.808   2.763  13.871 -2.4236  0.5320  0.6872
 5530SOL     OW28225   4.004   1.032   0.100  1.0489  0.5095  0.0359
 5530SOL    HW128226   4.056   0.976   0.042 -0.8942  0.6625 -1.8796
 5530SOL    HW228227   3.971   0.959   0.152  1.4614  0.0956 -0.2829
 5531SOL     OW28228   1.117   1.537   3.944 -0.0232 -0.2049 -0.0046
 5531SOL    HW128229   1.159   1.498   4.021 -1.5070 -2.1320 -0.1905
 5531SOL    HW228230   1.085   1.622   3.973  0.0975 -0.2463  0.2577
 5532SOL     OW28231   2.428   2.642  14.040  0.5535 -0.3434 -0.0038
 5532SOL    HW128232   2.401   2.691  13.963  1.5084 -2.0956 -1.4762
 5532SOL    HW228233   2.430   2.716  14.101  0.7431 -1.4101  1.2890
 5533SOL     OW28234   4.408   3.169  17.734  0.3041  0.4578 -0.4985
 5533SOL    HW128235   4.474   3.199  17.672  2.0544  1.0786  1.6642
 5533SOL    HW228236   4.363   3.253  17.744 -1.2218 -0.1513 -2.2363
 5534SOL     OW28237   0.736   2.445   5.864 -0.2025 -0.3758 -0.0288
 5534SOL    HW128238   0.804   2.378   5.864 -0.0959 -0.2689  1.1381
 5534SOL    HW228239   0.658   2.394   5.886 -0.6669  1.2355  2.0716
 5535SOL     OW28240   0.505   2.860   4.208  0.3689  0.1517 -0.2480
 5535SOL    HW128241   0.485   2.922   4.138  2.6675  0.0491 -0.9926
 5535SOL    HW228242   0.468   2.780   4.170 -0.5673  0.2689  0.3890
 5536SOL     OW28243   1.481   3.259   2.789  0.2984  0.3795 -0.6112
 5536SOL    HW128244   1.453   3.176   2.752 -1.3645  0.9823 -0.6915
 5536SOL    HW228245   1.564   3.232   2.827  1.3228  3.4720 -0.6176
 5537SOL     OW28246   3.161   0.818   6.347 -0.0620  0.4600  0.5935
 5537SOL    HW128247   3.178   0.724   6.351  0.6537  0.7457  4.5696
 5537SOL    HW228248   3.066   0.820   6.336  0.1959 -0.1683 -1.5820
 5538SOL     OW28249   1.831   0.739   4.452  0.2897 -0.0390  0.6709
 5538SOL    HW128250   1.901   0.677   4.430 -0.3226 -0.2599 -0.6656
 5538SOL    HW228251   1.783   0.688   4.517 -0.4425  0.9910  0.9439
 5539SOL     OW28252   0.341   0.632   7.234  0.0650 -0.5325  0.1028
 5539SOL    HW128253   0.256   0.605   7.198 -0.1362 -0.0155  0.1841
 5539SOL    HW228254   0.323   0.648   7.326  1.8073 -1.0212  0.5299
 5540SOL     OW28255   0.316   2.076   1.246 -0.4752 -0.1513  0.0612
 5540SOL    HW128256   0.325   1.983   1.267  0.1055  0.0369  0.6256
 5540SOL    HW228257   0.248   2.083   1.178 -1.6051 -1.8582  1.0051
 5541SOL     OW28258   1.941   2.955   3.391 -0.2688  0.2100 -0.4766
 5541SOL    HW128259   1.984   2.873   3.416 -2.3248 -0.5122  0.6578
 5541SOL    HW228260   1.875   2.921   3.331 -0.3582 -0.5803  0.0649
 5542SOL     OW28261   1.833   3.008  11.117  0.1048  0.1697 -0.1384
 5542SOL    HW128262   1.799   2.934  11.167  0.7508  0.1184  0.2298
 5542SOL    HW228263   1.800   3.083  11.166  0.0968  0.8591 -1.2044
 5543SOL     OW28264   1.647   2.914   5.294 -0.4609  0.2435  1.0822
 5543SOL    HW128265   1.576   2.933   5.234  0.0496  0.7933  0.6483
 5543SOL    HW228266   1.716   2.882   5.236 -0.4026  0.4370  1.0429
 5544SOL     OW28267   3.906   4.643  16.646  0.0073 -0.5730  0.0438
 5544SOL    HW128268   3.956   4.639  16.564  1.1294 -1.7530  0.7675
 5544SOL    HW228269   3.943   4.563  16.684  5.0189  0.9987 -1.4989
 5545SOL     OW28270   0.087   2.996   3.585 -0.7202  0.2616 -0.4717
 5545SOL    HW128271   0.178   3.019   3.605 -0.7580 -1.0617  1.2743
 5545SOL    HW228272   0.041   3.074   3.613  0.0383 -0.2625  2.2431
 5546SOL     OW28273   0.083   4.480   7.259  0.3522 -0.5048 -0.0733
 5546SOL    HW128274   0.172   4.469   7.224  0.8225 -0.9336  1.2708
 5546SOL    HW228275   0.031   4.462   7.180 -2.8258  1.5601  1.5844
 5547SOL     OW28276   3.487   0.920   3.503  0.0646  0.5882  0.0476
 5547SOL    HW128277   3.554   0.872   3.552  0.1725  1.7765  1.0484
 5547SOL    HW228278   3.542   0.946   3.429  1.0803 -0.4876  0.4136
 5548SOL     OW28279   1.717   4.700   3.851 -0.0828 -0.3322  0.1380
 5548SOL    HW128280   1.778   0.032   3.836 -2.7017  1.6251 -0.9811
 5548SOL    HW228281   1.770   4.651   3.915  0.4662 -0.4509 -0.4061
 5549SOL     OW28282   2.801   1.255   8.653 -0.2416 -0.0968  0.1723
 5549SOL    HW128283   2.783   1.304   8.573  1.7978 -1.3290 -1.0221
 5549SOL    HW228284   2.865   1.188   8.629  1.3006  1.0642  1.0472
 5550SOL     OW28285   3.623   3.650   1.184 -0.4534 -0.5731 -0.0451
 5550SOL    HW128286   3.531   3.676   1.175  0.3658  2.4645  0.3110
 5550SOL    HW228287   3.672   3.729   1.208 -1.6247  0.2821 -0.4626
 5551SOL     OW28288   3.836   4.323   7.437 -0.6509  0.2590 -0.1016
 5551SOL    HW128289   3.872   4.318   7.526  1.2274 -2.4815 -0.9941
 5551SOL    HW228290   3.786   4.403   7.428 -1.2956  0.0959  1.9924
 5552SOL     OW28291   0.377   4.218   4.942  0.4204  0.2250  0.0869
 5552SOL    HW128292   0.442   4.266   4.890 -2.0614  0.8921 -2.4592
 5552SOL    HW228293   0.357   4.148   4.880 -0.6932 -0.4921  1.2850
 5553SOL     OW28294   0.785   3.850  15.023  0.0596  0.6621 -0.2068
 5553SOL    HW128295   0.791   3.945  15.009  1.6004  0.3914 -1.3814
 5553SOL    HW228296   0.867   3.834  15.069  1.0033  3.5148 -0.8556
 5554SOL     OW28297   3.766   4.534   4.010 -0.3488  0.2564  0.3608
 5554SOL    HW128298   3.743   4.623   4.039  0.2912  0.3219  0.6713
 5554SOL    HW228299   3.783   4.503   4.099 -0.5469  0.5754  0.5119
 5555SOL     OW28300   0.548   3.454   8.188  0.4129  0.0201  0.1217
 5555SOL    HW128301   0.492   3.387   8.149 -1.2684  1.3087  0.3005
 5555SOL    HW228302   0.611   3.403   8.239  0.4913 -0.7184 -0.7332
 5556SOL     OW28303   0.062   3.971   6.026  0.0334  0.0487  0.1580
 5556SOL    HW128304   4.722   4.017   6.002  0.0374  1.2975  2.6063
 5556SOL    HW228305   0.071   3.988   6.120 -0.1980  0.4474  0.1107
 5557SOL     OW28306   0.961   3.539  13.818  0.8113 -0.3665  0.1615
 5557SOL    HW128307   1.004   3.504  13.896 -0.9182 -1.0205  0.8227
 5557SOL    HW228308   1.007   3.500  13.744 -1.0979  0.1375 -1.2833
 5558SOL     OW28309   1.640   2.246   5.444 -0.4315 -0.2251 -0.1147
 5558SOL    HW128310   1.708   2.304   5.478 -1.3925 -0.5961  2.4164
 5558SOL    HW228311   1.583   2.245   5.521  0.9294  0.0515  0.8956
 5559SOL     OW28312   2.503   4.671  15.729 -0.1606 -0.6205 -0.3750
 5559SOL    HW128313   2.430   4.653  15.669  1.9054  0.7844 -3.3252
 5559SOL    HW228314   2.460   4.726  15.794  0.1236 -2.4233  1.3528
 5560SOL     OW28315   2.046   0.020   7.253 -0.9522 -0.6814  0.1349
 5560SOL    HW128316   2.086   0.014   7.166 -1.4723 -1.0686 -0.0778
 5560SOL    HW228317   1.972   0.081   7.247 -0.0290  0.6759  2.7483
 5561SOL     OW28318   1.969   0.739   3.280  0.0996  0.1953 -0.5985
 5561SOL    HW128319   1.952   0.817   3.332 -0.3642  0.0032 -0.4640
 5561SOL    HW228320   2.030   0.773   3.214  0.4003 -1.6452 -1.2830
 5562SOL     OW28321   3.986   0.420   2.293  0.4007 -0.5865 -0.2357
 5562SOL    HW128322   3.949   0.349   2.347  0.6115 -0.3429  0.2350
 5562SOL    HW228323   3.983   0.383   2.205 -0.5814 -0.4655 -0.2577
 5563SOL     OW28324   2.811   2.726   6.533 -0.2878 -0.5182  0.2896
 5563SOL    HW128325   2.756   2.713   6.610 -0.4007 -1.3379  0.0724
 5563SOL    HW228326   2.796   2.644   6.487 -0.0610 -0.2571 -0.2505
 5564SOL     OW28327   4.237   2.338   9.003 -0.6226  0.6563  0.0787
 5564SOL    HW128328   4.235   2.259   9.057 -3.1719 -0.4827 -1.6014
 5564SOL    HW228329   4.319   2.376   9.032 -1.7398  1.9042  1.6038
 5565SOL     OW28330   0.999   1.749   7.139  0.4267 -0.1314  0.0240
 5565SOL    HW128331   0.951   1.711   7.213  2.7911 -0.6941  1.2565
 5565SOL    HW228332   0.932   1.800   7.093 -0.6785 -0.9051  0.7547
 5566SOL     OW28333   0.124   3.658   5.183  0.5599  0.9713 -0.1686
 5566SOL    HW128334   0.079   3.722   5.237 -2.6854 -1.8137  0.3843
 5566SOL    HW228335   0.133   3.705   5.100 -1.8072 -0.1249 -1.0395
 5567SOL     OW28336   1.941   3.574  15.655 -0.2753  0.2208  0.9997
 5567SOL    HW128337   1.944   3.492  15.605  2.3897 -1.0901  3.3139
 5567SOL    HW228338   2.030   3.592  15.683 -0.2119  1.8818 -0.2773
 5568SOL     OW28339   2.711   3.566  17.637 -0.5942  0.3143 -0.4169
 5568SOL    HW128340   2.715   3.517  17.719  0.7619 -0.8101 -1.1511
 5568SOL    HW228341   2.744   3.651  17.664 -0.3002 -0.6468  2.2037
 5569SOL     OW28342   2.504   1.329   5.059  0.5050 -0.1774 -0.2011
 5569SOL    HW128343   2.413   1.344   5.036  0.8018 -0.5969 -1.6892
 5569SOL    HW228344   2.495   1.246   5.107  0.0773  0.6256  1.0994
 5570SOL     OW28345   3.363   1.102  15.666 -0.0867  0.3353  0.2257
 5570SOL    HW128346   3.277   1.144  15.664 -0.3202 -0.2218 -1.3063
 5570SOL    HW228347   3.402   1.165  15.727  0.2632  0.7205 -0.4000
 5571SOL     OW28348   0.441   3.857   9.786  0.6429  0.6397  0.2700
 5571SOL    HW128349   0.453   3.860   9.691  1.6901  0.3917  0.3929
 5571SOL    HW228350   0.427   3.764   9.805 -0.0445  0.9522  1.2724
 5572SOL     OW28351   1.826   0.168   1.516 -0.8241 -0.1119 -0.3857
 5572SOL    HW128352   1.799   0.150   1.426 -1.2046 -1.8156  0.0754
 5572SOL    HW228353   1.790   0.255   1.531 -0.2583  0.1687 -0.6177
 5573SOL     OW28354   0.759   1.075   2.752 -0.6446  0.9097  0.1263
 5573SOL    HW128355   0.696   1.061   2.822 -0.3045 -1.0847  0.0586
 5573SOL    HW228356   0.840   1.031   2.778 -0.2350  1.4991 -0.1643
 5574SOL     OW28357   0.072   4.685   3.222  0.8172  0.0112  0.1432
 5574SOL    HW128358   0.132   0.017   3.239 -0.4691  0.5227  2.5557
 5574SOL    HW228359   0.093   4.682   3.129  2.5228  3.3825  0.4239
 5575SOL     OW28360   2.358   2.609   8.353  0.3618  0.7847 -0.1632
 5575SOL    HW128361   2.328   2.620   8.444 -0.8679 -0.4530 -0.4202
 5575SOL    HW228362   2.362   2.704   8.338 -1.1297  0.6867 -1.1890
 5576SOL     OW28363   3.351   4.402   3.894  0.4866 -0.8084  0.2915
 5576SOL    HW128364   3.366   4.317   3.852 -0.8673 -2.0385  2.2933
 5576SOL    HW228365   3.439   4.438   3.894  0.1726 -0.0668 -0.9208
 5577SOL     OW28366   2.753   2.674   1.934 -0.5591 -1.0253  0.3192
 5577SOL    HW128367   2.711   2.716   2.009  0.1605 -0.0815  0.2038
 5577SOL    HW228368   2.723   2.584   1.930  0.7037 -1.4011 -0.7062
 5578SOL     OW28369   3.135   1.277  15.623 -0.2974 -0.3106  0.1075
 5578SOL    HW128370   3.090   1.230  15.552 -2.6767 -0.6458  1.8331
 5578SOL    HW228371   3.185   1.347  15.580  0.0885  1.3349  3.2380
 5579SOL     OW28372   3.321   2.564   4.066  0.3961 -0.3440 -0.0648
 5579SOL    HW128373   3.266   2.579   4.143 -2.2531 -0.2098 -1.9667
 5579SOL    HW228374   3.256   2.539   4.000 -1.2553  2.2106  0.5588
 5580SOL     OW28375   0.860   2.356  15.826  0.2969 -0.3799 -0.6083
 5580SOL    HW128376   0.808   2.281  15.856  0.7437 -1.0333 -1.4921
 5580SOL    HW228377   0.808   2.433  15.851  0.1484 -0.2822 -1.2123
 5581SOL     OW28378   4.194   0.599   8.711  0.1867  0.4622  0.1744
 5581SOL    HW128379   4.205   0.519   8.659 -0.3229  0.0172  0.7468
 5581SOL    HW228380   4.278   0.637   8.687  1.2808 -3.2321 -1.7380
 5582SOL     OW28381   1.130   3.464  13.628 -0.0047 -0.0283 -0.2793
 5582SOL    HW128382   1.176   3.382  13.608  0.6504  0.5117 -0.9329
 5582SOL    HW228383   1.153   3.499  13.543 -0.7257  2.5697  0.6093
 5583SOL     OW28384   4.707   2.662  12.805  0.0209 -0.4680  0.2034
 5583SOL    HW128385   0.007   2.597  12.747  0.7193 -1.0248  1.3208
 5583SOL    HW228386   4.615   2.640  12.791 -0.8527  2.6991  0.8113
 5584SOL     OW28387   2.929   2.293   0.489  0.5028  0.3845  0.1684
 5584SOL    HW128388   2.877   2.251   0.558  0.7318 -0.9706 -0.4939
 5584SOL    HW228389   2.870   2.303   0.415  0.0698  0.1345  0.4830
 5585SOL     OW28390   0.841   2.827   7.482  0.0147  0.1410  0.4511
 5585SOL    HW128391   0.936   2.828   7.487 -0.0162  2.8886  0.4256
 5585SOL    HW228392   0.831   2.778   7.401  0.8061  1.5707 -0.4901
 5586SOL     OW28393   3.755   1.139  12.460  0.9940 -0.4235  0.6556
 5586SOL    HW128394   3.743   1.071  12.393 -0.0888  1.8101 -1.4211
 5586SOL    HW228395   3.782   1.210  12.401 -1.1209  0.0854  0.3027
 5587SOL     OW28396   1.557   3.717  10.548  0.4970  0.2470 -0.3912
 5587SOL    HW128397   1.646   3.751  10.556  1.5879 -2.3082 -1.3904
 5587SOL    HW228398   1.542   3.669  10.629  0.0668 -0.2600 -0.7637
 5588SOL     OW28399   1.224   0.395   3.735 -0.2953  0.1134  0.1021
 5588SOL    HW128400   1.167   0.433   3.802  1.8502 -0.8296  2.4920
 5588SOL    HW228401   1.165   0.326   3.704  0.4659 -1.5714  2.4301
 5589SOL     OW28402   1.906   1.689   5.381  0.1353  0.1327 -0.3163
 5589SOL    HW128403   1.839   1.707   5.315 -0.2512 -0.2095 -0.0235
 5589SOL    HW228404   1.966   1.650   5.317 -0.5862  1.0333 -1.5393
 5590SOL     OW28405   2.159   0.532   2.581 -0.6088 -0.0846 -0.3007
 5590SOL    HW128406   2.088   0.591   2.607 -1.2733  0.1940 -2.7963
 5590SOL    HW228407   2.142   0.526   2.487  2.0095  2.0338 -0.9059
 5591SOL     OW28408   1.468   3.499  11.844  0.1144 -0.0384  0.2860
 5591SOL    HW128409   1.456   3.590  11.872  0.1480 -0.5165  1.8314
 5591SOL    HW228410   1.529   3.464  11.908  1.7610  1.7293 -0.3414
 5592SOL     OW28411   3.466   1.273   5.395  0.3673 -0.1886 -0.1302
 5592SOL    HW128412   3.480   1.209   5.465  1.2275  1.0690  0.8499
 5592SOL    HW228413   3.408   1.225   5.335 -0.5977  0.7263  0.0682
 5593SOL     OW28414   2.989   3.388  12.015  0.0421 -0.3750 -0.0613
 5593SOL    HW128415   3.034   3.304  12.019  1.6015  0.4417 -0.6863
 5593SOL    HW228416   2.912   3.357  12.063  0.4127 -1.4536 -0.1614
 5594SOL     OW28417   1.853   0.282  11.442 -0.1100 -0.1723  0.3282
 5594SOL    HW128418   1.929   0.271  11.499 -0.4364  1.0577  1.0067
 5594SOL    HW228419   1.800   0.208  11.471 -0.8795  0.0070 -0.6289
 5595SOL     OW28420   2.497   0.652   2.313  0.3633  0.4422  0.2967
 5595SOL    HW128421   2.420   0.611   2.351 -0.2299 -1.6134 -3.0804
 5595SOL    HW228422   2.479   0.741   2.341  0.4834 -0.3862  2.9605
 5596SOL     OW28423   0.727   0.647   9.129  0.0596 -0.3816  0.4751
 5596SOL    HW128424   0.711   0.568   9.181  0.3065  0.2149  1.4397
 5596SOL    HW228425   0.689   0.703   9.197 -0.8278 -1.1269  0.6035
 5597SOL     OW28426   4.035   4.127   2.860  0.0846 -0.1837 -0.2097
 5597SOL    HW128427   4.071   4.080   2.935 -0.4454 -0.3469 -0.0544
 5597SOL    HW228428   3.947   4.092   2.847  0.1726  0.3530 -2.2784
 5598SOL     OW28429   0.254   0.742   1.629 -0.1648  0.4323 -0.0890
 5598SOL    HW128430   0.175   0.761   1.579 -1.0359  1.2542  1.5831
 5598SOL    HW228431   0.263   0.826   1.674 -4.7328  0.9705 -0.1999
 5599SOL     OW28432   4.098   2.858   4.793  0.3788 -0.0448 -0.9027
 5599SOL    HW128433   4.167   2.875   4.728  0.0365 -0.8604 -1.4703
 5599SOL    HW228434   4.012   2.872   4.754  0.0323  2.6329  0.7836
 5600SOL     OW28435   1.439   1.534  15.401 -0.9451 -0.2782  0.6519
 5600SOL    HW128436   1.499   1.461  15.387  1.6904  1.5542  2.2239
 5600SOL    HW228437   1.500   1.604  15.378  0.0089 -1.2271  0.2835
 5601SOL     OW28438   3.211   3.253   5.016 -0.1720 -0.0712 -0.5094
 5601SOL    HW128439   3.293   3.203   5.007 -0.4152 -0.8014  1.5266
 5601SOL    HW228440   3.149   3.184   5.040  0.7849 -1.2247 -1.3172
 5602SOL     OW28441   0.816   1.744   9.122 -0.4792 -0.3056  0.3902
 5602SOL    HW128442   0.885   1.787   9.173  1.6525 -2.8210 -0.3319
 5602SOL    HW228443   0.866   1.669   9.088 -3.3054 -2.1115  0.2388
 5603SOL     OW28444   3.205   2.472  13.155  0.7756 -0.3711 -0.5301
 5603SOL    HW128445   3.174   2.486  13.244  1.2504 -0.1530 -0.3991
 5603SOL    HW228446   3.217   2.377  13.154  0.3783 -0.4178 -0.8585
 5604SOL     OW28447   4.632   0.723   6.609  0.6090 -0.7128 -0.3599
 5604SOL    HW128448   4.577   0.782   6.660  2.5282  0.6717  0.0865
 5604SOL    HW228449   4.605   0.748   6.520 -0.2250 -0.2084  0.0285
 5605SOL     OW28450   3.705   3.464   4.380 -0.0869  0.1136  0.5058
 5605SOL    HW128451   3.694   3.441   4.473  2.2380  0.5517  0.8875
 5605SOL    HW228452   3.763   3.393   4.351  1.3528  0.7629  1.8049
 5606SOL     OW28453   2.289   2.854   7.836  0.0533  0.6296  0.0928
 5606SOL    HW128454   2.254   2.862   7.925 -0.3332  1.2935 -0.1232
 5606SOL    HW228455   2.384   2.857   7.853  0.4064  0.2357 -1.8463
 5607SOL     OW28456   2.502   0.867   6.754  0.4985  0.3565 -0.6434
 5607SOL    HW128457   2.476   0.956   6.780  1.5807 -0.0096  1.7232
 5607SOL    HW228458   2.435   0.813   6.796  2.2882 -0.3381  1.3418
 5608SOL     OW28459   0.862   1.799  12.307 -0.4007  0.1102  0.3581
 5608SOL    HW128460   0.902   1.723  12.263 -1.2783  0.1846 -0.5755
 5608SOL    HW228461   0.850   1.852  12.228 -1.7979 -2.2647 -1.0426
 5609SOL     OW28462   3.769   0.355  14.004 -0.2829  0.3637 -0.1954
 5609SOL    HW128463   3.770   0.313  13.918 -1.5055  1.4769 -0.7448
 5609SOL    HW228464   3.804   0.285  14.060  0.9489 -0.6198 -2.2237
 5610SOL     OW28465   0.350   3.601   9.794 -0.0576 -0.2617 -0.2360
 5610SOL    HW128466   0.272   3.593   9.849 -1.4812 -0.7662 -2.3556
 5610SOL    HW228467   0.388   3.513   9.803 -0.9689 -0.4036  2.3566
 5611SOL     OW28468   4.619   1.015   5.653 -0.1202 -0.1371 -0.2225
 5611SOL    HW128469   4.701   0.977   5.622  0.3002  0.3440  0.3200
 5611SOL    HW228470   4.620   0.985   5.744 -4.3788 -1.3796 -0.5663
 5612SOL     OW28471   0.655   3.564  15.222 -0.2857  0.1587 -0.3131
 5612SOL    HW128472   0.680   3.654  15.243  0.2296 -0.0016 -0.2330
 5612SOL    HW228473   0.563   3.573  15.198 -0.4604  3.5428  1.6308
 5613SOL     OW28474   1.448   4.180   5.586 -0.1544  0.5894 -0.2616
 5613SOL    HW128475   1.531   4.228   5.589  1.4831 -2.3662  2.1663
 5613SOL    HW228476   1.471   4.088   5.580 -1.0413  0.4362 -1.2085
 5614SOL     OW28477   2.727   2.305  15.442 -0.4215 -0.0831 -0.1823
 5614SOL    HW128478   2.634   2.283  15.434 -0.1751 -1.0378 -0.4485
 5614SOL    HW228479   2.735   2.346  15.355  3.9873 -0.6741 -0.0347
 5615SOL     OW28480   2.724   4.585   5.192  0.1773 -0.3972 -0.4484
 5615SOL    HW128481   2.674   4.554   5.267 -1.9552 -0.3308 -1.8475
 5615SOL    HW228482   2.795   4.636   5.232  0.1836  0.0825 -1.0610
 5616SOL     OW28483   3.980   3.935  14.115  0.4187  0.6344  0.2556
 5616SOL    HW128484   4.010   3.854  14.155  0.4082  0.6545  0.3043
 5616SOL    HW228485   3.886   3.924  14.127  0.7034 -1.5023  0.5319
 5617SOL     OW28486   0.180   1.728  16.424  0.2720  0.1033 -0.2133
 5617SOL    HW128487   0.104   1.767  16.381 -1.8441 -2.1302  1.4599
 5617SOL    HW228488   0.242   1.752  16.356 -0.4976 -0.4735 -1.1134
 5618SOL     OW28489   4.417   3.313  11.923 -0.1620 -0.3622  0.6590
 5618SOL    HW128490   4.401   3.394  11.874 -0.9922  0.0926  1.6736
 5618SOL    HW228491   4.388   3.253  11.855 -2.7532  0.7208  0.8266
 5619SOL     OW28492   4.213   0.073  15.868  0.4784 -0.4492 -0.4933
 5619SOL    HW128493   4.129   0.078  15.912  0.2024  0.8874 -1.1891
 5619SOL    HW228494   4.230   0.155  15.821  0.7410 -0.4637 -0.4270
 5620SOL     OW28495   2.779   3.380   4.820  0.0131  0.3868  0.3892
 5620SOL    HW128496   2.861   3.399   4.865  1.2068 -0.1973 -1.5140
 5620SOL    HW228497   2.734   3.344   4.896  0.2966  0.1160  0.4279
 5621SOL     OW28498   1.081   1.932  17.687  0.1479  0.2977  0.0534
 5621SOL    HW128499   1.080   1.893   0.016  0.5833 -1.0860 -0.5685
 5621SOL    HW228500   1.098   1.862  17.624 -0.5154 -0.4423  0.7019
 5622SOL     OW28501   2.928   4.424   3.821 -0.1479  0.4071  0.7780
 5622SOL    HW128502   2.986   4.395   3.891 -0.3371 -0.9776  0.3488
 5622SOL    HW228503   2.856   4.362   3.831 -1.3562  1.4929 -1.1698
 5623SOL     OW28504   1.476   2.602   7.827 -0.3989 -0.3423 -0.4900
 5623SOL    HW128505   1.397   2.638   7.786 -1.2759 -0.7655  0.8395
 5623SOL    HW228506   1.438   2.524   7.866 -0.2018 -0.1472  0.0817
 5624SOL     OW28507   1.526   2.769   8.368 -0.7050 -0.2161  0.3727
 5624SOL    HW128508   1.561   2.818   8.294 -1.1525  0.2565  0.4750
 5624SOL    HW228509   1.454   2.728   8.319  0.5720 -2.1714  0.1612
 5625SOL     OW28510   1.838   0.237   4.364 -0.5968 -0.6182  0.2230
 5625SOL    HW128511   1.907   0.170   4.366 -2.2972 -2.4519 -2.3793
 5625SOL    HW228512   1.851   0.259   4.272 -0.8562  1.8008  0.7750
 5626SOL     OW28513   1.516   1.318   3.251 -0.3324  0.0759  0.0078
 5626SOL    HW128514   1.519   1.295   3.158  0.5694  0.8583 -0.1503
 5626SOL    HW228515   1.585   1.383   3.260 -0.8026  0.4508  0.9180
 5627SOL     OW28516   0.122   4.508   8.563 -0.3657  0.3344 -0.0054
 5627SOL    HW128517   0.106   4.550   8.648  0.4819  0.6251  0.0110
 5627SOL    HW228518   0.128   4.573   8.493  1.5825  1.7311  1.4493
 5628SOL     OW28519   4.285   3.896   5.610  0.2581 -0.2225 -0.2290
 5628SOL    HW128520   4.354   3.831   5.617 -2.0696 -2.6690 -0.1460
 5628SOL    HW228521   4.212   3.838   5.632 -1.2465  1.0698 -1.7321
 5629SOL     OW28522   4.637   1.718   5.406  0.8597 -0.0940 -0.0403
 5629SOL    HW128523   4.632   1.624   5.420  1.4657  0.0013  0.8158
 5629SOL    HW228524   4.727   1.740   5.428  0.7819  0.0056  0.1797
 5630SOL     OW28525   3.362   1.315   5.876  0.1668  0.0232 -0.7167
 5630SOL    HW128526   3.367   1.388   5.939  0.6415 -0.0797 -0.6351
 5630SOL    HW228527   3.448   1.319   5.833  0.6495 -2.2778  0.0405
 5631SOL     OW28528   3.797   3.871  12.586 -0.0175  0.4726  0.8210
 5631SOL    HW128529   3.792   3.954  12.539  1.0234 -1.1049 -2.0962
 5631SOL    HW228530   3.801   3.895  12.678  1.3172  0.9155  0.6532
 5632SOL     OW28531   0.020   4.570   9.169 -0.2104  0.0157 -0.0887
 5632SOL    HW128532   0.003   4.477   9.155 -0.9337  0.4110 -1.8389
 5632SOL    HW228533   0.114   4.568   9.190 -0.2647  0.6343  0.1997
 5633SOL     OW28534   1.797   1.037  14.937 -0.3701  0.2991 -0.1958
 5633SOL    HW128535   1.833   1.046  14.848  1.1496  0.1190  0.3985
 5633SOL    HW228536   1.828   1.120  14.973  0.1267  0.7371 -1.6166
 5634SOL     OW28537   3.429   2.193  12.828  0.0401 -0.4320  0.3145
 5634SOL    HW128538   3.465   2.152  12.907  0.9937  3.5052  1.9538
 5634SOL    HW228539   3.352   2.144  12.800 -0.0765  0.3147 -0.6588
 5635SOL     OW28540   1.154   2.005   6.126  0.1829  0.6846  0.2196
 5635SOL    HW128541   1.166   2.036   6.036  0.3490 -1.4584 -0.4939
 5635SOL    HW228542   1.118   2.084   6.166  0.6359  0.2584  1.4847
 5636SOL     OW28543   3.499   2.581   9.203  0.9264 -0.3574 -0.0222
 5636SOL    HW128544   3.548   2.628   9.136  0.8924  2.0569  1.6269
 5636SOL    HW228545   3.477   2.505   9.149 -2.5149  2.4825 -2.6342
 5637SOL     OW28546   0.441   2.827   3.673 -0.5279  0.2749 -0.3525
 5637SOL    HW128547   0.448   2.901   3.613 -0.2726 -1.2481 -2.2107
 5637SOL    HW228548   0.473   2.756   3.618  0.5027  0.2083  0.3358
 5638SOL     OW28549   3.371   2.015  14.129 -0.0792  0.4394 -0.4838
 5638SOL    HW128550   3.371   2.109  14.148  0.4965  0.6322 -1.4150
 5638SOL    HW228551   3.396   2.010  14.037  1.5210  0.0802 -0.0293
 5639SOL     OW28552   0.121   1.748   7.156 -0.1873 -0.0441  0.2520
 5639SOL    HW128553   0.162   1.750   7.070  2.1437 -2.7966  1.3269
 5639SOL    HW228554   0.177   1.693   7.210  0.5786 -0.1961 -0.6895
 5640SOL     OW28555   2.861   3.145   3.251  0.3129 -0.3103  0.5622
 5640SOL    HW128556   2.875   3.232   3.287 -1.4057  0.1600  0.1121
 5640SOL    HW228557   2.803   3.171   3.179  1.7246 -1.3267 -0.9523
 5641SOL     OW28558   1.654   1.132   2.201  0.3771  0.5447 -0.4721
 5641SOL    HW128559   1.567   1.145   2.162 -1.2609  1.7488  3.6311
 5641SOL    HW228560   1.716   1.134   2.128  1.1862  1.1710  0.2360
 5642SOL     OW28561   1.504   4.517  15.517  0.2122 -0.0396 -0.0669
 5642SOL    HW128562   1.521   4.570  15.595  1.6324 -1.7033  0.7628
 5642SOL    HW228563   1.409   4.515  15.522  0.2449  4.2813  2.2937
 5643SOL     OW28564   1.674   3.751  11.735 -0.2086  0.0525  0.5966
 5643SOL    HW128565   1.609   3.743  11.805  2.0302  0.1828  2.7069
 5643SOL    HW228566   1.745   3.698  11.772  1.9574  0.1573 -3.4456
 5644SOL     OW28567   0.237   1.853  16.194  0.2256  0.3671 -0.3346
 5644SOL    HW128568   0.144   1.866  16.213  0.3951  1.3320 -0.1869
 5644SOL    HW228569   0.245   1.858  16.099 -1.5057 -0.5780 -0.5396
 5645SOL     OW28570   4.507   4.087  15.335 -0.3920  0.6048  0.5310
 5645SOL    HW128571   4.581   4.110  15.392 -3.6435  3.3959  3.6112
 5645SOL    HW228572   4.554   4.116  15.257  0.0574 -2.5134 -0.3271
 5646SOL     OW28573   2.713   3.904   7.907  0.3466  0.3306  0.2702
 5646SOL    HW128574   2.764   3.845   7.961  0.6379  0.4320  0.1057
 5646SOL    HW228575   2.657   3.843   7.858  0.3092  0.7636 -0.2284
 5647SOL     OW28576   0.399   2.454   5.584  0.1780  0.3684 -0.4392
 5647SOL    HW128577   0.468   2.388   5.582  0.3068  0.4307  1.9025
 5647SOL    HW228578   0.435   2.528   5.536 -1.3266 -0.3990 -2.7354
 5648SOL     OW28579   2.380   1.284  16.538  0.6197  0.0915 -0.1411
 5648SOL    HW128580   2.459   1.248  16.498  1.2053 -1.0389  2.0392
 5648SOL    HW228581   2.317   1.215  16.514  1.4891 -0.5379 -0.6087
 5649SOL     OW28582   1.247   4.447   2.672  0.0600 -0.3567 -0.3701
 5649SOL    HW128583   1.339   4.424   2.678  0.0409 -0.2538  0.3125
 5649SOL    HW228584   1.212   4.361   2.694 -1.3315  0.3507  0.2296
 5650SOL     OW28585   1.819   2.037   5.280 -0.7965 -0.1936  0.5735
 5650SOL    HW128586   1.805   1.946   5.252  1.4691  0.6672 -3.4186
 5650SOL    HW228587   1.728   2.064   5.269 -0.3452  0.1805 -2.1668
 5651SOL     OW28588   2.163   4.566   2.172  0.0231 -0.0020  0.1199
 5651SOL    HW128589   2.180   4.613   2.253  0.1749 -0.5902  0.4314
 5651SOL    HW228590   2.067   4.564   2.172  0.0431 -1.3664 -0.7987
 5652SOL     OW28591   0.131   2.786   3.927  0.5737  0.4774  0.1693
 5652SOL    HW128592   0.086   2.754   4.005  1.1097  1.3633  0.8471
 5652SOL    HW228593   0.125   2.880   3.948 -1.1089  1.1971 -3.5621
 5653SOL     OW28594   0.926   3.280   3.720  0.2872  0.0861  0.4930
 5653SOL    HW128595   0.941   3.363   3.676  0.9245 -0.0046  0.5364
 5653SOL    HW228596   0.973   3.219   3.663 -1.4358  0.6715 -1.5705
 5654SOL     OW28597   3.628   1.047   2.693 -0.3919  0.3360  0.6381
 5654SOL    HW128598   3.562   1.101   2.649 -0.5535 -0.1399  0.2979
 5654SOL    HW228599   3.671   0.997   2.624  0.5187 -0.8391  2.0557
 5655SOL     OW28600   3.426   0.310   7.594 -0.0594  0.3599  0.4066
 5655SOL    HW128601   3.404   0.371   7.665  0.7237 -0.7062  1.5640
 5655SOL    HW228602   3.520   0.297   7.611  0.1372  1.2262 -0.0191
 5656SOL     OW28603   4.250   3.927  16.745 -0.6396 -0.2874  0.3842
 5656SOL    HW128604   4.221   3.887  16.663  0.8178 -0.6809  0.0684
 5656SOL    HW228605   4.180   3.991  16.755 -1.0996 -0.9526  1.4506
 5657SOL     OW28606   1.293   3.955  11.937  0.0303 -0.2942  0.5657
 5657SOL    HW128607   1.296   4.006  12.018 -0.9634  1.6349 -0.6200
 5657SOL    HW228608   1.197   3.954  11.928  0.1947 -1.2710 -1.0397
 5658SOL     OW28609   0.022   3.946   1.811 -0.1167 -0.3918 -0.3900
 5658SOL    HW128610   4.706   3.974   1.739 -1.5284 -1.1754  0.3998
 5658SOL    HW228611   4.732   3.856   1.821 -3.1430  0.9022  2.0476
 5659SOL     OW28612   1.258   2.686  16.616 -0.6657 -0.3054  0.4625
 5659SOL    HW128613   1.172   2.676  16.576 -0.5684  1.3360 -0.1618
 5659SOL    HW228614   1.280   2.776  16.592  0.0239 -0.7653 -0.6090
 5660SOL     OW28615   0.363   3.739   7.104 -0.0796  1.2564 -0.0017
 5660SOL    HW128616   0.403   3.769   7.186 -0.2514 -0.0386  0.5535
 5660SOL    HW228617   0.402   3.652   7.098 -1.5528  0.6973 -1.3256
 5661SOL     OW28618   3.731   0.159   6.204  0.2379  0.1228 -0.0699
 5661SOL    HW128619   3.660   0.096   6.217  2.0901 -1.9904 -0.2671
 5661SOL    HW228620   3.698   0.223   6.141  2.2821  1.3841  0.1590
 5662SOL     OW28621   4.420   1.613  14.892 -0.1474 -0.3646  0.4436
 5662SOL    HW128622   4.392   1.699  14.923 -0.3978 -0.1655 -0.3375
 5662SOL    HW228623   4.481   1.584  14.960 -1.3637 -0.7127  1.3847
 5663SOL     OW28624   4.188   0.136   5.029 -0.0742 -0.1284 -0.8226
 5663SOL    HW128625   4.279   0.152   5.002  0.5614 -1.0547  0.7418
 5663SOL    HW228626   4.170   0.192   5.104 -1.0125  0.3160 -1.3879
 5664SOL     OW28627   3.163   3.779   0.919 -0.4012  0.3997  0.3504
 5664SOL    HW128628   3.100   3.791   0.989  2.2421 -0.8272  2.9461
 5664SOL    HW228629   3.095   3.778   0.852 -1.0280 -2.6768  1.0528
 5665SOL     OW28630   3.151   2.790   9.045  0.0541 -0.7403 -0.3453
 5665SOL    HW128631   3.219   2.724   9.030 -0.2517 -0.9305 -0.9204
 5665SOL    HW228632   3.205   2.867   9.057  0.3421 -1.1174  0.7211
 5666SOL     OW28633   1.319   3.750   3.707 -0.3713 -0.1821  0.0464
 5666SOL    HW128634   1.411   3.767   3.689 -0.7770  2.0302  0.1162
 5666SOL    HW228635   1.325   3.715   3.796 -3.3633 -0.7777  0.0275
 5667SOL     OW28636   3.711   1.650   7.488  0.0176  0.3075  0.0979
 5667SOL    HW128637   3.786   1.604   7.450  0.5215  1.9209 -0.8601
 5667SOL    HW228638   3.649   1.585   7.521  0.6892 -0.5736 -0.3729
 5668SOL     OW28639   0.689   3.909   8.943  0.4880  0.0846  0.2521
 5668SOL    HW128640   0.750   3.975   8.910 -1.3648  1.1017 -1.0913
 5668SOL    HW228641   0.614   3.963   8.967  2.2831  1.5629  2.6513
 5669SOL     OW28642   4.212   2.872   5.568  0.3859  0.4401  0.5218
 5669SOL    HW128643   4.177   2.822   5.494 -0.9124 -1.9028  2.7245
 5669SOL    HW228644   4.191   2.963   5.547 -1.2719  0.3832  1.9562
 5670SOL     OW28645   2.621   4.434   8.155 -0.2276 -0.0835 -0.1800
 5670SOL    HW128646   2.618   4.407   8.247 -0.6646  0.0516 -0.1536
 5670SOL    HW228647   2.654   4.353   8.116 -0.2879 -1.5501  2.7942
 5671SOL     OW28648   1.809   1.537   0.441 -0.3171  0.0373 -0.0831
 5671SOL    HW128649   1.878   1.531   0.375  0.1259  2.9174  0.1434
 5671SOL    HW228650   1.732   1.565   0.393  0.4139  1.9466 -0.1207
 5672SOL     OW28651   3.727   3.556   4.698 -0.0189  0.0776  0.5156
 5672SOL    HW128652   3.670   3.489   4.735 -0.1466  0.9569  1.9262
 5672SOL    HW228653   3.657   3.607   4.657  0.7069  0.0870 -0.7022
 5673SOL     OW28654   2.564   0.032   4.141  0.0195  0.2398 -0.2010
 5673SOL    HW128655   2.597   4.698   4.091  1.7144  0.6313  0.3308
 5673SOL    HW228656   2.559   0.085   4.061  0.9799 -1.6606 -1.5024
 5674SOL     OW28657   2.724   0.514   3.157 -0.1564 -0.1135 -0.3872
 5674SOL    HW128658   2.653   0.579   3.159  0.9841  1.1660 -1.1880
 5674SOL    HW228659   2.798   0.575   3.147 -0.5228  0.7572  2.2620
 5675SOL     OW28660   1.371   2.281   9.633 -0.4762  0.0949  0.3184
 5675SOL    HW128661   1.462   2.252   9.642 -0.7864 -0.8248  0.4912
 5675SOL    HW228662   1.352   2.274   9.726  0.1982 -0.3711  0.4255
 5676SOL     OW28663   3.252   1.688   7.960  0.4072  0.0972  0.1942
 5676SOL    HW128664   3.165   1.652   7.940  0.0938  0.4810  0.8733
 5676SOL    HW228665   3.257   1.774   7.918  1.2307  0.3567  0.8330
 5677SOL     OW28666   4.404   4.391   5.177 -0.1746  0.5425 -0.5605
 5677SOL    HW128667   4.467   4.320   5.192 -0.5687  0.6899  1.7285
 5677SOL    HW228668   4.342   4.374   5.247 -3.5629  2.4942 -3.0750
 5678SOL     OW28669   1.153   2.940  12.208  0.3182  0.0498 -0.6378
 5678SOL    HW128670   1.243   2.917  12.184  0.6802  2.0071 -1.1644
 5678SOL    HW228671   1.168   2.930  12.302 -0.4737  1.2654 -0.3817
 5679SOL     OW28672   4.506   1.945   9.428  0.5148  0.4386 -0.4685
 5679SOL    HW128673   4.571   1.875   9.434  0.2827  0.3266  0.7734
 5679SOL    HW228674   4.540   1.999   9.356 -1.5160 -0.2274 -1.9098
 5680SOL     OW28675   2.532   3.811  13.455 -0.1610 -0.2837 -0.3821
 5680SOL    HW128676   2.566   3.826  13.543  0.2427 -0.7137 -0.4615
 5680SOL    HW228677   2.602   3.752  13.424 -0.1177  0.3083 -1.4167
 5681SOL     OW28678   4.214   3.771   2.785  0.3778 -0.4684  0.4829
 5681SOL    HW128679   4.298   3.726   2.773 -0.4872 -2.0074  0.2100
 5681SOL    HW228680   4.233   3.861   2.809 -0.3334 -0.1701 -0.0880
 5682SOL     OW28681   3.771   3.274   8.538 -0.3804  0.8302 -0.0813
 5682SOL    HW128682   3.711   3.235   8.474  0.1586  0.0547 -0.1105
 5682SOL    HW228683   3.740   3.364   8.526 -0.9428  0.4852 -1.2579
 5683SOL     OW28684   4.303   3.274   1.933  0.4048 -0.1100  0.0338
 5683SOL    HW128685   4.378   3.303   1.880 -0.3597 -0.4725 -1.2619
 5683SOL    HW228686   4.317   3.323   2.014  1.6643  0.4294 -0.5150
 5684SOL     OW28687   4.616   0.776   7.599 -0.3311 -0.3102  0.1249
 5684SOL    HW128688   4.703   0.748   7.570 -0.1277 -0.8885  1.2891
 5684SOL    HW228689   4.599   0.711   7.667 -0.0729  1.3367  1.7803
 5685SOL     OW28690   0.941   3.321  14.687  0.3802  0.0480 -0.0875
 5685SOL    HW128691   0.848   3.342  14.696  0.9589  1.9504  1.3667
 5685SOL    HW228692   0.961   3.311  14.780 -2.8602 -2.7212  0.2950
 5686SOL     OW28693   2.609   3.263  14.975  0.0298  0.4425 -0.3189
 5686SOL    HW128694   2.614   3.167  14.978  1.2745  0.5146  0.0619
 5686SOL    HW228695   2.517   3.266  14.946 -0.5067  2.0866  1.5537
 5687SOL     OW28696   0.482   1.619  12.500  0.4303 -0.6382  0.2874
 5687SOL    HW128697   0.398   1.591  12.535  1.1446 -1.2498  1.5015
 5687SOL    HW228698   0.487   1.566  12.421  4.2951  0.6297 -0.3413
 5688SOL     OW28699   0.061   4.525  14.324  0.0447 -0.1003 -0.5604
 5688SOL    HW128700   0.091   4.474  14.249  1.5302 -2.1357  1.4196
 5688SOL    HW228701   0.066   4.454  14.387  1.3551  0.7430  0.2836
 5689SOL     OW28702   1.532   0.283   1.732 -0.2840  0.0696  0.5896
 5689SOL    HW128703   1.512   0.195   1.762 -1.6172  0.1225 -0.1490
 5689SOL    HW228704   1.454   0.299   1.678  1.2791  0.0579 -1.6546
 5690SOL     OW28705   1.494   1.402   7.804  1.0054  0.3217  0.1072
 5690SOL    HW128706   1.440   1.399   7.883 -0.3300  3.1447 -0.7096
 5690SOL    HW228707   1.469   1.486   7.767  0.1189  0.7314  1.6482
 5691SOL     OW28708   2.695   2.954   5.067  0.2288 -0.6669  0.0100
 5691SOL    HW128709   2.712   2.891   5.136  2.2703 -0.6200 -0.4545
 5691SOL    HW228710   2.629   3.008   5.111 -0.0510 -0.9332 -0.0848
 5692SOL     OW28711   3.643   3.955   3.845  0.1795  0.1695 -0.8607
 5692SOL    HW128712   3.716   3.917   3.795  1.1696 -1.8776  2.1739
 5692SOL    HW228713   3.680   4.041   3.866  0.8035 -0.4657  0.6264
 5693SOL     OW28714   3.085   2.516   4.706 -0.3721 -0.4783 -0.5272
 5693SOL    HW128715   3.093   2.491   4.614 -0.8657 -0.6338 -0.5272
 5693SOL    HW228716   3.164   2.568   4.724 -0.8477 -0.1412  0.5833
 5694SOL     OW28717   0.940   2.628   1.822 -0.0685 -0.0194  0.2888
 5694SOL    HW128718   0.885   2.702   1.798  2.9148  2.8173  2.1045
 5694SOL    HW228719   0.917   2.568   1.751 -0.7552 -0.8868  1.2594
 5695SOL     OW28720   4.044   1.086   3.087  0.2753 -0.1872 -0.0124
 5695SOL    HW128721   4.000   1.165   3.119 -2.9779 -1.0303 -2.4695
 5695SOL    HW228722   4.134   1.110   3.064  0.0019 -0.0685 -0.9243
 5696SOL     OW28723   3.296   4.229   2.922  0.6041  0.8393  0.3985
 5696SOL    HW128724   3.274   4.136   2.920 -0.2629  1.0265  1.2291
 5696SOL    HW228725   3.210   4.268   2.935  0.3717  1.3314 -2.8554
 5697SOL     OW28726   0.032   1.252   3.462 -0.1832  0.2977  0.0737
 5697SOL    HW128727   0.106   1.225   3.407  0.3338  1.5691  0.1485
 5697SOL    HW228728   0.007   1.163   3.488 -0.7970  0.3767 -0.2560
 5698SOL     OW28729   1.612   4.674   2.126 -0.5000  0.0547 -0.0395
 5698SOL    HW128730   1.573   0.014   2.160 -1.4076 -1.1044  1.6698
 5698SOL    HW228731   1.554   4.602   2.153  0.4551 -0.6573  0.1294
 5699SOL     OW28732   2.211   0.167  15.045 -0.8819 -0.2990  0.0593
 5699SOL    HW128733   2.194   0.082  15.003 -0.8294  0.2272 -1.0214
 5699SOL    HW228734   2.143   0.172  15.112 -1.8417 -2.5540 -0.7494
 5700SOL     OW28735   0.464   3.907  15.464  0.1224 -0.2162 -0.3077
 5700SOL    HW128736   0.408   3.967  15.513 -1.4676 -1.1094 -1.0620
 5700SOL    HW228737   0.403   3.850  15.417  0.1740  1.7003 -2.6518
 5701SOL     OW28738   0.242   0.918   7.651 -0.1609 -0.2150  0.1593
 5701SOL    HW128739   0.228   0.826   7.629  0.5166 -0.8644  2.4315
 5701SOL    HW228740   0.184   0.932   7.726  0.8619  1.3159  0.6548
 5702SOL     OW28741   4.739   4.278   2.924  0.6913  0.2574 -0.1753
 5702SOL    HW128742   4.680   4.326   2.867 -0.2135 -0.4117  0.1892
 5702SOL    HW228743   4.690   4.195   2.931 -1.4446  1.4821 -0.4604
 5703SOL     OW28744   1.109   2.534  16.227 -0.5503  0.4447  0.2527
 5703SOL    HW128745   1.045   2.479  16.182  1.8218 -0.9498 -1.4390
 5703SOL    HW228746   1.156   2.584  16.161 -0.7730 -0.5461 -0.6588
 5704SOL     OW28747   2.276   4.291   4.190  0.2485 -0.2349  0.3844
 5704SOL    HW128748   2.263   4.203   4.224 -0.8925 -0.2135  0.0018
 5704SOL    HW228749   2.295   4.332   4.274  2.4876 -0.4193 -0.0277
 5705SOL     OW28750   0.149   1.409  14.483  0.1729 -0.5016  0.1261
 5705SOL    HW128751   0.166   1.500  14.507 -1.0321 -0.2860  0.1658
 5705SOL    HW228752   0.061   1.419  14.446  0.7148 -0.9460 -1.2829
 5706SOL     OW28753   3.208   0.775   9.638  0.0188  0.2703 -0.1133
 5706SOL    HW128754   3.263   0.822   9.701 -0.8482  1.3326 -0.1451
 5706SOL    HW228755   3.276   0.774   9.571  0.9120 -1.2466  0.8159
 5707SOL     OW28756   2.376   3.527  17.595 -0.1083  0.2180  0.5505
 5707SOL    HW128757   2.468   3.534  17.568  0.3780  0.6179  2.2787
 5707SOL    HW228758   2.349   3.444  17.555  0.0009  0.2302  0.4530
 5708SOL     OW28759   3.036   4.657   0.776  0.0087 -0.0225 -0.1217
 5708SOL    HW128760   2.989   4.612   0.847 -0.2253  0.4622  0.0264
 5708SOL    HW228761   3.096   4.587   0.750  0.4454  0.4073 -0.2749
 5709SOL     OW28762   0.393   4.479   2.998 -0.0941 -0.2000 -0.5365
 5709SOL    HW128763   0.384   4.500   3.091 -1.9999 -2.3190 -0.2204
 5709SOL    HW228764   0.306   4.500   2.964  0.1405  1.8070  0.1175
 5710SOL     OW28765   2.241   3.464  15.519 -0.1047  0.4914  0.3170
 5710SOL    HW128766   2.151   3.431  15.524 -0.0751  0.3937  0.1987
 5710SOL    HW228767   2.268   3.451  15.610 -0.4102 -1.7970  0.0948
 5711SOL     OW28768   4.043   2.270   8.767  0.8310  0.6034  0.1629
 5711SOL    HW128769   4.115   2.220   8.729 -0.6389  0.2442 -2.1484
 5711SOL    HW228770   4.062   2.264   8.861 -0.1398  2.1037  0.4448
 5712SOL     OW28771   1.691   2.254   6.795 -0.3850  0.3191 -0.5517
 5712SOL    HW128772   1.665   2.346   6.796  0.0060  0.4085  1.2519
 5712SOL    HW228773   1.694   2.232   6.702  2.5411 -1.5898 -0.0183
 5713SOL     OW28774   2.455   3.555   5.965 -0.3448 -0.0718 -0.4178
 5713SOL    HW128775   2.435   3.626   5.905 -0.1865  0.9355  0.7323
 5713SOL    HW228776   2.450   3.483   5.902 -0.7564 -0.6141  0.2317
 5714SOL     OW28777   1.362   0.751   8.757  0.1310  0.0045 -0.0770
 5714SOL    HW128778   1.388   0.824   8.811 -0.3868  0.1965 -0.0836
 5714SOL    HW228779   1.319   0.696   8.822 -0.2387  1.3425  0.8006
 5715SOL     OW28780   1.589   3.119  17.428 -0.6092 -0.0745 -0.5873
 5715SOL    HW128781   1.625   3.151  17.511 -1.1369  0.6185 -0.6254
 5715SOL    HW228782   1.600   3.026  17.448  0.7407 -0.0680 -1.2822
 5716SOL     OW28783   2.783   0.340  15.125 -0.4067 -0.1743 -0.5344
 5716SOL    HW128784   2.736   0.381  15.052  0.0931  0.8158 -0.3005
 5716SOL    HW228785   2.855   0.293  15.082 -1.2138 -0.6192 -1.4109
 5717SOL     OW28786   3.167   3.172   6.372 -0.0871 -0.1806  0.4186
 5717SOL    HW128787   3.149   3.150   6.281 -0.9706  2.3106 -0.0006
 5717SOL    HW228788   3.192   3.086   6.404 -0.5558 -0.7094 -0.6626
 5718SOL     OW28789   2.147   3.393   8.107  0.5825  0.0719 -0.0329
 5718SOL    HW128790   2.079   3.447   8.068 -0.8063  0.4724  2.9031
 5718SOL    HW228791   2.094   3.336   8.162  0.0417 -0.6069 -1.2877
 5719SOL     OW28792   1.967   3.615   2.864  0.4083  0.2397 -0.5054
 5719SOL    HW128793   2.016   3.639   2.943  1.6024  0.4420 -1.3027
 5719SOL    HW228794   2.036   3.604   2.798  1.3863  1.5824  0.2803
 5720SOL     OW28795   1.260   4.674  13.990 -0.1937 -0.3449 -0.1573
 5720SOL    HW128796   1.176   4.637  13.965 -0.0605 -1.3610  0.9385
 5720SOL    HW228797   1.322   4.640  13.925 -0.5893  1.5404 -1.5379
 5721SOL     OW28798   1.929   3.449   8.331  0.0296  0.1335 -0.1014
 5721SOL    HW128799   2.010   3.498   8.345  0.5113 -1.1777  1.6838
 5721SOL    HW228800   1.937   3.384   8.401  0.7463  0.2963 -0.0311
 5722SOL     OW28801   0.873   3.522   1.326  0.4490 -0.2456  0.1147
 5722SOL    HW128802   0.820   3.595   1.294 -1.8573 -1.8428  0.3826
 5722SOL    HW228803   0.961   3.534   1.290  0.2650  1.3075  0.1770
 5723SOL     OW28804   4.359   1.436   3.799 -0.5188  0.3551  0.3048
 5723SOL    HW128805   4.414   1.514   3.797  2.2850 -1.5989  0.7994
 5723SOL    HW228806   4.427   1.369   3.798  0.5237  1.4081 -0.0537
 5724SOL     OW28807   2.767   3.085   9.371  0.0806 -0.0260  0.1592
 5724SOL    HW128808   2.675   3.094   9.396  0.4203 -0.0962  1.4362
 5724SOL    HW228809   2.803   3.086   9.460 -0.9779 -1.3346  0.6201
 5725SOL     OW28810   1.939   3.185   3.578  0.0289  0.4538 -0.5412
 5725SOL    HW128811   1.858   3.216   3.618  0.9401  1.1053  0.8154
 5725SOL    HW228812   1.916   3.101   3.538  2.0693 -0.3798 -0.0144
 5726SOL     OW28813   3.018   2.081   2.926  0.2878  0.1390  0.3626
 5726SOL    HW128814   2.971   2.149   2.974 -0.5795 -0.5470  0.4869
 5726SOL    HW228815   3.037   2.029   3.005 -2.9608 -1.6702 -0.0431
 5727SOL     OW28816   4.141   1.905   7.628  0.4397 -0.6539  0.6344
 5727SOL    HW128817   4.067   1.856   7.664  0.1522 -0.8685 -0.2568
 5727SOL    HW228818   4.152   1.964   7.703 -0.3531 -0.6643  0.7666
 5728SOL     OW28819   3.770   1.023  14.376  0.1600 -0.4940  0.0710
 5728SOL    HW128820   3.793   1.077  14.301  2.0588  0.8248  1.5901
 5728SOL    HW228821   3.818   0.945  14.347 -1.2490 -1.0143 -0.8741
 5729SOL     OW28822   3.935   3.844   3.870  0.1758  0.1761  0.2103
 5729SOL    HW128823   4.004   3.878   3.812 -1.2788  0.3538 -1.4004
 5729SOL    HW228824   3.893   3.928   3.888  1.4681  0.3218  2.5874
 5730SOL     OW28825   3.180   3.398   7.652  0.3158  0.1043  0.2732
 5730SOL    HW128826   3.100   3.440   7.684 -0.3727 -1.0387  0.0574
 5730SOL    HW228827   3.242   3.470   7.656  0.2946  0.3013 -2.6324
 5731SOL     OW28828   3.077   3.246   8.854 -0.0288 -0.1260 -0.3971
 5731SOL    HW128829   3.135   3.256   8.929 -1.6870  0.5384  0.7889
 5731SOL    HW228830   3.034   3.330   8.870  0.4795 -0.2027  1.3157
 5732SOL     OW28831   1.046   0.763  11.766 -0.4081  0.8410  0.6284
 5732SOL    HW128832   1.037   0.711  11.845  1.5405 -0.3569  0.0712
 5732SOL    HW228833   0.954   0.764  11.738 -0.1386 -0.6311 -0.3250
 5733SOL     OW28834   4.495   3.039  15.898 -0.4831 -0.4912 -0.0242
 5733SOL    HW128835   4.482   3.106  15.831  0.7669 -2.3321 -2.0937
 5733SOL    HW228836   4.420   2.985  15.873  1.0696 -2.4037 -0.5062
 5734SOL     OW28837   1.203   1.139   6.949 -0.3505  0.0980 -0.1067
 5734SOL    HW128838   1.221   1.208   6.884  1.1047  0.3008  0.4937
 5734SOL    HW228839   1.116   1.112   6.923 -1.1970  1.9512  0.7849
 5735SOL     OW28840   0.904   4.352   6.417  0.2914 -0.2995  0.3098
 5735SOL    HW128841   0.816   4.333   6.385  0.3301 -0.4896  0.3188
 5735SOL    HW228842   0.946   4.268   6.397  1.4722  0.4251 -0.2827
 5736SOL     OW28843   1.020   3.196   7.045 -0.1752  0.2291 -0.2431
 5736SOL    HW128844   0.926   3.204   7.029  0.3479  1.2893 -2.6865
 5736SOL    HW228845   1.044   3.287   7.030  1.2807 -0.0920  0.1694
 5737SOL     OW28846   0.684   3.392  14.743 -0.2527 -0.2214  0.6282
 5737SOL    HW128847   0.600   3.432  14.721  0.3332  0.4693 -0.3430
 5737SOL    HW228848   0.648   3.352  14.822 -0.6055 -0.8794  0.1371
 5738SOL     OW28849   1.327   1.996   5.774  0.3789  0.5820 -0.3534
 5738SOL    HW128850   1.356   1.928   5.714 -1.4539  0.0323 -0.6204
 5738SOL    HW228851   1.274   2.053   5.718 -1.0472 -0.4291 -0.0135
 5739SOL     OW28852   1.215   1.075   8.771  0.6254 -0.3747  0.3695
 5739SOL    HW128853   1.183   0.986   8.754 -0.5910  0.3346 -1.0621
 5739SOL    HW228854   1.207   1.076   8.866 -3.6308 -2.4999  0.0350
 5740SOL     OW28855   3.266   3.181   8.465 -0.0180 -0.2345 -0.0151
 5740SOL    HW128856   3.343   3.232   8.488 -0.6120 -0.6741  2.9351
 5740SOL    HW228857   3.299   3.150   8.381 -0.0366  0.9920 -0.4767
 5741SOL     OW28858   2.017   2.397  12.162 -0.1318  0.4275 -0.2295
 5741SOL    HW128859   2.049   2.306  12.160  1.4221  0.9760 -0.4065
 5741SOL    HW228860   2.017   2.401  12.257 -0.2160 -1.9478 -0.1174
 5742SOL     OW28861   0.170   1.265  14.719 -1.0878  0.1475 -0.0401
 5742SOL    HW128862   0.159   1.292  14.628  1.6021 -2.2371 -1.0928
 5742SOL    HW228863   0.240   1.199  14.711 -0.8164  0.2587  1.5253
 5743SOL     OW28864   2.867   3.405   3.387 -0.2316  0.3915 -0.1342
 5743SOL    HW128865   2.917   3.457   3.324 -2.0211  0.7003 -1.2895
 5743SOL    HW228866   2.876   3.460   3.465  0.0461  0.3791 -0.1574
 5744SOL     OW28867   3.803   3.918   0.638 -0.9375  0.1340  0.4992
 5744SOL    HW128868   3.867   3.932   0.708  0.0329 -1.6285 -0.0245
 5744SOL    HW228869   3.722   3.897   0.685  0.4605 -1.2179  2.3323
 5745SOL     OW28870   1.865   3.112   0.027 -0.4200 -0.3265 -0.2574
 5745SOL    HW128871   1.817   3.030   0.044 -1.4869  0.6495  1.4814
 5745SOL    HW228872   1.938   3.081  17.731  1.7625 -1.0290  3.1026
 5746SOL     OW28873   3.231   1.483  16.817  0.2544  0.3314 -0.2400
 5746SOL    HW128874   3.257   1.477  16.909 -3.2401 -1.0188  0.6669
 5746SOL    HW228875   3.314   1.459  16.776  1.1786  2.3652  0.4740
 5747SOL     OW28876   1.949   2.876   2.990 -0.7406 -0.1864 -0.3532
 5747SOL    HW128877   1.983   2.931   2.920 -1.0112  0.4819  0.0422
 5747SOL    HW228878   1.969   2.790   2.952 -1.7449 -0.2122 -0.8206
 5748SOL     OW28879   0.876   1.151  17.436  0.2605 -0.0034  0.2854
 5748SOL    HW128880   0.821   1.089  17.388  0.1354  0.5890 -0.3350
 5748SOL    HW228881   0.959   1.104  17.426  1.5155  1.9491  1.5831
 5749SOL     OW28882   0.839   3.737   8.457  0.1410 -0.2988  0.1373
 5749SOL    HW128883   0.774   3.732   8.388 -1.6640  2.1035  1.6475
 5749SOL    HW228884   0.914   3.711   8.404 -0.2291 -0.8285 -0.1147
 5750SOL     OW28885   4.316   2.111   6.168  0.0148 -0.4263  0.4075
 5750SOL    HW128886   4.376   2.080   6.100 -1.1320  1.5915 -1.5361
 5750SOL    HW228887   4.284   2.034   6.216 -0.2376  0.6198  1.9297
 5751SOL     OW28888   1.998   3.783  16.790 -0.0506 -0.5175 -0.0648
 5751SOL    HW128889   1.959   3.870  16.799  2.6250  0.7389 -0.5988
 5751SOL    HW228890   2.004   3.772  16.885  2.7270 -1.5035 -0.3500
 5752SOL     OW28891   3.132   3.895  13.779 -0.3732 -0.3402 -0.4706
 5752SOL    HW128892   3.136   3.801  13.758  0.2787  0.3047 -3.2705
 5752SOL    HW228893   3.038   3.908  13.788 -1.1026 -5.1405 -0.9692
 5753SOL     OW28894   3.324   3.424   2.549 -0.1277 -0.2603  0.6631
 5753SOL    HW128895   3.416   3.415   2.522  0.1036 -0.7038  1.5873
 5753SOL    HW228896   3.277   3.461   2.475 -1.1509  0.2037  1.5451
 5754SOL     OW28897   3.098   1.615   4.131 -0.6661  0.5182  0.1986
 5754SOL    HW128898   3.115   1.628   4.038 -3.6238 -0.5098 -0.4710
 5754SOL    HW228899   3.188   1.585   4.145  0.6047  2.8887 -2.9110
 5755SOL     OW28900   1.255   2.661   6.171 -0.2322  0.4246 -0.1841
 5755SOL    HW128901   1.275   2.570   6.149  0.1159  1.1508 -2.9165
 5755SOL    HW228902   1.166   2.656   6.207  0.4093  0.0084  1.3579
 5756SOL     OW28903   2.763   3.863   5.999 -0.7775  0.1562  0.6035
 5756SOL    HW128904   2.853   3.841   5.974 -0.4446 -0.6043  2.4448
 5756SOL    HW228905   2.717   3.822   5.926  1.1960  0.9263 -1.0949
 5757SOL     OW28906   2.467   2.086  13.135 -0.2378 -0.0193 -0.5406
 5757SOL    HW128907   2.533   2.085  13.066  0.4972  0.0704  0.1588
 5757SOL    HW228908   2.393   2.108  13.079  0.1343  2.0262 -0.2485
 5758SOL     OW28909   1.433   3.721  16.312 -0.8144  0.1476 -1.0513
 5758SOL    HW128910   1.373   3.646  16.306  0.0943 -0.5716 -1.2504
 5758SOL    HW228911   1.398   3.779  16.244 -0.8422  0.2889 -0.9151
 5759SOL     OW28912   3.634   2.935   2.063  0.0012  0.6058 -0.3496
 5759SOL    HW128913   3.625   2.888   1.979 -1.5688  1.7064 -0.8073
 5759SOL    HW228914   3.717   2.980   2.048  0.7041 -0.2998  0.8779
 5760SOL     OW28915   4.486   2.731   4.027 -0.1268  0.2009 -0.0518
 5760SOL    HW128916   4.508   2.661   4.089  0.8652  0.9970  0.4783
 5760SOL    HW228917   4.531   2.707   3.946 -0.6067  0.3628 -0.3704
 5761SOL     OW28918   3.576   4.103  13.653 -0.0118 -0.1795  0.9887
 5761SOL    HW128919   3.490   4.061  13.661  0.6553 -1.7129  0.1045
 5761SOL    HW228920   3.623   4.070  13.730 -1.1765  0.3864  1.9395
 5762SOL     OW28921   0.676   2.882  15.641 -0.0218  0.1597  0.4994
 5762SOL    HW128922   0.588   2.901  15.608  1.0791  0.3815 -2.3560
 5762SOL    HW228923   0.727   2.914  15.567  2.3865 -0.1845  2.0224
 5763SOL     OW28924   2.763   2.520   3.730  0.2862 -0.1880 -0.0339
 5763SOL    HW128925   2.675   2.533   3.766 -0.0087 -0.1153 -0.7769
 5763SOL    HW228926   2.757   2.441   3.677 -0.0579 -0.1011 -0.1234
 5764SOL     OW28927   2.838   2.603   4.414 -0.3762 -0.0495 -0.2918
 5764SOL    HW128928   2.784   2.678   4.441 -0.9461  0.7799 -3.7057
 5764SOL    HW228929   2.768   2.540   4.400 -1.1319  0.9674 -1.1217
 5765SOL     OW28930   1.833   0.671   1.650 -0.1364 -0.0570 -0.1976
 5765SOL    HW128931   1.920   0.662   1.611 -0.3312 -2.0977 -0.1137
 5765SOL    HW228932   1.794   0.588   1.625  0.1552 -0.8980  2.0818
 5766SOL     OW28933   0.367   4.493   9.283  0.2076 -0.7433 -0.0541
 5766SOL    HW128934   0.340   4.535   9.365  0.6497  1.2729 -0.9415
 5766SOL    HW228935   0.331   4.405   9.289 -1.4027  0.0263  1.7405
 5767SOL     OW28936   3.576   3.971   2.739 -0.5989  0.0955  0.0501
 5767SOL    HW128937   3.517   3.936   2.672  1.2894 -2.4494 -0.2658
 5767SOL    HW228938   3.549   3.934   2.823  0.6511 -0.0600  0.3707
 5768SOL     OW28939   2.283   2.717   4.744  0.0587  0.4965 -0.1565
 5768SOL    HW128940   2.367   2.708   4.788 -0.7175 -0.3582  1.1700
 5768SOL    HW228941   2.234   2.654   4.796  0.5027  0.0941 -0.2330
 5769SOL     OW28942   3.231   0.553   9.213  0.4969 -0.5717 -0.0498
 5769SOL    HW128943   3.216   0.481   9.151 -2.3476 -0.5926  0.7002
 5769SOL    HW228944   3.145   0.572   9.250  0.9885 -1.2906  1.4462
 5770SOL     OW28945   2.637   3.906   5.531  0.0828 -0.5704 -0.0572
 5770SOL    HW128946   2.574   3.941   5.595  0.0057 -1.8317  0.5436
 5770SOL    HW228947   2.683   3.987   5.509 -1.7539  0.0008 -1.8039
 5771SOL     OW28948   1.271   0.014   6.553 -0.3582  0.1628  0.0473
 5771SOL    HW128949   1.312   4.692   6.612 -0.1776  0.4538  0.2239
 5771SOL    HW228950   1.184   0.015   6.594 -0.1996  2.7886  0.3006
 5772SOL     OW28951   1.843   3.788   7.687 -0.5337  0.4175 -0.1108
 5772SOL    HW128952   1.864   3.815   7.776 -0.2158 -0.6837  0.1456
 5772SOL    HW228953   1.927   3.815   7.650  1.7702 -2.6046  2.9492
 5773SOL     OW28954   1.730   2.319   4.283 -0.0547 -0.0573  0.4414
 5773SOL    HW128955   1.815   2.313   4.328  1.1064  1.1068 -1.5842
 5773SOL    HW228956   1.677   2.363   4.349 -0.5917 -0.5957  0.3607
 5774SOL     OW28957   2.080   4.142   6.552  0.6099  0.3638  0.0754
 5774SOL    HW128958   2.112   4.101   6.471  0.2873  1.8892 -0.8232
 5774SOL    HW228959   2.158   4.177   6.594  0.6404  0.6151 -0.1929
 5775SOL     OW28960   1.089   1.544   8.382 -0.3317  0.2940  0.1944
 5775SOL    HW128961   1.142   1.528   8.304  0.7387 -0.0671  1.0068
 5775SOL    HW228962   1.009   1.493   8.369 -0.2200 -0.3787  2.2420
 5776SOL     OW28963   0.874   1.084   0.856  0.1408  0.2570  0.1578
 5776SOL    HW128964   0.903   1.019   0.919 -0.2428 -2.4011 -2.4165
 5776SOL    HW228965   0.932   1.070   0.781 -2.4190  4.5354 -2.6591
 5777SOL     OW28966   2.911   4.056   6.844 -0.6877 -0.2410  0.0944
 5777SOL    HW128967   2.951   4.007   6.773  1.8498  1.5802  0.2839
 5777SOL    HW228968   2.969   4.130   6.858  0.7579 -1.1577 -1.1010
 5778SOL     OW28969   4.564   2.491   6.259  0.0536 -0.9720  0.1740
 5778SOL    HW128970   4.557   2.514   6.351  0.3404  1.3009 -0.3671
 5778SOL    HW228971   4.510   2.553   6.211  1.1078  0.3748  0.7203
 5779SOL     OW28972   4.048   2.232  12.127  0.6946 -0.1833 -0.6771
 5779SOL    HW128973   4.007   2.272  12.051 -1.1064 -2.3059 -0.8439
 5779SOL    HW228974   4.096   2.308  12.161  3.9107 -2.3552 -0.3384
 5780SOL     OW28975   1.082   1.249  14.736  0.4841 -0.1192 -0.3274
 5780SOL    HW128976   1.011   1.246  14.801  0.4972  0.0789 -0.3050
 5780SOL    HW228977   1.064   1.158  14.712 -0.7037  0.2451 -0.7828
 5781SOL     OW28978   2.922   1.840   4.161  0.8309  0.0575  0.0004
 5781SOL    HW128979   2.843   1.787   4.151  0.1700  0.8109  1.2809
 5781SOL    HW228980   2.993   1.778   4.146  2.3061  1.6090  0.6975
 5782SOL     OW28981   3.957   3.353   1.528  0.2679 -0.2661  0.0344
 5782SOL    HW128982   4.021   3.320   1.590  1.6231  1.8458 -0.2577
 5782SOL    HW228983   3.879   3.334   1.580 -1.2073  0.3195 -1.9375
 5783SOL     OW28984   3.369   4.694   7.304 -0.1571  0.1953  0.7069
 5783SOL    HW128985   3.279   4.714   7.277 -0.0061  1.0679  0.8777
 5783SOL    HW228986   3.408   4.729   7.224  0.1011  0.1772  0.8241
 5784SOL     OW28987   3.669   0.073   3.163  0.1234 -0.1486 -0.1405
 5784SOL    HW128988   3.654   0.165   3.185 -0.1977 -1.0312  3.1779
 5784SOL    HW228989   3.762   0.078   3.139  0.2047 -0.7766  0.0449
 5785SOL     OW28990   4.107   2.071   0.064  0.5503  0.2838  0.0080
 5785SOL    HW128991   4.048   2.068   0.139  0.3808  3.4336  0.0268
 5785SOL    HW228992   4.052   2.082  17.743 -0.0599  0.3520  0.4464
 5786SOL     OW28993   3.610   2.980   8.652 -0.1800 -0.4454 -0.7659
 5786SOL    HW128994   3.559   2.973   8.571 -1.9245 -0.7385  0.3523
 5786SOL    HW228995   3.562   2.924   8.713 -0.2026 -0.0368 -0.4124
 5787SOL     OW28996   3.711   0.766  13.189 -0.0887  0.1291  0.0775
 5787SOL    HW128997   3.699   0.841  13.247 -0.6356 -0.0867  0.2441
 5787SOL    HW228998   3.740   0.809  13.108 -0.7104  2.1236  0.9081
 5788SOL     OW28999   2.906   1.122   5.782  0.0418  0.3245 -0.8501
 5788SOL    HW129000   2.924   1.208   5.818 -2.7463  0.6103 -0.1458
 5788SOL    HW229001   2.838   1.103   5.846 -0.0398  3.1393 -0.1139
 5789SOL     OW29002   4.307   2.260   3.128  0.0713 -0.5870  0.0864
 5789SOL    HW129003   4.310   2.253   3.032  2.9796  0.1666  0.1210
 5789SOL    HW229004   4.397   2.291   3.135  1.2411 -3.0283 -4.0895
 5790SOL     OW29005   3.614   3.068   7.137 -0.0374  0.1908  0.1271
 5790SOL    HW129006   3.539   3.094   7.190 -0.9179 -0.2929 -0.8840
 5790SOL    HW229007   3.603   2.978   7.168 -1.7600  0.0163 -0.9899
 5791SOL     OW29008   4.585   0.293  15.693 -0.1461  0.0831 -0.2293
 5791SOL    HW129009   4.492   0.285  15.716 -0.0854  0.4883  0.1474
 5791SOL    HW229010   4.578   0.386  15.671 -0.4122 -0.7026 -3.4572
 5792SOL     OW29011   1.793   2.665  14.719 -0.2523  0.3133  0.2634
 5792SOL    HW129012   1.710   2.669  14.672  0.3941 -1.9169 -1.0386
 5792SOL    HW229013   1.830   2.579  14.699  0.1786  1.1710 -2.5953
 5793SOL     OW29014   3.527   2.082   5.587  0.2772 -0.1545  0.4562
 5793SOL    HW129015   3.512   2.076   5.492  0.0622 -0.6736  0.5213
 5793SOL    HW229016   3.598   2.020   5.601  0.5564 -0.1534 -0.8937
 5794SOL     OW29017   4.287   3.358   5.001  0.0480  0.0113 -0.2697
 5794SOL    HW129018   4.242   3.389   5.080 -1.2110  0.1627 -1.0379
 5794SOL    HW229019   4.352   3.427   4.994 -1.0876  1.1647  0.4863
 5795SOL     OW29020   0.117   3.372   1.622 -0.7673 -0.6417 -0.0818
 5795SOL    HW129021   0.190   3.318   1.590 -0.0663  0.1996  0.1052
 5795SOL    HW229022   0.142   3.458   1.588  1.1019 -1.5560 -1.0015
 5796SOL     OW29023   1.170   1.734   5.441  0.0951  0.1090 -0.5625
 5796SOL    HW129024   1.156   1.671   5.511  0.7144  0.1037 -0.4491
 5796SOL    HW229025   1.265   1.740   5.441  0.1526 -0.8155 -0.3259
 5797SOL     OW29026   3.360   3.678  16.201  0.2290 -0.9204  0.1622
 5797SOL    HW129027   3.368   3.705  16.110 -1.1920  1.5120  0.7541
 5797SOL    HW229028   3.339   3.764  16.238 -0.3747 -0.1619 -1.9385
 5798SOL     OW29029   2.800   2.299   0.250 -0.2375  0.0301  0.3524
 5798SOL    HW129030   2.729   2.264   0.196  1.0903  0.2810 -1.5582
 5798SOL    HW229031   2.813   2.389   0.220  1.2463  0.3619  1.9892
 5799SOL     OW29032   2.168   3.333   6.955  0.3025  0.1904  0.0828
 5799SOL    HW129033   2.190   3.324   7.048  0.4721  1.1681  0.1361
 5799SOL    HW229034   2.083   3.374   6.944 -0.5286 -1.5433  0.0469
 5800SOL     OW29035   3.767   4.374  12.889  0.4015 -0.7975 -0.5709
 5800SOL    HW129036   3.847   4.361  12.940  0.5661 -1.3479 -0.9690
 5800SOL    HW229037   3.810   4.408  12.810  1.3205 -0.3838  0.1016
 5801SOL     OW29038   0.028   3.371   3.026  0.1535  0.0506  0.2867
 5801SOL    HW129039   0.123   3.371   3.037  0.0225  1.3140  1.5878
 5801SOL    HW229040   4.719   3.360   3.108  0.1960 -0.5248  0.2307
 5802SOL     OW29041   4.378   3.465   8.423 -0.1037  0.7749  0.1084
 5802SOL    HW129042   4.292   3.504   8.441 -0.2528  0.6989 -0.4288
 5802SOL    HW229043   4.374   3.384   8.474 -0.1991 -0.0591 -1.2315
 5803SOL     OW29044   2.572   2.176   0.132  0.1195 -0.3408 -0.1294
 5803SOL    HW129045   2.545   2.189   0.041 -0.3454  0.4103  0.1117
 5803SOL    HW229046   2.492   2.201   0.177  0.7105 -0.0289  0.7458
 5804SOL     OW29047   3.633   4.081   1.001 -0.5601  0.4667  0.1892
 5804SOL    HW129048   3.542   4.076   1.029 -0.6753  0.5828 -0.1653
 5804SOL    HW229049   3.680   4.036   1.071  0.7911  1.0947 -0.3040
 5805SOL     OW29050   2.919   3.603   7.959  0.0428  0.1296  0.2402
 5805SOL    HW129051   2.932   3.510   7.941  1.6859  0.3074  0.5484
 5805SOL    HW229052   2.893   3.637   7.873 -0.3497  0.2763  0.4153
 5806SOL     OW29053   0.796   0.332   6.024 -0.5191 -0.5519 -0.9401
 5806SOL    HW129054   0.727   0.271   5.997 -2.1380  0.7670  0.1798
 5806SOL    HW229055   0.869   0.279   6.058 -0.4660  0.3477  0.3604
 5807SOL     OW29056   0.833   3.922   1.874  0.0009 -0.0337 -0.0554
 5807SOL    HW129057   0.841   4.016   1.891 -0.3384  0.0653 -0.4193
 5807SOL    HW229058   0.766   3.889   1.934 -1.7354  1.1544 -1.3222
 5808SOL     OW29059   4.011   0.967   4.364 -0.7511 -0.2549  0.1715
 5808SOL    HW129060   3.940   1.021   4.329 -1.0319  0.2141  1.4681
 5808SOL    HW229061   4.077   0.968   4.294 -1.0424  0.5974 -0.0992
 5809SOL     OW29062   2.382   2.592   2.157  0.3649  0.0257 -0.5299
 5809SOL    HW129063   2.328   2.651   2.209  1.0088  0.0668  0.0983
 5809SOL    HW229064   2.371   2.626   2.069  1.5328 -2.9660 -1.8477
 5810SOL     OW29065   3.712   3.454  15.115  0.0321 -0.1525  0.4076
 5810SOL    HW129066   3.665   3.372  15.098 -1.4468  1.1589 -1.8690
 5810SOL    HW229067   3.650   3.515  15.074  0.9281  0.0253 -0.6585
 5811SOL     OW29068   1.659   3.364   1.109  0.1125 -0.0104 -0.1634
 5811SOL    HW129069   1.598   3.432   1.139 -2.0671 -0.8029 -2.6950
 5811SOL    HW229070   1.600   3.289   1.094 -0.5213 -0.0943  2.7982
 5812SOL     OW29071   0.020   0.266  12.257 -0.1596  0.2692 -0.1257
 5812SOL    HW129072   0.023   0.183  12.305 -1.3911 -0.3672 -1.1402
 5812SOL    HW229073   0.018   0.321  12.335 -2.6716  1.0590 -0.7532
 5813SOL     OW29074   4.311   2.202   8.057  0.1427  0.6264  0.5650
 5813SOL    HW129075   4.258   2.271   8.095 -0.3428  0.6118 -0.0857
 5813SOL    HW229076   4.289   2.126   8.110  1.0584  0.1994  0.3357
 5814SOL     OW29077   2.287   3.521  11.473  0.1376 -0.6271  0.5413
 5814SOL    HW129078   2.248   3.581  11.535  2.2911 -0.1575  1.4632
 5814SOL    HW229079   2.251   3.441  11.511 -1.0393  0.2957  1.3463
 5815SOL     OW29080   4.686   1.153   6.648  0.0211  0.0910 -0.1579
 5815SOL    HW129081   0.001   1.231   6.654  1.3487 -0.8954  0.3929
 5815SOL    HW229082   4.612   1.190   6.599 -0.6242  0.1129  0.8299
 5816SOL     OW29083   1.168   0.740  17.657 -0.1938 -0.4601  0.3319
 5816SOL    HW129084   1.236   0.715  17.720 -1.9874 -1.6302  1.8129
 5816SOL    HW229085   1.096   0.686  17.690 -0.7633  0.2281  0.2248
 5817SOL     OW29086   2.175   2.097  16.622  0.9165  0.6218 -0.0051
 5817SOL    HW129087   2.120   2.042  16.566  0.8719 -0.4400  1.0937
 5817SOL    HW229088   2.116   2.101  16.697 -0.4594 -1.2303 -1.0051
 5818SOL     OW29089   2.902   2.417   2.216 -0.1881  0.4238 -0.0260
 5818SOL    HW129090   2.909   2.327   2.247 -1.1322 -0.1632 -1.5330
 5818SOL    HW229091   2.850   2.459   2.285  3.0373  1.4960  1.7168
 5819SOL     OW29092   2.265   3.108   1.990  0.3204  0.5522 -0.7043
 5819SOL    HW129093   2.188   3.128   2.043 -0.4575 -0.1230 -1.5753
 5819SOL    HW229094   2.305   3.194   2.002  0.0308  0.4049  1.2824
 5820SOL     OW29095   2.240   0.826   4.496 -0.0246  0.1422  0.2350
 5820SOL    HW129096   2.200   0.739   4.494  0.2096  0.0193  0.9504
 5820SOL    HW229097   2.194   0.872   4.566  1.9397  0.6300  1.2217
 5821SOL     OW29098   3.186   2.640   2.379 -0.4552 -0.9534 -0.2287
 5821SOL    HW129099   3.173   2.546   2.386 -1.4875 -0.9955 -2.6384
 5821SOL    HW229100   3.211   2.668   2.467  1.0034 -0.0898 -0.9252
 5822SOL     OW29101   0.041   3.759   8.896  0.0342  0.3383  0.2369
 5822SOL    HW129102   0.111   3.818   8.921  0.8122 -1.5279  2.4882
 5822SOL    HW229103   0.088   3.676   8.892 -0.1409  0.1577  1.7289
 5823SOL     OW29104   1.581   2.177   7.990  0.1587 -0.8713 -1.2213
 5823SOL    HW129105   1.605   2.115   8.059 -0.6325  0.1966  0.0207
 5823SOL    HW229106   1.659   2.232   7.982 -1.6511  1.7094 -1.1186
 5824SOL     OW29107   0.937   3.302   1.957  0.5014 -0.3656 -0.5538
 5824SOL    HW129108   0.919   3.265   1.871  0.9801  1.5759 -1.4933
 5824SOL    HW229109   0.884   3.247   2.015 -0.8183  1.2640 -0.2079
 5825SOL     OW29110   1.625   3.745  17.487 -0.2656 -0.0518  0.1799
 5825SOL    HW129111   1.674   3.702  17.556 -1.5926 -0.4047  0.9027
 5825SOL    HW229112   1.637   3.686  17.412 -1.6263 -1.4083  1.0417
 5826SOL     OW29113   0.946   3.101   7.859  0.0409 -0.1308  0.0007
 5826SOL    HW129114   0.895   3.026   7.829 -0.5075 -0.4319  1.6928
 5826SOL    HW229115   0.878   3.169   7.861  1.1848  1.0016  0.7236
 5827SOL     OW29116   0.304   2.633  12.865  0.0636  0.0534  0.3937
 5827SOL    HW129117   0.259   2.653  12.947  0.1254  1.0447  0.1770
 5827SOL    HW229118   0.288   2.710  12.812 -1.8655  0.7743  2.0404
 5828SOL     OW29119   1.845   0.984   7.085  0.0181 -0.3939 -0.1380
 5828SOL    HW129120   1.789   0.923   7.038 -2.6777  1.8423  0.1610
 5828SOL    HW229121   1.915   1.008   7.024  0.1326  1.4574  0.7162
 5829SOL     OW29122   1.276   4.570   1.904 -0.1501  0.3437  0.3750
 5829SOL    HW129123   1.324   4.511   1.846 -1.0102 -0.4684  0.4968
 5829SOL    HW229124   1.257   4.512   1.977  2.2606 -1.3939 -0.3782
 5830SOL     OW29125   0.238   0.728   6.108 -0.0493  0.6056 -0.4882
 5830SOL    HW129126   0.215   0.710   6.199 -0.0822 -0.4299 -0.7033
 5830SOL    HW229127   0.294   0.655   6.080 -0.8031 -0.3784  0.5736
 5831SOL     OW29128   0.310   1.797   1.672 -0.3406 -0.3798 -0.2533
 5831SOL    HW129129   0.363   1.853   1.729 -0.6977 -1.9861  1.6338
 5831SOL    HW229130   0.271   1.871   1.625  0.4605 -0.0325 -0.3838
 5832SOL     OW29131   3.543   3.035   7.519 -0.0061 -0.0477  0.2714
 5832SOL    HW129132   3.465   3.019   7.466 -0.1504  0.5747  0.3036
 5832SOL    HW229133   3.509   3.103   7.577  1.4267 -0.1868  1.2783
 5833SOL     OW29134   2.032   0.806   5.654  0.4262  0.4704  0.2598
 5833SOL    HW129135   2.104   0.768   5.604 -0.4205 -1.5498  0.5494
 5833SOL    HW229136   2.058   0.897   5.663 -3.6312  1.5016  1.7753
 5834SOL     OW29137   0.852   3.885   7.174  0.2936  0.0798  0.5473
 5834SOL    HW129138   0.780   3.868   7.113  1.8900 -0.9439 -1.0427
 5834SOL    HW229139   0.850   3.980   7.184  1.5625  0.1632 -0.0764
 5835SOL     OW29140   0.030   0.056  14.273 -0.0249 -0.7174  0.2427
 5835SOL    HW129141   0.004   4.706  14.292  1.6520 -1.1033  0.6939
 5835SOL    HW229142   0.121   0.035  14.249 -0.4618 -0.0904 -1.9562
 5836SOL     OW29143   2.204   2.476   6.050 -0.7439 -0.2855  0.1941
 5836SOL    HW129144   2.259   2.437   5.983  0.1231  0.2465  0.5937
 5836SOL    HW229145   2.147   2.405   6.079 -0.0431 -1.2557 -0.8314
 5837SOL     OW29146   2.016   1.692   2.491  0.5300 -0.6033  0.5863
 5837SOL    HW129147   1.949   1.739   2.443  1.3030  0.6756  0.7446
 5837SOL    HW229148   2.092   1.698   2.432 -1.1726  0.0879 -1.5194
 5838SOL     OW29149   3.777   4.388   2.375  0.3393 -0.3427 -0.4581
 5838SOL    HW129150   3.689   4.352   2.378 -0.5233  1.7361 -0.6835
 5838SOL    HW229151   3.760   4.476   2.409 -1.4811 -0.6961 -0.4741
 5839SOL     OW29152   4.195   1.856  13.152 -0.1750 -0.1905 -0.5558
 5839SOL    HW129153   4.104   1.834  13.170 -0.9046  1.6585 -1.9212
 5839SOL    HW229154   4.204   1.888  13.242  1.2752 -1.0624 -0.3963
 5840SOL     OW29155   2.471   2.246  12.101 -0.1028  0.3460 -0.0289
 5840SOL    HW129156   2.556   2.201  12.102  0.1868  0.9586  2.2184
 5840SOL    HW229157   2.504   2.333  12.122 -0.8813  0.6703 -0.1789
 5841SOL     OW29158   2.648   4.401   3.349  0.3589 -0.0971  0.0829
 5841SOL    HW129159   2.667   4.315   3.388 -1.0933 -1.0831 -1.4034
 5841SOL    HW229160   2.676   4.464   3.415  1.8262 -0.6782  0.0240
 5842SOL     OW29161   3.478   0.986   5.177 -0.1788 -0.0793  0.2406
 5842SOL    HW129162   3.403   1.034   5.211 -1.2989 -1.6127 -0.0956
 5842SOL    HW229163   3.536   0.965   5.251  0.0172  0.4404  0.2389
 5843SOL     OW29164   2.215   4.582  16.848  0.7700  0.3946 -0.2424
 5843SOL    HW129165   2.227   4.491  16.820  1.0025 -0.0448  1.2997
 5843SOL    HW229166   2.295   4.622  16.814  1.2121 -0.2032  0.0873
 5844SOL     OW29167   3.817   0.568   6.095  0.4264 -0.5620  0.5175
 5844SOL    HW129168   3.862   0.540   6.015  1.3202  1.3190  0.3728
 5844SOL    HW229169   3.753   0.496   6.095 -0.6644  0.4078 -0.8025
 5845SOL     OW29170   1.207   2.998   9.230  0.0194  0.2111 -0.3012
 5845SOL    HW129171   1.239   3.056   9.299  1.4714 -0.4673 -0.4162
 5845SOL    HW229172   1.132   3.047   9.195  0.0593 -0.5603 -1.4732
 5846SOL     OW29173   4.159   0.565   3.205 -0.0715  0.0762 -0.3400
 5846SOL    HW129174   4.119   0.522   3.130 -1.2696 -2.2802  1.6390
 5846SOL    HW229175   4.089   0.593   3.265  0.3608  1.2604 -0.3801
 5847SOL     OW29176   3.355   1.658  13.404 -0.1895 -0.5266  0.4599
 5847SOL    HW129177   3.287   1.612  13.453 -1.3683 -0.2907 -0.9629
 5847SOL    HW229178   3.361   1.607  13.323 -1.1866 -1.3296  0.8895
 5848SOL     OW29179   4.329   1.251   0.095 -0.3101 -0.1103 -0.3276
 5848SOL    HW129180   4.410   1.269   0.047  0.3278 -0.9878  0.4230
 5848SOL    HW229181   4.354   1.194   0.167 -0.8725 -0.8224 -0.6975
 5849SOL     OW29182   0.959   4.515  16.162  0.0476  0.3945 -0.0610
 5849SOL    HW129183   0.874   4.469  16.160  0.3243 -0.1223 -0.0675
 5849SOL    HW229184   0.955   4.596  16.213  2.5308  1.0562 -0.9645
 5850SOL     OW29185   1.719   3.676   6.146 -0.0142  0.1478 -0.7262
 5850SOL    HW129186   1.756   3.704   6.230 -2.1786 -1.2395  0.7137
 5850SOL    HW229187   1.661   3.611   6.186  0.5006  0.2767  0.2293
 5851SOL     OW29188   3.831   1.371   3.969 -0.5159 -0.6326  0.2697
 5851SOL    HW129189   3.848   1.410   3.883  2.8330  0.2734  1.3569
 5851SOL    HW229190   3.755   1.420   4.002 -0.0001 -0.6647  1.4991
 5852SOL     OW29191   2.913   2.863   2.599  0.1912 -0.0692 -0.4832
 5852SOL    HW129192   2.896   2.789   2.658 -0.0130 -0.2873 -0.8169
 5852SOL    HW229193   2.904   2.930   2.667 -0.8177 -0.3975 -0.2888
 5853SOL     OW29194   4.558   0.880   1.236 -0.0593 -0.2647  0.2188
 5853SOL    HW129195   4.495   0.816   1.271  2.4644 -2.0931  1.4349
 5853SOL    HW229196   4.641   0.835   1.251 -0.8284 -0.1597  4.8658
 5854SOL     OW29197   0.772   1.864  13.859 -0.3275  0.0820  0.5412
 5854SOL    HW129198   0.722   1.939  13.828  0.3371  0.0044 -0.7248
 5854SOL    HW229199   0.774   1.804  13.785  0.6779 -0.4722  1.0250
 5855SOL     OW29200   2.982   1.082   8.088  0.1755  0.0950  0.4676
 5855SOL    HW129201   2.932   1.077   8.169 -1.5472 -0.6440 -0.6335
 5855SOL    HW229202   2.937   1.154   8.044  1.8749  1.9111  1.6941
 5856SOL     OW29203   3.446   1.804   5.827 -0.1041  0.7388  0.1080
 5856SOL    HW129204   3.375   1.740   5.831  1.3877 -0.8892  0.8209
 5856SOL    HW229205   3.431   1.860   5.902 -2.3682 -1.4188  1.2582
 5857SOL     OW29206   3.343   3.358  11.812  0.3111 -0.3348  0.6850
 5857SOL    HW129207   3.317   3.338  11.902  3.7981 -1.4643  1.4083
 5857SOL    HW229208   3.398   3.280  11.803  0.0593 -0.4700  0.3086
 5858SOL     OW29209   3.318   3.796   3.309  0.3871 -0.0494 -0.6493
 5858SOL    HW129210   3.263   3.771   3.383 -1.6996 -0.4075 -2.3324
 5858SOL    HW229211   3.402   3.793   3.355  0.0622  0.6230 -0.0322
 5859SOL     OW29212   1.268   4.651   4.118 -0.2842  0.0348  0.4293
 5859SOL    HW129213   1.303   4.588   4.181 -1.3312  1.4270  2.4207
 5859SOL    HW229214   1.347   4.679   4.072 -0.3490  0.6353  0.6824
 5860SOL     OW29215   0.056   0.611   7.219  0.3070  0.2396  0.6595
 5860SOL    HW129216   4.727   0.677   7.219  0.0099 -0.0777 -0.1370
 5860SOL    HW229217   0.024   0.559   7.293 -1.1379 -1.1872 -0.9764
 5861SOL     OW29218   3.700   0.487  13.254  0.2560 -0.1277 -0.1653
 5861SOL    HW129219   3.728   0.427  13.185  0.0762  0.7687 -1.0123
 5861SOL    HW229220   3.698   0.572  13.211 -1.2545 -0.8559 -1.5716
 5862SOL     OW29221   1.516   4.319   9.226 -0.1787 -0.5312 -0.3490
 5862SOL    HW129222   1.499   4.293   9.135 -0.0048  0.8164 -0.7650
 5862SOL    HW229223   1.471   4.241   9.260  0.6651 -0.5817  0.6490
 5863SOL     OW29224   0.135   1.381  15.549 -0.2975 -0.1509 -0.7075
 5863SOL    HW129225   0.073   1.417  15.613 -0.3958 -1.2150 -0.1936
 5863SOL    HW229226   0.087   1.379  15.466 -1.1115 -1.4061 -0.2088
 5864SOL     OW29227   2.290   4.412   4.427 -0.5832 -0.1266  0.0141
 5864SOL    HW129228   2.212   4.363   4.454 -0.6662 -0.0478 -0.0832
 5864SOL    HW229229   2.274   4.495   4.471 -1.1761  0.4570 -1.3131
 5865SOL     OW29230   4.203   3.459   4.678  0.0176 -0.1477 -0.1934
 5865SOL    HW129231   4.180   3.543   4.639 -1.0788 -0.8029 -0.9685
 5865SOL    HW229232   4.144   3.442   4.751 -0.3227  2.8432  0.2378
 5866SOL     OW29233   3.997   0.928   3.500  0.0353 -0.4357 -0.4323
 5866SOL    HW129234   4.005   0.918   3.405  0.6552 -0.2444 -0.4024
 5866SOL    HW229235   3.999   0.837   3.527 -1.6941 -0.5664 -0.7805
 5867SOL     OW29236   0.819   0.635   9.535 -0.7909  0.7521  0.1490
 5867SOL    HW129237   0.870   0.622   9.615  2.5870  4.2517 -1.4021
 5867SOL    HW229238   0.739   0.600   9.574 -1.4007  1.7943 -0.1624
 5868SOL     OW29239   4.032   4.295   5.101 -0.1428 -0.1795  0.2334
 5868SOL    HW129240   4.018   4.370   5.043  4.4913 -0.2438 -0.9490
 5868SOL    HW229241   4.031   4.331   5.190 -0.7687  0.7125 -0.1344
 5869SOL     OW29242   3.911   3.190   5.701 -0.4779  0.2032 -0.3464
 5869SOL    HW129243   3.986   3.171   5.645  1.1131 -0.3272  1.9494
 5869SOL    HW229244   3.933   3.145   5.783  2.4309  0.0015 -1.2336
 5870SOL     OW29245   4.476   3.147   5.649 -0.0626 -0.0936 -0.0010
 5870SOL    HW129246   4.403   3.175   5.705  1.9387 -0.5356  2.8222
 5870SOL    HW229247   4.534   3.219   5.672 -1.4276  0.3033  2.1539
 5871SOL     OW29248   2.384   2.701   9.965 -0.3142 -0.0104 -0.1031
 5871SOL    HW129249   2.415   2.729  10.051  1.4844 -0.5126 -0.5873
 5871SOL    HW229250   2.320   2.769   9.944  0.4711  0.9499  0.6251
 5872SOL     OW29251   0.626   3.664  17.036 -0.5705  0.4923  0.5403
 5872SOL    HW129252   0.708   3.634  16.998 -1.6550 -1.5540 -0.1600
 5872SOL    HW229253   0.559   3.615  16.989 -1.0126  0.9809  0.6552
 5873SOL     OW29254   0.289   3.966   3.625 -0.6461 -0.0174 -0.5982
 5873SOL    HW129255   0.365   4.024   3.621  0.7988 -2.0625 -2.6175
 5873SOL    HW229256   0.295   3.945   3.532 -0.5160  1.3304 -0.8912
 5874SOL     OW29257   4.171   1.031   0.349  0.3698 -0.0851 -0.2901
 5874SOL    HW129258   4.174   1.073   0.263  0.1965 -1.4376 -0.9531
 5874SOL    HW229259   4.116   0.955   0.331 -0.7671  0.4084  1.0896
 5875SOL     OW29260   4.458   4.509   0.080 -0.4404  0.3501  0.1628
 5875SOL    HW129261   4.486   4.594   0.114  2.8564 -1.0013  0.7803
 5875SOL    HW229262   4.421   4.465   0.157  0.0030  0.0528  0.2036
 5876SOL     OW29263   3.558   2.641  12.771 -0.5390  0.4196  0.0185
 5876SOL    HW129264   3.498   2.715  12.782 -1.0251  0.4255 -2.5564
 5876SOL    HW229265   3.492   2.574  12.788  0.3528 -0.1911  1.1014
 5877SOL     OW29266   0.334   1.014   7.940 -0.0957  0.0050 -0.5668
 5877SOL    HW129267   0.327   1.068   8.019  2.1717 -2.6549  1.4498
 5877SOL    HW229268   0.332   0.932   7.989 -3.2686  0.6340  0.3963
 5878SOL     OW29269   2.670   0.177  16.283  0.1464 -0.6080 -0.4671
 5878SOL    HW129270   2.663   0.195  16.189  1.4118  1.0351 -0.2474
 5878SOL    HW229271   2.668   0.270  16.308 -2.2827 -1.1453  1.3248
 5879SOL     OW29272   3.118   1.382   4.890 -0.3982 -0.0703  0.5026
 5879SOL    HW129273   3.186   1.433   4.934  2.7398 -2.3351 -1.7533
 5879SOL    HW229274   3.117   1.421   4.803  1.0386 -0.2008  0.4254
 5880SOL     OW29275   0.764   3.935   4.861  0.5842 -0.2907  0.1820
 5880SOL    HW129276   0.857   3.958   4.863  0.4385 -0.0010  3.3316
 5880SOL    HW229277   0.762   3.886   4.778 -0.7546  1.4256 -0.8002
 5881SOL     OW29278   3.160   2.566   5.369 -0.2921 -0.7972  1.0348
 5881SOL    HW129279   3.233   2.622   5.394 -1.7317  2.0296 -1.1671
 5881SOL    HW229280   3.182   2.543   5.279  1.3484 -1.3639  1.5808
 5882SOL     OW29281   4.059   4.413   3.130 -0.0834  0.3235  0.1365
 5882SOL    HW129282   4.072   4.428   3.223  2.3594  1.4857 -0.3672
 5882SOL    HW229283   4.150   4.426   3.100  0.1941 -2.6118 -0.3143
 5883SOL     OW29284   3.507   2.266   2.221  0.1388  0.4879  0.1493
 5883SOL    HW129285   3.413   2.278   2.209 -0.2158 -2.3263  0.3160
 5883SOL    HW229286   3.535   2.280   2.131 -0.0183  1.1568  0.1993
 5884SOL     OW29287   1.456   2.974   2.705  0.0500 -0.0927 -0.2448
 5884SOL    HW129288   1.502   2.909   2.653 -2.2021 -0.3789 -1.8714
 5884SOL    HW229289   1.365   2.951   2.687 -0.0106 -0.2437  0.2447
 5885SOL     OW29290   4.116   4.487   4.701 -0.4591  0.0574 -0.0693
 5885SOL    HW129291   4.157   4.447   4.778 -0.7837 -0.2896 -0.0700
 5885SOL    HW229292   4.102   4.578   4.726  0.5308  0.6091 -1.5564
 5886SOL     OW29293   0.317   3.165   7.064  0.2282 -0.0355 -0.9090
 5886SOL    HW129294   0.274   3.080   7.055 -1.2250  0.6659 -0.5333
 5886SOL    HW229295   0.266   3.218   7.003 -1.2572 -0.1878  0.1870
 5887SOL     OW29296   1.636   1.861   5.895 -0.4088  0.4670  0.1006
 5887SOL    HW129297   1.579   1.884   5.969  1.3500 -1.3656  2.0492
 5887SOL    HW229298   1.589   1.847   5.813  1.9734 -2.0687 -0.8537
 5888SOL     OW29299   1.418   0.081   5.363 -0.1215  0.2634 -0.0925
 5888SOL    HW129300   1.463   0.114   5.441  0.6922  1.8018 -1.2145
 5888SOL    HW229301   1.363   0.009   5.394 -3.3350  1.6389 -2.5987
 5889SOL     OW29302   4.639   3.249  10.378 -0.1663  0.2647 -0.1151
 5889SOL    HW129303   4.556   3.297  10.378  0.1022  0.7366 -0.9910
 5889SOL    HW229304   4.688   3.286  10.305  3.5937 -2.7073  0.9217
 5890SOL     OW29305   2.301   4.671   2.375  0.0210  0.3687 -0.3115
 5890SOL    HW129306   2.325   0.023   2.383  0.8218  0.0832  0.6091
 5890SOL    HW229307   2.384   4.624   2.362 -1.1731 -2.1476  1.1688
 5891SOL     OW29308   0.025   0.860   0.422 -0.0778 -0.0416 -0.3360
 5891SOL    HW129309   4.705   0.788   0.442 -0.8053  1.0522  1.4059
 5891SOL    HW229310   0.054   0.828   0.336  0.2207 -2.0728  0.5292
 5892SOL     OW29311   0.206   2.153   6.740  0.2406 -0.0151  0.4922
 5892SOL    HW129312   0.256   2.234   6.744 -0.7695  0.6380 -0.0316
 5892SOL    HW229313   0.184   2.146   6.647  0.9056  1.3341  0.2343
 5893SOL     OW29314   0.178   0.341  11.673  0.5963  0.3960 -0.3475
 5893SOL    HW129315   0.145   0.320  11.761  0.3073  1.8366 -0.1156
 5893SOL    HW229316   0.243   0.410  11.684  0.8003  0.0511  0.6425
 5894SOL     OW29317   3.684   1.626   2.121 -0.3545 -0.1451 -0.8952
 5894SOL    HW129318   3.659   1.681   2.046  1.0904  1.4480 -0.2179
 5894SOL    HW229319   3.613   1.658   2.177  0.1080 -1.9122  0.6512
 5895SOL     OW29320   3.801   2.495  11.026  0.3894  0.4006  0.5214
 5895SOL    HW129321   3.721   2.521  10.981  0.0837 -1.2640  0.1182
 5895SOL    HW229322   3.849   2.450  10.956  0.8732 -1.8167  2.2653
 5896SOL     OW29323   3.153   0.269   4.124  0.3988  0.3380 -0.3387
 5896SOL    HW129324   3.182   0.295   4.211  0.2499  1.2569 -0.5607
 5896SOL    HW229325   3.172   0.175   4.122 -0.4700  0.1792 -1.2700
 5897SOL     OW29326   0.604   1.676  12.206  0.8650  0.2536  0.2167
 5897SOL    HW129327   0.527   1.622  12.224  0.2419  1.5328  1.3455
 5897SOL    HW229328   0.655   1.656  12.285  2.8307 -0.1430 -1.1505
 5898SOL     OW29329   0.169   4.178  15.434 -0.3867 -0.0495 -0.4564
 5898SOL    HW129330   0.111   4.202  15.362  0.2030  0.5379 -0.7323
 5898SOL    HW229331   0.165   4.082  15.431  1.4227 -0.1133 -0.5668
 5899SOL     OW29332   0.750   1.364   7.462  0.1740 -0.9533  0.1421
 5899SOL    HW129333   0.705   1.330   7.385 -1.0389  0.8835  0.0449
 5899SOL    HW229334   0.709   1.307   7.528  1.6242  0.0769  1.9524
 5900SOL     OW29335   3.620   2.050  13.435 -0.2119  0.4429  0.4954
 5900SOL    HW129336   3.683   2.029  13.366  1.5640 -0.6081  2.4324
 5900SOL    HW229337   3.605   2.144  13.420  2.4689  0.4480 -2.0609
 5901SOL     OW29338   3.107   0.456   7.621 -0.5935 -0.0826 -0.1324
 5901SOL    HW129339   3.060   0.409   7.690 -1.4928 -0.9500 -1.3267
 5901SOL    HW229340   3.039   0.468   7.554 -0.5166  0.2388 -0.1553
 5902SOL     OW29341   4.372   3.435   2.513  0.4717  0.2399 -0.4544
 5902SOL    HW129342   4.295   3.485   2.486 -0.8155 -1.6170 -0.2074
 5902SOL    HW229343   4.360   3.453   2.606 -0.0744 -2.5411  0.0228
 5903SOL     OW29344   0.338   0.791  14.677  0.4898  0.0368  0.1770
 5903SOL    HW129345   0.371   0.738  14.750 -0.9279  0.2411  0.9713
 5903SOL    HW229346   0.314   0.870  14.726  2.5137  0.8513 -0.1711
 5904SOL     OW29347   1.248   0.772  11.439  0.0551 -0.5142  0.3732
 5904SOL    HW129348   1.307   0.745  11.509 -1.0139 -0.4511  1.3032
 5904SOL    HW229349   1.165   0.780  11.487 -1.3589 -1.6674 -1.8959
 5905SOL     OW29350   0.194   2.674   3.495 -0.5336 -0.1904  0.3340
 5905SOL    HW129351   0.274   2.715   3.462 -0.9821  0.0712 -0.4255
 5905SOL    HW229352   0.141   2.753   3.510  2.0375  1.8076 -1.0388
 5906SOL     OW29353   2.575   2.191   1.717  0.0897 -0.2184 -0.2470
 5906SOL    HW129354   2.519   2.114   1.719  0.5046 -0.5794 -2.3830
 5906SOL    HW229355   2.580   2.213   1.624  0.7917 -0.7186 -0.3313
 5907SOL     OW29356   1.223   4.555  13.471  0.6317  0.1443  0.3834
 5907SOL    HW129357   1.149   4.526  13.417  0.6816  0.8502 -0.0694
 5907SOL    HW229358   1.276   4.477  13.460 -1.0687 -0.6027 -2.7597
 5908SOL     OW29359   3.608   3.500   6.367  0.2689 -0.3332  0.2728
 5908SOL    HW129360   3.528   3.449   6.362 -0.8878  1.6582 -1.3856
 5908SOL    HW229361   3.672   3.441   6.326 -1.3262 -1.4615 -0.6001
 5909SOL     OW29362   2.629   2.066   9.837 -0.7580 -0.6306  0.3980
 5909SOL    HW129363   2.581   2.149   9.846 -1.8307 -0.9972 -1.9370
 5909SOL    HW229364   2.589   2.025   9.761 -0.4016 -0.1234 -0.0606
 5910SOL     OW29365   2.363   3.775   7.637  0.0531  0.0486 -0.2920
 5910SOL    HW129366   2.335   3.724   7.561  3.0630  0.1864 -1.5125
 5910SOL    HW229367   2.288   3.769   7.696  0.5842  0.8402  0.4541
 5911SOL     OW29368   4.590   3.395   3.280  0.2967  0.1476  0.0833
 5911SOL    HW129369   4.621   3.339   3.351 -0.0425  1.1973  1.0730
 5911SOL    HW229370   4.534   3.453   3.332  0.1675  1.7149 -1.8011
 5912SOL     OW29371   1.402   4.256  13.179  0.6237 -0.4716  0.0365
 5912SOL    HW129372   1.421   4.290  13.267  1.6204  1.4270 -0.9047
 5912SOL    HW229373   1.358   4.172  13.191 -3.3066  1.5749  0.3704
 5913SOL     OW29374   1.682   2.651   9.048  0.0312  0.3890  0.1836
 5913SOL    HW129375   1.723   2.707   9.114 -1.4002  1.4556  0.1558
 5913SOL    HW229376   1.732   2.569   9.058 -0.5441  0.2667  2.0961
 5914SOL     OW29377   3.940   4.394   2.885 -0.3228 -0.2230  0.1698
 5914SOL    HW129378   3.980   4.402   2.971  0.3825  3.3574 -0.5084
 5914SOL    HW229379   3.932   4.299   2.892 -1.6577 -0.3732 -3.3237
 5915SOL     OW29380   2.439   4.630  15.225 -0.2094 -0.3213 -0.6144
 5915SOL    HW129381   2.493   4.658  15.299  1.3181 -5.9539  0.4628
 5915SOL    HW229382   2.399   4.553  15.266  1.8895 -1.2456 -0.2771
 5916SOL     OW29383   2.995   2.370  14.918 -0.1705 -0.3991 -0.2172
 5916SOL    HW129384   3.088   2.368  14.894 -0.1466  0.4101 -0.1892
 5916SOL    HW229385   2.996   2.313  14.995 -2.5139  1.2658  1.0175
 5917SOL     OW29386   4.013   0.391   4.711 -0.0205  0.3767  0.0037
 5917SOL    HW129387   4.064   0.423   4.786 -0.4124  0.9127  0.0460
 5917SOL    HW229388   3.937   0.355   4.757  0.7625  0.2937  1.2506
 5918SOL     OW29389   4.648   2.972   7.787 -0.2759 -0.4799 -0.7307
 5918SOL    HW129390   4.689   2.916   7.853 -0.9744  2.5057  2.2716
 5918SOL    HW229391   4.624   2.904   7.725 -0.6187 -1.0968  0.0927
 5919SOL     OW29392   3.704   0.812   7.905  0.0752 -0.4854 -0.1732
 5919SOL    HW129393   3.626   0.789   7.854  1.1179 -0.0510 -1.9373
 5919SOL    HW229394   3.710   0.905   7.887  1.7298 -0.3128  1.3068
 5920SOL     OW29395   0.293   0.780  17.389 -0.4858  0.2844  0.1511
 5920SOL    HW129396   0.368   0.801  17.445 -0.8788  0.3868  0.6337
 5920SOL    HW229397   0.242   0.855  17.419  0.6505  1.7599 -1.5803
 5921SOL     OW29398   2.266   4.388   6.294 -0.5014  0.6375  0.3507
 5921SOL    HW129399   2.342   4.331   6.282 -0.8860  0.6670 -2.3003
 5921SOL    HW229400   2.197   4.345   6.244 -0.7012  0.8317  0.4567
 5922SOL     OW29401   4.469   3.511  10.620  0.9796  0.1593  0.1913
 5922SOL    HW129402   4.432   3.455  10.552  2.5995 -0.3071 -0.3206
 5922SOL    HW229403   4.395   3.565  10.649 -0.3654 -1.6680  0.1424
 5923SOL     OW29404   1.886   1.175   5.113  0.1252  0.0139  0.3527
 5923SOL    HW129405   1.842   1.090   5.118 -1.4239  0.8258  0.5339
 5923SOL    HW229406   1.955   1.154   5.176  0.2766  1.1704  0.5698
 5924SOL     OW29407   4.709   4.395   8.125  0.0455 -0.2141  0.4166
 5924SOL    HW129408   4.725   4.471   8.181  2.3493 -0.6211  0.2967
 5924SOL    HW229409   0.051   4.353   8.150  0.8284 -0.3659 -2.3442
 5925SOL     OW29410   2.421   2.003   7.183  0.5240 -0.4908 -0.0549
 5925SOL    HW129411   2.411   1.909   7.173 -1.9921  0.0100 -2.2317
 5925SOL    HW229412   2.337   2.035   7.215  0.2261 -1.7739  0.4330
 5926SOL     OW29413   2.101   1.771   6.814  0.2608 -0.5500  0.1028
 5926SOL    HW129414   2.099   1.713   6.890 -0.1415  3.0212  2.7906
 5926SOL    HW229415   2.105   1.856   6.857  0.7627  0.9622 -2.9239
 5927SOL     OW29416   4.193   2.761   3.073 -0.1905 -0.8179  0.1302
 5927SOL    HW129417   4.142   2.836   3.044 -0.0670 -0.8893 -0.2724
 5927SOL    HW229418   4.165   2.761   3.165  2.1557 -1.8891  0.8658
 5928SOL     OW29419   4.048   1.719   3.747 -0.0433  0.4845  0.3924
 5928SOL    HW129420   4.091   1.797   3.714 -0.1961 -0.0395 -1.0647
 5928SOL    HW229421   3.992   1.763   3.810 -0.3329  1.3997 -0.4985
 5929SOL     OW29422   2.326   2.625   5.146  0.2013 -0.0844  0.0678
 5929SOL    HW129423   2.358   2.647   5.233  0.4857  2.3557 -0.6493
 5929SOL    HW229424   2.394   2.566   5.113  1.6198  3.8048 -3.8894
 5930SOL     OW29425   1.050   4.253   4.975 -0.1138 -0.4148  0.4822
 5930SOL    HW129426   0.971   4.273   5.024 -1.3358 -0.4568 -1.4979
 5930SOL    HW229427   1.016   4.267   4.887 -0.5755 -0.6361  0.6270
 5931SOL     OW29428   3.908   3.452   3.565  0.5102  0.2922 -0.1674
 5931SOL    HW129429   3.855   3.375   3.543  2.3402 -0.6889 -1.1669
 5931SOL    HW229430   3.929   3.440   3.658  1.5971 -0.6154 -0.5199
 5932SOL     OW29431   4.705   4.376  11.045 -0.3354 -0.4493  0.3945
 5932SOL    HW129432   0.053   4.344  11.025  0.0024  0.9969 -0.4332
 5932SOL    HW229433   4.661   4.294  11.069 -1.4516 -0.1741 -0.6812
 5933SOL     OW29434   0.939   0.088   2.502  0.0271 -0.0408 -0.7310
 5933SOL    HW129435   0.932   0.008   2.451  1.9485  1.5227 -3.4790
 5933SOL    HW229436   1.006   0.063   2.566 -0.5635  0.8208  0.2359
 5934SOL     OW29437   1.625   0.883   9.760 -0.1445 -0.4871  0.4946
 5934SOL    HW129438   1.711   0.874   9.801  0.4257 -1.1961 -0.8503
 5934SOL    HW229439   1.608   0.976   9.770  1.0241 -0.1892 -0.2322
 5935SOL     OW29440   0.847   0.812   7.078 -0.0267  0.2344  0.3252
 5935SOL    HW129441   0.877   0.800   7.168 -2.2162 -0.2521  0.9714
 5935SOL    HW229442   0.753   0.794   7.075 -0.5055  2.7834  0.3658
 5936SOL     OW29443   1.285   1.679   0.278 -0.3271  0.2382  0.1897
 5936SOL    HW129444   1.288   1.775   0.284 -0.3692  0.2788 -0.4114
 5936SOL    HW229445   1.206   1.661   0.328 -0.6280 -0.9287 -0.7117
 5937SOL     OW29446   4.393   4.094   7.540 -0.2329  0.2308 -0.0699
 5937SOL    HW129447   4.395   4.174   7.488  1.2283  1.4764  1.9309
 5937SOL    HW229448   4.482   4.089   7.575 -0.9209  0.5596  1.6935
 5938SOL     OW29449   1.324   1.440   4.114  0.5897 -0.0324  0.2091
 5938SOL    HW129450   1.393   1.470   4.054 -3.0243  0.5132 -3.6613
 5938SOL    HW229451   1.296   1.527   4.144  0.6533  0.1258 -0.1873
 5939SOL     OW29452   2.471   4.690   4.805  0.2005 -0.4948  0.0207
 5939SOL    HW129453   2.392   4.732   4.839  1.8300 -0.0371  3.3092
 5939SOL    HW229454   2.522   4.674   4.884 -0.3292 -0.3262  0.3987
 5940SOL     OW29455   0.218   4.398   2.549  0.3012 -0.2473  0.0225
 5940SOL    HW129456   0.163   4.467   2.587  0.5858 -0.7237  1.2932
 5940SOL    HW229457   0.162   4.331   2.511 -0.7198  1.8695 -2.1914
 5941SOL     OW29458   0.316   0.987   2.918  0.4001  0.5392  0.0325
 5941SOL    HW129459   0.288   1.063   2.969  2.9595  0.6322  1.2675
 5941SOL    HW229460   0.239   0.930   2.923  2.1487 -1.7302  1.2346
 5942SOL     OW29461   3.283   3.468   1.598 -0.6587 -0.5104 -0.4942
 5942SOL    HW129462   3.230   3.526   1.652 -1.0995 -3.2860  2.0701
 5942SOL    HW229463   3.238   3.384   1.604 -0.0165 -0.7043  1.6052
 5943SOL     OW29464   3.033   2.456   3.618 -0.4196  0.1159 -0.2036
 5943SOL    HW129465   2.963   2.501   3.665  0.7817  0.6495  1.0488
 5943SOL    HW229466   3.108   2.512   3.637 -2.1383  2.4029 -0.2009
 5944SOL     OW29467   1.933   4.588   6.120 -0.4023  0.1130  0.4425
 5944SOL    HW129468   2.013   4.536   6.110 -1.4629 -0.8171 -3.2252
 5944SOL    HW229469   1.945   4.616   6.211 -0.2957 -0.1187  0.4983
 5945SOL     OW29470   1.370   1.505   5.430 -0.2308  0.2752  0.1117
 5945SOL    HW129471   1.387   1.519   5.337  2.9030 -1.1991  0.4756
 5945SOL    HW229472   1.459   1.482   5.457  0.6768  2.1165 -1.3504
 5946SOL     OW29473   0.477   4.484  14.750  0.1073 -0.0042  0.5130
 5946SOL    HW129474   0.409   4.533  14.796  1.9644  1.3526  1.7599
 5946SOL    HW229475   0.421   4.436  14.688 -1.4587 -0.4045  2.2344
 5947SOL     OW29476   3.019   0.758   1.988 -0.8481  0.3652 -0.1064
 5947SOL    HW129477   3.001   0.852   1.975 -1.7770  0.4640  1.7488
 5947SOL    HW229478   3.056   0.717   1.911  0.5202  0.9095  0.2646
 5948SOL     OW29479   4.405   4.378   6.127 -0.1146  0.7844 -0.7543
 5948SOL    HW129480   4.487   4.401   6.083  2.0937 -0.8113  2.4559
 5948SOL    HW229481   4.341   4.404   6.061 -2.6416 -1.1992  0.8976
 5949SOL     OW29482   2.508   2.336   9.285 -0.2004  0.5416 -0.3898
 5949SOL    HW129483   2.597   2.313   9.261 -0.1345 -0.6656  1.0144
 5949SOL    HW229484   2.499   2.423   9.247 -0.1161  0.1820 -1.2270
 5950SOL     OW29485   2.085   0.054   2.721  0.2440  0.5273 -0.3492
 5950SOL    HW129486   2.112   4.731   2.654  0.9747  0.1227  0.3245
 5950SOL    HW229487   2.096   0.000   2.799  0.5708  1.1899  0.0639
 5951SOL     OW29488   1.813   3.769   6.429  0.0945 -0.0376  0.0321
 5951SOL    HW129489   1.845   3.849   6.470 -0.9800  0.9070 -0.9582
 5951SOL    HW229490   1.786   3.730   6.513  2.2329 -0.7310  0.3934
 5952SOL     OW29491   0.683   3.831   4.032  0.1021 -0.2225  0.7862
 5952SOL    HW129492   0.710   3.854   3.943  0.0584  1.4648  1.2179
 5952SOL    HW229493   0.771   3.831   4.070  0.4566 -0.3513 -0.0350
 5953SOL     OW29494   1.341   4.552  13.730  0.6860 -0.3921  0.2362
 5953SOL    HW129495   1.352   4.458  13.718 -2.2269 -0.7950  0.7970
 5953SOL    HW229496   1.265   4.571  13.676  1.6555  1.1457 -0.5657
 5954SOL     OW29497   3.097   2.438  16.665  0.0788 -0.0883 -0.2082
 5954SOL    HW129498   3.161   2.420  16.597  1.2785  3.6279 -0.0708
 5954SOL    HW229499   3.018   2.441  16.611  0.0182  1.8089 -0.0090
 5955SOL     OW29500   3.723   0.764   6.237  0.0065  0.0570  0.4334
 5955SOL    HW129501   3.652   0.704   6.258 -2.2876  3.0621  1.3594
 5955SOL    HW229502   3.780   0.704   6.190 -0.1760 -1.0190  1.6070
 5956SOL     OW29503   4.465   3.507   5.148 -0.0093 -0.5220  0.3574
 5956SOL    HW129504   4.527   3.579   5.142 -0.9486 -0.0507 -3.6640
 5956SOL    HW229505   4.468   3.483   5.240  0.7743  1.1147  0.7481
 5957SOL     OW29506   0.842   0.121   9.396  0.4513 -0.6246 -0.0008
 5957SOL    HW129507   0.771   0.118   9.460  0.1517  1.0059 -0.2565
 5957SOL    HW229508   0.871   0.209   9.422  2.6046 -1.4143  0.2437
 5958SOL     OW29509   3.219   4.536  11.960 -0.5710 -0.0401  0.4689
 5958SOL    HW129510   3.202   4.584  12.041  0.0207  1.4312 -0.2848
 5958SOL    HW229511   3.150   4.564  11.900  0.5322 -1.4382 -1.4508
 5959SOL     OW29512   1.228   3.762   1.803  0.0232 -0.0832 -0.2587
 5959SOL    HW129513   1.255   3.783   1.714 -1.2563  1.5706 -0.2634
 5959SOL    HW229514   1.281   3.827   1.848  1.3322 -0.6476 -0.9786
 5960SOL     OW29515   3.022   1.483   5.250  0.1867 -0.2395  0.3546
 5960SOL    HW129516   3.050   1.493   5.159  0.2537  1.9669  0.6092
 5960SOL    HW229517   3.103   1.493   5.300  0.7555 -0.3726 -0.5510
 5961SOL     OW29518   1.612   3.636   7.637  0.0878  0.0950 -0.1292
 5961SOL    HW129519   1.617   3.604   7.547  1.8288 -0.0306  0.0220
 5961SOL    HW229520   1.686   3.697   7.641 -0.3370  0.5741  0.5801
 5962SOL     OW29521   0.043   2.486   9.645 -0.2326  0.3514 -0.1017
 5962SOL    HW129522   0.031   2.477   9.551  1.4359  0.2650 -0.3214
 5962SOL    HW229523   4.693   2.479   9.676 -0.2713  3.3163  0.5028
 5963SOL     OW29524   2.134   3.225  11.903 -0.0097 -0.8933  0.3322
 5963SOL    HW129525   2.118   3.208  11.995  1.1623  1.9523  1.0395
 5963SOL    HW229526   2.090   3.308  11.890 -1.4516 -1.6890  0.1636
 5964SOL     OW29527   3.614   2.271   6.693  0.1868 -0.4027  0.1429
 5964SOL    HW129528   3.684   2.216   6.657  1.0112 -0.4986  1.8918
 5964SOL    HW229529   3.593   2.213   6.766 -0.5200 -1.1917 -0.6894
 5965SOL     OW29530   2.143   3.273   0.097 -0.5046  0.0817 -0.1102
 5965SOL    HW129531   2.142   3.369   0.096 -0.8222  0.0766 -0.1240
 5965SOL    HW229532   2.051   3.256   0.077 -0.0462  0.8436 -2.8446
 5966SOL     OW29533   1.042   0.797   2.912 -0.1593  0.2964 -0.2274
 5966SOL    HW129534   0.958   0.768   2.949  1.1241 -1.6850  1.1117
 5966SOL    HW229535   1.014   0.869   2.855  0.8747  1.7864  1.1406
 5967SOL     OW29536   2.233   3.928   2.622 -0.0144 -0.4117  0.3695
 5967SOL    HW129537   2.206   4.019   2.605  0.9871 -0.0457  0.7389
 5967SOL    HW229538   2.189   3.917   2.706  1.6830 -0.2305  1.2809
 5968SOL     OW29539   0.776   0.689   2.933  0.1242 -0.2922  0.1152
 5968SOL    HW129540   0.749   0.689   2.841  2.0991 -1.9219 -0.4607
 5968SOL    HW229541   0.811   0.600   2.937  0.8612  0.0224  0.7495
 5969SOL     OW29542   2.065   2.241   8.391 -0.7668 -0.3433 -0.0290
 5969SOL    HW129543   2.083   2.190   8.470  0.5745 -2.3484 -1.6118
 5969SOL    HW229544   1.979   2.208   8.362 -1.8224  0.6342  2.0501
 5970SOL     OW29545   4.334   3.622  12.197 -0.3314  0.0740 -0.3020
 5970SOL    HW129546   4.415   3.639  12.149 -0.5443  0.2678 -0.5902
 5970SOL    HW229547   4.268   3.614  12.128  0.6626  0.4690 -1.3014
 5971SOL     OW29548   1.126   3.165  16.129  0.0751  0.5777 -0.0623
 5971SOL    HW129549   1.072   3.123  16.062 -0.6412 -1.6964  1.9469
 5971SOL    HW229550   1.058   3.199  16.187 -0.3269 -0.5768  0.1391
 5972SOL     OW29551   3.630   2.235   4.288 -0.3929 -0.0543  0.6690
 5972SOL    HW129552   3.610   2.184   4.209 -0.4614  0.9280  0.0600
 5972SOL    HW229553   3.666   2.162   4.338  1.5404  1.2625  1.2079
 5973SOL     OW29554   1.503   4.604   5.967  0.5144 -0.2661  0.2208
 5973SOL    HW129555   1.582   4.569   5.925  0.3548 -0.9699  0.5020
 5973SOL    HW229556   1.523   4.591   6.060 -0.0871 -0.6420  0.2928
 5974SOL     OW29557   3.155   2.168  13.977 -0.0244  0.2891  0.4079
 5974SOL    HW129558   3.191   2.226  14.045 -1.4058  1.7503 -0.0986
 5974SOL    HW229559   3.235   2.121  13.957  0.6112  1.4132  0.2963
 5975SOL     OW29560   1.273   0.720   5.489  0.3773  0.2023 -0.1373
 5975SOL    HW129561   1.206   0.676   5.437  2.4301 -3.4843  0.3139
 5975SOL    HW229562   1.262   0.804   5.444  1.0875  0.5962  0.4408
 5976SOL     OW29563   1.361   2.456   8.768 -0.0349 -0.4281  0.0421
 5976SOL    HW129564   1.381   2.523   8.834 -2.3357 -1.1489  1.4665
 5976SOL    HW229565   1.337   2.505   8.689 -0.6492 -0.1735  0.3932
 5977SOL     OW29566   4.587   0.565   7.894 -0.4771  0.1307  0.2839
 5977SOL    HW129567   4.573   0.523   7.980 -0.8073 -2.0154 -0.8034
 5977SOL    HW229568   4.680   0.582   7.886 -0.8116  0.2646 -3.2367
 5978SOL     OW29569   0.537   2.379  15.293 -0.3514  0.4572  0.6822
 5978SOL    HW129570   0.600   2.438  15.250  1.0125 -1.1560  0.4452
 5978SOL    HW229571   0.579   2.295  15.274 -0.2129  0.6406  0.1478
 5979SOL     OW29572   3.299   4.011   7.404 -0.2400 -0.0914 -0.1174
 5979SOL    HW129573   3.331   3.921   7.392 -0.8309 -0.3539  0.2572
 5979SOL    HW229574   3.204   4.003   7.391 -0.3702  1.1874  0.0980
 5980SOL     OW29575   3.610   2.335  14.582 -0.1182 -0.3045  0.4584
 5980SOL    HW129576   3.693   2.383  14.592  1.0210 -2.1222 -0.3996
 5980SOL    HW229577   3.618   2.292  14.667 -1.6536 -0.7253  0.3867
 5981SOL     OW29578   1.431   0.381   2.641  0.1204 -0.3022 -0.4066
 5981SOL    HW129579   1.491   0.431   2.697 -0.2046  1.1368 -1.3493
 5981SOL    HW229580   1.482   0.393   2.561 -1.5563 -2.0082 -1.7034
 5982SOL     OW29581   0.960   1.922   1.966  0.1132  0.3487 -0.0190
 5982SOL    HW129582   0.960   2.018   1.967 -0.7762  0.3408  0.6091
 5982SOL    HW229583   0.993   1.905   2.054  0.4146  0.1256 -0.1784
 5983SOL     OW29584   3.330   1.539   9.218 -0.2818  0.1529  0.4083
 5983SOL    HW129585   3.416   1.578   9.231  0.4688 -1.6053  0.8281
 5983SOL    HW229586   3.324   1.470   9.285  0.1092  0.4076  0.7106
 5984SOL     OW29587   0.851   4.153  12.437  0.5625 -0.2865 -0.0111
 5984SOL    HW129588   0.853   4.070  12.485 -1.5778  0.0553  0.6575
 5984SOL    HW229589   0.756   4.156  12.430  0.7598  1.0207 -1.9297
 5985SOL     OW29590   2.402   1.217  13.886 -0.1692 -0.3132  0.3895
 5985SOL    HW129591   2.318   1.213  13.839  0.3466  0.1542 -0.5595
 5985SOL    HW229592   2.452   1.279  13.833  2.2965 -1.2529  1.6369
 5986SOL     OW29593   0.217   1.382  16.786  0.2907 -0.8339  0.1337
 5986SOL    HW129594   0.205   1.305  16.730 -0.8860  0.1957 -1.0343
 5986SOL    HW229595   0.201   1.444  16.714 -0.0103 -0.1929  0.7548
 5987SOL     OW29596   4.678   4.312   2.411 -0.5958 -0.5361  0.0036
 5987SOL    HW129597   4.663   4.402   2.439  1.1756  0.3838 -2.0069
 5987SOL    HW229598   4.705   4.328   2.321  0.5084 -0.9844  0.2519
 5988SOL     OW29599   3.516   4.645   3.023 -0.2654  0.3955 -0.0644
 5988SOL    HW129600   3.435   4.695   3.018 -1.2511 -0.9449  2.6673
 5988SOL    HW229601   3.571   4.709   3.069 -0.0361 -0.1997  0.4861
 5989SOL     OW29602   3.446   0.951   8.101 -0.5304 -0.1816  0.6732
 5989SOL    HW129603   3.360   0.967   8.062  0.9757 -1.7853 -3.3049
 5989SOL    HW229604   3.457   0.858   8.082 -0.6965 -0.2543  0.9418
 5990SOL     OW29605   2.835   1.272  15.675  0.0319 -0.7909 -0.0597
 5990SOL    HW129606   2.813   1.354  15.720  1.0532 -0.3014 -0.4495
 5990SOL    HW229607   2.930   1.285  15.677 -0.1880  1.0359 -1.6761
 5991SOL     OW29608   3.763   4.212   4.445  0.4867 -0.2993 -0.1365
 5991SOL    HW129609   3.714   4.278   4.494  1.7514  1.0194 -0.6887
 5991SOL    HW229610   3.842   4.202   4.497 -0.0642  1.7709  1.0967
 5992SOL     OW29611   3.440   0.368   4.361 -0.3949 -0.7273 -0.1802
 5992SOL    HW129612   3.527   0.375   4.399 -0.6017  0.8590 -0.0017
 5992SOL    HW229613   3.458   0.410   4.277 -1.9720 -0.4725 -0.3896
 5993SOL     OW29614   1.142   4.090   8.262  0.2483  0.2350  0.0305
 5993SOL    HW129615   1.165   4.182   8.270 -1.2264  0.5500  0.5072
 5993SOL    HW229616   1.167   4.048   8.345  0.9680 -0.0269 -0.3180
 5994SOL     OW29617   2.360   0.423   6.538  0.5710  0.4129 -0.3913
 5994SOL    HW129618   2.343   0.512   6.508  0.2969 -0.8648 -4.0056
 5994SOL    HW229619   2.292   0.371   6.495  0.0994 -0.4494  1.4036
 5995SOL     OW29620   1.060   1.621  12.051  0.5386 -0.1144  0.5272
 5995SOL    HW129621   1.001   1.579  12.114 -0.6432  1.4666  0.4834
 5995SOL    HW229622   0.995   1.636  11.982  2.2101 -0.4696 -1.1220
 5996SOL     OW29623   0.166   0.047   0.833  0.1215 -0.4803 -0.2156
 5996SOL    HW129624   0.140   0.113   0.768  0.5103 -0.3057 -0.1984
 5996SOL    HW229625   0.089   4.732   0.838 -0.7725  0.8040  0.0539
 5997SOL     OW29626   3.872   0.401   7.002 -0.5008  0.3902 -0.2583
 5997SOL    HW129627   3.855   0.460   6.929  0.7436  1.2058  0.1022
 5997SOL    HW229628   3.847   0.321   6.957  2.0263 -1.5725  1.7831
 5998SOL     OW29629   1.370   2.430   5.748  0.8127 -0.2918 -0.1764
 5998SOL    HW129630   1.395   2.515   5.712  0.2730 -0.3801 -0.7549
 5998SOL    HW229631   1.285   2.419   5.705  0.8481 -2.6238  0.3642
 5999SOL     OW29632   0.978   3.558  10.134 -0.4032 -0.0588 -0.0047
 5999SOL    HW129633   0.982   3.642  10.180  1.4211 -1.3829  2.2185
 5999SOL    HW229634   0.954   3.502  10.207  0.7593 -0.4381  0.0797
 6000SOL     OW29635   0.514   0.208   5.225 -0.3683  0.3683 -0.2096
 6000SOL    HW129636   0.437   0.166   5.262 -0.6053 -2.1440 -3.5750
 6000SOL    HW229637   0.479   0.297   5.234  1.9001  1.3256 -0.8508
 6001SOL     OW29638   1.001   2.071  14.778  0.5123  0.1795 -0.1051
 6001SOL    HW129639   0.945   2.000  14.809 -0.0844 -0.2312 -2.1125
 6001SOL    HW229640   0.978   2.071  14.685 -0.0391 -0.6816  0.0305
 6002SOL     OW29641   3.972   2.954   4.341 -0.2172  0.2046 -0.4397
 6002SOL    HW129642   3.887   2.976   4.378 -0.7229 -1.7930 -0.4467
 6002SOL    HW229643   3.942   2.906   4.264  0.3418 -0.3289 -0.3193
 6003SOL     OW29644   4.046   4.106  16.564  0.2525  0.4362 -0.2076
 6003SOL    HW129645   4.050   4.013  16.543  2.3400  0.9404 -2.1925
 6003SOL    HW229646   4.022   4.106  16.656  1.4498 -2.5363  0.1132
 6004SOL     OW29647   4.365   4.199   7.272 -0.0592 -0.9183 -0.0771
 6004SOL    HW129648   4.374   4.274   7.332 -2.6180 -0.1555 -0.6299
 6004SOL    HW229649   4.279   4.222   7.236  0.8698  1.4884 -0.8083
 6005SOL     OW29650   4.133   3.147   6.196  0.0288  0.3450 -0.0691
 6005SOL    HW129651   4.100   3.075   6.250  1.0575  0.5609  0.8394
 6005SOL    HW229652   4.071   3.139   6.123  1.0623  1.9302 -1.1168
 6006SOL     OW29653   4.018   0.835   7.880 -0.7851 -0.3627 -0.1571
 6006SOL    HW129654   4.026   0.913   7.825 -0.3938  0.0260  0.4410
 6006SOL    HW229655   3.922   0.830   7.885 -0.7624  0.0253  0.6824
 6007SOL     OW29656   0.588   3.392   9.068 -0.1440 -0.1135 -0.5403
 6007SOL    HW129657   0.641   3.467   9.042 -2.2490  1.8460  0.8105
 6007SOL    HW229658   0.540   3.440   9.135 -0.0014 -0.8550  0.0974
 6008SOL     OW29659   0.118   2.246   4.397  0.3394 -0.2178 -0.0693
 6008SOL    HW129660   0.083   2.306   4.332  1.3856 -0.0110 -0.4466
 6008SOL    HW229661   0.045   2.231   4.456 -1.5541 -1.1635 -2.6492
 6009SOL     OW29662   2.982   1.140   6.131 -0.4341  0.4039 -0.2400
 6009SOL    HW129663   3.072   1.108   6.120 -0.6797  0.2299 -1.6484
 6009SOL    HW229664   2.988   1.230   6.098 -0.2324  0.8914  1.0751
 6010SOL     OW29665   4.098   1.447   6.839 -0.5274  0.1528 -0.1962
 6010SOL    HW129666   4.181   1.454   6.792  0.6781 -1.0721  1.7088
 6010SOL    HW229667   4.114   1.527   6.890  0.3488 -0.1008 -0.0738
 6011SOL     OW29668   0.342   1.357   2.491  0.2246 -0.1010  0.0324
 6011SOL    HW129669   0.382   1.435   2.453 -0.2075  1.2803  2.4226
 6011SOL    HW229670   0.289   1.312   2.426  3.1127 -2.2015 -0.8604
 6012SOL     OW29671   4.533   1.197   7.291  0.2953  0.1117 -0.0104
 6012SOL    HW129672   4.496   1.143   7.221  0.1568  1.5084 -1.0115
 6012SOL    HW229673   4.533   1.137   7.366  1.8082  1.4771  1.0940
 6013SOL     OW29674   1.972   1.548   3.103 -0.5595  0.4037  0.3576
 6013SOL    HW129675   2.004   1.621   3.156  0.1253  0.1987  0.2267
 6013SOL    HW229676   2.030   1.551   3.027 -1.5562 -0.4112 -0.4434
 6014SOL     OW29677   1.823   2.616   2.725  0.5164 -0.7273  0.7434
 6014SOL    HW129678   1.782   2.699   2.750  3.3170  0.7461  0.4639
 6014SOL    HW229679   1.739   2.570   2.716 -0.5601  1.2421  0.6729
 6015SOL     OW29680   0.695   3.853   6.022 -0.1476  0.3651  0.4471
 6015SOL    HW129681   0.785   3.827   6.042 -0.7035  0.1204  2.6452
 6015SOL    HW229682   0.705   3.853   5.927 -1.8768 -1.4178  0.2723
 6016SOL     OW29683   0.602   0.994   6.617 -0.5542 -0.2814  0.2113
 6016SOL    HW129684   0.522   0.952   6.585 -0.4932 -0.9793  0.9895
 6016SOL    HW229685   0.644   1.036   6.542  1.5825 -1.3024  0.8341
 6017SOL     OW29686   3.101   1.066   2.167  0.1821  0.2273 -0.3592
 6017SOL    HW129687   3.133   1.143   2.121  0.5878  0.9222  1.1058
 6017SOL    HW229688   3.011   1.061   2.136  0.1140  1.4890 -0.3431
 6018SOL     OW29689   1.730   3.403   5.812  0.6522 -0.0525 -0.1902
 6018SOL    HW129690   1.672   3.479   5.821  0.4756 -0.4782  2.0546
 6018SOL    HW229691   1.731   3.388   5.717 -0.7535  0.3748 -0.2754
 6019SOL     OW29692   2.489   4.732   7.572  0.7623 -0.0982  0.1879
 6019SOL    HW129693   2.493   0.001   7.477  1.0063 -1.0279  0.1083
 6019SOL    HW229694   2.397   4.709   7.587  0.6016  0.3104 -0.1699
 6020SOL     OW29695   3.282   1.156   5.247 -0.1479 -0.3306 -0.0065
 6020SOL    HW129696   3.207   1.109   5.284  0.2009 -0.7179  0.2123
 6020SOL    HW229697   3.249   1.168   5.158  0.7325  0.4033 -0.2317
 6021SOL     OW29698   3.826   2.337   5.934 -0.2220  0.4523 -0.2156
 6021SOL    HW129699   3.741   2.303   5.907  0.1273  0.2758 -1.0739
 6021SOL    HW229700   3.848   2.409   5.875 -1.9892  0.7542 -0.5196
 6022SOL     OW29701   4.078   4.466   6.997  0.2542 -0.4902 -0.1987
 6022SOL    HW129702   4.133   4.437   7.070 -0.3010 -1.2487 -0.0810
 6022SOL    HW229703   4.095   4.559   6.985  3.3958 -0.8164  1.7172
 6023SOL     OW29704   3.576   0.524   8.475 -0.1721  0.3626  0.0756
 6023SOL    HW129705   3.625   0.494   8.552 -2.3268 -1.3444  0.8062
 6023SOL    HW229706   3.629   0.602   8.458 -2.1480  1.4363 -1.1914
 6024SOL     OW29707   3.925   4.309   6.551  0.1607 -0.3699 -0.3104
 6024SOL    HW129708   3.983   4.319   6.626 -2.1637  0.9747  1.3242
 6024SOL    HW229709   3.843   4.290   6.598 -0.1954  1.1095 -0.3180
 6025SOL     OW29710   3.445   4.624  14.594  0.5996 -0.2306 -0.1000
 6025SOL    HW129711   3.491   4.700  14.630  1.5706 -0.9708  0.1989
 6025SOL    HW229712   3.447   4.565  14.669  0.8576 -0.5293 -0.3420
 6026SOL     OW29713   1.325   2.728   2.328 -0.6088 -0.0788  0.7156
 6026SOL    HW129714   1.340   2.822   2.316  0.4188 -0.1824  1.2662
 6026SOL    HW229715   1.230   2.734   2.317 -0.4274 -1.6329 -1.8325
 6027SOL     OW29716   2.844   2.140  10.016  0.3227 -0.3738 -0.0905
 6027SOL    HW129717   2.898   2.060  10.016 -0.2836 -0.7808  1.2424
 6027SOL    HW229718   2.766   2.119   9.966 -0.3217 -0.2545  0.8647
 6028SOL     OW29719   2.243   1.475   2.679  0.3450  0.0424 -0.0117
 6028SOL    HW129720   2.204   1.455   2.594  1.5537  0.7264 -0.7266
 6028SOL    HW229721   2.338   1.477   2.665  0.5792  0.6647  1.6535
 6029SOL     OW29722   1.021   2.138   6.616 -0.2524  0.2369 -0.3211
 6029SOL    HW129723   1.057   2.135   6.705  2.4354  1.9206 -1.3495
 6029SOL    HW229724   1.103   2.168   6.578 -0.2913  1.9311  0.8919
 6030SOL     OW29725   1.600   0.602   4.687 -1.0030  0.1371  0.0376
 6030SOL    HW129726   1.637   0.521   4.653  2.0379  1.2560  0.7623
 6030SOL    HW229727   1.568   0.635   4.603  2.4965  0.7723 -1.0469
 6031SOL     OW29728   4.077   4.656   4.331  0.1333  0.6464  0.3830
 6031SOL    HW129729   4.076   4.717   4.258 -1.1127  0.2950  0.1116
 6031SOL    HW229730   4.156   4.604   4.314 -1.0890 -0.7527 -0.9777
 6032SOL     OW29731   4.451   0.137   4.511 -0.2199  0.4443  0.8402
 6032SOL    HW129732   4.367   0.180   4.527 -1.7564 -2.4818  0.5995
 6032SOL    HW229733   4.457   0.060   4.567 -0.8043 -1.1495 -1.2811
 6033SOL     OW29734   4.637   1.587   6.122 -0.1976  0.5964 -0.1694
 6033SOL    HW129735   4.575   1.652   6.156  2.7145  3.7966 -1.0157
 6033SOL    HW229736   4.574   1.526   6.083 -1.5381  0.9897  1.3466
 6034SOL     OW29737   2.555   1.582   3.252  0.1790 -0.3832 -0.6459
 6034SOL    HW129738   2.552   1.602   3.346  0.5595 -1.4646 -0.3980
 6034SOL    HW229739   2.568   1.488   3.245  0.1680 -0.6628  2.7464
 6035SOL     OW29740   2.909   1.025   4.996 -0.3622  0.1850 -0.6350
 6035SOL    HW129741   2.951   0.949   4.956  2.1912  0.7447  0.9951
 6035SOL    HW229742   2.981   1.087   4.986  0.1072  0.0150  1.6692
 6036SOL     OW29743   1.766   3.628   5.173 -0.5473 -0.7586 -0.1272
 6036SOL    HW129744   1.672   3.627   5.194 -0.2812 -1.1852  1.0516
 6036SOL    HW229745   1.800   3.570   5.241  2.6370 -0.3810 -1.4270
 6037SOL     OW29746   1.013   3.871   7.517 -0.1009  0.0054 -0.2980
 6037SOL    HW129747   0.975   3.802   7.571  0.9478 -0.7543 -0.5258
 6037SOL    HW229748   1.017   3.828   7.431 -0.3886  0.4734 -0.5481
 6038SOL     OW29749   3.544   2.537   1.042 -0.7253 -0.4931 -0.4161
 6038SOL    HW129750   3.615   2.510   1.100 -1.8620 -1.4151  0.5543
 6038SOL    HW229751   3.528   2.462   0.985 -1.2660  0.8011 -1.9766
 6039SOL     OW29752   4.082   1.975  17.399 -0.2150  0.3977  0.3793
 6039SOL    HW129753   4.112   2.044  17.459 -2.2632  0.7729  0.9692
 6039SOL    HW229754   3.999   1.952  17.440  1.4858 -0.9048  3.0830
 6040SOL     OW29755   1.121   3.238  14.941 -0.2561  0.5441  0.2191
 6040SOL    HW129756   1.112   3.175  14.870  1.3975 -0.9927  1.3609
 6040SOL    HW229757   1.196   3.209  14.993 -0.2913  0.1689  0.0614
 6041SOL     OW29758   3.446   3.747  15.208 -0.5421  0.7173 -0.3018
 6041SOL    HW129759   3.473   3.719  15.295 -2.0959 -1.0331 -0.3919
 6041SOL    HW229760   3.397   3.667  15.188  1.7039 -0.8904  0.6001
 6042SOL     OW29761   4.141   1.156  16.045  0.3160  0.5493 -0.0761
 6042SOL    HW129762   4.173   1.176  15.957  2.0238  3.2678  1.2006
 6042SOL    HW229763   4.106   1.068  16.033 -1.0052  0.6235  3.3195
 6043SOL     OW29764   2.434   3.941   3.044  0.3021 -0.3166 -0.4211
 6043SOL    HW129765   2.351   3.912   3.082 -0.6998  2.1264 -0.7776
 6043SOL    HW229766   2.453   4.015   3.102 -0.8824 -0.1398 -0.2639
 6044SOL     OW29767   3.713   0.287   3.501 -0.1186 -0.9409  0.1414
 6044SOL    HW129768   3.797   0.275   3.457 -0.7970 -0.3112 -1.3133
 6044SOL    HW229769   3.712   0.218   3.568  3.5879  0.2100  1.3859
 6045SOL     OW29770   0.376   4.638   0.861  0.1420 -0.6817 -0.3104
 6045SOL    HW129771   0.293   4.679   0.838  0.4003 -0.6966 -1.2997
 6045SOL    HW229772   0.344   4.562   0.910  2.2122 -0.3808  1.5075
 6046SOL     OW29773   0.332   2.810   7.485  0.4613  0.2336 -0.5259
 6046SOL    HW129774   0.419   2.810   7.447  1.8713 -0.6213  2.7081
 6046SOL    HW229775   0.275   2.796   7.409  0.3277 -0.8415 -0.2277
 6047SOL     OW29776   2.272   2.434   7.908  0.6018  0.3942  0.6834
 6047SOL    HW129777   2.273   2.339   7.913 -0.1717  0.2523 -1.5754
 6047SOL    HW229778   2.211   2.468   7.973 -0.5216 -1.3215  0.5236
 6048SOL     OW29779   3.124   4.575  17.174  0.2263 -0.3584  0.6979
 6048SOL    HW129780   3.110   4.637  17.246 -0.5297 -0.5446  0.7186
 6048SOL    HW229781   3.178   4.508  17.214 -0.5703 -1.2834  0.2167
 6049SOL     OW29782   1.510   0.897   2.049  0.3248 -0.6945  0.3574
 6049SOL    HW129783   1.504   0.963   1.980 -2.8445 -0.3108  0.9585
 6049SOL    HW229784   1.565   0.839   1.997  0.1218 -1.4909  1.0298
 6050SOL     OW29785   1.855   2.021   7.764  0.0542  0.2638 -0.0707
 6050SOL    HW129786   1.857   2.110   7.799  1.1344  0.3865 -0.4283
 6050SOL    HW229787   1.933   1.979   7.802 -0.0342 -1.2535 -1.5647
 6051SOL     OW29788   0.371   1.324   6.601  0.0959  0.1432 -0.4694
 6051SOL    HW129789   0.466   1.322   6.594  0.0132 -2.1724 -0.8812
 6051SOL    HW229790   0.353   1.358   6.514  2.5050 -1.3420 -1.5365
 6052SOL     OW29791   0.857   1.788   3.055 -0.8564  0.0542  0.6608
 6052SOL    HW129792   0.825   1.705   3.090 -0.7037  0.3465  1.4886
 6052SOL    HW229793   0.935   1.800   3.108  1.2837 -1.7596 -2.0738
 6053SOL     OW29794   3.556   2.082   8.732 -0.0082 -0.1386 -0.0213
 6053SOL    HW129795   3.633   2.140   8.733  0.8013 -1.1615 -2.4924
 6053SOL    HW229796   3.594   2.032   8.805 -1.5510 -1.1072  0.1147
 6054SOL     OW29797   2.118   1.283   6.640  0.6179  0.2731 -0.3607
 6054SOL    HW129798   2.134   1.243   6.555  0.9072 -3.0441  1.2198
 6054SOL    HW229799   2.126   1.209   6.701 -0.9307  0.5087  0.1322
 6055SOL     OW29800   2.186   4.272  17.190  0.0227 -0.2330 -0.3991
 6055SOL    HW129801   2.116   4.216  17.159 -0.9413 -1.0655  3.2675
 6055SOL    HW229802   2.196   4.246  17.282 -1.5653 -0.4569 -0.2995
 6056SOL     OW29803   1.336   3.143   4.972  0.1198  0.5966  0.2955
 6056SOL    HW129804   1.377   3.141   4.885 -1.0772 -0.9803 -0.2488
 6056SOL    HW229805   1.302   3.232   4.985 -0.4756  0.5149 -0.6781
 6057SOL     OW29806   0.899   1.370   6.301 -0.0800 -0.6787 -0.2078
 6057SOL    HW129807   0.844   1.317   6.244  0.2265 -1.3684  0.1393
 6057SOL    HW229808   0.832   1.435   6.325  0.8057 -0.4004  1.5662
 6058SOL     OW29809   0.419   4.681   9.865  0.2943  0.3142 -0.5654
 6058SOL    HW129810   0.358   4.677   9.938 -0.2479  1.8380 -0.9337
 6058SOL    HW229811   0.435   4.587   9.854 -0.7495  0.2978 -2.0019
 6059SOL     OW29812   2.834   3.430  12.859 -0.4878  0.1621  1.0007
 6059SOL    HW129813   2.888   3.413  12.937  1.3582 -0.8764 -0.5129
 6059SOL    HW229814   2.763   3.487  12.887  0.9640  3.6509 -2.4666
 6060SOL     OW29815   2.834   1.773   8.584  0.1482  0.3671  0.5692
 6060SOL    HW129816   2.891   1.848   8.602  1.3116 -0.0954 -1.1675
 6060SOL    HW229817   2.768   1.778   8.652  1.2263 -0.4228  1.6670
 6061SOL     OW29818   2.670   0.384   9.080 -0.4643 -0.0105 -0.0517
 6061SOL    HW129819   2.650   0.373   8.987 -0.6002  2.0878 -0.2831
 6061SOL    HW229820   2.755   0.342   9.092 -0.9547 -1.0100 -0.0762
 6062SOL     OW29821   1.188   3.836  10.790 -0.1220 -0.1311 -0.3653
 6062SOL    HW129822   1.254   3.855  10.856  1.2023 -0.7583 -1.5060
 6062SOL    HW229823   1.111   3.807  10.839  0.9107 -1.8450  0.2372
 6063SOL     OW29824   4.563   0.107   8.924  0.4919 -0.4162  0.2247
 6063SOL    HW129825   4.534   0.026   8.968 -0.8065  0.3007  0.6840
 6063SOL    HW229826   4.648   0.107   8.968  1.3828 -0.3714 -1.5009
 6064SOL     OW29827   4.326   1.728   1.919  0.3744  0.8511  0.3754
 6064SOL    HW129828   4.306   1.767   1.834 -1.7214 -1.9058 -0.3883
 6064SOL    HW229829   4.269   1.652   1.924  0.2851  0.9682  1.1691
 6065SOL     OW29830   1.908   4.183  12.239 -0.2317  0.1825  0.0364
 6065SOL    HW129831   1.823   4.140  12.248  0.3355 -0.5143  2.0966
 6065SOL    HW229832   1.969   4.119  12.203  0.3780  1.4153 -1.1526
 6066SOL     OW29833   4.562   3.294   6.784  0.0307 -0.9415  0.0656
 6066SOL    HW129834   4.622   3.251   6.845  1.1563  0.7389  0.1620
 6066SOL    HW229835   4.633   3.339   6.736 -0.1166 -2.1552 -1.2872
 6067SOL     OW29836   4.423   2.327   4.512  0.0390 -0.0354  0.7037
 6067SOL    HW129837   4.378   2.258   4.561  0.6557  0.0975  1.4596
 6067SOL    HW229838   4.382   2.325   4.425  1.1443  0.2701  0.1709
 6068SOL     OW29839   3.381   3.897   3.709  0.3198  0.0588 -0.2691
 6068SOL    HW129840   3.470   3.879   3.741  0.1038 -2.5824 -1.1686
 6068SOL    HW229841   3.340   3.925   3.791  0.2312  0.6876 -0.5301
 6069SOL     OW29842   2.625   0.337   1.946 -0.0437  0.1325  0.5435
 6069SOL    HW129843   2.577   0.269   1.993 -0.5007  0.2162  0.1996
 6069SOL    HW229844   2.550   0.389   1.917 -1.2612 -1.1748  1.3216
 6070SOL     OW29845   1.786   4.112   0.068 -0.3253 -0.5784 -0.7186
 6070SOL    HW129846   1.769   4.055   0.143  0.5498 -1.8507 -1.4646
 6070SOL    HW229847   1.708   4.102   0.014 -0.4143  0.1661 -0.7267
 6071SOL     OW29848   4.023   3.060   8.188  0.4299  0.2434 -0.4701
 6071SOL    HW129849   4.024   3.011   8.270  0.7247 -1.2137 -1.3381
 6071SOL    HW229850   4.074   2.999   8.134 -0.8724 -1.2946  0.0279
 6072SOL     OW29851   2.138   0.168   6.474  0.5400 -0.0470  0.2534
 6072SOL    HW129852   2.214   0.131   6.429  0.0206  0.8281 -1.3499
 6072SOL    HW229853   2.128   0.100   6.541  0.9105  1.7430  2.1365
 6073SOL     OW29854   0.916   4.235   2.409 -0.3889  0.0767 -0.0307
 6073SOL    HW129855   0.918   4.270   2.498 -0.2763  1.9153 -0.7558
 6073SOL    HW229856   1.002   4.193   2.402 -0.8979 -0.7388 -1.4562
 6074SOL     OW29857   3.753   3.528   2.933  0.5463 -0.0646  0.4631
 6074SOL    HW129858   3.846   3.505   2.932  0.5588 -0.0556  1.4891
 6074SOL    HW229859   3.758   3.604   2.876 -2.4619 -0.4595 -0.3354
 6075SOL     OW29860   2.305   2.674   2.837 -0.1532 -0.0913 -0.1488
 6075SOL    HW129861   2.355   2.635   2.908 -0.2954 -0.0512 -0.0259
 6075SOL    HW229862   2.219   2.633   2.847  0.3932 -0.5223  2.7737
 6076SOL     OW29863   3.988   2.736  16.743  0.8048 -0.3726 -0.0244
 6076SOL    HW129864   3.934   2.785  16.805  1.5212 -0.2138  0.4842
 6076SOL    HW229865   3.924   2.668  16.725  1.7066 -1.0281 -0.7713
 6077SOL     OW29866   2.974   1.810  17.626  0.2639  0.3710 -0.3768
 6077SOL    HW129867   3.062   1.774  17.643 -0.1376 -1.5539 -2.3883
 6077SOL    HW229868   2.951   1.757  17.549 -1.2416 -0.5419  0.7032
 6078SOL     OW29869   0.806   1.581   3.345  0.4727  0.0586 -0.0000
 6078SOL    HW129870   0.736   1.575   3.280  0.8707 -1.0528 -0.3388
 6078SOL    HW229871   0.863   1.509   3.317  0.5826 -0.5993  1.9226
 6079SOL     OW29872   2.528   3.190  16.734  0.0352 -0.8015 -0.0790
 6079SOL    HW129873   2.543   3.272  16.688  1.3595  0.0588  1.8552
 6079SOL    HW229874   2.594   3.131  16.697 -1.0146 -2.3995  0.5572
 6080SOL     OW29875   2.887   3.845   0.370  0.4170 -0.0868 -0.3538
 6080SOL    HW129876   2.923   3.931   0.394 -0.7174  0.0879  0.7162
 6080SOL    HW229877   2.888   3.807   0.457  0.6233 -2.3142 -1.3315
 6081SOL     OW29878   2.491   1.901  12.259  0.5718 -0.0816 -1.0260
 6081SOL    HW129879   2.537   1.976  12.221 -0.9589  1.5104  0.2460
 6081SOL    HW229880   2.525   1.889  12.347  1.5990  2.2100 -1.1054
 6082SOL     OW29881   3.203   1.602   3.585 -0.4349 -0.5890  0.1398
 6082SOL    HW129882   3.276   1.592   3.524 -0.6345  3.0176 -0.6612
 6082SOL    HW229883   3.162   1.684   3.559 -0.5972 -0.5417  0.5390
 6083SOL     OW29884   1.976   2.421   8.029 -0.7290  0.0447  0.1092
 6083SOL    HW129885   2.056   2.462   8.060 -0.1837 -1.1166  0.2443
 6083SOL    HW229886   1.927   2.408   8.111  1.3940  0.8006  1.4726
 6084SOL     OW29887   2.953   1.545   6.394  0.1983  0.4545 -0.0179
 6084SOL    HW129888   2.980   1.473   6.337  1.8333 -0.6406  2.1832
 6084SOL    HW229889   2.931   1.610   6.327 -0.0840 -1.0688 -1.4162
 6085SOL     OW29890   0.833   2.487   8.483 -0.4479  0.3046  0.6616
 6085SOL    HW129891   0.744   2.516   8.503 -0.8798 -1.0170  0.6837
 6085SOL    HW229892   0.862   2.454   8.568 -2.5061 -1.7245  0.5816
 6086SOL     OW29893   1.832   4.620   4.808  0.3469 -0.0978  0.1438
 6086SOL    HW129894   1.736   4.629   4.809  0.2684 -0.6302 -2.3675
 6086SOL    HW229895   1.839   4.569   4.889 -3.1410  0.3250  0.7282
 6087SOL     OW29896   2.303   1.711   2.398 -0.0195 -0.2282  0.1453
 6087SOL    HW129897   2.276   1.623   2.423  1.9355 -0.4795  1.4182
 6087SOL    HW229898   2.322   1.706   2.304  0.6978 -2.3696  0.4208
 6088SOL     OW29899   1.970   1.537   6.652 -0.0675  0.2703 -0.3332
 6088SOL    HW129900   2.012   1.452   6.642  0.2906  0.0775  2.5597
 6088SOL    HW229901   1.905   1.516   6.720 -0.4473 -2.0858 -1.3903
 6089SOL     OW29902   3.955   2.866   2.630 -0.1556  0.3838  0.4708
 6089SOL    HW129903   3.998   2.922   2.695 -1.8639  0.3703  1.6232
 6089SOL    HW229904   4.028   2.829   2.582 -0.4089  0.7715 -0.2070
 6090SOL     OW29905   3.610   3.888   5.403  0.6714 -0.4999 -0.0322
 6090SOL    HW129906   3.680   3.934   5.357  0.0626  0.3565 -0.0941
 6090SOL    HW229907   3.642   3.797   5.406  0.5343 -0.5953 -1.4233
 6091SOL     OW29908   1.813   0.880   6.108 -0.2158  0.3322  0.1560
 6091SOL    HW129909   1.754   0.953   6.086 -1.8313 -0.7942  0.7540
 6091SOL    HW229910   1.745   0.814   6.126 -0.5204  1.3424  2.6450
 6092SOL     OW29911   3.808   3.663   3.246 -0.9493  0.2654  0.4682
 6092SOL    HW129912   3.773   3.576   3.226  1.6211 -0.4335 -0.9277
 6092SOL    HW229913   3.895   3.658   3.206 -1.3698  0.6418 -0.5001
 6093SOL     OW29914   1.734   3.690   7.130  0.0271  0.4575 -0.5014
 6093SOL    HW129915   1.808   3.751   7.124  0.2353  0.2501 -0.0071
 6093SOL    HW229916   1.782   3.609   7.112  1.4917  1.6175 -1.7958
 6094SOL     OW29917   0.584   2.231   8.166  0.0912  0.2184 -0.0573
 6094SOL    HW129918   0.545   2.183   8.239 -0.3263  0.1933 -0.2981
 6094SOL    HW229919   0.543   2.178   8.097 -0.7384  1.3832 -0.4579
 6095SOL     OW29920   3.289   0.287   2.163  0.5741  0.2969 -0.2855
 6095SOL    HW129921   3.247   0.280   2.249  0.8322  2.1287 -0.0215
 6095SOL    HW229922   3.322   0.376   2.166  0.4817  0.2683  1.7319
 6096SOL     OW29923   0.952   3.881   0.202  0.0383  0.3049  0.1850
 6096SOL    HW129924   0.965   3.802   0.148 -2.4637 -1.0953  1.6562
 6096SOL    HW229925   0.983   3.943   0.135 -0.0261 -0.0169 -0.1459
 6097SOL     OW29926   4.173   4.339   9.230 -0.2464 -0.2053  0.4688
 6097SOL    HW129927   4.245   4.343   9.168 -1.1645 -2.7596 -0.7644
 6097SOL    HW229928   4.161   4.432   9.249  0.2823 -0.3633  1.6021
 6098SOL     OW29929   4.613   1.325   6.253  0.3691 -0.0403  0.0609
 6098SOL    HW129930   4.698   1.316   6.209 -0.1595 -0.7004 -0.8264
 6098SOL    HW229931   4.560   1.332   6.173 -2.1199  0.9992  1.8190
 6099SOL     OW29932   1.511   2.652  16.021  0.0095  0.0994  0.2585
 6099SOL    HW129933   1.574   2.623  16.088  1.9104  0.3082 -1.4367
 6099SOL    HW229934   1.477   2.572  15.982 -2.7226  1.3511  0.0763
 6100SOL     OW29935   0.468   1.455   8.365 -0.0130 -0.3159  0.0895
 6100SOL    HW129936   0.501   1.366   8.348  1.7801  0.3463  0.1175
 6100SOL    HW229937   0.471   1.460   8.460  1.6627 -2.6782  0.1571
 6101SOL     OW29938   3.744   3.297   9.530 -0.0578  0.2885  0.3363
 6101SOL    HW129939   3.734   3.299   9.435 -1.1051  0.0206  0.4448
 6101SOL    HW229940   3.837   3.316   9.541  0.0276  0.2683 -0.3485
 6102SOL     OW29941   3.624   3.229   9.750  0.7967  0.0508 -0.2360
 6102SOL    HW129942   3.676   3.239   9.670  1.5490  2.5510  0.5748
 6102SOL    HW229943   3.643   3.137   9.766  1.2089 -0.0315 -1.1551
 6103SOL     OW29944   0.696   1.505   2.666 -0.0893  0.1380 -0.0758
 6103SOL    HW129945   0.757   1.572   2.694  1.7671 -0.5570 -2.4520
 6103SOL    HW229946   0.634   1.495   2.738  0.7960 -3.0302  0.2435
 6104SOL     OW29947   4.638   0.005   3.513  0.2075  0.2317 -0.0013
 6104SOL    HW129948   4.713   0.049   3.551  0.3454 -0.4747  0.5387
 6104SOL    HW229949   4.676   4.716   3.430  1.5880 -0.3644  0.8443
 6105SOL     OW29950   3.313   1.815   0.701 -0.6326  0.0586  1.0920
 6105SOL    HW129951   3.330   1.909   0.700 -0.3357  0.0046  0.9071
 6105SOL    HW229952   3.391   1.779   0.745 -0.2599 -0.8624 -0.3276
 6106SOL     OW29953   0.439   1.316   6.028  0.9631 -0.0431 -0.1567
 6106SOL    HW129954   0.416   1.244   5.968  1.1460  0.4124 -0.7740
 6106SOL    HW229955   0.463   1.380   5.962 -0.0685 -0.0349 -0.5295
 6107SOL     OW29956   1.421   3.028  13.569 -0.2265  0.1414 -0.2634
 6107SOL    HW129957   1.516   3.029  13.578 -0.0408 -2.1029 -1.8454
 6107SOL    HW229958   1.401   2.997  13.657  1.3253  1.4121  0.5302
 6108SOL     OW29959   0.574   4.102   5.479  0.1285  0.0948  0.1180
 6108SOL    HW129960   0.543   4.160   5.410 -1.1456  0.0379  0.6493
 6108SOL    HW229961   0.606   4.169   5.539  2.2009  0.5277 -1.4915
 6109SOL     OW29962   2.888   3.073   4.178 -0.1406  0.5605 -0.3648
 6109SOL    HW129963   2.906   2.983   4.205 -0.1818  0.4952 -0.5544
 6109SOL    HW229964   2.799   3.073   4.214 -0.4690 -1.7654 -1.1498
 6110SOL     OW29965   0.141   0.524   4.388  0.1669 -0.4506 -0.3171
 6110SOL    HW129966   0.183   0.546   4.305  1.7242 -0.2939  0.5161
 6110SOL    HW229967   0.080   0.455   4.359 -0.7455  0.2164  0.0272
 6111SOL     OW29968   3.730   3.116  17.345  0.0742 -0.4145 -0.1785
 6111SOL    HW129969   3.696   3.187  17.399 -0.2678 -1.6244  1.1825
 6111SOL    HW229970   3.693   3.042  17.394 -1.2838 -0.2497 -0.9622
 6112SOL     OW29971   3.387   3.151   7.283 -0.1039  0.2312 -0.1081
 6112SOL    HW129972   3.294   3.174   7.276  0.3434  1.3175 -2.3164
 6112SOL    HW229973   3.421   3.220   7.339 -0.4603 -1.2498  1.9536
 6113SOL     OW29974   0.164   4.655   6.455  0.3247 -0.3000  0.2722
 6113SOL    HW129975   0.249   4.696   6.437  0.5841 -1.3049 -0.7610
 6113SOL    HW229976   0.182   4.581   6.397  1.4024  0.4229 -0.3233
 6114SOL     OW29977   3.167   1.415   7.899 -0.3579  0.2186 -0.5345
 6114SOL    HW129978   3.128   1.339   7.856 -1.4879  1.0567 -0.9839
 6114SOL    HW229979   3.127   1.480   7.841  0.7152 -0.6053 -2.2072
 6115SOL     OW29980   2.040   1.707  11.888 -0.1183 -0.3993 -0.1372
 6115SOL    HW129981   1.965   1.649  11.899 -0.1693 -0.2372  0.3878
 6115SOL    HW229982   2.040   1.768  11.962 -2.1586 -2.1040  1.2675
 6116SOL     OW29983   3.098   3.964   6.666 -0.1529 -0.5418  0.2234
 6116SOL    HW129984   3.044   4.035   6.631 -1.2816 -0.2525  2.5034
 6116SOL    HW229985   3.172   3.959   6.606 -0.2000 -0.3015  0.1451
 6117SOL     OW29986   3.531   3.403   7.769 -0.4349  0.1201 -0.0025
 6117SOL    HW129987   3.622   3.385   7.791 -0.2771  0.7908 -0.1080
 6117SOL    HW229988   3.506   3.468   7.835  3.9123  0.0394  1.6857
 6118SOL     OW29989   1.820   3.950  14.347  0.2265 -0.2790  0.3390
 6118SOL    HW129990   1.788   3.990  14.428  0.8915 -0.9793  0.9435
 6118SOL    HW229991   1.791   3.859  14.357  1.9879 -0.7150  1.5300
 6119SOL     OW29992   2.462   3.466   4.729 -0.0438 -0.2293 -0.3989
 6119SOL    HW129993   2.495   3.438   4.644  1.4462  0.9642 -0.2132
 6119SOL    HW229994   2.421   3.388   4.767 -1.7972  0.2118 -1.3606
 6120SOL     OW29995   0.732   1.842   6.265  0.1247  0.5118  0.0968
 6120SOL    HW129996   0.827   1.855   6.265 -0.0239  1.5684 -0.7389
 6120SOL    HW229997   0.713   1.924   6.311 -0.2648  0.3890  0.1577
 6121SOL     OW29998   0.190   4.457   7.932  0.1759 -0.4537 -0.1397
 6121SOL    HW129999   0.139   4.527   7.892 -1.4335 -2.5304 -1.7975
 6121SOL    HW230000   0.192   4.399   7.856 -0.9710  0.9242 -1.2245
 6122SOL     OW30001   4.198   2.630  16.614  0.3334  0.1066 -0.9579
 6122SOL    HW130002   4.219   2.539  16.637  0.5174 -0.0687 -1.8060
 6122SOL    HW230003   4.120   2.650  16.665  2.0803 -0.0053  1.7729
 6123SOL     OW30004   1.777   4.507   7.829 -0.1925 -0.3966 -0.2041
 6123SOL    HW130005   1.701   4.466   7.870  1.9621 -0.9235  3.2926
 6123SOL    HW230006   1.735   4.590   7.809  0.8251  0.2969  0.5436
 6124SOL     OW30007   2.394   2.795   7.085  0.4067 -0.2174 -0.0826
 6124SOL    HW130008   2.347   2.783   7.002 -0.4630 -2.3034  0.6963
 6124SOL    HW230009   2.445   2.714   7.090  1.5529  0.4943 -0.1879
 6125SOL     OW30010   1.059   3.377   0.825  0.1149 -0.3572 -0.0709
 6125SOL    HW130011   1.114   3.308   0.789  0.6880  0.1207 -0.1111
 6125SOL    HW230012   1.026   3.345   0.909 -0.0290  0.5290  0.2046
 6126SOL     OW30013   2.032   1.902   2.635  0.2900  0.2219 -0.4695
 6126SOL    HW130014   2.028   1.815   2.595  0.3614 -0.7699  1.6440
 6126SOL    HW230015   2.020   1.961   2.561 -3.1906 -0.5721 -0.5412
 6127SOL     OW30016   2.643   2.481   0.086  0.5956 -0.0003 -0.2734
 6127SOL    HW130017   2.705   2.537   0.041  1.4382 -0.4122  0.3839
 6127SOL    HW230018   2.584   2.462   0.013  0.3745 -0.3535 -0.0036
 6128SOL     OW30019   1.604   1.540  13.121  0.3639  0.0799 -0.2505
 6128SOL    HW130020   1.591   1.585  13.038 -1.6222 -0.8814 -0.4432
 6128SOL    HW230021   1.655   1.608  13.166 -0.7308  0.2780  0.7032
 6129SOL     OW30022   3.551   1.456   6.895  0.4819  0.1290  0.0968
 6129SOL    HW130023   3.614   1.520   6.927  1.4663 -0.7681 -0.0615
 6129SOL    HW230024   3.477   1.488   6.947 -1.6629 -1.6810 -1.8169
 6130SOL     OW30025   0.340   3.220   9.395 -0.3964  0.4670 -0.2066
 6130SOL    HW130026   0.334   3.194   9.303  1.7468 -1.9859  0.3444
 6130SOL    HW230027   0.420   3.170   9.411 -0.1439  0.4806 -1.3729
 6131SOL     OW30028   3.224   0.511  11.583  0.1093 -0.4653 -0.2267
 6131SOL    HW130029   3.150   0.454  11.561 -1.7219  1.0573  1.9668
 6131SOL    HW230030   3.170   0.584  11.615 -0.5142 -1.3433  0.7409
 6132SOL     OW30031   2.966   4.387   7.696 -0.1704  0.0063  0.0049
 6132SOL    HW130032   2.938   4.449   7.629 -0.3969  0.1495  0.2261
 6132SOL    HW230033   2.959   4.299   7.659  2.2998 -1.2490  2.5379
 6133SOL     OW30034   3.269   0.629   7.305  0.2470 -0.6388 -0.7739
 6133SOL    HW130035   3.323   0.559   7.341  1.3356  1.3307  1.3972
 6133SOL    HW230036   3.248   0.694   7.373  0.6166 -0.2297 -1.0468
 6134SOL     OW30037   3.070   1.762   1.732  0.0721 -0.0677  0.3211
 6134SOL    HW130038   3.095   1.782   1.641  1.7624 -2.4336  0.2418
 6134SOL    HW230039   3.011   1.833   1.756  0.6041  0.6880 -0.5962
 6135SOL     OW30040   2.380   2.861   3.388  0.0168  0.0338 -0.6801
 6135SOL    HW130041   2.398   2.899   3.302  0.7562 -0.4508 -0.7332
 6135SOL    HW230042   2.303   2.808   3.367 -1.2053  1.6491 -0.3054
 6136SOL     OW30043   3.796   0.973   6.391  0.3042 -0.2679  0.4591
 6136SOL    HW130044   3.765   0.903   6.334 -1.2934 -0.4541  1.5525
 6136SOL    HW230045   3.716   1.002   6.434 -0.3205 -1.7768  0.3063
 6137SOL     OW30046   2.609   4.514  16.559 -0.1326 -0.0791  0.0542
 6137SOL    HW130047   2.698   4.524  16.592 -1.2935  1.2205  2.8085
 6137SOL    HW230048   2.609   4.549  16.470 -0.6003  1.6426  0.7307
 6138SOL     OW30049   3.311   2.750   2.619 -0.2341  0.1662 -0.7160
 6138SOL    HW130050   3.362   2.800   2.555 -0.4957  1.4905  0.1021
 6138SOL    HW230051   3.387   2.720   2.670  0.5781  1.7669 -0.9905
 6139SOL     OW30052   3.853   3.717   4.868 -0.3437  0.5795  0.0634
 6139SOL    HW130053   3.831   3.645   4.809  2.9934  0.3067 -0.8181
 6139SOL    HW230054   3.868   3.784   4.801 -1.0396 -1.0120 -1.6649
 6140SOL     OW30055   1.141   2.387   8.514 -0.2252  0.0668 -0.0073
 6140SOL    HW130056   1.162   2.470   8.557  0.8116 -1.5088  2.5425
 6140SOL    HW230057   1.131   2.331   8.591  0.5789 -0.6587 -0.4306
 6141SOL     OW30058   2.087   3.360   9.591  0.3347  0.6680  0.5899
 6141SOL    HW130059   2.180   3.338   9.595  0.6689  2.3068  1.7276
 6141SOL    HW230060   2.067   3.309   9.512 -0.6852  0.4552  0.9916
 6142SOL     OW30061   3.006   3.401  14.591  0.2445  0.5096 -0.2878
 6142SOL    HW130062   2.955   3.379  14.670 -0.6743  0.1618 -0.9775
 6142SOL    HW230063   3.029   3.493  14.604  1.5511 -0.1734  2.1901
 6143SOL     OW30064   2.566   0.271  16.566 -0.4570 -0.2374  0.4017
 6143SOL    HW130065   2.589   0.337  16.501  0.2850 -1.2375 -0.3381
 6143SOL    HW230066   2.536   0.198  16.513  1.4639  0.7189 -1.9713
 6144SOL     OW30067   1.127   1.031   7.863 -0.0470  0.3427  0.3890
 6144SOL    HW130068   1.045   0.983   7.878  0.4741 -0.1811  1.5285
 6144SOL    HW230069   1.087   1.109   7.824 -0.9206  0.5615  1.7391
 6145SOL     OW30070   0.349   2.202   9.306 -0.1671  0.4660 -0.2122
 6145SOL    HW130071   0.412   2.153   9.360 -2.0990 -0.6442  1.0159
 6145SOL    HW230072   0.359   2.296   9.318  1.8034  0.0999  1.1113
 6146SOL     OW30073   3.338   2.763  13.168  0.1972  0.0839 -0.2649
 6146SOL    HW130074   3.377   2.781  13.082 -1.0658  0.9654 -0.6461
 6146SOL    HW230075   3.300   2.677  13.155 -0.0202  0.1507 -0.0690
 6147SOL     OW30076   2.811   1.945   2.209 -0.6607  0.2919 -0.6758
 6147SOL    HW130077   2.749   1.959   2.281 -2.5134 -0.3713 -2.1415
 6147SOL    HW230078   2.858   1.867   2.240 -0.6031  1.2498  1.6464
 6148SOL     OW30079   0.423   4.614  12.195  0.0488  0.1720 -0.4901
 6148SOL    HW130080   0.430   4.681  12.263 -1.9935 -0.3592  0.2760
 6148SOL    HW230081   0.496   4.649  12.145 -1.2917 -1.1142 -3.3345
 6149SOL     OW30082   3.288   1.498   2.104 -0.4518 -0.1952  0.0593
 6149SOL    HW130083   3.347   1.533   2.171 -1.3030  0.8479  0.2855
 6149SOL    HW230084   3.205   1.534   2.137 -0.7970 -0.3233 -0.6641
 6150SOL     OW30085   0.794   1.915  13.380 -0.0941  0.6290  0.2468
 6150SOL    HW130086   0.758   1.836  13.339 -2.4093  1.4728  0.6919
 6150SOL    HW230087   0.751   1.898  13.464  1.2163  0.4343  0.8838
 6151SOL     OW30088   3.280   0.650  11.289 -0.1935 -0.0080 -0.2745
 6151SOL    HW130089   3.275   0.559  11.317 -1.3850  0.2355  0.2902
 6151SOL    HW230090   3.202   0.671  11.238 -0.5170 -3.6560 -1.2697
 6152SOL     OW30091   0.913   1.676  11.816 -0.0685 -0.4084 -0.2731
 6152SOL    HW130092   0.916   1.595  11.764 -0.7921  0.5022 -1.7345
 6152SOL    HW230093   0.988   1.720  11.775 -0.3473 -0.3871 -0.7646
 6153SOL     OW30094   1.558   3.197  16.217  0.5659 -0.1104  0.5715
 6153SOL    HW130095   1.624   3.200  16.148  1.7736 -1.5247  1.6641
 6153SOL    HW230096   1.540   3.104  16.202  1.2922 -0.6981  3.4208
 6154SOL     OW30097   4.427   0.109  14.783  0.0652 -0.8827 -0.1382
 6154SOL    HW130098   4.501   0.107  14.844 -0.8772  0.6228  1.0495
 6154SOL    HW230099   4.442   0.188  14.732  0.6730  0.1494  1.6151
 6155SOL     OW30100   0.037   3.675   2.104  0.3703  0.1927 -0.1311
 6155SOL    HW130101   4.692   3.652   2.142  0.7767 -1.2730 -0.1327
 6155SOL    HW230102   0.089   3.708   2.178  1.0526  0.4455 -0.7267
 6156SOL     OW30103   3.456   1.932  12.607 -0.3844  0.3472 -0.2601
 6156SOL    HW130104   3.498   2.007  12.565 -1.1214  0.1850 -1.3114
 6156SOL    HW230105   3.522   1.863  12.605 -2.6047 -1.7735 -0.6047
 6157SOL     OW30106   2.224   1.293  15.329 -0.5268 -0.0822 -0.2734
 6157SOL    HW130107   2.278   1.220  15.358  0.6638  0.2113 -1.7619
 6157SOL    HW230108   2.276   1.351  15.384  0.1455 -1.3471  0.4300
 6158SOL     OW30109   3.369   4.433   6.501  0.3984  0.1962 -0.5398
 6158SOL    HW130110   3.420   4.447   6.581 -0.8223  0.7084  0.1448
 6158SOL    HW230111   3.374   4.337   6.502  1.0659  0.2323 -0.0099
 6159SOL     OW30112   1.647   3.459   3.877 -0.3002 -0.8102  0.4488
 6159SOL    HW130113   1.580   3.448   3.944 -2.6830 -0.0981 -1.8449
 6159SOL    HW230114   1.721   3.489   3.930 -1.1095 -1.2425  1.8031
 6160SOL     OW30115   4.559   1.886   1.401  0.2494  0.3313 -0.5237
 6160SOL    HW130116   4.631   1.837   1.361 -2.2105 -2.3244 -1.6640
 6160SOL    HW230117   4.489   1.822   1.395 -0.5210  1.1527 -0.3971
 6161SOL     OW30118   3.114   4.113   4.293  0.0745 -0.5435 -0.4619
 6161SOL    HW130119   3.061   4.183   4.330 -0.4973 -1.0766 -0.2669
 6161SOL    HW230120   3.193   4.163   4.276 -0.6740  0.9987  0.6596
 6162SOL     OW30121   3.301   3.569  14.683 -0.3218  0.2110 -0.3924
 6162SOL    HW130122   3.315   3.575  14.777  0.4633  0.6727 -0.5396
 6162SOL    HW230123   3.247   3.646  14.665  0.0075  0.3831 -0.6371
 6163SOL     OW30124   3.703   1.488   8.150  0.2137  0.2694  0.2689
 6163SOL    HW130125   3.623   1.541   8.157  1.2486  1.6238  1.9618
 6163SOL    HW230126   3.678   1.402   8.184 -2.2963  1.1310  0.6113
 6164SOL     OW30127   4.648   0.533   2.281 -0.0213  0.3666  0.3232
 6164SOL    HW130128   4.623   0.494   2.197  1.5848 -0.7377  0.3657
 6164SOL    HW230129   4.709   0.598   2.246 -0.2080  1.0831  1.3326
 6165SOL     OW30130   4.117   3.724  11.446  0.2386 -0.5187 -0.3267
 6165SOL    HW130131   4.052   3.666  11.408  0.0286 -0.9405  0.6861
 6165SOL    HW230132   4.062   3.802  11.445  1.6745  0.5153  0.3312
 6166SOL     OW30133   1.317   3.301  17.655 -0.1494 -0.4736  0.0379
 6166SOL    HW130134   1.406   3.306  17.690  0.4866  0.9655 -1.7579
 6166SOL    HW230135   1.312   3.383  17.605  1.3327  0.2747  1.1220
 6167SOL     OW30136   2.113   3.816   0.324 -0.1007 -0.4636  0.0920
 6167SOL    HW130137   2.123   3.909   0.304 -1.3717 -0.3948 -0.2026
 6167SOL    HW230138   2.020   3.807   0.346 -0.1141  1.6776  1.0063
 6168SOL     OW30139   3.135   1.148   6.400 -0.1000  0.4392  0.3144
 6168SOL    HW130140   3.094   1.062   6.412  0.6538 -0.2643 -1.9463
 6168SOL    HW230141   3.227   1.128   6.380 -0.4784 -0.2753 -0.7291
 6169SOL     OW30142   1.139   0.144   8.035  0.0767 -0.3829  0.2058
 6169SOL    HW130143   1.158   0.053   8.060 -0.1577 -0.1093  1.3962
 6169SOL    HW230144   1.048   0.128   8.008  0.6631 -4.3972  0.5138
 6170SOL     OW30145   2.984   0.348   9.541 -0.9475  0.0644  0.5663
 6170SOL    HW130146   2.983   0.319   9.632 -2.3021 -1.4249  0.0620
 6170SOL    HW230147   3.052   0.411   9.565 -1.1223  1.2507 -1.9979
 6171SOL     OW30148   2.790   0.219   6.351 -0.2285 -0.0607  0.5924
 6171SOL    HW130149   2.800   0.192   6.443 -0.2339 -0.9747  0.3218
 6171SOL    HW230150   2.695   0.210   6.344 -0.2049 -0.6578  1.0208
 6172SOL     OW30151   4.438   1.402   6.068  0.0209  0.3451  0.7903
 6172SOL    HW130152   4.359   1.385   6.118 -0.0337  1.0523  0.9441
 6172SOL    HW230153   4.415   1.458   5.994 -2.0857 -1.8585 -0.2072
 6173SOL     OW30154   0.255   2.518   0.049  0.2856  0.0827 -0.2534
 6173SOL    HW130155   0.191   2.589   0.061  0.9876  0.7708 -0.5772
 6173SOL    HW230156   0.333   2.572   0.047 -0.3107  1.0026  1.4321
 6174SOL     OW30157   4.601   4.484   2.783  0.0785 -0.4444 -0.1511
 6174SOL    HW130158   4.515   4.523   2.798 -0.2008 -0.5799 -1.3909
 6174SOL    HW230159   4.616   4.527   2.698  1.4837  1.4719  1.0632
 6175SOL     OW30160   4.419   3.530  11.175  0.0336 -0.4424 -0.6452
 6175SOL    HW130161   4.411   3.530  11.079  0.4566 -1.3434 -0.6800
 6175SOL    HW230162   4.452   3.443  11.193  1.0004 -0.2086 -1.2774
 6176SOL     OW30163   1.177   2.984   7.162  0.2807 -0.3613 -0.1170
 6176SOL    HW130164   1.128   3.050   7.114 -2.2974 -3.2248 -1.4148
 6176SOL    HW230165   1.261   3.027   7.177  0.4738 -0.2935 -1.4103
 6177SOL     OW30166   2.283   3.573  17.131 -0.3354  0.1770 -0.0951
 6177SOL    HW130167   2.217   3.568  17.200 -0.8155 -3.3107 -0.8038
 6177SOL    HW230168   2.350   3.524  17.179  0.6392  0.6622 -0.9569
 6178SOL     OW30169   4.003   1.623  13.903  0.2851 -0.0957 -0.1009
 6178SOL    HW130170   4.022   1.529  13.900 -0.0630 -0.1953  0.8938
 6178SOL    HW230171   3.924   1.637  13.851  1.2932 -0.8826 -1.8588
 6179SOL     OW30172   4.612   0.554  11.653  0.2333 -0.1302  1.2168
 6179SOL    HW130173   4.617   0.641  11.691  1.7625  1.4955 -2.6800
 6179SOL    HW230174   4.589   0.494  11.724  2.2060 -1.0321  1.0858
 6180SOL     OW30175   3.430   1.223   3.617  0.4270 -0.4785  0.1979
 6180SOL    HW130176   3.523   1.211   3.596 -0.0344 -1.7668 -1.1514
 6180SOL    HW230177   3.403   1.252   3.529 -0.1745 -1.6409 -0.0026
 6181SOL     OW30178   1.647   4.626   1.519 -0.4720 -0.2552 -0.2029
 6181SOL    HW130179   1.586   4.554   1.533 -0.2825 -0.2968  0.4021
 6181SOL    HW230180   1.590   4.700   1.538  0.9838  1.0061 -0.7076
 6182SOL     OW30181   2.397   1.410   4.580 -0.0859  0.6202  0.4131
 6182SOL    HW130182   2.321   1.429   4.636 -0.3786 -2.1214  0.9327
 6182SOL    HW230183   2.459   1.375   4.644 -1.3734 -1.0214  0.7748
 6183SOL     OW30184   1.179   1.242   4.315 -0.3459 -0.1754  0.3925
 6183SOL    HW130185   1.087   1.267   4.305 -0.6199 -0.8320  1.1789
 6183SOL    HW230186   1.218   1.287   4.241  0.6913 -0.2010  0.9280
 6184SOL     OW30187   1.822   0.398   2.891  0.2219  0.0103  0.4878
 6184SOL    HW130188   1.850   0.467   2.951  0.5059  0.5866 -0.3106
 6184SOL    HW230189   1.909   0.358   2.888 -0.9746 -2.5910  0.1192
 6185SOL     OW30190   1.834   4.562   4.239  0.9439 -0.3111  0.1931
 6185SOL    HW130191   1.904   4.601   4.291  1.4462 -0.6329 -0.2318
 6185SOL    HW230192   1.867   4.570   4.149 -1.0200 -1.0887 -0.5860
 6186SOL     OW30193   2.670   2.620   3.126  0.1528  0.2876  0.0077
 6186SOL    HW130194   2.576   2.635   3.117  0.4535  2.8279  1.0909
 6186SOL    HW230195   2.673   2.633   3.221 -2.1256  0.4216  0.0717
 6187SOL     OW30196   2.159   2.375  16.303 -0.7109 -0.7150  0.1465
 6187SOL    HW130197   2.240   2.417  16.276 -1.1709 -0.9696 -1.6160
 6187SOL    HW230198   2.181   2.375  16.397  2.1564  2.3014 -0.5098
 6188SOL     OW30199   2.116   3.759   5.751  0.2418 -0.5218  0.1548
 6188SOL    HW130200   2.046   3.748   5.816  0.3705  2.5695  0.8567
 6188SOL    HW230201   2.104   3.688   5.689 -0.4559 -0.8137  0.6175
 6189SOL     OW30202   0.866   4.696  11.823 -0.1659  0.2685  0.3769
 6189SOL    HW130203   0.958   4.700  11.794 -0.8228  0.9809 -1.5884
 6189SOL    HW230204   0.865   4.675  11.916  0.1459 -0.5921  0.1839
 6190SOL     OW30205   1.480   2.515   4.097  0.1445 -0.4725  0.0142
 6190SOL    HW130206   1.574   2.525   4.083  0.2061  0.0914  0.8620
 6190SOL    HW230207   1.441   2.591   4.053  1.1090  1.3144  2.2433
 6191SOL     OW30208   3.518   3.489  12.665  0.1801  0.6882  0.0572
 6191SOL    HW130209   3.582   3.542  12.618 -0.4663  1.9217  0.5507
 6191SOL    HW230210   3.581   3.426  12.698  0.7693  0.4495 -1.5320
 6192SOL     OW30211   1.621   1.125   5.537  0.2468 -0.3255 -0.0710
 6192SOL    HW130212   1.630   1.031   5.521 -0.8776 -0.5864  0.8335
 6192SOL    HW230213   1.670   1.133   5.619  0.4282 -1.5732 -0.0590
 6193SOL     OW30214   0.472   0.081   3.178  0.2207  0.2250  0.3287
 6193SOL    HW130215   0.528   0.037   3.114  0.9451  1.5108  0.0740
 6193SOL    HW230216   0.520   0.067   3.259  2.3594  1.8751 -0.6320
 6194SOL     OW30217   0.046   0.768   1.361  0.3732 -0.1828 -0.2777
 6194SOL    HW130218   0.105   0.752   1.287  1.1779  1.9293 -0.0908
 6194SOL    HW230219   0.032   0.681   1.397 -3.3597 -0.2130 -1.7468
 6195SOL     OW30220   1.037   0.434   7.986 -0.9269  0.3410  1.1913
 6195SOL    HW130221   1.015   0.482   8.067 -2.0717 -1.8817  2.2043
 6195SOL    HW230222   1.091   0.368   8.029  0.5374  0.8454  0.1194
 6196SOL     OW30223   0.642   1.367   6.547  0.0228  0.2650  0.3699
 6196SOL    HW130224   0.690   1.439   6.506  1.0439  0.9482  2.7652
 6196SOL    HW230225   0.696   1.296   6.512 -0.4885 -0.4219  0.9700
 6197SOL     OW30226   4.221   2.099   4.515 -0.2632  0.8595 -0.2069
 6197SOL    HW130227   4.173   2.039   4.573  1.8040  0.3240  0.9524
 6197SOL    HW230228   4.217   2.052   4.431  3.2969 -0.8619  0.5956
 6198SOL     OW30229   0.299   1.035   1.788  0.1356  0.1722  0.0656
 6198SOL    HW130230   0.232   1.103   1.792 -1.1358 -1.1045  0.8091
 6198SOL    HW230231   0.385   1.074   1.776  0.6040 -0.6403  0.8108
 6199SOL     OW30232   3.814   4.317   5.986 -0.3597  0.3087 -0.4049
 6199SOL    HW130233   3.722   4.308   5.962  0.1359 -0.8157 -1.8915
 6199SOL    HW230234   3.841   4.226   6.001  1.9815  0.8684 -1.1330
 6200SOL     OW30235   3.856   3.738   0.426  0.1197 -0.3212 -0.2304
 6200SOL    HW130236   3.857   3.800   0.498 -2.5735 -0.5135 -0.0243
 6200SOL    HW230237   3.762   3.743   0.404  0.2749  0.0376 -0.8237
 6201SOL     OW30238   0.316   2.879   0.766 -0.4400  0.3131  0.3076
 6201SOL    HW130239   0.287   2.969   0.752  1.7493  1.1589  1.1200
 6201SOL    HW230240   0.390   2.894   0.825  0.2396 -3.5855  0.4802
 6202SOL     OW30241   2.522   3.681   0.443 -0.1946 -0.1337 -0.6616
 6202SOL    HW130242   2.470   3.736   0.502  1.6287 -0.3751  1.1465
 6202SOL    HW230243   2.523   3.600   0.494 -0.5583 -0.9376 -1.9269
 6203SOL     OW30244   1.334   1.326   9.018 -0.0974 -0.1910 -0.4207
 6203SOL    HW130245   1.425   1.305   9.038  0.2544  2.3087  0.5336
 6203SOL    HW230246   1.296   1.241   8.995  1.4926 -0.8907 -0.4603
 6204SOL     OW30247   2.176   0.302   7.830  0.0422 -0.2586 -0.2157
 6204SOL    HW130248   2.140   0.316   7.743 -2.3209  0.2598  0.8496
 6204SOL    HW230249   2.158   0.387   7.871 -1.2009 -0.0209 -1.2761
 6205SOL     OW30250   4.085   4.223  16.235  0.0230  0.2824 -0.1340
 6205SOL    HW130251   4.074   4.317  16.250 -1.1212  0.5492 -2.6638
 6205SOL    HW230252   4.065   4.197  16.325 -0.4585  2.9688  0.5541
 6206SOL     OW30253   1.822   0.163   3.082 -0.1518 -0.7048 -0.1209
 6206SOL    HW130254   1.864   0.235   3.035  0.5683 -0.0679  1.5255
 6206SOL    HW230255   1.836   0.194   3.171  0.4052  1.5151 -1.0029
 6207SOL     OW30256   1.305   3.770   5.755  0.0026 -0.4041 -0.6305
 6207SOL    HW130257   1.249   3.704   5.795 -0.6752 -0.0091 -0.9197
 6207SOL    HW230258   1.360   3.800   5.827  0.9288 -3.1223 -0.2329
 6208SOL     OW30259   0.563   1.631   9.121 -0.2827 -0.4136  0.4217
 6208SOL    HW130260   0.656   1.637   9.144  0.0157 -0.3204 -0.7835
 6208SOL    HW230261   0.521   1.701   9.170  1.2262  0.9378 -0.2215
 6209SOL     OW30262   2.990   3.555  14.344 -0.4405 -0.3800 -0.0799
 6209SOL    HW130263   2.978   3.649  14.360  1.1769 -0.1837 -0.0402
 6209SOL    HW230264   2.947   3.516  14.420 -0.1941 -0.5666 -0.0359
 6210SOL     OW30265   0.953   1.599   8.657 -0.1010 -0.5101 -0.4021
 6210SOL    HW130266   0.973   1.591   8.564  3.2354 -1.1245  0.3624
 6210SOL    HW230267   1.033   1.568   8.699  0.1093 -1.4282 -1.4914
 6211SOL     OW30268   1.374   3.224  15.037  0.5242  0.1414 -0.1142
 6211SOL    HW130269   1.423   3.198  14.958  1.1543  0.4769  0.1708
 6211SOL    HW230270   1.419   3.170  15.103 -1.9074  0.9635  2.1802
 6212SOL     OW30271   3.351   1.560   8.205  0.2678 -0.2412 -0.4003
 6212SOL    HW130272   3.366   1.634   8.263 -0.7410  1.5838 -2.4556
 6212SOL    HW230273   3.376   1.614   8.130  0.1257 -0.2373 -0.4447
 6213SOL     OW30274   0.559   0.564   4.827 -0.5890 -0.0044  0.3997
 6213SOL    HW130275   0.522   0.483   4.863  2.0688 -1.7408 -0.7299
 6213SOL    HW230276   0.598   0.528   4.748  0.6125  0.2903  0.8539
 6214SOL     OW30277   0.241   4.708   4.979  0.0805 -0.4248 -0.0484
 6214SOL    HW130278   0.213   0.058   4.965  1.3458  0.2255  1.6746
 6214SOL    HW230279   0.323   4.695   4.930 -0.5452 -0.8751 -0.9609
 6215SOL     OW30280   3.434   0.878  13.528 -0.4362  0.2524 -0.1703
 6215SOL    HW130281   3.428   0.847  13.437 -0.1801 -0.4813  0.0658
 6215SOL    HW230282   3.363   0.832  13.571 -0.3652 -0.7529 -1.1304
 6216SOL     OW30283   3.162   4.182   6.305  0.6919 -0.2516 -0.2747
 6216SOL    HW130284   3.139   4.153   6.393  0.7464 -1.4937 -0.6796
 6216SOL    HW230285   3.089   4.148   6.253 -0.0816 -1.8107  1.8370
 6217SOL     OW30286   4.172   4.206   5.846  0.1523  0.4609  0.1140
 6217SOL    HW130287   4.246   4.154   5.813  0.2747  0.8203 -0.1849
 6217SOL    HW230288   4.133   4.143   5.906  1.7930 -0.4448  0.2387
 6218SOL     OW30289   1.071   2.747   7.100  0.2217 -0.1058  0.6047
 6218SOL    HW130290   0.997   2.743   7.160 -0.4168 -4.3829 -0.5000
 6218SOL    HW230291   1.093   2.840   7.114 -1.4039  0.4521 -0.5529
 6219SOL     OW30292   3.268   1.039   5.693 -0.3221  0.5741 -0.2695
 6219SOL    HW130293   3.349   1.047   5.643 -0.3680  1.4204 -0.2072
 6219SOL    HW230294   3.242   1.129   5.710  1.5274  1.1324 -0.4630
 6220SOL     OW30295   1.821   2.818   9.253 -0.2236  0.0113  0.2020
 6220SOL    HW130296   1.897   2.819   9.311 -0.5548 -3.2125  0.6579
 6220SOL    HW230297   1.852   2.886   9.193 -0.1481 -0.4863 -0.3269
 6221SOL     OW30298   4.556   0.399   8.496  0.0586  0.3594 -0.2202
 6221SOL    HW130299   4.475   0.379   8.450 -0.3871  0.1539  0.6461
 6221SOL    HW230300   4.542   0.341   8.570 -0.9654  1.8839  0.7916
 6222SOL     OW30301   1.219   4.702   0.941 -0.3021  0.5514 -0.4795
 6222SOL    HW130302   1.198   0.030   0.876 -1.7020  1.0214  0.4619
 6222SOL    HW230303   1.255   4.635   0.883 -3.4231 -1.2010 -0.4161
 6223SOL     OW30304   4.051   2.586   3.686 -0.0629  0.3486 -0.0256
 6223SOL    HW130305   4.040   2.545   3.772 -1.3021  0.6524 -0.0372
 6223SOL    HW230306   4.146   2.587   3.680 -0.1518  1.3695 -1.3072
 6224SOL     OW30307   1.751   2.060   8.740 -0.1052  0.5067 -0.1527
 6224SOL    HW130308   1.684   2.094   8.799 -1.1099  3.6304 -3.0917
 6224SOL    HW230309   1.715   2.047   8.652  0.3055  1.8741 -0.5296
 6225SOL     OW30310   1.837   2.679   0.191 -0.2883  0.2379 -0.3866
 6225SOL    HW130311   1.838   2.634   0.106 -3.5089 -2.4860  1.0082
 6225SOL    HW230312   1.929   2.662   0.210 -1.0867 -0.1742  3.1276
 6226SOL     OW30313   4.556   0.092   3.779  0.3577 -0.5770  0.1782
 6226SOL    HW130314   4.627   0.028   3.772 -0.4775 -1.5492  0.5600
 6226SOL    HW230315   4.491   0.025   3.801  1.7333 -1.4433  1.6111
 6227SOL     OW30316   2.377   4.416  12.229 -0.0105  0.5214  0.4022
 6227SOL    HW130317   2.327   4.355  12.284 -1.9711  0.3971 -1.5034
 6227SOL    HW230318   2.329   4.498  12.242 -2.5240 -1.0183  1.0212
 6228SOL     OW30319   3.186   3.286   9.128 -0.2020 -0.2197  0.1168
 6228SOL    HW130320   3.136   3.364   9.151 -2.0438 -0.6727 -2.2736
 6228SOL    HW230321   3.124   3.215   9.146 -0.4584  0.2129  0.9281
 6229SOL     OW30322   2.382   1.287   3.019 -0.2952 -0.4561 -0.0520
 6229SOL    HW130323   2.420   1.283   3.107 -0.4941  2.5796  0.1652
 6229SOL    HW230324   2.436   1.227   2.968  0.8068  0.6599 -0.1818
 6230SOL     OW30325   1.730   0.763  12.603  0.0332  0.6302 -0.0222
 6230SOL    HW130326   1.695   0.705  12.536 -0.0480 -1.3664  1.7511
 6230SOL    HW230327   1.729   0.854  12.575 -0.8704  0.5198 -0.3465
 6231SOL     OW30328   4.050   0.453   5.735  0.0348 -0.5634  0.7182
 6231SOL    HW130329   4.050   0.415   5.823  2.3249 -0.5621  0.7305
 6231SOL    HW230330   4.141   0.477   5.718 -0.1684 -0.6058 -0.4339
 6232SOL     OW30331   2.787   4.467   4.692 -0.1967  0.4360 -0.1828
 6232SOL    HW130332   2.765   4.487   4.784  3.0928 -0.1358  0.7299
 6232SOL    HW230333   2.759   4.376   4.682 -0.1236  0.1783  1.7769
 6233SOL     OW30334   3.598   1.053   8.433 -0.5084  0.1535 -0.1053
 6233SOL    HW130335   3.523   1.108   8.458  0.6240  1.5647  0.1507
 6233SOL    HW230336   3.657   1.115   8.391  0.9337 -0.8711  0.4327
 6234SOL     OW30337   1.206   2.134   5.571 -0.2416 -0.3387 -0.5963
 6234SOL    HW130338   1.282   2.123   5.512  1.1696  0.4017  1.0910
 6234SOL    HW230339   1.153   2.069   5.524  1.4308 -1.0586 -1.5268
 6235SOL     OW30340   0.124   0.710   8.513  0.7169  0.3089  0.0122
 6235SOL    HW130341   0.134   0.720   8.608  1.6983  0.0136 -0.0664
 6235SOL    HW230342   0.185   0.770   8.471  0.4653  0.6209  0.0914
 6236SOL     OW30343   2.584   3.854   1.626 -0.0693 -0.6734 -1.2219
 6236SOL    HW130344   2.510   3.836   1.568 -1.9261 -0.0762  0.9737
 6236SOL    HW230345   2.552   3.935   1.666 -0.1384 -1.5753  0.5491
 6237SOL     OW30346   4.469   3.672   7.684 -0.3269  0.0650  0.2802
 6237SOL    HW130347   4.482   3.765   7.664 -0.0611  0.5634  2.6560
 6237SOL    HW230348   4.535   3.654   7.751  0.4099 -0.0678 -0.4918
 6238SOL     OW30349   1.890   0.986   4.330  0.1425 -0.4715 -0.0443
 6238SOL    HW130350   1.942   0.947   4.260 -1.4767 -1.2637 -0.8030
 6238SOL    HW230351   1.848   0.909   4.368  0.0650 -0.6173 -0.4332
 6239SOL     OW30352   2.185   3.124   9.118 -0.1884 -0.5210  0.3525
 6239SOL    HW130353   2.196   3.159   9.029  1.4190 -0.3835  0.6107
 6239SOL    HW230354   2.249   3.053   9.109  1.0945  0.7883 -0.8455
 6240SOL     OW30355   0.776   3.412  16.993 -0.2798 -0.1349 -0.3181
 6240SOL    HW130356   0.751   3.369  16.911  0.9450 -0.1897 -0.6676
 6240SOL    HW230357   0.840   3.345  17.017  0.9704  1.1948  0.0989
 6241SOL     OW30358   4.489   1.006   9.201  0.2134 -0.0842  0.0909
 6241SOL    HW130359   4.572   1.051   9.217 -0.2243  1.4277 -1.9679
 6241SOL    HW230360   4.512   0.945   9.130 -1.3761 -0.5238 -0.0399
 6242SOL     OW30361   2.396   3.983   6.716 -0.3804  0.5092 -0.3241
 6242SOL    HW130362   2.368   4.069   6.687  1.9915  0.8666 -1.5311
 6242SOL    HW230363   2.470   4.012   6.770  0.2143 -0.2921 -0.6996
 6243SOL     OW30364   2.211   2.429   9.336 -0.2799 -0.1882  0.3052
 6243SOL    HW130365   2.295   2.383   9.332 -0.2670 -0.0613 -1.1026
 6243SOL    HW230366   2.237   2.500   9.277 -1.7477  2.0933  2.4426
 6244SOL     OW30367   0.062   2.433   2.322  0.3214 -0.7287  0.5428
 6244SOL    HW130368   0.132   2.491   2.292  0.2319 -0.3755  1.0201
 6244SOL    HW230369   0.026   2.402   2.239  0.4524  0.2087  0.1347
 6245SOL     OW30370   3.037   1.866  17.351  0.0444  0.0503 -0.2232
 6245SOL    HW130371   3.090   1.841  17.276  0.1856  0.7495 -0.3621
 6245SOL    HW230372   2.964   1.922  17.322 -0.6861 -0.0443  1.4111
 6246SOL     OW30373   3.534   4.724   7.529 -0.2785  0.3186 -0.4834
 6246SOL    HW130374   3.468   0.021   7.470 -0.5499  0.7819  0.1123
 6246SOL    HW230375   3.468   4.698   7.593 -0.0509 -1.0684 -0.8253
 6247SOL     OW30376   4.210   2.777  11.755 -0.4753 -0.3693  0.0559
 6247SOL    HW130377   4.290   2.793  11.804 -0.4451 -0.8560  0.1626
 6247SOL    HW230378   4.191   2.864  11.720  0.1954 -0.6589 -1.0115
 6248SOL     OW30379   4.648   4.179   7.620 -0.8685 -0.3639  0.1574
 6248SOL    HW130380   4.654   4.255   7.677 -1.3118 -0.3331  0.1603
 6248SOL    HW230381   4.676   4.219   7.537  0.7671 -1.6371  0.0763
 6249SOL     OW30382   3.919   2.044   2.463  0.4370  0.3604  0.2062
 6249SOL    HW130383   3.972   2.096   2.403 -0.9629  1.0749 -0.4107
 6249SOL    HW230384   3.901   2.109   2.531  3.3788  0.8317  0.5400
 6250SOL     OW30385   4.701   0.535   3.988  0.0626  0.0852  0.2300
 6250SOL    HW130386   0.031   0.591   3.954  1.8040 -2.9902 -1.2577
 6250SOL    HW230387   4.683   0.563   4.078  1.3470 -0.9270  0.8025
 6251SOL     OW30388   3.018   2.083  11.341  0.2332  0.0654 -0.1069
 6251SOL    HW130389   3.027   1.996  11.380 -0.1891  0.3741  0.6756
 6251SOL    HW230390   3.071   2.061  11.265  0.2655 -1.3912  0.3469
 6252SOL     OW30391   3.903   1.017   2.115  0.4432  0.3030  0.7906
 6252SOL    HW130392   3.841   1.076   2.159 -1.0452 -0.8593  0.2414
 6252SOL    HW230393   3.852   0.937   2.126  1.8465 -0.8810 -1.4617
 6253SOL     OW30394   0.577   0.060   5.487 -0.1364  0.3092 -0.7861
 6253SOL    HW130395   0.565   0.047   5.393 -1.0405 -0.4747 -0.5598
 6253SOL    HW230396   0.547   0.150   5.503  0.4186  0.2800  0.3740
 6254SOL     OW30397   3.732   2.360   9.213 -0.5625  0.0910 -0.1159
 6254SOL    HW130398   3.651   2.377   9.166 -0.3660  4.0862  0.9541
 6254SOL    HW230399   3.778   2.308   9.147 -1.3639 -1.2963  0.4215
 6255SOL     OW30400   0.292   4.094   6.881  0.2664 -0.0257  1.0670
 6255SOL    HW130401   0.369   4.087   6.938  1.1604 -1.8633 -0.3810
 6255SOL    HW230402   0.240   4.018   6.906  0.6650 -0.1814  1.4448
 6256SOL     OW30403   2.984   3.256   8.169 -0.0199 -0.1158  0.4976
 6256SOL    HW130404   2.945   3.209   8.243  2.5292 -2.0640  0.5813
 6256SOL    HW230405   2.933   3.337   8.165  0.5349  0.0953 -2.1003
 6257SOL     OW30406   2.962   1.055   3.334  0.0866 -0.2911  0.2096
 6257SOL    HW130407   3.057   1.046   3.329  0.1117 -0.9432  1.8341
 6257SOL    HW230408   2.936   0.966   3.356  0.2180 -0.6025 -0.8965
 6258SOL     OW30409   4.395   3.110   3.541 -0.9242  0.1519 -0.2950
 6258SOL    HW130410   4.359   3.093   3.454  1.0049 -0.4378 -0.9721
 6258SOL    HW230411   4.487   3.130   3.528 -0.8741 -0.4763 -0.8825
 6259SOL     OW30412   0.671   3.776   3.329 -0.0500 -0.4795  0.5932
 6259SOL    HW130413   0.646   3.795   3.419 -1.3693  1.9063 -0.2915
 6259SOL    HW230414   0.666   3.681   3.323 -0.3340 -0.3290 -1.3953
 6260SOL     OW30415   2.026   3.257  16.995 -0.3895 -0.5499  0.0518
 6260SOL    HW130416   2.082   3.199  17.047  0.7369  1.6755  1.2842
 6260SOL    HW230417   1.948   3.201  16.990 -0.6925  0.0589 -1.9508
 6261SOL     OW30418   0.668   0.785   6.086 -0.3181  0.4385  0.0685
 6261SOL    HW130419   0.610   0.811   6.015 -1.0856 -1.9144 -0.1746
 6261SOL    HW230420   0.710   0.708   6.047 -0.6102 -1.3401  3.2816
 6262SOL     OW30421   1.089   1.428   9.204 -0.3922  0.4186  0.1502
 6262SOL    HW130422   1.055   1.367   9.139 -0.0427  2.3190 -1.8386
 6262SOL    HW230423   1.082   1.508   9.151  1.0772 -0.3632 -1.2574
 6263SOL     OW30424   3.693   0.407   4.445  0.1767  0.3385  0.0025
 6263SOL    HW130425   3.737   0.387   4.362  1.1147 -0.0720  0.6036
 6263SOL    HW230426   3.757   0.469   4.479  1.5192 -0.6233 -0.7716
 6264SOL     OW30427   0.182   3.584   0.850 -0.2073  0.2136 -0.4954
 6264SOL    HW130428   0.095   3.546   0.850 -0.6231  1.1735 -2.4819
 6264SOL    HW230429   0.238   3.525   0.901  1.7691  1.1294 -1.5927
 6265SOL     OW30430   0.932   0.629   0.455 -0.0633  0.1606  0.1488
 6265SOL    HW130431   0.973   0.668   0.532  1.6650 -0.5984 -0.3810
 6265SOL    HW230432   0.876   0.696   0.417  0.0953 -0.4934 -1.2469
 6266SOL     OW30433   2.850   3.300   4.041  0.0659 -0.3200  0.1213
 6266SOL    HW130434   2.901   3.372   4.078  0.8622 -2.0500  2.3516
 6266SOL    HW230435   2.877   3.223   4.090 -1.1891  0.5302  2.1461
 6267SOL     OW30436   0.978   0.460   7.364  0.0019  0.0087 -0.2243
 6267SOL    HW130437   1.029   0.527   7.410  0.8552 -1.2630  0.6716
 6267SOL    HW230438   0.890   0.500   7.363  0.1137  0.2688  0.2461
 6268SOL     OW30439   0.900   4.322   7.834 -1.2220 -0.1827  0.2050
 6268SOL    HW130440   0.910   4.243   7.781  1.9928 -0.1887  0.7744
 6268SOL    HW230441   0.951   4.382   7.778  0.6042 -1.6745  0.2508
 6269SOL     OW30442   1.628   2.719  15.730  0.3850  0.0406 -0.8990
 6269SOL    HW130443   1.580   2.636  15.735  1.0865 -0.2852  0.3073
 6269SOL    HW230444   1.552   2.777  15.728 -0.5274 -1.0716  1.3637
 6270SOL     OW30445   3.639   2.003   2.497  0.1249  0.3719  0.0190
 6270SOL    HW130446   3.734   2.012   2.504  0.0070  0.9925  0.8259
 6270SOL    HW230447   3.628   1.947   2.575  0.9732 -0.6084 -0.5659
 6271SOL     OW30448   4.704   3.240   5.222  0.2630  0.0494 -0.1165
 6271SOL    HW130449   4.678   3.203   5.138 -2.1139 -1.4371  1.2953
 6271SOL    HW230450   4.664   3.178   5.283 -0.2089 -1.4179 -1.9277
 6272SOL     OW30451   3.065   2.172   7.044 -0.4234  0.3545  0.3839
 6272SOL    HW130452   3.151   2.138   7.068 -0.6737 -1.1577 -0.8761
 6272SOL    HW230453   3.007   2.097   7.058 -0.8902  0.4740 -0.9677
 6273SOL     OW30454   2.600   1.320   2.706  0.6130 -0.4808 -0.0116
 6273SOL    HW130455   2.590   1.250   2.770  1.3318 -0.3864  0.1992
 6273SOL    HW230456   2.619   1.266   2.629 -1.9270  0.8038 -1.5673
 6274SOL     OW30457   3.909   4.573  13.839  0.2265  0.7780 -0.1364
 6274SOL    HW130458   3.869   4.506  13.783 -0.6482 -0.0781  1.5057
 6274SOL    HW230459   4.001   4.545  13.838  0.1985  0.7199 -0.7450
 6275SOL     OW30460   1.067   3.287   1.109  0.1482  0.2339  0.4697
 6275SOL    HW130461   1.035   3.375   1.127 -0.0098 -0.0588  1.6323
 6275SOL    HW230462   1.102   3.253   1.191 -0.7661 -1.5308  0.1361
 6276SOL     OW30463   3.007   0.981   7.011  0.1482 -0.0637 -0.4414
 6276SOL    HW130464   2.945   1.025   7.069  0.6241  0.8438 -0.6152
 6276SOL    HW230465   2.997   1.024   6.926 -0.6551  1.9200  0.6465
 6277SOL     OW30466   4.563   1.080   9.981  0.1414 -0.4007  0.7507
 6277SOL    HW130467   4.469   1.099   9.983  0.3981  1.1238 -1.2785
 6277SOL    HW230468   4.563   1.036   9.895  1.3671 -0.2071  0.6512
 6278SOL     OW30469   1.451   4.295   1.836  0.3758 -0.4481 -0.4345
 6278SOL    HW130470   1.518   4.291   1.904  0.6606  1.6200 -0.6045
 6278SOL    HW230471   1.381   4.236   1.865 -0.1776  0.6012  0.3448
 6279SOL     OW30472   1.161   3.803   9.296 -0.2594  0.0752  0.4478
 6279SOL    HW130473   1.144   3.730   9.356 -1.5299  1.3652  1.6467
 6279SOL    HW230474   1.210   3.749   9.234 -0.2425 -1.5994  1.9209
 6280SOL     OW30475   4.368   3.256   4.415  0.2632 -0.2771 -0.2893
 6280SOL    HW130476   4.320   3.173   4.407  2.3831 -1.6321  1.0682
 6280SOL    HW230477   4.362   3.272   4.509 -0.1450 -0.4044 -0.2914
 6281SOL     OW30478   4.030   4.248  11.139  0.3184  0.2605 -0.5012
 6281SOL    HW130479   4.046   4.198  11.219  0.4206 -0.3779 -0.9216
 6281SOL    HW230480   3.942   4.223  11.111  0.7688 -0.5292 -1.1928
 6282SOL     OW30481   2.227   4.064  17.398 -0.4826  0.3841  0.6847
 6282SOL    HW130482   2.269   4.005  17.460  0.4633 -0.1396 -0.4618
 6282SOL    HW230483   2.138   4.027  17.394  0.7819 -2.9435  2.8174
 6283SOL     OW30484   2.641   0.836  11.173 -0.2299 -0.2771  0.5180
 6283SOL    HW130485   2.589   0.916  11.176  0.9880  0.5011  0.7067
 6283SOL    HW230486   2.604   0.786  11.100 -1.4661 -2.9459  2.9491
 6284SOL     OW30487   1.440   0.044   7.404  0.1611  0.3772  0.5438
 6284SOL    HW130488   1.505   0.089   7.349 -0.7229  0.9424 -0.0421
 6284SOL    HW230489   1.369   0.107   7.419 -2.1607 -2.3192  0.7963
 6285SOL     OW30490   4.121   3.977   3.721 -0.7519 -0.2698 -0.2883
 6285SOL    HW130491   4.092   4.061   3.686  0.9509  0.3046 -0.3466
 6285SOL    HW230492   4.161   3.933   3.646 -0.3552 -0.8163  0.2413
 6286SOL     OW30493   4.307   0.393   4.313 -0.4671 -0.0594  0.3985
 6286SOL    HW130494   4.214   0.412   4.297 -0.3863  0.4911  0.5656
 6286SOL    HW230495   4.321   0.403   4.407  0.0041 -0.7291  0.3951
 6287SOL     OW30496   2.508   0.745   8.022 -0.6783  0.3042 -0.1603
 6287SOL    HW130497   2.596   0.731   8.057 -0.4125 -0.3621 -1.1252
 6287SOL    HW230498   2.504   0.840   8.005  0.5705  0.2535 -0.7566
 6288SOL     OW30499   0.533   0.662   9.642  0.0588  0.3817 -0.1197
 6288SOL    HW130500   0.461   0.724   9.627 -0.4105 -1.2150 -4.3415
 6288SOL    HW230501   0.531   0.653   9.737  0.8248 -0.0658 -0.1439
 6289SOL     OW30502   1.670   1.107   6.028 -0.7624 -1.0793  0.3460
 6289SOL    HW130503   1.680   1.200   6.051 -0.0683 -1.3377  1.1061
 6289SOL    HW230504   1.596   1.108   5.968  2.1010  3.5800 -3.1224
 6290SOL     OW30505   0.100   3.567   4.330  0.5264 -0.1005 -0.6312
 6290SOL    HW130506   0.194   3.585   4.332  0.7541 -1.3254 -0.1087
 6290SOL    HW230507   0.087   3.492   4.389 -0.3499  0.5454 -0.0061
 6291SOL     OW30508   0.515   4.187   8.911 -0.0827 -0.0888  0.1234
 6291SOL    HW130509   0.423   4.213   8.913 -0.1097 -0.0412 -1.5719
 6291SOL    HW230510   0.507   4.106   8.861  0.5654 -0.2490  0.2775
 6292SOL     OW30511   1.930   2.923   5.966  0.2095 -0.4062 -0.2121
 6292SOL    HW130512   1.979   3.004   5.980  0.2289 -0.9905  3.2397
 6292SOL    HW230513   1.906   2.885   6.051 -0.9015  1.5672  0.3529
 6293SOL     OW30514   0.101   3.513   9.870  0.0523 -0.3723  0.0284
 6293SOL    HW130515   0.065   3.424   9.866  0.1610 -0.4428  0.6028
 6293SOL    HW230516   0.063   3.543   9.788 -0.4896  0.3514  0.5422
 6294SOL     OW30517   3.609   3.478   2.070 -0.1047 -0.1418 -0.0034
 6294SOL    HW130518   3.686   3.459   2.017  1.0624  2.0060  0.9280
 6294SOL    HW230519   3.543   3.419   2.033  1.2010 -0.8950 -1.0837
 6295SOL     OW30520   1.150   2.546   3.616  0.5057  0.1252 -0.2307
 6295SOL    HW130521   1.162   2.500   3.532  3.3905 -0.2112  0.3832
 6295SOL    HW230522   1.071   2.594   3.593  0.1140 -1.3233 -1.9448
 6296SOL     OW30523   3.349   3.298  17.175 -0.1603 -0.2400  0.3225
 6296SOL    HW130524   3.440   3.302  17.145  0.1043 -1.1873  1.0020
 6296SOL    HW230525   3.313   3.245  17.103  1.2502  0.1778 -0.6845
 6297SOL     OW30526   2.532   4.470   2.766 -0.1838 -0.2754  0.2369
 6297SOL    HW130527   2.513   4.376   2.765 -0.8828 -0.1285 -0.3424
 6297SOL    HW230528   2.627   4.468   2.763 -0.2656  0.5022 -2.8589
 6298SOL     OW30529   3.840   0.973   7.461 -0.4085 -0.4652  0.0153
 6298SOL    HW130530   3.800   0.899   7.415 -1.2192 -0.9027  1.4208
 6298SOL    HW230531   3.766   1.032   7.446  0.6341  1.2499  1.5336
 6299SOL     OW30532   4.304   0.411   0.429 -0.7503 -0.3509 -0.2801
 6299SOL    HW130533   4.264   0.389   0.513  0.2925  3.0348  1.0840
 6299SOL    HW230534   4.364   0.480   0.455 -0.1608 -1.4701  1.3032
 6300SOL     OW30535   2.833   3.757   9.319  0.2531  0.3831 -0.3078
 6300SOL    HW130536   2.803   3.723   9.403  1.4922  1.0374  0.3949
 6300SOL    HW230537   2.854   3.845   9.349 -0.5312  0.0212  1.2969
 6301SOL     OW30538   2.014   3.480   5.823 -0.0616  0.6150 -0.4715
 6301SOL    HW130539   1.935   3.438   5.790  0.1701  0.6380 -1.0529
 6301SOL    HW230540   1.981   3.564   5.856  0.8575 -0.2481  2.6610
 6302SOL     OW30541   3.157   2.955   2.496  0.0557  1.0170 -0.1971
 6302SOL    HW130542   3.216   2.889   2.531 -0.8124  1.0599  1.3594
 6302SOL    HW230543   3.072   2.930   2.532  1.2055  0.1966  1.9849
 6303SOL     OW30544   3.341   0.659   8.515  0.3379 -0.6771 -0.0405
 6303SOL    HW130545   3.368   0.733   8.461 -0.5450 -1.7087 -1.8811
 6303SOL    HW230546   3.414   0.605   8.486  0.9484  0.0405  0.1766
 6304SOL     OW30547   3.133   0.278   8.772 -0.2955  0.4856 -0.5962
 6304SOL    HW130548   3.203   0.299   8.710  1.0573  0.7393  1.0156
 6304SOL    HW230549   3.075   0.353   8.759  0.3082  1.1536  0.5036
 6305SOL     OW30550   2.438   3.171   5.857  0.1696  0.7559 -0.0389
 6305SOL    HW130551   2.348   3.205   5.860 -0.3101 -0.6110  1.0214
 6305SOL    HW230552   2.455   3.181   5.950  0.2764 -0.4196  0.0688
 6306SOL     OW30553   2.236   2.451  17.526  0.4262 -0.2425 -0.4827
 6306SOL    HW130554   2.232   2.380  17.462  2.0766 -1.4189  0.7156
 6306SOL    HW230555   2.204   2.413  17.608  0.7574 -0.1629 -0.3162
 6307SOL     OW30556   0.415   3.604   7.560  0.2330  0.1048  0.0243
 6307SOL    HW130557   0.470   3.561   7.626 -0.3357  0.9767  1.0803
 6307SOL    HW230558   0.472   3.599   7.484  0.9455 -3.6610  0.8224
 6308SOL     OW30559   3.720   1.659  16.345  0.5874 -0.2000 -0.6563
 6308SOL    HW130560   3.745   1.590  16.407 -0.1359  1.3813  1.4112
 6308SOL    HW230561   3.733   1.620  16.259  4.8157 -0.8212  0.2766
 6309SOL     OW30562   1.619   3.447  10.415  0.3012  0.5419  0.1335
 6309SOL    HW130563   1.601   3.537  10.391 -1.4800  0.1194 -0.1245
 6309SOL    HW230564   1.539   3.439  10.468 -0.2117  1.8323 -0.4554
 6310SOL     OW30565   4.508   0.607  10.053 -0.5099  0.4986 -0.3446
 6310SOL    HW130566   4.561   0.582   9.977  1.6493  0.5895  1.1265
 6310SOL    HW230567   4.568   0.674  10.087  1.4057 -0.7779 -1.2041
 6311SOL     OW30568   4.571   0.797   7.263 -0.2133 -0.4092 -0.4850
 6311SOL    HW130569   4.492   0.851   7.257  1.3344  1.8020 -0.5501
 6311SOL    HW230570   4.530   0.732   7.320 -1.2821  1.6570  1.0904
 6312SOL     OW30571   4.635   1.322   8.122  0.4411  0.0904 -0.0512
 6312SOL    HW130572   4.584   1.402   8.137 -1.1391 -0.2997 -3.3490
 6312SOL    HW230573   4.723   1.361   8.114  0.2597  0.4697 -0.1884
 6313SOL     OW30574   3.344   2.015  15.887 -0.5027 -0.0719 -0.0293
 6313SOL    HW130575   3.291   2.061  15.952  0.4884  0.6713  0.2375
 6313SOL    HW230576   3.427   2.010  15.934 -1.6234  2.0263  2.2022
 6314SOL     OW30577   4.137   4.332   0.866 -0.2643 -0.5678  0.1193
 6314SOL    HW130578   4.220   4.289   0.844 -0.9316 -1.7422 -0.1011
 6314SOL    HW230579   4.156   4.425   0.851  1.1126 -0.7682  0.6647
 6315SOL     OW30580   3.239   4.363  17.286  0.6069 -0.7700 -0.4121
 6315SOL    HW130581   3.305   4.364  17.355 -0.0598 -1.2170  0.2436
 6315SOL    HW230582   3.220   4.269  17.288 -2.8594 -0.0942 -1.2359
 6316SOL     OW30583   2.688   2.069  12.127 -0.1588  0.1238  0.4694
 6316SOL    HW130584   2.781   2.092  12.125  0.3100 -1.5787  2.0021
 6316SOL    HW230585   2.665   2.036  12.040 -0.8835  0.7731  0.4168
 6317SOL     OW30586   0.989   1.559   5.945  0.2489 -0.1415 -0.1665
 6317SOL    HW130587   0.969   1.635   5.999  2.3646  0.6874 -0.5250
 6317SOL    HW230588   1.053   1.523   6.007 -1.1436 -0.8929  0.8288
 6318SOL     OW30589   3.409   1.640   4.172  0.1575  0.2916 -0.0218
 6318SOL    HW130590   3.430   1.714   4.116  0.0207 -0.9337 -1.7141
 6318SOL    HW230591   3.370   1.680   4.250 -0.2419  1.4256 -0.8093
 6319SOL     OW30592   1.208   1.940   6.745 -0.4254  0.0630  0.7361
 6319SOL    HW130593   1.143   1.873   6.762 -0.9481 -0.8004 -4.6098
 6319SOL    HW230594   1.170   2.013   6.795 -0.7879  1.3073 -1.3511
 6320SOL     OW30595   2.351   3.959   0.524 -0.0488  0.3546  0.2561
 6320SOL    HW130596   2.423   4.020   0.508  1.9799 -2.3890 -1.0237
 6320SOL    HW230597   2.286   4.005   0.469  1.9489  2.6629 -0.1698
 6321SOL     OW30598   3.133   1.980  16.807 -0.9698  0.1161 -0.2701
 6321SOL    HW130599   3.142   1.958  16.715 -0.7033 -2.7757  0.4452
 6321SOL    HW230600   3.056   2.037  16.802 -0.1778  1.0319 -2.0261
 6322SOL     OW30601   1.251   4.105   1.465  0.3756  0.0887 -0.2047
 6322SOL    HW130602   1.334   4.127   1.422  0.9690 -0.1347  0.8305
 6322SOL    HW230603   1.191   4.139   1.399  1.1642 -2.3525 -2.1763
 6323SOL     OW30604   3.777   1.925   8.041 -0.1357 -0.3877  0.0849
 6323SOL    HW130605   3.838   1.935   8.114 -1.1941 -0.1737  0.9288
 6323SOL    HW230606   3.712   1.989   8.068 -0.6311 -0.6935 -0.3741
 6324SOL     OW30607   0.434   1.467  12.277 -0.2565 -0.2183 -0.4186
 6324SOL    HW130608   0.470   1.381  12.297 -2.8639 -0.7326  2.1405
 6324SOL    HW230609   0.358   1.433  12.230 -1.5943 -2.1373  3.1385
 6325SOL     OW30610   0.737   4.557  13.751 -0.7944  0.2825 -0.1781
 6325SOL    HW130611   0.730   4.603  13.667 -1.6144  1.2684  0.4334
 6325SOL    HW230612   0.662   4.604  13.788 -0.8207 -0.5594  0.8272
 6326SOL     OW30613   1.450   1.924   6.939  0.4704 -0.7404  0.3988
 6326SOL    HW130614   1.399   1.874   7.003  0.3184  1.2361  1.8228
 6326SOL    HW230615   1.402   1.907   6.858  0.3085  1.2954  0.0683
 6327SOL     OW30616   2.367   2.893   2.595 -0.9440  0.5043  0.2113
 6327SOL    HW130617   2.277   2.862   2.602 -0.9118  0.2811 -0.3152
 6327SOL    HW230618   2.349   2.987   2.600 -0.6652  0.4722  1.7543
 6328SOL     OW30619   1.165   1.498  10.144  0.0745 -0.0959 -0.1929
 6328SOL    HW130620   1.117   1.533  10.219  1.0971  0.9886 -0.0439
 6328SOL    HW230621   1.217   1.426  10.180  0.1605  1.0274  1.8940
 6329SOL     OW30622   2.251   2.777  16.653 -0.0235 -0.1251 -0.0464
 6329SOL    HW130623   2.261   2.860  16.605  1.9293 -1.2823 -1.6556
 6329SOL    HW230624   2.284   2.803  16.738 -1.8542 -0.6183  0.8197
 6330SOL     OW30625   3.904   1.165   4.550 -0.1879 -0.4423 -0.2716
 6330SOL    HW130626   3.847   1.241   4.556  1.4285  0.6100  1.8682
 6330SOL    HW230627   3.852   1.098   4.594 -1.1115  1.9043  2.2174
 6331SOL     OW30628   4.377   4.363   8.956  0.1659  0.2782 -0.0284
 6331SOL    HW130629   4.379   4.268   8.944  0.3030  0.1397  1.1092
 6331SOL    HW230630   4.395   4.393   8.867 -0.9235 -0.4848 -0.5109
 6332SOL     OW30631   3.597   0.818  15.435 -0.3262 -0.2959  0.0490
 6332SOL    HW130632   3.542   0.897  15.431 -1.5657 -1.0978  1.3148
 6332SOL    HW230633   3.543   0.750  15.396 -2.3881  0.6301  1.2743
 6333SOL     OW30634   4.721   1.375   9.782  0.3700  0.0567 -0.1497
 6333SOL    HW130635   4.706   1.337   9.695 -1.7546 -2.1314  1.1650
 6333SOL    HW230636   4.710   1.467   9.757  3.8222  0.4304 -0.2034
 6334SOL     OW30637   3.701   0.960   4.603 -0.1052 -0.2572  0.5403
 6334SOL    HW130638   3.670   0.884   4.554 -0.0180  0.2619 -0.3198
 6334SOL    HW230639   3.633   0.950   4.671 -1.8596 -0.5056 -1.2419
 6335SOL     OW30640   2.540   3.153   2.253 -0.0651 -0.2098 -0.3790
 6335SOL    HW130641   2.624   3.113   2.274  0.1794  0.0410 -0.8620
 6335SOL    HW230642   2.502   3.080   2.203 -0.6563 -1.0658  1.3335
 6336SOL     OW30643   3.572   3.858   4.237  0.1842 -0.4944 -0.0512
 6336SOL    HW130644   3.611   3.944   4.222 -0.6604  0.1655  1.5507
 6336SOL    HW230645   3.649   3.808   4.265  0.9579  1.7935  1.8799
 6337SOL     OW30646   1.586   0.683   8.077 -0.2223 -0.3808  0.2588
 6337SOL    HW130647   1.577   0.749   8.008 -0.0022 -0.5100  0.1047
 6337SOL    HW230648   1.520   0.619   8.051 -1.6065  0.2655  2.1963
 6338SOL     OW30649   3.777   0.549   3.632 -0.0334 -0.3654 -1.1553
 6338SOL    HW130650   3.717   0.484   3.595 -1.8002  1.0867 -0.8223
 6338SOL    HW230651   3.728   0.631   3.621  0.5356  0.3138  1.4084
 6339SOL     OW30652   1.166   1.124   1.422 -0.2674  0.1634 -0.2874
 6339SOL    HW130653   1.137   1.204   1.466 -0.6969  0.8318 -1.7767
 6339SOL    HW230654   1.257   1.120   1.454 -0.0334 -2.9388 -1.3848
 6340SOL     OW30655   0.265   4.025   5.320  0.1031 -0.0840 -0.0948
 6340SOL    HW130656   0.291   4.081   5.393 -3.6686  0.3189  0.9144
 6340SOL    HW230657   0.343   3.970   5.317  2.2004  2.9985 -1.2278
 6341SOL     OW30658   4.131   1.057   6.087  0.4934 -0.3359  0.0421
 6341SOL    HW130659   4.196   1.081   6.152  1.9589 -0.0730 -1.5042
 6341SOL    HW230660   4.059   1.119   6.094 -0.1236 -1.1520  0.8754
 6342SOL     OW30661   0.153   0.831   0.121 -0.0662  0.0779 -0.4032
 6342SOL    HW130662   0.199   0.761   0.167 -0.1286 -0.3435 -0.9794
 6342SOL    HW230663   0.137   0.793   0.034  1.0723  1.1906 -1.0926
 6343SOL     OW30664   0.812   2.064   6.410  0.0635  0.9506 -0.0809
 6343SOL    HW130665   0.896   2.081   6.453  0.8791 -0.4499 -1.1287
 6343SOL    HW230666   0.774   2.152   6.411 -0.7901  0.5742  0.3669
 6344SOL     OW30667   3.824   0.225   6.806 -0.3426 -0.0282 -0.4467
 6344SOL    HW130668   3.898   0.212   6.746  0.1426  1.7107 -0.2128
 6344SOL    HW230669   3.757   0.170   6.764 -0.2319 -2.1471  2.1467
 6345SOL     OW30670   2.550   2.572  17.345 -0.0887  0.1354  0.5756
 6345SOL    HW130671   2.636   2.581  17.386  0.0111  1.0860  0.1640
 6345SOL    HW230672   2.551   2.478  17.329 -0.1336  0.3254 -0.5479
 6346SOL     OW30673   4.341   3.101  12.298  0.2805  0.1600  0.0220
 6346SOL    HW130674   4.275   3.048  12.344  0.3480  0.8121  0.8701
 6346SOL    HW230675   4.355   3.163  12.369  3.6981 -1.0392  0.3732
 6347SOL     OW30676   2.894   2.737   9.043 -0.6929  0.2766 -0.8210
 6347SOL    HW130677   2.830   2.804   9.068 -1.0014 -1.2247  2.5046
 6347SOL    HW230678   2.982   2.767   9.067 -0.0810 -2.0957 -0.0695
 6348SOL     OW30679   2.795   4.411  13.314 -0.0622 -0.3158 -0.7820
 6348SOL    HW130680   2.867   4.411  13.250  0.3533 -1.0989 -0.3106
 6348SOL    HW230681   2.814   4.497  13.350  0.4739 -0.6501 -0.2689
 6349SOL     OW30682   3.336   1.518   5.002 -0.5526 -0.0027  0.0811
 6349SOL    HW130683   3.412   1.460   5.000 -1.2025 -0.8848  1.1710
 6349SOL    HW230684   3.387   1.599   4.999 -1.1827  0.3696 -0.5528
 6350SOL     OW30685   4.235   2.392   1.120  0.6129 -0.1821 -0.1520
 6350SOL    HW130686   4.288   2.408   1.042 -0.5567  2.0367 -0.4932
 6350SOL    HW230687   4.296   2.338   1.171  0.6316  0.3074  0.3405
 6351SOL     OW30688   1.148   2.858   1.815 -0.3192  0.2962 -0.5006
 6351SOL    HW130689   1.150   2.818   1.728 -1.2138  0.1419 -0.4522
 6351SOL    HW230690   1.067   2.815   1.842  0.0808 -1.3680 -1.9809
 6352SOL     OW30691   4.101   0.513  10.446  0.3043 -0.3736  0.5433
 6352SOL    HW130692   4.125   0.597  10.407 -0.9114 -1.5829 -2.8206
 6352SOL    HW230693   4.114   0.540  10.537  1.8286 -0.4379  0.3434
 6353SOL     OW30694   3.544   2.960  10.361  0.3579 -0.2019  0.5340
 6353SOL    HW130695   3.534   2.874  10.402  1.0928 -0.8434 -0.6193
 6353SOL    HW230696   3.639   2.962  10.344  0.3652  0.2763  0.6133
 6354SOL     OW30697   1.690   1.937   1.117 -0.3971 -0.5161 -0.1508
 6354SOL    HW130698   1.597   1.937   1.097 -0.0733 -3.4313 -1.6864
 6354SOL    HW230699   1.710   2.030   1.105  1.4553 -0.9361 -0.3394
 6355SOL     OW30700   0.183   0.380   0.368  0.0151 -0.1662 -0.6742
 6355SOL    HW130701   0.205   0.436   0.294  0.5198  0.2019 -0.2399
 6355SOL    HW230702   0.095   0.356   0.339  0.6478 -1.1094 -1.8236
 6356SOL     OW30703   1.470   2.623  16.447  0.4857 -0.0086  0.4992
 6356SOL    HW130704   1.411   2.632  16.522 -0.4161 -1.6994 -0.0291
 6356SOL    HW230705   1.428   2.558  16.392  0.4133 -0.6668  1.3315
 6357SOL     OW30706   1.947   2.727  15.258  0.2193 -0.0741  0.0832
 6357SOL    HW130707   1.951   2.719  15.163 -1.3106 -0.0444  0.0173
 6357SOL    HW230708   1.894   2.651  15.280 -1.0798  1.0481  0.8552
 6358SOL     OW30709   0.199   0.004   5.752 -0.3577 -0.1627 -0.8714
 6358SOL    HW130710   0.284   0.028   5.716  0.2117  0.3691  0.8195
 6358SOL    HW230711   0.234   4.725   5.840 -0.9785 -0.2372 -0.6380
 6359SOL     OW30712   4.275   4.282   6.554 -0.0501 -0.3000  0.3698
 6359SOL    HW130713   4.359   4.276   6.510 -1.8587  0.8780 -3.2554
 6359SOL    HW230714   4.240   4.347   6.493  0.0056  0.9190  1.6448
 6360SOL     OW30715   3.704   1.997   5.292 -0.8710 -0.6775 -0.8294
 6360SOL    HW130716   3.610   2.008   5.299 -0.8958 -2.3510  1.4810
 6360SOL    HW230717   3.720   1.903   5.298 -0.0833 -0.4173  1.2616
 6361SOL     OW30718   3.775   1.714   7.867  0.2564 -0.2470 -0.1312
 6361SOL    HW130719   3.787   1.793   7.919  1.7119 -0.0669 -0.7466
 6361SOL    HW230720   3.759   1.648   7.935 -0.5645 -1.5406 -1.5723
 6362SOL     OW30721   3.027   0.770   0.947  0.1183 -0.4077 -0.2272
 6362SOL    HW130722   2.946   0.754   0.898 -1.2492 -3.2120  2.9750
 6362SOL    HW230723   3.065   0.683   0.953 -0.3859 -0.5588  0.8111
 6363SOL     OW30724   3.652   1.397   2.279  0.7256  0.2149  0.4770
 6363SOL    HW130725   3.718   1.335   2.310 -0.5778 -0.1373  2.6000
 6363SOL    HW230726   3.699   1.438   2.207 -0.7304  0.3944 -0.3786
 6364SOL     OW30727   1.497   3.147  10.420  0.1324 -0.1630 -0.3202
 6364SOL    HW130728   1.477   3.234  10.455 -1.3858 -1.5664  2.3108
 6364SOL    HW230729   1.495   3.158  10.325 -0.2844  0.0593 -0.2843
 6365SOL     OW30730   2.628   4.566   0.979  0.2119  0.1933  0.3869
 6365SOL    HW130731   2.628   4.476   0.947  0.9222  0.6150 -0.7895
 6365SOL    HW230732   2.541   4.584   1.015  0.5350  2.1900  0.1631
 6366SOL     OW30733   3.309   4.061   8.200  0.1192  0.5144 -0.3861
 6366SOL    HW130734   3.320   4.094   8.288 -1.8779  1.0762 -0.3423
 6366SOL    HW230735   3.322   4.136   8.142 -0.4662 -1.2284 -2.8109
 6367SOL     OW30736   2.062   3.794   3.151 -1.0332  1.2512  0.0156
 6367SOL    HW130737   2.072   3.827   3.061  2.1463  0.5867  0.1337
 6367SOL    HW230738   2.109   3.860   3.202  0.7781  0.6063 -0.8176
 6368SOL     OW30739   0.949   1.166   7.220 -0.2257 -0.4718  0.6782
 6368SOL    HW130740   1.039   1.140   7.240 -0.9616 -3.9027 -0.4148
 6368SOL    HW230741   0.953   1.144   7.127  1.4215 -3.4930  1.4400
 6369SOL     OW30742   2.523   0.255   0.205 -0.1354  0.2608 -0.2374
 6369SOL    HW130743   2.457   0.307   0.251 -0.9332 -0.4688 -0.5567
 6369SOL    HW230744   2.600   0.275   0.258  0.3320 -0.0949 -0.7714
 6370SOL     OW30745   1.787   3.384   0.033  0.0015 -0.1278  0.3617
 6370SOL    HW130746   1.827   3.300   0.012 -2.3153 -1.0629 -0.3815
 6370SOL    HW230747   1.709   3.361  17.740 -0.6404  0.6527  1.0042
 6371SOL     OW30748   3.376   0.940   1.592 -0.2261  0.1754 -0.0908
 6371SOL    HW130749   3.379   0.952   1.687  0.9458 -0.1616 -0.0832
 6371SOL    HW230750   3.292   0.896   1.585 -0.0189 -0.2613  0.1691
 6372SOL     OW30751   1.897   0.028  12.964  0.6433 -0.1827 -0.1690
 6372SOL    HW130752   1.807   0.060  12.971  0.5707 -0.1469 -1.3035
 6372SOL    HW230753   1.889   4.699  12.897 -0.4227 -0.9090  0.6976
 6373SOL     OW30754   2.286   2.389  14.467 -0.3573  0.2907  0.2910
 6373SOL    HW130755   2.309   2.328  14.537 -0.8766 -1.1760 -0.8276
 6373SOL    HW230756   2.191   2.380  14.465 -0.2622 -0.8418  1.2278
 6374SOL     OW30757   4.580   1.688   2.582  0.2964  0.0144  0.5561
 6374SOL    HW130758   4.509   1.663   2.641 -0.9688  1.1044 -0.4948
 6374SOL    HW230759   4.650   1.699   2.646  1.0065 -0.5928 -0.1133
 6375SOL     OW30760   1.071   4.376   3.159 -0.1544  0.0086  0.2842
 6375SOL    HW130761   1.041   4.404   3.245  0.1801  2.7910 -0.5100
 6375SOL    HW230762   0.996   4.407   3.109  0.8881 -2.4870 -2.8129
 6376SOL     OW30763   3.224   0.376   7.010 -0.1661  0.0366  0.0212
 6376SOL    HW130764   3.163   0.437   7.052 -1.1520 -0.6084 -0.4697
 6376SOL    HW230765   3.306   0.404   7.050  0.8697 -1.5354 -1.0339
 6377SOL     OW30766   2.149   0.830  14.379  0.3530  0.3653 -0.5412
 6377SOL    HW130767   2.165   0.748  14.425  1.1212 -0.5201 -2.4048
 6377SOL    HW230768   2.167   0.887  14.453 -1.1447  2.0453 -1.4521
 6378SOL     OW30769   1.170   0.992   1.714  0.3855  0.2248  0.2959
 6378SOL    HW130770   1.078   1.014   1.702  0.4114 -0.4706 -1.2652
 6378SOL    HW230771   1.154   0.898   1.722 -0.1404  0.1998 -1.0109
 6379SOL     OW30772   4.230   3.632  10.462  0.1281 -0.3345  0.5707
 6379SOL    HW130773   4.262   3.720  10.440 -1.1304 -0.4716 -1.7746
 6379SOL    HW230774   4.173   3.660  10.534  3.6665  2.0599  2.4820
 6380SOL     OW30775   4.723   4.560   1.476  0.4600  0.4977 -0.3081
 6380SOL    HW130776   0.001   4.473   1.440 -0.0180 -0.5472  1.9881
 6380SOL    HW230777   0.037   4.614   1.418  1.4175 -1.2778 -1.0767
 6381SOL     OW30778   3.621   4.555  16.586 -0.1116 -1.3645 -0.0164
 6381SOL    HW130779   3.622   4.640  16.632  1.2281 -0.8527 -1.0165
 6381SOL    HW230780   3.711   4.570  16.558 -0.8650 -0.3860 -1.9100
 6382SOL     OW30781   3.090   0.090   7.762 -0.1513 -0.1942 -0.0325
 6382SOL    HW130782   3.073   0.040   7.842 -2.6294 -1.8365 -1.5721
 6382SOL    HW230783   3.071   0.180   7.791 -0.1643  0.1727 -1.1891
 6383SOL     OW30784   0.250   2.112   8.338 -0.3265  0.6662  0.4393
 6383SOL    HW130785   0.345   2.102   8.349 -0.1130  0.0369 -1.9745
 6383SOL    HW230786   0.252   2.190   8.282 -3.5840 -1.2071 -2.2516
 6384SOL     OW30787   0.944   0.724   5.027  0.6364  0.4345 -0.2436
 6384SOL    HW130788   0.934   0.716   4.933 -1.4203  0.1306  0.0044
 6384SOL    HW230789   0.992   0.807   5.031  0.4869  0.4501  1.6194
 6385SOL     OW30790   1.592   1.139   5.277  0.2489 -0.1230  0.2312
 6385SOL    HW130791   1.614   1.132   5.370  0.2735 -1.6121  0.1114
 6385SOL    HW230792   1.624   1.055   5.244 -1.6277  0.6708 -3.5974
 6386SOL     OW30793   4.176   1.909   7.956  0.3064  0.3469 -0.0707
 6386SOL    HW130794   4.131   1.834   7.995  0.9233  0.2815  0.5163
 6386SOL    HW230795   4.254   1.873   7.913 -0.3642  0.2150 -1.1927
 6387SOL     OW30796   4.719   4.156   8.914  0.0104  0.9441 -0.1458
 6387SOL    HW130797   0.003   4.103   8.839  1.1205 -0.1402  0.9707
 6387SOL    HW230798   4.703   4.238   8.867 -0.7660  1.8779  1.7247
 6388SOL     OW30799   0.034   4.052   7.896 -0.7159 -0.2801  0.5251
 6388SOL    HW130800   0.069   4.116   7.834  0.8972  0.6973  2.4231
 6388SOL    HW230801   4.704   4.103   7.938  0.9498  0.6778  2.1642
 6389SOL     OW30802   3.364   3.789   4.694 -0.3881 -0.2178  0.3055
 6389SOL    HW130803   3.288   3.832   4.655  0.5432  1.0423 -0.1272
 6389SOL    HW230804   3.403   3.865   4.737 -1.0716 -0.9955  2.2589
 6390SOL     OW30805   3.426   3.700   5.763 -0.1558  0.6550 -0.1073
 6390SOL    HW130806   3.453   3.617   5.802  0.1636  0.2643 -1.1577
 6390SOL    HW230807   3.512   3.742   5.751  0.6526 -0.5643  1.3312
 6391SOL     OW30808   4.230   2.267   1.787  1.1595 -0.4061  0.9613
 6391SOL    HW130809   4.310   2.239   1.743  0.4134 -0.6013 -0.2939
 6391SOL    HW230810   4.187   2.186   1.814  1.8986 -1.2638 -0.4268
 6392SOL     OW30811   4.005   0.673   6.743 -0.4167 -0.3087 -0.5278
 6392SOL    HW130812   3.989   0.582   6.718 -1.9614 -0.0000 -0.6421
 6392SOL    HW230813   3.937   0.709   6.686 -0.1967 -0.6738 -1.0179
 6393SOL     OW30814   1.385   3.864  17.529  0.0618 -0.1782 -0.2456
 6393SOL    HW130815   1.470   3.819  17.524  0.2563  0.1752 -0.1263
 6393SOL    HW230816   1.409   3.949  17.491  0.4989  0.6273  1.8334
 6394SOL     OW30817   4.261   0.011   0.589  0.0532  0.3728 -0.7488
 6394SOL    HW130818   4.340   0.057   0.619  0.2591  0.8744 -2.0142
 6394SOL    HW230819   4.263   0.022   0.493  1.2251  0.8829 -0.6749
 6395SOL     OW30820   1.013   0.215   3.084 -0.0621 -0.1085  0.5223
 6395SOL    HW130821   0.971   0.241   3.166 -1.7072  1.0348 -0.6942
 6395SOL    HW230822   1.087   0.173   3.128  0.6044 -0.7400 -1.2168
 6396SOL     OW30823   3.793   4.541   9.629  0.1323  0.5881  0.4563
 6396SOL    HW130824   3.815   4.484   9.555  0.6195 -0.5116  1.4570
 6396SOL    HW230825   3.710   4.583   9.606 -1.3966 -1.7203  1.6567
 6397SOL     OW30826   3.870   3.868   6.341 -0.3010 -0.2802 -0.8280
 6397SOL    HW130827   3.871   3.871   6.437  1.3183  0.2488 -0.8635
 6397SOL    HW230828   3.915   3.784   6.332  0.1411 -0.1767  0.4197
 6398SOL     OW30829   3.362   0.081  14.918  0.0774  0.2045  0.1196
 6398SOL    HW130830   3.295   0.020  14.887 -1.4108  1.0263  1.7084
 6398SOL    HW230831   3.427   0.068  14.849 -2.1581  0.0073 -1.9223
 6399SOL     OW30832   4.174   1.349   3.981  0.1351  0.6677 -0.8722
 6399SOL    HW130833   4.152   1.257   3.964  1.5170 -0.0512  1.2096
 6399SOL    HW230834   4.209   1.370   3.894  1.2224  0.0458 -0.5809
 6400SOL     OW30835   2.214   2.277   3.007  0.3748  0.5531  0.6055
 6400SOL    HW130836   2.118   2.277   3.007  0.3880 -2.8168 -2.7597
 6400SOL    HW230837   2.227   2.196   2.958  0.4172 -0.1234  1.7270
 6401SOL     OW30838   4.357   0.603   4.062 -0.3483 -0.1144 -0.0910
 6401SOL    HW130839   4.383   0.680   4.112  0.9710 -0.9038  0.4365
 6401SOL    HW230840   4.276   0.591   4.112 -0.4948 -2.1675 -0.8406
 6402SOL     OW30841   1.075   2.501   8.095  0.0698 -0.2491  0.4694
 6402SOL    HW130842   1.107   2.418   8.131  0.4661 -0.6536 -0.8102
 6402SOL    HW230843   1.091   2.493   8.001  0.7639  1.0388  0.4818
 6403SOL     OW30844   1.802   2.805   8.403 -0.3119  0.2313  0.2949
 6403SOL    HW130845   1.815   2.787   8.496  0.9637 -0.0140  0.0700
 6403SOL    HW230846   1.707   2.806   8.393 -0.1599  0.3098 -1.2615
 6404SOL     OW30847   0.935   3.395   9.252 -0.1346 -0.5691 -0.3933
 6404SOL    HW130848   0.866   3.352   9.302 -1.4454  1.2747 -0.6112
 6404SOL    HW230849   0.971   3.318   9.207 -0.1079  0.5847 -2.3466
 6405SOL     OW30850   1.354   4.217   3.991 -0.4151 -0.1885  0.6695
 6405SOL    HW130851   1.265   4.249   4.005 -0.8167  0.6723 -3.9560
 6405SOL    HW230852   1.383   4.262   3.911 -1.5478  0.8522  0.8410
 6406SOL     OW30853   4.543   3.463  14.079  0.0848  0.6764 -0.2312
 6406SOL    HW130854   4.571   3.549  14.047  1.0094  0.4485 -0.0235
 6406SOL    HW230855   4.463   3.495  14.121  0.2356  0.8636 -0.0909
 6407SOL     OW30856   3.002   0.249   5.111 -0.0976  0.5431 -0.2151
 6407SOL    HW130857   2.916   0.285   5.093 -0.0127  0.0693 -1.5828
 6407SOL    HW230858   2.986   0.164   5.153  0.7020  0.4050 -0.1892
 6408SOL     OW30859   2.152   2.008   4.847  0.0835  0.1397 -0.3166
 6408SOL    HW130860   2.088   2.062   4.800 -0.4060  0.8917  1.2257
 6408SOL    HW230861   2.207   2.071   4.893 -1.6494  0.4686  1.3358
 6409SOL     OW30862   0.295   4.614  14.904 -0.4094  0.1615  0.6040
 6409SOL    HW130863   0.302   4.641  14.995 -1.1684 -0.7648  0.9402
 6409SOL    HW230864   0.219   4.663  14.873 -0.5394 -0.6178 -0.3273
 6410SOL     OW30865   0.370   0.282   7.060  0.0132  0.4958 -0.4434
 6410SOL    HW130866   0.300   0.239   7.009  0.0258 -0.9795  0.7888
 6410SOL    HW230867   0.406   0.341   6.993  0.2263  1.6539  0.6962
 6411SOL     OW30868   0.586   3.854  17.581  0.5994 -0.1872 -0.4447
 6411SOL    HW130869   0.564   3.767  17.549 -0.5698 -0.5468  1.3527
 6411SOL    HW230870   0.583   3.850  17.677  2.2550 -2.7810 -0.5131
 6412SOL     OW30871   3.990   2.233   1.155  0.5945 -0.6913  0.1146
 6412SOL    HW130872   3.980   2.183   1.074 -0.3133 -0.5422  0.1362
 6412SOL    HW230873   4.027   2.313   1.118  1.2940  0.1792  2.6931
 6413SOL     OW30874   4.699   0.721  13.315  0.8621 -0.3280 -0.5150
 6413SOL    HW130875   4.693   0.682  13.401 -0.8422  1.4816  0.1956
 6413SOL    HW230876   4.607   0.717  13.285  1.5412 -3.2793 -2.2142
 6414SOL     OW30877   4.561   2.766   2.527 -0.3260 -0.6740  0.7383
 6414SOL    HW130878   4.568   2.773   2.432  0.2013  0.0620  0.8326
 6414SOL    HW230879   4.621   2.836   2.551  0.0121  0.1610 -2.5561
 6415SOL     OW30880   3.408   1.315   6.293 -0.3451 -0.5352 -0.1825
 6415SOL    HW130881   3.481   1.352   6.342 -1.3149 -0.0728  0.9002
 6415SOL    HW230882   3.448   1.233   6.263  1.4914  0.2049  0.2130
 6416SOL     OW30883   3.990   2.260  14.556  0.0196 -0.3819  0.3118
 6416SOL    HW130884   4.057   2.327  14.568  0.5967 -1.1433  1.3372
 6416SOL    HW230885   3.978   2.220  14.642 -1.3677 -0.7301 -0.0367
 6417SOL     OW30886   1.637   2.619   6.413 -0.2107 -0.1513  0.1713
 6417SOL    HW130887   1.592   2.640   6.331  1.3648 -0.2852 -0.7285
 6417SOL    HW230888   1.649   2.708   6.448  0.2675 -0.5610  1.0360
 6418SOL     OW30889   2.099   3.916   3.621  0.6992 -0.0996 -0.1204
 6418SOL    HW130890   2.044   3.962   3.558  1.7690  1.5345  0.1510
 6418SOL    HW230891   2.065   3.943   3.707 -1.8616 -2.9682 -0.2336
 6419SOL     OW30892   3.356   4.510   4.908 -0.1497  0.3809 -0.2563
 6419SOL    HW130893   3.277   4.460   4.886 -1.5964  2.8425 -0.5847
 6419SOL    HW230894   3.361   4.561   4.828 -1.8028 -1.9572 -1.8633
 6420SOL     OW30895   1.820   2.020   6.029 -0.6166 -0.4442  0.5342
 6420SOL    HW130896   1.801   2.114   6.029 -1.4249 -0.6154  3.7575
 6420SOL    HW230897   1.756   1.991   5.964 -0.6642  0.5791  0.1151
 6421SOL     OW30898   0.193   1.656   8.196  0.5862 -0.5216  0.7100
 6421SOL    HW130899   0.119   1.713   8.174  0.3399 -0.9431  0.4503
 6421SOL    HW230900   0.186   1.658   8.292  1.5481 -1.8945  0.8108
 6422SOL     OW30901   2.062   0.411   6.689  0.1868  0.7587  0.2654
 6422SOL    HW130902   2.127   0.389   6.755 -0.5953  0.2841  0.8785
 6422SOL    HW230903   2.051   0.318   6.670  3.3157  0.4594  0.0618
 6423SOL     OW30904   2.985   0.983   0.218  0.6571 -0.0159  0.4904
 6423SOL    HW130905   2.991   1.073   0.249 -0.2179  0.3122 -0.2931
 6423SOL    HW230906   2.925   0.944   0.281  0.0238  0.5278  0.2191
 6424SOL     OW30907   2.302   2.418   7.271  0.2532  0.1722 -0.4474
 6424SOL    HW130908   2.378   2.376   7.231  0.8148  1.4673 -0.7392
 6424SOL    HW230909   2.300   2.503   7.227 -2.6486  0.4265  0.1327
 6425SOL     OW30910   3.290   2.221  16.873  0.9916  0.1571  0.1134
 6425SOL    HW130911   3.373   2.220  16.827  1.2326 -0.1139  0.5547
 6425SOL    HW230912   3.238   2.154  16.828 -2.4599  1.8636  1.4787
 6426SOL     OW30913   3.291   2.854   1.329  0.3402 -0.3742  0.5037
 6426SOL    HW130914   3.313   2.946   1.312 -0.2607 -0.0848  1.3271
 6426SOL    HW230915   3.376   2.810   1.320  0.8600  0.7396 -0.1582
 6427SOL     OW30916   1.154   1.346   2.438  0.5948  0.2097 -0.2262
 6427SOL    HW130917   1.199   1.424   2.469  1.7620 -0.8302  0.6942
 6427SOL    HW230918   1.067   1.386   2.436 -0.4262 -1.8676  1.7662
 6428SOL     OW30919   2.831   4.157   5.938 -0.0359  0.0270  0.7058
 6428SOL    HW130920   2.761   4.195   5.991 -0.3318  1.2362 -0.5750
 6428SOL    HW230921   2.801   4.068   5.916  1.4600 -0.2926 -0.0515
 6429SOL     OW30922   2.430   1.858  11.034  0.1330 -0.0313 -0.3781
 6429SOL    HW130923   2.478   1.784  11.072 -1.3259 -1.2964 -1.0001
 6429SOL    HW230924   2.352   1.818  10.995 -1.7955  3.2862  0.1130
 6430SOL     OW30925   1.351   2.450   5.158  0.3812 -0.4481  0.1973
 6430SOL    HW130926   1.289   2.473   5.089  0.0111  3.5293  1.8580
 6430SOL    HW230927   1.300   2.478   5.234  0.5573 -0.2978  0.2583
 6431SOL     OW30928   2.978   0.696   2.735 -0.1117 -0.1887  0.0277
 6431SOL    HW130929   2.891   0.669   2.763 -0.5517  0.8914 -0.3203
 6431SOL    HW230930   2.999   0.624   2.675 -0.1019 -1.8194  2.0086
 6432SOL     OW30931   1.956   1.149   2.458  0.1199 -0.2741  0.6363
 6432SOL    HW130932   2.039   1.179   2.422  0.0835 -2.4462 -1.2368
 6432SOL    HW230933   1.939   1.201   2.536 -0.0874 -0.1699  0.5218
 6433SOL     OW30934   1.848   1.943   7.183 -0.1282  0.1186 -0.3540
 6433SOL    HW130935   1.807   1.914   7.102  0.4176  0.1280 -0.6294
 6433SOL    HW230936   1.776   1.944   7.246 -0.5442 -0.2202 -0.8264
 6434SOL     OW30937   4.353   1.563   2.344  0.4883  0.3250  0.1931
 6434SOL    HW130938   4.334   1.473   2.318 -1.6480  0.5605  0.9746
 6434SOL    HW230939   4.448   1.558   2.339  0.3426 -0.5034 -1.7047
 6435SOL     OW30940   2.209   2.486   4.508  1.0168 -0.0325  0.7130
 6435SOL    HW130941   2.277   2.542   4.545  1.3911 -0.7324  1.0871
 6435SOL    HW230942   2.221   2.410   4.565 -0.8479 -0.8500  0.0456
 6436SOL     OW30943   0.439   3.212   5.604  0.8656 -0.1269 -0.2480
 6436SOL    HW130944   0.401   3.150   5.666  2.1759 -0.0320  0.6423
 6436SOL    HW230945   0.530   3.218   5.632  0.2955 -1.6664  1.9394
 6437SOL     OW30946   0.381   3.218   7.527 -0.0595  0.2371  0.4226
 6437SOL    HW130947   0.294   3.221   7.568 -0.2951  0.1658 -0.0793
 6437SOL    HW230948   0.352   3.256   7.445 -0.7996 -0.0230  0.5595
 6438SOL     OW30949   1.048   2.666  12.182  0.2417 -0.1259  0.7846
 6438SOL    HW130950   1.124   2.648  12.237  0.6628 -0.1653  0.1892
 6438SOL    HW230951   1.073   2.746  12.135 -1.9160  0.5487  0.7589
 6439SOL     OW30952   3.418   1.443   8.860  0.1273 -0.1076  0.1255
 6439SOL    HW130953   3.412   1.509   8.791  4.0581 -0.9349 -0.9863
 6439SOL    HW230954   3.370   1.372   8.818  0.0380  0.6374 -1.0236
 6440SOL     OW30955   0.595   0.668  15.130  0.0627  0.7420 -0.0808
 6440SOL    HW130956   0.533   0.658  15.202  1.4857 -0.9121  0.9120
 6440SOL    HW230957   0.527   0.657  15.063 -0.1410 -3.3040  0.7470
 6441SOL     OW30958   3.303   2.118   3.253  0.0870  0.0097  0.0298
 6441SOL    HW130959   3.384   2.165   3.231 -0.2571  0.2066 -0.8215
 6441SOL    HW230960   3.255   2.173   3.315  1.9996  1.0259  0.6073
 6442SOL     OW30961   4.316   1.425   4.747 -0.0655  0.3678  0.2643
 6442SOL    HW130962   4.254   1.449   4.816  2.5365  0.2037  2.6620
 6442SOL    HW230963   4.259   1.427   4.670  0.1306 -1.6458  0.0758
 6443SOL     OW30964   0.557   0.615   1.471 -0.2306  0.3111 -0.1742
 6443SOL    HW130965   0.499   0.539   1.479 -1.8253  1.6610  0.9291
 6443SOL    HW230966   0.582   0.648   1.557 -0.4129  1.0632 -0.4147
 6444SOL     OW30967   2.094   3.197   6.367  0.1423  0.3120 -0.0389
 6444SOL    HW130968   2.188   3.201   6.387  0.5616  0.3764 -2.0123
 6444SOL    HW230969   2.061   3.142   6.438 -0.4774 -0.1484 -0.6864
 6445SOL     OW30970   3.742   1.864   4.891 -0.0720 -0.0538 -0.4194
 6445SOL    HW130971   3.765   1.942   4.941  0.1709 -1.2966  1.4425
 6445SOL    HW230972   3.827   1.844   4.852  0.6574  1.0913  0.5966
 6446SOL     OW30973   3.431   4.518   4.343  0.3942  0.5967 -0.6807
 6446SOL    HW130974   3.482   4.594   4.370 -0.9513 -0.1951  4.0350
 6446SOL    HW230975   3.340   4.546   4.348 -0.8790 -3.5221 -0.6179
 6447SOL     OW30976   0.855   4.314   5.162  0.0438 -0.1661  0.1427
 6447SOL    HW130977   0.877   4.231   5.204  1.1153  0.2773  0.4592
 6447SOL    HW230978   0.766   4.291   5.136 -0.1239 -0.2710  0.8222
 6448SOL     OW30979   0.699   1.648   7.861 -0.4361  0.0799 -0.5590
 6448SOL    HW130980   0.644   1.714   7.903 -0.8798  0.0641 -1.1187
 6448SOL    HW230981   0.673   1.651   7.769 -1.5116  0.0563 -0.2540
 6449SOL     OW30982   3.303   3.560  16.423  0.0684 -0.3731  0.1946
 6449SOL    HW130983   3.297   3.495  16.353 -0.7699 -1.1565  1.0020
 6449SOL    HW230984   3.333   3.627  16.361 -2.9412  1.0255  0.2494
 6450SOL     OW30985   4.042   0.006   2.261 -0.4841 -0.2200  0.4319
 6450SOL    HW130986   3.999   4.712   2.182  1.3629 -1.6092  0.0213
 6450SOL    HW230987   4.137   0.005   2.248 -0.0227  2.4637  3.6332
 6451SOL     OW30988   2.079   3.734   2.027 -0.5309  0.4605 -0.2813
 6451SOL    HW130989   2.156   3.785   2.053 -0.7146 -0.1734  1.5104
 6451SOL    HW230990   2.011   3.774   2.080 -0.7419 -1.5048  0.9184
 6452SOL     OW30991   0.077   1.598   6.301 -0.1191  0.6308 -0.1997
 6452SOL    HW130992   0.015   1.593   6.229 -0.0839 -1.1130 -0.1107
 6452SOL    HW230993   0.022   1.585   6.378  0.1263  1.0674  0.0528
 6453SOL     OW30994   4.686   0.230   0.886 -0.0991  0.2344  0.0542
 6453SOL    HW130995   4.623   0.263   0.823  1.4967  1.8572 -0.6742
 6453SOL    HW230996   4.670   0.136   0.876  0.3405  0.2190 -0.4917
 6454SOL     OW30997   1.950   1.860  10.962 -0.6252  0.2131 -0.0233
 6454SOL    HW130998   1.991   1.945  10.977  0.7735 -0.5109  0.2301
 6454SOL    HW230999   2.018   1.813  11.010  1.0234  1.5286 -1.1035
 6455SOL     OW31000   2.899   3.505   8.283 -0.7186  0.8372 -0.3294
 6455SOL    HW131001   2.825   3.498   8.223 -0.5407  2.2038 -0.7283
 6455SOL    HW231002   2.875   3.449   8.357 -0.7882  0.3476 -0.7293
 6456SOL     OW31003   4.275   4.084   5.346 -0.2913 -0.1642  0.5300
 6456SOL    HW131004   4.224   4.072   5.426 -0.4553 -2.9649  0.0185
 6456SOL    HW231005   4.268   4.000   5.301  1.5451 -0.4159  0.7014
 6457SOL     OW31006   0.713   0.595   7.344 -0.3612 -0.0129 -0.2367
 6457SOL    HW131007   0.657   0.533   7.297 -0.4753 -1.7153  2.1691
 6457SOL    HW231008   0.651   0.666   7.360  1.1538  1.4162 -0.6707
 6458SOL     OW31009   2.588   1.809  15.488 -0.3377 -0.5367  0.3355
 6458SOL    HW131010   2.651   1.828  15.418 -0.8676  0.5282  0.1451
 6458SOL    HW231011   2.636   1.790  15.568  1.5553 -0.8221 -0.8638
 6459SOL     OW31012   2.974   3.344   1.924  0.2093  0.6081  0.5093
 6459SOL    HW131013   3.046   3.372   1.868 -1.0179 -1.8065 -2.2813
 6459SOL    HW231014   2.920   3.422   1.916  0.1298  0.7113  2.0845
 6460SOL     OW31015   0.156   3.145   4.974 -0.1022 -0.2442 -0.4387
 6460SOL    HW131016   0.168   3.092   5.052  2.0364  0.1169 -0.5029
 6460SOL    HW231017   0.103   3.094   4.912 -1.3407  0.1266  0.3230
 6461SOL     OW31018   2.565   1.263   4.726 -0.2296 -0.3712  0.1720
 6461SOL    HW131019   2.655   1.263   4.692  0.6782 -3.9283  2.5050
 6461SOL    HW231020   2.578   1.292   4.816 -1.3421 -2.2899  0.9462
 6462SOL     OW31021   4.437   3.969   4.840  0.2168 -0.0577 -0.1243
 6462SOL    HW131022   4.491   4.005   4.770 -0.8436 -2.8534 -2.3881
 6462SOL    HW231023   4.404   3.897   4.786 -2.9487  2.1649 -1.1348
 6463SOL     OW31024   4.302   2.908   5.093  0.1737  0.2565  0.1788
 6463SOL    HW131025   4.248   2.963   5.036 -2.6776 -1.2982  1.3964
 6463SOL    HW231026   4.383   2.959   5.095 -0.3194  0.8960  3.4636
 6464SOL     OW31027   0.721   0.730   0.796 -0.1566 -0.7256 -0.9755
 6464SOL    HW131028   0.807   0.763   0.823 -2.2053  2.7511  1.3056
 6464SOL    HW231029   0.694   0.816   0.765 -0.4652 -1.7807 -3.6326
 6465SOL     OW31030   2.885   3.471   7.432 -0.2168  0.6527  0.0848
 6465SOL    HW131031   2.904   3.493   7.341 -0.7066  0.0014 -0.1756
 6465SOL    HW231032   2.920   3.383   7.442  0.6301  1.1141  1.1564
 6466SOL     OW31033   2.768   4.594   5.580  0.6202 -0.5932  0.3620
 6466SOL    HW131034   2.683   4.561   5.553  0.3684  0.1875  0.1963
 6466SOL    HW231035   2.817   4.524   5.537 -1.6517 -1.9428 -0.0315
 6467SOL     OW31036   0.246   4.675   8.388  0.1619  0.5304  0.4005
 6467SOL    HW131037   0.168   4.670   8.333  0.7661  1.7727 -0.5773
 6467SOL    HW231038   0.301   4.723   8.326 -0.7570  0.6316 -0.3377
 6468SOL     OW31039   4.575   1.559  16.884  0.3460  0.5295 -0.2202
 6468SOL    HW131040   4.566   1.549  16.789  2.8122 -2.6367 -0.0953
 6468SOL    HW231041   4.524   1.490  16.926  0.5456 -0.4230 -1.5472
 6469SOL     OW31042   4.316   1.930  17.706 -0.0869  1.0420 -0.4216
 6469SOL    HW131043   4.246   1.984  17.743 -0.5087  0.9003 -1.0132
 6469SOL    HW231044   4.291   1.843  17.737 -2.0015  1.4421 -0.8433
 6470SOL     OW31045   2.083   2.971   2.763 -0.5220 -0.1264 -0.6797
 6470SOL    HW131046   2.064   3.062   2.743 -1.0236  0.5079  2.6448
 6470SOL    HW231047   2.059   2.926   2.682 -2.1654 -2.0125  0.8317
 6471SOL     OW31048   2.408   4.121  17.158  0.0900 -0.3815  0.2301
 6471SOL    HW131049   2.378   4.099  17.246 -1.8949  0.7223 -0.1899
 6471SOL    HW231050   2.326   4.158  17.127  0.0489 -1.3544 -0.8201
 6472SOL     OW31051   0.910   0.604   1.734 -0.0845 -0.1018  0.5769
 6472SOL    HW131052   0.829   0.654   1.729 -0.3241 -0.6499 -1.1536
 6472SOL    HW231053   0.892   0.536   1.799  1.3280  0.3216  1.4057
 6473SOL     OW31054   0.841   0.514   6.353  0.0288 -0.0307 -0.3732
 6473SOL    HW131055   0.825   0.485   6.263 -0.0080 -1.6687  0.1730
 6473SOL    HW231056   0.759   0.486   6.392 -0.5239  2.8769  0.5718
 6474SOL     OW31057   3.066   2.448   5.604  0.9946 -0.2787 -0.0399
 6474SOL    HW131058   3.140   2.388   5.602  0.9276 -0.3083 -1.1850
 6474SOL    HW231059   3.083   2.493   5.521  0.0739  1.4664  0.6951
 6475SOL     OW31060   1.372   1.916   2.844  0.9047 -0.0839  0.1303
 6475SOL    HW131061   1.377   2.008   2.867  1.9514  0.3893 -1.9634
 6475SOL    HW231062   1.429   1.898   2.769  0.5501 -0.2018 -0.1087
 6476SOL     OW31063   2.486   4.141   4.007 -0.2059 -0.2171  0.3615
 6476SOL    HW131064   2.436   4.098   3.937  2.0458 -1.7496 -0.3135
 6476SOL    HW231065   2.437   4.106   4.081 -3.4672  0.0725 -1.6553
 6477SOL     OW31066   3.450   1.946   2.293  0.2975  0.3938  0.0362
 6477SOL    HW131067   3.522   1.957   2.356  0.3084 -2.5257  0.5564
 6477SOL    HW231068   3.448   1.850   2.287  2.6994  0.1834  2.4585
 6478SOL     OW31069   3.441   4.250   7.209  0.3636  0.2122 -0.2598
 6478SOL    HW131070   3.483   4.175   7.251 -0.5135 -0.6684 -0.9636
 6478SOL    HW231071   3.483   4.326   7.248 -0.3831  0.7639 -0.5407
 6479SOL     OW31072   0.331   1.366   0.545 -0.1550  0.4309  0.2083
 6479SOL    HW131073   0.280   1.330   0.618 -1.8300  1.1016 -0.6256
 6479SOL    HW231074   0.273   1.349   0.471  0.4247 -1.1413  0.1147
 6480SOL     OW31075   4.298   3.678   8.743 -0.0098 -0.0369  0.1478
 6480SOL    HW131076   4.385   3.644   8.722 -0.1456  0.4500 -1.2110
 6480SOL    HW231077   4.306   3.769   8.717  0.8889  0.0649  0.8119
 6481SOL     OW31078   1.722   1.868   6.976 -0.3399 -0.0784  0.4514
 6481SOL    HW131079   1.721   1.773   6.991  2.7674 -0.4714 -1.8242
 6481SOL    HW231080   1.630   1.891   6.980 -0.7587 -1.3813 -1.4695
 6482SOL     OW31081   0.298   0.420   1.239 -0.7278 -0.2301  0.2107
 6482SOL    HW131082   0.322   0.360   1.169 -0.8471 -2.0234  1.6937
 6482SOL    HW231083   0.287   0.505   1.196 -0.7969 -0.8506 -0.9856
 6483SOL     OW31084   3.372   3.541   7.075 -0.3170  0.2850  0.0161
 6483SOL    HW131085   3.460   3.503   7.082  0.6347  3.1870  3.6268
 6483SOL    HW231086   3.317   3.474   7.036  0.7281  0.0395 -1.0313
 6484SOL     OW31087   2.901   0.444   7.436  0.5837  0.0604 -0.1824
 6484SOL    HW131088   2.818   0.414   7.473  0.2621 -0.9831 -1.7613
 6484SOL    HW231089   2.869   0.476   7.352 -0.2960  1.9719  0.8734
 6485SOL     OW31090   0.969   2.858   0.999  0.2896 -0.2945  0.5400
 6485SOL    HW131091   0.972   2.915   1.076 -0.9892 -0.0704  0.4292
 6485SOL    HW231092   0.894   2.805   1.026  1.4595 -1.0965  2.2410
 6486SOL     OW31093   1.520   1.214   5.824  0.2758  0.1902  0.0810
 6486SOL    HW131094   1.464   1.284   5.857 -0.6279 -0.8530  0.7411
 6486SOL    HW231095   1.458   1.141   5.828  1.0715 -0.5854 -1.7300
 6487SOL     OW31096   3.995   2.883   6.991  0.5950  0.1932  0.1694
 6487SOL    HW131097   4.065   2.887   6.926  0.5842  2.5325  0.2796
 6487SOL    HW231098   4.037   2.846   7.068  1.0265 -0.1976 -0.2564
 6488SOL     OW31099   1.698   1.494   6.540 -0.4984 -0.0985 -0.2140
 6488SOL    HW131100   1.760   1.436   6.495 -1.6656 -1.6568  0.1925
 6488SOL    HW231101   1.678   1.556   6.470 -1.2785  0.1346  0.2140
 6489SOL     OW31102   0.707   0.620   1.041  0.1373  0.2197 -0.2153
 6489SOL    HW131103   0.796   0.588   1.058 -0.5147 -0.9080  1.0477
 6489SOL    HW231104   0.713   0.670   0.959 -1.3191 -0.4922 -0.7533
 6490SOL     OW31105   2.353   2.628   6.235  0.0676 -0.0931  0.0072
 6490SOL    HW131106   2.297   2.585   6.170  0.4545  1.8111 -1.5776
 6490SOL    HW231107   2.286   2.652   6.298  0.3913 -0.3889  0.4657
 6491SOL     OW31108   4.227   4.118   7.766 -0.0660 -0.1628 -0.3531
 6491SOL    HW131109   4.254   4.029   7.789 -1.0499 -0.2614  0.4284
 6491SOL    HW231110   4.284   4.128   7.690  1.1357  0.9135  0.7012
 6492SOL     OW31111   1.304   1.403   3.416 -0.1291 -0.5436  0.1991
 6492SOL    HW131112   1.300   1.345   3.491  2.0997  1.2956  1.7631
 6492SOL    HW231113   1.381   1.363   3.374 -1.8198 -3.7920  0.2132
 6493SOL     OW31114   0.794   3.002  17.669  0.0319  0.1880  0.2049
 6493SOL    HW131115   0.871   2.945  17.674 -0.2249 -0.5050 -4.0780
 6493SOL    HW231116   0.737   2.933  17.634  1.0634  0.3519 -1.7937
 6494SOL     OW31117   1.098   3.472   6.983  0.7039 -0.2206 -0.4992
 6494SOL    HW131118   1.132   3.559   7.005  1.7990 -1.1879  1.6016
 6494SOL    HW231119   1.018   3.498   6.936  2.2798 -0.1260 -3.1380
 6495SOL     OW31120   1.977   3.714  17.498 -0.4636  0.0744 -0.3682
 6495SOL    HW131121   2.067   3.711  17.529 -0.9433  0.4399  1.0461
 6495SOL    HW231122   1.923   3.705  17.577  0.9633  1.8339  0.8096
 6496SOL     OW31123   1.405   1.201   1.905  0.5038 -0.1890  0.2129
 6496SOL    HW131124   1.411   1.297   1.910  0.3282 -0.3526  3.3163
 6496SOL    HW231125   1.312   1.192   1.922  0.9630  0.8430  3.3748
 6497SOL     OW31126   1.514   2.749   6.207  0.0513 -0.6999  0.1634
 6497SOL    HW131127   1.490   2.842   6.208  1.5783 -0.3082  2.2852
 6497SOL    HW231128   1.428   2.717   6.182 -1.4493  0.6948  3.4785
 6498SOL     OW31129   2.927   2.060   6.739 -0.0522  0.2960 -0.5675
 6498SOL    HW131130   2.918   2.054   6.834 -0.1551  1.8378 -0.4729
 6498SOL    HW231131   2.838   2.087   6.717  0.0822 -0.3006 -1.8171
 6499SOL     OW31132   3.985   1.005  12.185  0.0208  0.2994  0.6353
 6499SOL    HW131133   4.007   0.997  12.278  3.2329 -1.8947 -0.3289
 6499SOL    HW231134   3.903   0.955  12.182 -1.2890  2.4136  0.6516
 6500SOL     OW31135   0.128   2.104   9.979 -0.6118  0.4593  0.5569
 6500SOL    HW131136   0.116   2.017  10.017  2.0012 -1.3067 -2.6640
 6500SOL    HW231137   0.084   2.158  10.045  0.2403  1.0603  0.6395
 6501SOL     OW31138   2.542   1.811  17.634  0.7742 -0.1804  0.0073
 6501SOL    HW131139   2.608   1.851  17.691  0.8754 -0.4064  0.0490
 6501SOL    HW231140   2.585   1.739  17.588  0.6276 -0.9554  1.1001
 6502SOL     OW31141   0.024   4.279   1.412  0.3223 -0.1197  0.2119
 6502SOL    HW131142   4.706   4.283   1.488  0.1819  0.8619  0.0534
 6502SOL    HW231143   0.103   4.243   1.451 -0.3342  0.9007  2.4760
 6503SOL     OW31144   1.095   0.130   8.376  0.5750  0.2319 -0.1755
 6503SOL    HW131145   1.071   0.041   8.402 -0.9202  0.6351 -0.1235
 6503SOL    HW231146   1.023   0.146   8.314 -0.4912 -2.6327  0.3135
 6504SOL     OW31147   2.974   2.317  17.522  0.8234 -0.3236 -0.9783
 6504SOL    HW131148   3.068   2.338  17.529  0.7949  0.2006 -2.2725
 6504SOL    HW231149   2.993   2.234  17.568 -0.1687  0.6804  1.2186
 6505SOL     OW31150   1.758   2.654   7.832  0.1071  0.3345  0.0477
 6505SOL    HW131151   1.664   2.658   7.844 -0.0201  2.0676 -1.6718
 6505SOL    HW231152   1.774   2.587   7.900 -1.7852  1.5337  1.6649
 6506SOL     OW31153   0.481   4.601  16.905  0.3926 -0.2017 -0.1403
 6506SOL    HW131154   0.526   4.664  16.849 -1.9887  1.1547 -0.5210
 6506SOL    HW231155   0.460   4.528  16.846 -0.9513  1.0243 -1.1916
 6507SOL     OW31156   4.326   3.435   6.815  0.7521  0.0421 -0.0692
 6507SOL    HW131157   4.370   3.518   6.797  3.1525 -1.4620 -1.2364
 6507SOL    HW231158   4.394   3.367   6.814  0.4286 -0.2691 -1.3966
 6508SOL     OW31159   2.054   2.371   2.088 -0.1121 -0.9728  0.0745
 6508SOL    HW131160   1.995   2.296   2.090 -1.0076 -0.2189  1.7209
 6508SOL    HW231161   2.130   2.328   2.127  0.5171  1.7401  1.8629
 6509SOL     OW31162   4.457   0.193   7.681 -0.4691 -0.1431 -0.5277
 6509SOL    HW131163   4.375   0.184   7.730 -0.0045  1.0376  0.4621
 6509SOL    HW231164   4.424   0.180   7.592 -0.5184  0.3287 -0.5824
 6510SOL     OW31165   4.681   1.489   3.375 -0.2443  0.2053 -0.1075
 6510SOL    HW131166   4.729   1.410   3.401  0.9903  1.5574  1.7212
 6510SOL    HW231167   4.606   1.496   3.434  0.4403 -2.0049  1.0205
 6511SOL     OW31168   1.141   2.113   4.987  0.1917  0.2965  0.4221
 6511SOL    HW131169   1.199   2.063   5.044  0.8028  0.6600  0.1240
 6511SOL    HW231170   1.202   2.175   4.947 -1.5178  1.3943 -0.4568
 6512SOL     OW31171   0.411   2.940  15.495  0.8472  0.1432  0.2278
 6512SOL    HW131172   0.365   2.921  15.577  0.6464 -2.5619 -0.5067
 6512SOL    HW231173   0.391   2.859  15.449 -0.7382  0.3353  0.5650
 6513SOL     OW31174   2.614   4.089   0.292 -0.0322  0.7925  0.0243
 6513SOL    HW131175   2.539   4.132   0.250 -0.0246  0.2827 -0.4992
 6513SOL    HW231176   2.684   4.120   0.236  0.3903 -0.9291 -0.3775
 6514SOL     OW31177   0.498   2.137  13.773 -0.0526  0.6945 -0.4647
 6514SOL    HW131178   0.415   2.157  13.730  0.6447  2.2229 -1.1092
 6514SOL    HW231179   0.534   2.221  13.803 -0.9897  0.4529  1.2923
 6515SOL     OW31180   2.562   1.683   1.269 -0.2893 -0.1224  0.6544
 6515SOL    HW131181   2.536   1.757   1.214 -0.7858 -1.1561 -0.4831
 6515SOL    HW231182   2.534   1.609   1.216 -1.5232 -0.6400  2.0273
 6516SOL     OW31183   2.055   4.359   5.816  0.0977  0.6074  0.1904
 6516SOL    HW131184   2.117   4.389   5.882  1.5921 -0.5756 -0.6561
 6516SOL    HW231185   2.065   4.435   5.758 -3.4321 -0.7934 -2.2611
 6517SOL     OW31186   0.830   4.589   4.531  0.3908 -0.1854 -0.0167
 6517SOL    HW131187   0.784   4.527   4.474 -0.9955  0.1243  0.7823
 6517SOL    HW231188   0.779   4.669   4.525  0.0167 -0.3682  0.7646
 6518SOL     OW31189   2.388   2.964   5.547  0.2594 -0.3682  0.4995
 6518SOL    HW131190   2.379   3.055   5.517  5.4705 -0.2090 -0.6993
 6518SOL    HW231191   2.357   2.907   5.477  2.3882  0.7396 -1.3522
 6519SOL     OW31192   1.517   0.344   8.585  0.0790 -0.1937 -0.3811
 6519SOL    HW131193   1.433   0.329   8.628 -0.9312  1.9965 -1.5935
 6519SOL    HW231194   1.571   0.278   8.629  0.5304 -0.1639 -0.8936
 6520SOL     OW31195   3.490   3.377  12.340  0.3264  0.6096  0.6142
 6520SOL    HW131196   3.406   3.422  12.342 -0.0351 -0.0753  0.7534
 6520SOL    HW231197   3.523   3.415  12.421  0.6904  1.3305  0.1376
 6521SOL     OW31198   3.019   0.511   2.531  0.0002 -0.4717 -0.0342
 6521SOL    HW131199   2.949   0.447   2.541  0.9383 -1.5056 -0.1386
 6521SOL    HW231200   3.085   0.460   2.483 -2.5235 -3.1560 -0.6505
 6522SOL     OW31201   1.591   0.667  12.811  0.0414  0.0698  0.4043
 6522SOL    HW131202   1.639   0.719  12.746 -1.0061 -0.1058 -0.5167
 6522SOL    HW231203   1.519   0.646  12.752 -0.5685  0.1316  1.1387
 6523SOL     OW31204   2.824   2.047   5.600 -0.0029 -0.2858  0.4569
 6523SOL    HW131205   2.841   2.137   5.572 -1.1014 -1.1172 -2.8589
 6523SOL    HW231206   2.915   2.017   5.603  0.0726 -0.5540 -4.5066
 6524SOL     OW31207   2.381   3.016   6.707  0.1446  0.1095 -0.2015
 6524SOL    HW131208   2.470   2.985   6.724 -0.4818 -0.5760  1.7707
 6524SOL    HW231209   2.392   3.109   6.727 -0.6776  0.2798 -0.5642
 6525SOL     OW31210   4.509   0.022  10.137  0.3347 -0.0855 -0.4545
 6525SOL    HW131211   4.544   4.692  10.193  0.4776 -0.8854 -1.5515
 6525SOL    HW231212   4.555   0.097  10.176 -0.5399 -0.8046  1.9718
 6526SOL     OW31213   3.824   3.875   6.641  0.1409  0.2749  0.0877
 6526SOL    HW131214   3.791   3.945   6.698  0.4311 -0.5314  1.2336
 6526SOL    HW231215   3.761   3.811   6.675  0.8376 -0.0491  0.7616
 6527SOL     OW31216   0.024   3.904  10.301  0.0731 -0.1974 -0.4084
 6527SOL    HW131217   4.716   3.822  10.302  1.4055 -0.9889 -3.4618
 6527SOL    HW231218   0.020   3.932  10.393  2.7808 -2.4387  0.3935
 6528SOL     OW31219   1.157   1.301   3.119  0.2816  0.0727  0.1138
 6528SOL    HW131220   1.111   1.283   3.037 -1.7748  0.6924  1.1435
 6528SOL    HW231221   1.226   1.352   3.075  1.2930 -0.9779  0.4962
 6529SOL     OW31222   3.555   3.125  11.775 -0.4444 -0.3804 -0.2418
 6529SOL    HW131223   3.591   3.099  11.691 -0.0738  1.3711 -0.6235
 6529SOL    HW231224   3.551   3.045  11.828  2.5506 -0.6453 -0.4215
 6530SOL     OW31225   0.952   4.408  12.474 -0.1041 -0.3110  0.1408
 6530SOL    HW131226   0.902   4.444  12.400 -2.2748 -1.3728  1.0800
 6530SOL    HW231227   0.927   4.316  12.469 -1.5821  0.1160 -0.5738
 6531SOL     OW31228   3.693   3.738   5.664 -0.1334 -0.3216 -0.3586
 6531SOL    HW131229   3.747   3.817   5.665 -2.1573  1.1123 -4.2449
 6531SOL    HW231230   3.719   3.710   5.577  1.1723 -0.1955 -0.0192
 6532SOL     OW31231   3.799   4.069   9.231 -0.3840 -0.1634  0.1074
 6532SOL    HW131232   3.755   4.116   9.160 -0.8423 -1.2789 -0.3489
 6532SOL    HW231233   3.730   4.097   9.292 -1.0429 -0.9541 -0.2729
 6533SOL     OW31234   3.611   1.224   9.065  0.4415 -0.5720 -0.6097
 6533SOL    HW131235   3.701   1.205   9.091  0.9021  1.4027 -0.7811
 6533SOL    HW231236   3.567   1.187   9.141 -0.1827 -0.1293 -0.7548
 6534SOL     OW31237   4.167   4.367   3.382 -0.3378  0.9946 -0.0476
 6534SOL    HW131238   4.252   4.359   3.339 -0.8505 -4.0538 -0.0976
 6534SOL    HW231239   4.156   4.285   3.430 -1.3159  2.4484  2.2394
 6535SOL     OW31240   3.194   4.577   6.347  0.5136  0.0305  0.7076
 6535SOL    HW131241   3.239   4.516   6.405  1.2038  0.0707  0.2195
 6535SOL    HW231242   3.107   4.543   6.327  0.9823  0.0692 -1.4151
 6536SOL     OW31243   0.974   2.624  13.690 -0.2882  0.0535 -0.1786
 6536SOL    HW131244   0.902   2.681  13.715 -0.9370 -1.0179  0.4093
 6536SOL    HW231245   0.984   2.580  13.774 -2.0526 -1.0569 -0.5429
 6537SOL     OW31246   3.327   0.814   9.927 -0.2849 -0.5499  0.5716
 6537SOL    HW131247   3.355   0.865  10.003 -2.1090  2.8018 -1.0122
 6537SOL    HW231248   3.393   0.850   9.868  0.0626  0.0915  1.3553
 6538SOL     OW31249   1.310   3.347   0.450  0.0660 -0.2672  0.0348
 6538SOL    HW131250   1.223   3.364   0.413  0.1190 -1.5288 -0.6674
 6538SOL    HW231251   1.325   3.425   0.503 -0.9950 -1.0071  1.4536
 6539SOL     OW31252   1.418   0.385   9.607 -0.7466 -0.2173 -0.4552
 6539SOL    HW131253   1.510   0.378   9.633 -0.6321  2.2689 -0.1997
 6539SOL    HW231254   1.415   0.463   9.551  0.1479  0.4107  0.3709
 6540SOL     OW31255   1.962   2.975  10.709 -0.3126 -0.1181 -0.5496
 6540SOL    HW131256   1.935   2.939  10.793  0.3238  2.2757  0.6985
 6540SOL    HW231257   1.875   2.983  10.669 -0.3579  1.8057 -0.0962
 6541SOL     OW31258   4.307   0.384  10.103 -0.4215 -0.1760  0.0706
 6541SOL    HW131259   4.363   0.460  10.088  0.1048 -0.0281  2.8154
 6541SOL    HW231260   4.222   0.418  10.130 -1.6196 -2.9711 -0.1406
 6542SOL     OW31261   4.211   4.320  10.951 -0.0103  0.2659  0.6584
 6542SOL    HW131262   4.169   4.402  10.925 -0.9800 -0.5406 -0.3163
 6542SOL    HW231263   4.146   4.277  11.007  1.4222 -1.6740  0.8460
 6543SOL     OW31264   1.863   4.565   2.150 -0.1128  0.1054 -0.4775
 6543SOL    HW131265   1.861   4.635   2.215 -0.9276  0.7951 -1.2357
 6543SOL    HW231266   1.771   4.548   2.130 -0.7823  0.7930  2.0222
 6544SOL     OW31267   3.507   1.589  15.822 -0.2849 -0.4870 -0.4098
 6544SOL    HW131268   3.565   1.589  15.898  0.5698 -0.6442 -1.0610
 6544SOL    HW231269   3.450   1.657  15.857 -0.4430 -1.1079  0.5428
 6545SOL     OW31270   3.534   1.145   5.626 -0.1082  0.3904 -0.0791
 6545SOL    HW131271   3.557   1.207   5.695 -1.2460 -1.1981  1.7518
 6545SOL    HW231272   3.609   1.087   5.636  0.9036  1.8440  0.8487
 6546SOL     OW31273   3.401   2.007   3.010 -0.4471  0.0962  0.2797
 6546SOL    HW131274   3.453   1.964   3.077  1.3636  1.3633 -0.3184
 6546SOL    HW231275   3.331   2.036   3.068 -1.7187 -0.1820 -1.1046
 6547SOL     OW31276   2.409   0.354   4.591 -0.4013 -0.1621 -0.1833
 6547SOL    HW131277   2.413   0.373   4.497  0.8549 -2.8234 -0.6898
 6547SOL    HW231278   2.485   0.410   4.606  0.4238 -1.2045 -0.4390
 6548SOL     OW31279   2.874   2.777   3.033  0.1420  0.3008  0.0805
 6548SOL    HW131280   2.883   2.830   3.113 -3.4800 -0.2109  0.8150
 6548SOL    HW231281   2.796   2.726   3.054 -2.1920  3.3005 -1.1901
 6549SOL     OW31282   1.478   3.749  11.934 -0.2048  0.3962  0.1217
 6549SOL    HW131283   1.531   3.779  12.008  0.6960  0.0275 -0.3810
 6549SOL    HW231284   1.402   3.805  11.949  0.0275  1.1196 -1.4783
 6550SOL     OW31285   3.414   0.006   7.007  0.0490  0.2045  0.2974
 6550SOL    HW131286   3.471   0.082   7.006  0.5571 -0.1642  1.5366
 6550SOL    HW231287   3.374   0.009   6.920 -1.8576 -1.9086  1.0892
 6551SOL     OW31288   0.923   2.694   3.586  0.6176  0.5491 -0.2291
 6551SOL    HW131289   0.884   2.780   3.571  1.8428  0.8855 -1.5752
 6551SOL    HW231290   0.866   2.659   3.654 -0.1880  2.1141 -0.0961
 6552SOL     OW31291   3.303   4.346   5.152  0.4262 -0.1789  0.1227
 6552SOL    HW131292   3.377   4.404   5.137  1.0919 -1.1152 -0.2326
 6552SOL    HW231293   3.350   4.265   5.174  1.3294  0.3902  0.2704
 6553SOL     OW31294   2.639   3.748   2.786  0.2181 -0.2448  0.2318
 6553SOL    HW131295   2.675   3.665   2.754 -2.5770 -0.7632 -1.6078
 6553SOL    HW231296   2.606   3.795   2.710  2.6951 -0.2672 -0.8497
 6554SOL     OW31297   1.232   2.329   1.307  0.5215 -0.3313  0.2274
 6554SOL    HW131298   1.283   2.254   1.336 -0.6450 -0.9157  0.7684
 6554SOL    HW231299   1.167   2.282   1.255 -0.5258  1.4982 -0.1206
 6555SOL     OW31300   0.904   3.169  10.512  0.6303 -0.1493  0.2298
 6555SOL    HW131301   0.985   3.204  10.549 -1.1091  2.1539  1.9267
 6555SOL    HW231302   0.862   3.134  10.590  1.3472 -1.1703  0.1495
 6556SOL     OW31303   2.556   1.699  11.757  0.7101 -0.1184  0.3627
 6556SOL    HW131304   2.497   1.722  11.686  1.1543  0.8593  0.3060
 6556SOL    HW231305   2.524   1.611  11.777  0.1649 -0.6227 -2.8014
 6557SOL     OW31306   2.914   0.315   5.571  0.1015  0.2642 -0.2441
 6557SOL    HW131307   2.840   0.315   5.632 -1.0765  0.0749 -1.6622
 6557SOL    HW231308   2.920   0.223   5.546  2.4577  0.0237  1.2338
 6558SOL     OW31309   3.053   0.544  13.556  0.1056 -0.0633  0.1035
 6558SOL    HW131310   2.990   0.472  13.543 -0.5229  0.1617  1.8782
 6558SOL    HW231311   3.005   0.617  13.517 -0.7605 -0.0585  1.1818
 6559SOL     OW31312   3.945   2.713   8.617  0.2232 -0.1378  0.0850
 6559SOL    HW131313   3.863   2.666   8.629  0.1308  0.2793  1.1462
 6559SOL    HW231314   4.009   2.643   8.604  1.1482  0.6082  0.5595
 6560SOL     OW31315   1.298   3.222   6.129  0.2876  0.1041  0.2101
 6560SOL    HW131316   1.208   3.191   6.125  0.6715 -0.8450 -0.9859
 6560SOL    HW231317   1.290   3.287   6.199  0.1662  0.7051 -0.3613
 6561SOL     OW31318   1.622   1.697   6.698  0.4388  0.4488  0.0820
 6561SOL    HW131319   1.655   1.619   6.653 -1.2893 -0.4478  0.3914
 6561SOL    HW231320   1.603   1.655   6.781  0.4663  1.1254  0.4329
 6562SOL     OW31321   3.423   0.190   4.604 -0.0089  0.2997 -0.2202
 6562SOL    HW131322   3.333   0.192   4.635  0.8053  1.4371  2.0104
 6562SOL    HW231323   3.431   0.229   4.517 -1.9692  1.4017  0.1006
 6563SOL     OW31324   1.348   2.396   6.196 -0.7771 -0.0516 -0.7257
 6563SOL    HW131325   1.380   2.406   6.286  2.4450  1.4527 -2.0118
 6563SOL    HW231326   1.282   2.328   6.204 -1.4433  0.6378 -0.3648
 6564SOL     OW31327   4.647   4.017   5.489 -0.3620  0.4286  0.0421
 6564SOL    HW131328   4.655   3.939   5.434  2.4823  1.1477 -0.5457
 6564SOL    HW231329   4.676   3.983   5.574  0.3570  0.8965 -0.0196
 6565SOL     OW31330   2.042   0.458  15.482  0.1720  0.2882 -0.2293
 6565SOL    HW131331   1.963   0.508  15.504 -1.5147 -1.5174 -2.1822
 6565SOL    HW231332   2.092   0.464  15.563 -2.2465 -0.0301  1.2674
 6566SOL     OW31333   3.635   2.094  17.703 -0.5347  0.1916  0.0970
 6566SOL    HW131334   3.608   2.165   0.003 -1.4166  0.6648 -0.8753
 6566SOL    HW231335   3.562   2.034  17.719 -1.8310  2.0026  0.9628
 6567SOL     OW31336   0.632   3.457   6.493 -0.0581 -0.5924  0.1263
 6567SOL    HW131337   0.685   3.516   6.439  1.2729 -1.3491  0.6303
 6567SOL    HW231338   0.609   3.515   6.565  0.7115 -2.7826  2.0974
 6568SOL     OW31339   4.294   4.386  14.049 -0.3103 -0.3641  0.3580
 6568SOL    HW131340   4.245   4.402  14.129 -3.1186  2.2613 -1.8896
 6568SOL    HW231341   4.225   4.412  13.988  1.1429  2.7624  0.0832
 6569SOL     OW31342   0.776   0.156   8.270  1.4554  0.2364  0.3170
 6569SOL    HW131343   0.746   0.239   8.234  2.0048 -0.1359 -0.9633
 6569SOL    HW231344   0.734   0.080   8.229 -0.8577  1.5114  0.3345
 6570SOL     OW31345   1.016   0.688   0.879 -0.4190  0.3728 -0.5323
 6570SOL    HW131346   1.035   0.717   0.790  1.0041  0.8070 -0.0905
 6570SOL    HW231347   1.002   0.597   0.856  1.7250  0.0152 -0.4077
 6571SOL     OW31348   2.156   1.585   9.139 -0.0270 -0.2583 -0.5215
 6571SOL    HW131349   2.202   1.501   9.141  0.0354 -0.2660 -2.4782
 6571SOL    HW231350   2.066   1.553   9.134 -0.5757  1.1624  0.3169
 6572SOL     OW31351   0.663   2.748   6.586  0.2226  0.7549 -0.2434
 6572SOL    HW131352   0.668   2.842   6.573  1.8190  0.7032  0.0332
 6572SOL    HW231353   0.725   2.726   6.656 -0.4864  2.3879  0.9023
 6573SOL     OW31354   0.594   0.884   4.784  0.1868 -0.3002 -0.1520
 6573SOL    HW131355   0.567   0.793   4.790 -1.0885  0.1188  0.5306
 6573SOL    HW231356   0.545   0.928   4.854 -1.1260 -0.9825 -0.6529
 6574SOL     OW31357   0.116   0.450   5.386  0.2017 -0.3594 -0.0769
 6574SOL    HW131358   0.114   0.544   5.370 -1.1782 -0.2636  0.6085
 6574SOL    HW231359   0.024   0.427   5.369  0.6722 -2.3437  0.0866
 6575SOL     OW31360   2.150   3.014  17.040  0.3860 -0.2818  0.6386
 6575SOL    HW131361   2.095   3.016  16.962  2.4580  0.1416 -0.8357
 6575SOL    HW231362   2.237   3.006  17.000 -0.4113  3.1226 -1.7035
 6576SOL     OW31363   0.675   1.624   0.642  0.1421 -0.4522 -0.4755
 6576SOL    HW131364   0.628   1.628   0.725  1.2641  0.5674  0.1017
 6576SOL    HW231365   0.756   1.594   0.682 -0.7766 -1.2042  0.8285
 6577SOL     OW31366   3.294   1.961   8.585 -0.1873 -0.2554  0.2589
 6577SOL    HW131367   3.293   2.038   8.528 -0.0633 -1.6352 -1.6292
 6577SOL    HW231368   3.375   1.987   8.628 -1.0908 -0.9501  2.3681
 6578SOL     OW31369   0.341   3.482   2.539  0.1407 -0.5037  0.2827
 6578SOL    HW131370   0.299   3.399   2.561  1.3906 -1.8420 -2.3399
 6578SOL    HW231371   0.264   3.538   2.526  1.0563  0.8283  0.6082
 6579SOL     OW31372   2.081   2.703   5.290  0.4181 -0.1213  0.4921
 6579SOL    HW131373   2.036   2.624   5.323  1.2524 -1.0836 -0.6855
 6579SOL    HW231374   2.157   2.668   5.243  0.9671 -0.4563  1.6238
 6580SOL     OW31375   0.703   1.225   5.445 -0.4827  0.0898 -0.2541
 6580SOL    HW131376   0.768   1.238   5.375 -0.6478  0.6146 -0.3077
 6580SOL    HW231377   0.676   1.134   5.430  0.4388 -0.2027 -0.1769
 6581SOL     OW31378   4.555   4.165   8.114  0.0036 -0.2949  0.7140
 6581SOL    HW131379   4.601   4.249   8.109  0.5860 -0.4097  4.1464
 6581SOL    HW231380   4.463   4.190   8.106 -0.2622 -1.0032  1.4807
 6582SOL     OW31381   1.353   4.422   2.187  0.0665 -0.2748 -0.5989
 6582SOL    HW131382   1.339   4.330   2.210 -2.0154  0.2402  0.1794
 6582SOL    HW231383   1.286   4.471   2.234  0.1441 -2.2255  1.5253
 6583SOL     OW31384   0.087   0.047   2.773  0.0455  0.2564 -0.1389
 6583SOL    HW131385   0.004   0.071   2.813  0.1069 -2.7407  1.7873
 6583SOL    HW231386   0.146   0.074   2.843 -2.4818  1.6066  1.4866
 6584SOL     OW31387   1.041   0.651  16.884 -0.1605 -0.1521 -0.3132
 6584SOL    HW131388   0.983   0.708  16.834 -0.9443 -1.6941 -1.1824
 6584SOL    HW231389   1.104   0.717  16.913  0.3015 -0.1432 -1.3509
 6585SOL     OW31390   0.454   1.140   6.300  0.6389  0.3163  0.4479
 6585SOL    HW131391   0.431   1.217   6.248  0.7785 -0.6581 -1.0569
 6585SOL    HW231392   0.432   1.077   6.232  2.6920 -1.1689  1.1477
 6586SOL     OW31393   3.978   3.057  17.240 -0.0373 -0.7952 -0.5001
 6586SOL    HW131394   4.002   3.083  17.329  2.3743 -0.0448 -1.3515
 6586SOL    HW231395   3.887   3.085  17.245  0.4985  1.4598 -3.1063
 6587SOL     OW31396   2.242   4.670   8.737 -0.3801 -0.3564  0.6895
 6587SOL    HW131397   2.319   4.706   8.692 -0.7054  0.5029  0.8129
 6587SOL    HW231398   2.274   4.617   8.809 -0.9686 -1.4738  0.1272
 6588SOL     OW31399   4.420   3.539   6.373  0.0239 -0.0526  0.1046
 6588SOL    HW131400   4.457   3.597   6.440  0.4357  1.8955 -1.8204
 6588SOL    HW231401   4.386   3.602   6.310 -3.7161 -2.2308 -0.0838
 6589SOL     OW31402   0.317   1.550   1.552  0.3552  0.4871  0.2573
 6589SOL    HW131403   0.334   1.636   1.590 -0.6178  0.1245  1.5467
 6589SOL    HW231404   0.222   1.560   1.558  0.1331 -2.3994  1.9014
 6590SOL     OW31405   3.801   4.609   9.174  0.5023  0.4270  0.4774
 6590SOL    HW131406   3.815   4.531   9.228 -0.2887  0.4658  0.7304
 6590SOL    HW231407   3.772   4.667   9.245 -0.1796 -0.4059  0.8820
 6591SOL     OW31408   0.844   3.077  15.012 -0.5687 -0.1989  0.4567
 6591SOL    HW131409   0.850   3.070  15.108 -4.6714  0.6840  0.7727
 6591SOL    HW231410   0.803   3.163  15.005  0.0722  0.2622  2.4165
 6592SOL     OW31411   1.583   2.139   5.798 -0.1412 -0.3647  0.6252
 6592SOL    HW131412   1.555   2.213   5.851 -0.7404  0.3350 -0.6894
 6592SOL    HW231413   1.510   2.082   5.820  0.1047 -0.8985  0.0833
 6593SOL     OW31414   1.749   0.500   3.758  0.6086  0.7615 -0.3102
 6593SOL    HW131415   1.663   0.470   3.786  1.2493 -2.0020 -1.2884
 6593SOL    HW231416   1.776   0.417   3.719 -0.0863  0.2240  0.3634
 6594SOL     OW31417   4.120   1.954   3.631  0.3871  0.5555 -0.0596
 6594SOL    HW131418   4.190   1.937   3.694 -0.3442  0.3729  0.7025
 6594SOL    HW231419   4.086   2.035   3.668 -1.4810 -0.7206  1.0213
 6595SOL     OW31420   2.920   1.767  14.728  0.3047 -0.0863 -0.4762
 6595SOL    HW131421   2.865   1.743  14.654 -2.0730 -0.3835  1.3834
 6595SOL    HW231422   2.918   1.688  14.782  2.0540  0.7845  0.9059
 6596SOL     OW31423   0.782   0.577   4.374  0.2290  0.4999  0.3144
 6596SOL    HW131424   0.688   0.598   4.378  0.6329  2.3678  0.0590
 6596SOL    HW231425   0.801   0.519   4.301  1.8471  2.8275 -1.0896
 6597SOL     OW31426   0.443   4.670   1.216 -0.3888 -0.5914 -0.2038
 6597SOL    HW131427   0.357   4.631   1.199 -1.1768 -0.0284  2.6160
 6597SOL    HW231428   0.430   0.015   1.174 -0.3319  0.1527  1.2807
 6598SOL     OW31429   0.315   1.699  10.205 -0.5360  0.0878  0.0337
 6598SOL    HW131430   0.244   1.763  10.199 -1.5092 -1.0466 -0.8047
 6598SOL    HW231431   0.286   1.658  10.287  1.7747 -1.0961  0.2549
 6599SOL     OW31432   2.467   3.018   4.764 -0.6172 -0.5823 -0.5251
 6599SOL    HW131433   2.402   2.961   4.804 -1.5102 -0.3768 -1.7023
 6599SOL    HW231434   2.436   3.099   4.806  0.0619 -0.3247 -0.5205
 6600SOL     OW31435   0.312   2.453  15.145 -0.3487  0.1663 -0.1547
 6600SOL    HW131436   0.279   2.371  15.108 -0.1568 -0.3011  0.6924
 6600SOL    HW231437   0.372   2.421  15.213 -2.3749 -1.0599  1.0739
 6601SOL     OW31438   0.679   2.299   5.157 -0.3429  0.5940  0.2139
 6601SOL    HW131439   0.771   2.295   5.130 -1.3422 -1.5717 -2.9090
 6601SOL    HW231440   0.644   2.282   5.069  1.1507 -1.3418 -0.0056
 6602SOL     OW31441   1.686   1.207   4.550 -0.7213 -0.5092  0.5031
 6602SOL    HW131442   1.639   1.125   4.535  0.2609 -1.1347  0.8480
 6602SOL    HW231443   1.613   1.253   4.591  0.6913 -0.2208  2.6855
 6603SOL     OW31444   4.285   1.956   9.719 -0.0226  0.3717  0.2096
 6603SOL    HW131445   4.293   1.869   9.680 -0.7591  1.0670 -1.4609
 6603SOL    HW231446   4.197   1.951   9.756  0.2741  1.4731  1.0719
 6604SOL     OW31447   3.876   3.140   7.482 -0.0772 -0.3024  0.3626
 6604SOL    HW131448   3.825   3.100   7.552 -2.0462 -0.4292 -1.1646
 6604SOL    HW231449   3.932   3.069   7.452  0.2875  0.1558 -0.0443
 6605SOL     OW31450   0.791   2.677   4.183 -0.1489  0.1436  0.0484
 6605SOL    HW131451   0.738   2.710   4.110  0.7898  0.0645 -0.6612
 6605SOL    HW231452   0.767   2.584   4.184  1.7706 -0.3347  0.4997
 6606SOL     OW31453   4.482   1.120   1.385 -0.2783  0.3006 -0.2402
 6606SOL    HW131454   4.486   1.039   1.334  1.7595 -0.4425  1.1072
 6606SOL    HW231455   4.556   1.114   1.445 -0.0755 -1.5727 -0.6812
 6607SOL     OW31456   4.372   4.353  16.318  0.3640  0.4314  0.0825
 6607SOL    HW131457   4.427   4.421  16.357  0.7453  2.3207 -3.7549
 6607SOL    HW231458   4.300   4.363  16.381  0.5963 -0.0958  0.4284
 6608SOL     OW31459   4.138   3.810   1.852  0.0453 -0.5296 -0.4152
 6608SOL    HW131460   4.068   3.802   1.917  0.3434 -1.1212 -0.1643
 6608SOL    HW231461   4.105   3.881   1.797 -1.5223 -0.7599  0.2216
 6609SOL     OW31462   2.878   2.737   7.519 -0.0917  0.0042  0.4010
 6609SOL    HW131463   2.861   2.814   7.573 -1.3978  0.8898 -1.2970
 6609SOL    HW231464   2.949   2.771   7.464 -0.5959 -2.3042 -1.6978
 6610SOL     OW31465   0.083   3.962   3.292 -0.1374  0.1478  0.2213
 6610SOL    HW131466   0.109   3.987   3.203 -1.1555  0.3760 -0.0208
 6610SOL    HW231467   0.159   3.918   3.330  0.4804 -0.5745 -1.8609
 6611SOL     OW31468   3.361   0.449   2.467 -0.0478 -0.5778  0.0075
 6611SOL    HW131469   3.316   0.366   2.452 -0.1333 -0.5329  0.0203
 6611SOL    HW231470   3.373   0.442   2.562  1.1166 -0.2106 -0.1104
 6612SOL     OW31471   2.406   2.701  14.730 -0.5849  0.1583 -0.0447
 6612SOL    HW131472   2.431   2.790  14.704  3.4164 -0.7970  0.5337
 6612SOL    HW231473   2.311   2.705  14.723 -0.3360  1.0273 -3.0449
 6613SOL     OW31474   1.055   3.111  10.858 -0.1654  0.2413 -0.1393
 6613SOL    HW131475   1.076   3.043  10.923 -0.6992  0.0523 -0.1696
 6613SOL    HW231476   0.964   3.131  10.876 -0.4853  0.1566 -1.6714
 6614SOL     OW31477   1.967   4.523   8.776 -0.3061 -0.2865  0.1133
 6614SOL    HW131478   1.895   4.581   8.803  2.5760  3.3822 -0.1028
 6614SOL    HW231479   2.036   4.583   8.803 -1.0460  0.0162  1.3604
 6615SOL     OW31480   0.932   0.727   2.486  0.2566 -0.1098  0.2415
 6615SOL    HW131481   0.932   0.653   2.425  1.9713  0.0494  0.0636
 6615SOL    HW231482   1.021   0.732   2.520 -0.5962  3.1096  1.9776
 6616SOL     OW31483   2.023   2.439  10.782  0.0053  0.2579  0.1842
 6616SOL    HW131484   2.064   2.524  10.800  0.2134  0.4719 -1.3159
 6616SOL    HW231485   2.059   2.389  10.856 -1.3209 -2.1473 -0.7998
 6617SOL     OW31486   1.474   3.855   6.412  0.2447 -0.0075  0.0492
 6617SOL    HW131487   1.535   3.921   6.378  2.7153 -1.0655  2.3529
 6617SOL    HW231488   1.464   3.876   6.505  2.6191 -0.2668  0.3618
 6618SOL     OW31489   2.815   2.597   2.672 -0.7506  0.3070  0.6589
 6618SOL    HW131490   2.838   2.565   2.584 -0.5123 -1.3414  1.3202
 6618SOL    HW231491   2.719   2.594   2.664 -0.8185  1.9905  0.7861
 6619SOL     OW31492   2.474   2.579   9.166  0.8006 -0.1167 -0.0972
 6619SOL    HW131493   2.490   2.658   9.217  0.9429 -0.0445 -0.2548
 6619SOL    HW231494   2.507   2.614   9.084  1.1467 -1.2272 -0.4325
 6620SOL     OW31495   4.709   4.384   9.432 -1.1012  0.0563  0.2451
 6620SOL    HW131496   4.622   4.394   9.393 -0.8415  0.6062 -0.1900
 6620SOL    HW231497   4.726   4.299   9.389  1.6561  1.0867 -0.7444
 6621SOL     OW31498   3.221   3.066   6.127  0.1069  0.6844  0.0166
 6621SOL    HW131499   3.290   3.077   6.061  1.2807 -0.7749  0.9900
 6621SOL    HW231500   3.181   2.987   6.091  1.3157 -0.3955  1.0612
 6622SOL     OW31501   2.328   0.277   4.012  0.4749 -0.5215 -0.1876
 6622SOL    HW131502   2.419   0.249   3.998 -0.3203 -1.7738 -2.7658
 6622SOL    HW231503   2.282   0.223   3.948 -0.5205  1.0710 -0.7991
 6623SOL     OW31504   0.441   1.624   6.189 -0.2135 -0.1018 -0.0999
 6623SOL    HW131505   0.413   1.545   6.235  1.3361 -0.4119  0.3060
 6623SOL    HW231506   0.380   1.623   6.115 -1.9301  1.2653  1.3185
 6624SOL     OW31507   4.477   2.220   5.796 -0.2753  0.7574  0.6497
 6624SOL    HW131508   4.384   2.230   5.816 -0.1792 -0.2588  1.6364
 6624SOL    HW231509   4.487   2.255   5.708 -1.8407  0.3841  0.3170
 6625SOL     OW31510   2.944   4.648   4.536 -0.2791 -0.8113  0.0475
 6625SOL    HW131511   2.912   4.622   4.622 -1.0027  0.6583  0.2363
 6625SOL    HW231512   2.886   4.606   4.472 -1.1006 -2.0153  1.5811
 6626SOL     OW31513   3.829   3.569   8.562  0.0023  0.7730  0.1563
 6626SOL    HW131514   3.855   3.654   8.598 -2.1100  0.9503  1.3126
 6626SOL    HW231515   3.738   3.593   8.544 -0.1174  1.1220  1.1850
 6627SOL     OW31516   1.931   0.191   8.617  0.0948  0.1859  0.3561
 6627SOL    HW131517   1.843   0.163   8.643 -0.5257  2.7235  0.9416
 6627SOL    HW231518   1.910   0.282   8.594 -1.6462 -0.3589 -0.2364
 6628SOL     OW31519   2.426   2.152   8.051  0.2409  0.0456 -0.5471
 6628SOL    HW131520   2.446   2.238   8.087 -1.3638  0.0044  0.4434
 6628SOL    HW231521   2.331   2.150   8.065  0.3336  1.1891  0.1965
 6629SOL     OW31522   0.962   2.972   1.232 -0.5889 -0.4022 -0.8310
 6629SOL    HW131523   0.922   3.039   1.287 -1.4449 -2.1412  0.6481
 6629SOL    HW231524   1.048   2.968   1.274 -1.4031 -0.4344  0.8148
 6630SOL     OW31525   0.674   3.189   8.412  0.2293  0.7059  0.2043
 6630SOL    HW131526   0.769   3.189   8.421  0.3259  1.9756 -0.7720
 6630SOL    HW231527   0.646   3.243   8.486 -0.1650  0.2652  0.3740
 6631SOL     OW31528   1.384   3.506   2.689  0.7063 -0.0110  0.2011
 6631SOL    HW131529   1.411   3.420   2.720 -1.1785 -0.3186  0.9654
 6631SOL    HW231530   1.339   3.531   2.770  2.9685  0.4780  1.2929
 6632SOL     OW31531   1.273   3.524  11.673 -0.2166 -0.3490  0.1369
 6632SOL    HW131532   1.342   3.507  11.738  1.0895  1.1042 -0.8483
 6632SOL    HW231533   1.315   3.607  11.647  0.9520 -1.3931 -1.2935
 6633SOL     OW31534   0.510   2.097   6.312 -0.0233 -0.1061 -0.0316
 6633SOL    HW131535   0.464   2.039   6.373 -0.5460 -0.2145 -0.5321
 6633SOL    HW231536   0.468   2.078   6.228  1.0252 -2.3510 -0.0457
 6634SOL     OW31537   3.063   0.741  17.703 -0.0201 -0.2490  0.3953
 6634SOL    HW131538   3.120   0.666  17.686 -0.8794 -0.7591 -0.2136
 6634SOL    HW231539   3.125   0.805  17.738 -1.6766  0.9764  1.1238
 6635SOL     OW31540   4.156   0.444   7.684 -0.7557  0.3076 -0.3195
 6635SOL    HW131541   4.236   0.493   7.663 -0.4869 -0.0928 -0.2164
 6635SOL    HW231542   4.138   0.484   7.769 -0.1842  0.8139 -0.4396
 6636SOL     OW31543   1.282   4.631   5.516  0.1832  0.0063  0.2502
 6636SOL    HW131544   1.273   4.565   5.585  0.3870 -0.2700  0.0164
 6636SOL    HW231545   1.192   4.629   5.484 -0.5292  2.6095  2.0956
 6637SOL     OW31546   3.645   1.153   8.761  0.4216 -0.5300 -0.2077
 6637SOL    HW131547   3.649   1.220   8.829  0.2770 -1.3845  0.6596
 6637SOL    HW231548   3.620   1.210   8.688 -1.4385 -0.0129  0.8318
 6638SOL     OW31549   2.574   2.080  11.029  0.2787  0.0163 -0.1780
 6638SOL    HW131550   2.520   2.004  11.049 -0.1608  0.5037  0.4537
 6638SOL    HW231551   2.602   2.048  10.943 -0.0992 -0.4425 -0.1298
 6639SOL     OW31552   4.579   0.167   6.673  0.1453  0.6791  0.0782
 6639SOL    HW131553   4.663   0.133   6.645  0.5640  2.2128 -0.5512
 6639SOL    HW231554   4.566   0.220   6.593 -2.4382 -1.3800 -0.8709
 6640SOL     OW31555   2.796   1.797   2.717  0.3809 -0.5931  0.5424
 6640SOL    HW131556   2.707   1.803   2.752 -0.7353 -1.5880 -2.1285
 6640SOL    HW231557   2.826   1.763   2.801 -0.8813 -0.0824  1.2013
 6641SOL     OW31558   1.082   2.801  10.896 -0.0692  0.3646 -0.3749
 6641SOL    HW131559   1.163   2.809  10.847  0.0513  0.5395 -0.1491
 6641SOL    HW231560   1.037   2.755  10.825  0.0005  0.0200 -0.1949
 6642SOL     OW31561   0.150   4.389   4.132  0.5815  0.3226  0.0114
 6642SOL    HW131562   0.104   4.369   4.214 -0.1525  1.4318 -0.1224
 6642SOL    HW231563   0.170   4.483   4.140 -1.1355  0.5153  1.8699
 6643SOL     OW31564   2.880   3.771   5.578 -0.0977  0.1951 -0.5100
 6643SOL    HW131565   2.791   3.802   5.560  0.1375  0.2260 -1.6395
 6643SOL    HW231566   2.908   3.750   5.489  1.2197 -0.7389  0.1329
 6644SOL     OW31567   1.348   3.398   7.076  0.9229 -0.1674 -0.2087
 6644SOL    HW131568   1.254   3.405   7.061  1.2983  1.0680 -2.0900
 6644SOL    HW231569   1.375   3.363   6.990  0.9153  1.1750 -0.7586
 6645SOL     OW31570   2.636   0.115   8.997 -0.2584 -0.0695 -0.1665
 6645SOL    HW131571   2.575   0.051   9.035 -0.7673  1.0298  0.8591
 6645SOL    HW231572   2.602   0.184   9.054 -0.9026 -0.1729 -0.4214
 6646SOL     OW31573   0.638   3.072  15.832  0.0488  0.2310 -0.1631
 6646SOL    HW131574   0.552   3.105  15.805  0.1218 -1.9118 -2.9483
 6646SOL    HW231575   0.627   2.988  15.789  1.6745 -0.0843  0.0433
 6647SOL     OW31576   1.610   0.746   3.692 -0.3328 -0.1571  0.2431
 6647SOL    HW131577   1.623   0.661   3.736  1.2509  0.2085  0.4869
 6647SOL    HW231578   1.524   0.741   3.652 -0.3380  1.1194  0.0944
 6648SOL     OW31579   3.100   0.622   2.218 -0.4109 -0.4521 -0.5307
 6648SOL    HW131580   3.062   0.535   2.210 -1.0127 -0.2861  0.5715
 6648SOL    HW231581   3.092   0.651   2.127 -2.2221 -1.1523 -0.5777
 6649SOL     OW31582   2.296   2.812   5.817  0.7377  0.2131 -0.3578
 6649SOL    HW131583   2.216   2.781   5.860  1.0710  2.8582  2.1635
 6649SOL    HW231584   2.272   2.805   5.724  1.6431  0.6906 -0.6272
 6650SOL     OW31585   4.504   0.650   8.581 -0.4719 -0.0323  0.1846
 6650SOL    HW131586   4.528   0.563   8.551  1.3249  0.6095 -0.2564
 6650SOL    HW231587   4.505   0.707   8.504  0.6313  0.8736  0.8788
 6651SOL     OW31588   1.481   3.483  15.053 -0.1378 -0.2421  0.0046
 6651SOL    HW131589   1.442   3.396  15.053  2.4344 -1.4036  3.5866
 6651SOL    HW231590   1.509   3.487  15.144 -1.1138 -2.3516  0.3879
 6652SOL     OW31591   2.975   2.830   2.287 -0.3400 -0.1755  0.1077
 6652SOL    HW131592   3.017   2.747   2.268  0.4887  0.7114 -1.9660
 6652SOL    HW231593   3.042   2.878   2.336 -1.6082  1.1661  0.5464
 6653SOL     OW31594   4.464   4.379   3.436  0.0507  0.5662 -0.4188
 6653SOL    HW131595   4.514   4.410   3.360  1.2215  0.1587  0.1902
 6653SOL    HW231596   4.508   4.294   3.445 -1.5183  0.1848  3.3307
 6654SOL     OW31597   4.478   3.989  13.691  0.0214  0.0127  0.3620
 6654SOL    HW131598   4.561   3.967  13.734 -0.1654  0.3119  0.8748
 6654SOL    HW231599   4.449   3.903  13.663 -0.4586 -0.2736  1.7342
 6655SOL     OW31600   1.769   2.945   4.654 -0.1116  0.1811  0.1153
 6655SOL    HW131601   1.706   2.934   4.583 -0.7727 -0.5940  0.8260
 6655SOL    HW231602   1.733   2.887   4.721 -2.2725 -0.0123 -1.2034
 6656SOL     OW31603   2.948   4.319   1.787 -0.0582 -0.0405 -0.0915
 6656SOL    HW131604   2.986   4.232   1.798 -0.4848 -0.2962 -0.6750
 6656SOL    HW231605   3.024   4.375   1.801  1.2890 -1.5185 -1.4426
 6657SOL     OW31606   1.422   3.820   2.578 -0.4119  0.0821 -0.0668
 6657SOL    HW131607   1.489   3.757   2.551  0.4344  0.5669  0.8840
 6657SOL    HW231608   1.450   3.826   2.669 -3.3885 -0.4138  0.8762
 6658SOL     OW31609   0.271   2.258  14.932  0.6151 -0.0254  0.2029
 6658SOL    HW131610   0.176   2.264  14.943  0.8650  0.3509  2.2573
 6658SOL    HW231611   0.282   2.264  14.837  1.3371  0.8910  0.3458
 6659SOL     OW31612   3.287   3.162   4.031 -0.4124  0.1865  0.2060
 6659SOL    HW131613   3.311   3.076   4.064  1.6393 -0.2982 -2.5912
 6659SOL    HW231614   3.211   3.135   3.979  0.2658  1.3145 -1.3703
 6660SOL     OW31615   0.036   0.760   5.245 -0.2519  0.3416 -0.2178
 6660SOL    HW131616   4.730   0.712   5.177 -0.6016  0.6282 -0.1833
 6660SOL    HW231617   0.008   0.847   5.216  0.0143 -0.1180 -1.8355
 6661SOL     OW31618   4.318   4.540  16.751 -0.7642  0.1145 -0.1015
 6661SOL    HW131619   4.263   4.579  16.819 -1.9541 -0.6388 -0.6484
 6661SOL    HW231620   4.397   4.595  16.761 -1.9836  1.7566  0.4989
 6662SOL     OW31621   1.248   0.078   6.882 -0.1642  0.0104 -0.2162
 6662SOL    HW131622   1.277   0.145   6.943  0.7428 -0.4920 -0.0972
 6662SOL    HW231623   1.329   0.030   6.865 -0.3934 -1.3627  2.5579
 6663SOL     OW31624   1.082   3.525   5.445  0.1208 -0.5267 -0.2621
 6663SOL    HW131625   1.095   3.432   5.461 -0.1385 -0.1364  2.1733
 6663SOL    HW231626   0.999   3.536   5.492  0.7297 -3.0187  1.3941
 6664SOL     OW31627   3.324   1.076   9.555  0.0874  0.2591  0.9176
 6664SOL    HW131628   3.305   1.115   9.641  1.1773 -1.4862  1.9345
 6664SOL    HW231629   3.372   0.997   9.577 -0.5063  0.5428  3.1974
 6665SOL     OW31630   2.097   0.167  11.582 -0.0444 -0.1581  0.4995
 6665SOL    HW131631   2.151   0.235  11.543 -0.8408  0.7876  1.0321
 6665SOL    HW231632   2.093   0.106  11.507 -1.2331  0.3521  0.1447
 6666SOL     OW31633   1.736   2.109  14.581  0.1585  0.0414  0.7987
 6666SOL    HW131634   1.651   2.153  14.578  0.5148  0.6404 -0.5101
 6666SOL    HW231635   1.746   2.085  14.489  0.5632  4.5820 -0.3510
 6667SOL     OW31636   0.162   2.327   0.372 -0.3441 -0.0975  0.3603
 6667SOL    HW131637   0.112   2.291   0.444 -1.2558  0.3699 -0.0414
 6667SOL    HW231638   0.167   2.416   0.408 -1.5513  1.0733 -2.3076
 6668SOL     OW31639   2.848   3.473  15.023  0.2304  0.1861 -0.2191
 6668SOL    HW131640   2.854   3.534  14.949 -1.8084  0.5739 -0.0872
 6668SOL    HW231641   2.753   3.463  15.034  0.7144 -1.8029  2.0171
 6669SOL     OW31642   3.495   1.148   2.074  0.0321  0.2616 -0.0569
 6669SOL    HW131643   3.433   1.197   2.128 -1.7649 -1.8087 -0.1845
 6669SOL    HW231644   3.548   1.103   2.140  1.3643  1.1792 -0.5126
 6670SOL     OW31645   4.077   2.521   6.391 -0.5083 -0.1474 -0.9823
 6670SOL    HW131646   4.127   2.542   6.469  0.7273  1.8363 -2.3250
 6670SOL    HW231647   4.141   2.465   6.347  0.2606  0.5856 -0.7931
 6671SOL     OW31648   3.303   4.093  13.814 -0.5695  0.4309 -0.0965
 6671SOL    HW131649   3.291   4.086  13.909  1.2369 -0.7211  0.0474
 6671SOL    HW231650   3.238   4.031  13.782  0.8805 -0.6560 -0.9739
 6672SOL     OW31651   0.664   2.760  17.577  0.7985 -0.0422  0.2803
 6672SOL    HW131652   0.603   2.779  17.505  0.0678 -0.9069  0.6700
 6672SOL    HW231653   0.699   2.672  17.561  1.2292  0.2509 -0.3858
 6673SOL     OW31654   3.598   4.562  17.366 -0.2327 -0.3797  0.1762
 6673SOL    HW131655   3.533   4.604  17.309  0.8220  0.5935 -0.2984
 6673SOL    HW231656   3.541   4.500  17.411 -1.3690 -0.6618 -1.6287
 6674SOL     OW31657   1.623   4.699  15.357 -0.3518  0.0061 -0.2490
 6674SOL    HW131658   1.594   4.632  15.418 -1.0150  1.1669  0.7193
 6674SOL    HW231659   1.544   4.699  15.302 -1.1119  0.9746  0.8295
 6675SOL     OW31660   4.523   3.030   1.883 -0.5910 -0.1488  0.0242
 6675SOL    HW131661   4.544   3.123   1.887 -0.7532 -0.1536  0.9066
 6675SOL    HW231662   4.595   2.998   1.938 -0.4462 -0.5164 -0.3787
 6676SOL     OW31663   3.659   0.922   1.643 -0.0498  0.0363  0.6601
 6676SOL    HW131664   3.567   0.931   1.618  0.2517  1.5434  0.0564
 6676SOL    HW231665   3.670   0.994   1.705 -1.7434  0.6366  0.2743
 6677SOL     OW31666   1.437   3.095  14.803 -0.3466 -0.0503 -0.2814
 6677SOL    HW131667   1.504   3.053  14.749  2.4155 -0.7343  3.6533
 6677SOL    HW231668   1.355   3.105  14.755  0.5731 -2.0530 -2.2909
 6678SOL     OW31669   1.053   0.545   3.898  0.3075 -0.3017 -0.7647
 6678SOL    HW131670   0.969   0.567   3.858  0.9423 -0.9482 -2.4307
 6678SOL    HW231671   1.067   0.614   3.963  2.3678  0.3067 -1.8715
 6679SOL     OW31672   4.314   2.075   2.870 -0.1495  0.3749 -0.2831
 6679SOL    HW131673   4.226   2.044   2.849 -0.0166 -0.8299  0.9362
 6679SOL    HW231674   4.299   2.169   2.859  2.9453  1.0508  1.2329
 6680SOL     OW31675   4.640   2.272   1.671  0.6546 -0.7598 -0.2078
 6680SOL    HW131676   4.591   2.191   1.660 -0.6609 -0.2588  1.9269
 6680SOL    HW231677   4.578   2.345   1.680 -1.3468 -2.3199 -1.3982
 6681SOL     OW31678   4.272   1.181   5.787 -0.6878 -0.0614 -0.0758
 6681SOL    HW131679   4.248   1.097   5.826 -2.1078  0.3592 -0.0542
 6681SOL    HW231680   4.214   1.234   5.841  0.0003 -0.3204  0.9039
 6682SOL     OW31681   4.334   2.341   7.047  0.5628 -0.3331 -0.0861
 6682SOL    HW131682   4.369   2.252   7.044  1.4565  0.0431 -0.8402
 6682SOL    HW231683   4.316   2.347   7.141  1.3423 -1.3560  0.1291
 6683SOL     OW31684   3.562   4.204  12.637 -0.2596 -0.1084 -0.4368
 6683SOL    HW131685   3.485   4.255  12.610 -2.3288 -2.5280  0.9853
 6683SOL    HW231686   3.602   4.209  12.550  1.0665 -2.7521  0.0246
 6684SOL     OW31687   2.556   0.931   8.840  0.4809  0.0386 -0.1045
 6684SOL    HW131688   2.630   0.892   8.795  0.7655  0.6592 -0.1754
 6684SOL    HW231689   2.498   0.856   8.852  1.1833 -0.4275  0.3377
 6685SOL     OW31690   3.897   1.205   9.442  0.0693 -0.8153  0.6272
 6685SOL    HW131691   3.951   1.193   9.364  1.2699  0.5616  1.2682
 6685SOL    HW231692   3.812   1.198   9.397  1.5438 -3.0394 -1.8448
 6686SOL     OW31693   0.956   2.917   2.247 -0.0840 -0.2306  0.7666
 6686SOL    HW131694   0.963   2.839   2.192 -1.7553 -0.2764  0.6002
 6686SOL    HW231695   0.981   2.876   2.330 -0.3433  3.2653  2.5778
 6687SOL     OW31696   3.098   3.809   5.012  0.2392 -0.1061 -0.0686
 6687SOL    HW131697   3.042   3.756   4.956  0.3316  0.7976 -1.0275
 6687SOL    HW231698   3.126   3.885   4.959 -2.7377  1.1797  0.1773
 6688SOL     OW31699   0.651   4.488   9.369  0.1466 -0.2066 -0.3409
 6688SOL    HW131700   0.631   4.579   9.388 -0.1096 -0.4390  0.5087
 6688SOL    HW231701   0.595   4.475   9.293 -1.1391  0.3417  0.5313
 6689SOL     OW31702   2.488   3.966  10.852 -0.1398 -0.3472  0.4914
 6689SOL    HW131703   2.500   4.037  10.915 -1.7673  1.6585 -1.4669
 6689SOL    HW231704   2.468   3.895  10.913  0.5629 -2.6312 -1.9130
 6690SOL     OW31705   4.558   2.878   1.661 -0.6929 -0.2367 -0.2834
 6690SOL    HW131706   4.562   2.916   1.749  1.2629  0.2451 -0.5915
 6690SOL    HW231707   4.637   2.825   1.659  0.4908  1.4951  0.8602
 6691SOL     OW31708   4.018   2.241   5.135  0.1761 -0.4979  0.0993
 6691SOL    HW131709   4.039   2.247   5.228  0.8601  0.6435 -0.1209
 6691SOL    HW231710   4.049   2.328   5.108 -1.7732  0.3649  0.6602
 6692SOL     OW31711   1.609   0.569   8.457  0.0610  0.1478  0.0656
 6692SOL    HW131712   1.528   0.587   8.410  0.0366 -0.2244 -0.0367
 6692SOL    HW231713   1.579   0.503   8.519  0.7945 -0.2164  0.0380
 6693SOL     OW31714   4.179   4.714   8.659 -0.1803 -0.0493 -0.4323
 6693SOL    HW131715   4.195   0.009   8.747 -0.1455  0.6301 -0.7149
 6693SOL    HW231716   4.084   4.725   8.656 -0.1490  0.4543  0.3253
 6694SOL     OW31717   2.806   2.066   3.363  0.1612  0.2809 -0.0865
 6694SOL    HW131718   2.829   2.147   3.317 -0.5870  1.3047  1.3139
 6694SOL    HW231719   2.882   2.016   3.335  0.0665  0.8488 -1.3392
 6695SOL     OW31720   2.509   4.154   6.021  0.4430  0.3124 -0.3106
 6695SOL    HW131721   2.521   4.247   6.001  1.7754 -0.1272 -1.5116
 6695SOL    HW231722   2.440   4.117   5.966  1.6776 -1.1790 -0.8503
 6696SOL     OW31723   2.353   4.652   3.102 -0.0749  0.1648  0.2225
 6696SOL    HW131724   2.328   0.002   3.122  2.1437  1.0630 -1.1355
 6696SOL    HW231725   2.442   4.645   3.135 -0.6469 -0.2272  1.6969
 6697SOL     OW31726   3.436   4.235   8.719  0.0985  0.6740  0.5029
 6697SOL    HW131727   3.466   4.258   8.807 -4.3054  0.0841  2.1662
 6697SOL    HW231728   3.505   4.269   8.662  0.0993  0.9773  0.6867
 6698SOL     OW31729   4.647   1.253  14.804  0.5095 -0.5161  0.3428
 6698SOL    HW131730   4.631   1.333  14.754  1.8443 -1.0711 -0.9416
 6698SOL    HW231731   4.735   1.235  14.774  1.1586  1.8162  0.8602
 6699SOL     OW31732   0.931   0.321  16.389  0.0049 -0.4481  0.2417
 6699SOL    HW131733   0.923   0.395  16.449  2.8715 -2.5687  3.2417
 6699SOL    HW231734   0.994   0.269  16.440  0.3701  2.1038  2.4363
 6700SOL     OW31735   3.164   0.921   8.394  0.5096 -0.0921 -0.1268
 6700SOL    HW131736   3.160   0.992   8.329  0.9526  1.6774  1.7507
 6700SOL    HW231737   3.246   0.878   8.370  0.4261 -1.2743  1.7529
 6701SOL     OW31738   3.200   2.880   6.799  0.5954  0.2758  0.0680
 6701SOL    HW131739   3.128   2.817   6.789  0.4281  0.3903  0.5297
 6701SOL    HW231740   3.263   2.841   6.739 -0.3115 -1.6072  0.3303
 6702SOL     OW31741   2.510   3.731  14.911 -0.1762 -0.0784 -0.0482
 6702SOL    HW131742   2.550   3.695  14.991  2.3684  0.0383 -1.2819
 6702SOL    HW231743   2.478   3.652  14.868 -1.2189  1.0624 -1.3582
 6703SOL     OW31744   2.967   2.874   8.342  0.0728 -0.4098  0.1643
 6703SOL    HW131745   3.017   2.920   8.409  0.5583  1.3249 -1.3995
 6703SOL    HW231746   2.947   2.798   8.397  0.8405 -0.5157  0.2985
 6704SOL     OW31747   4.645   2.689   5.169  0.3164  0.4130  0.2995
 6704SOL    HW131748   4.702   2.644   5.231  1.2767 -1.1251 -1.7121
 6704SOL    HW231749   4.559   2.670   5.208  1.1335 -3.9047 -0.0545
 6705SOL     OW31750   3.529   0.597  13.689 -0.3799  0.3505  0.3340
 6705SOL    HW131751   3.519   0.521  13.632  0.2658  1.9000 -1.8747
 6705SOL    HW231752   3.444   0.633  13.663 -0.0456 -0.0676 -1.3031
 6706SOL     OW31753   0.200   2.892   5.161  0.8747  0.0005  0.0376
 6706SOL    HW131754   0.282   2.862   5.200 -0.3637 -4.4197 -0.7751
 6706SOL    HW231755   0.195   2.824   5.095 -0.1294  0.1000  0.0089
 6707SOL     OW31756   4.379   2.600   8.140 -0.1445 -0.0044 -0.2333
 6707SOL    HW131757   4.382   2.552   8.057 -0.8676  2.7707 -1.8496
 6707SOL    HW231758   4.415   2.684   8.113  0.8030 -0.8552 -1.6595
 6708SOL     OW31759   2.985   1.226   7.438  0.0649 -0.0386  0.3994
 6708SOL    HW131760   2.997   1.289   7.509 -1.3172  1.3650 -0.6219
 6708SOL    HW231761   2.952   1.157   7.496  0.0918  0.1506  0.6411
 6709SOL     OW31762   2.531   0.794   1.104  0.3444 -0.0780 -0.2535
 6709SOL    HW131763   2.441   0.762   1.110 -0.4438  1.9797 -0.9811
 6709SOL    HW231764   2.573   0.752   1.179 -1.0852 -2.6467 -0.8891
 6710SOL     OW31765   1.630   3.710   4.290 -0.4299 -0.6825 -0.0097
 6710SOL    HW131766   1.709   3.680   4.335  0.0194  1.1923  0.4490
 6710SOL    HW231767   1.561   3.711   4.356 -1.1235 -0.4385 -0.7383
 6711SOL     OW31768   1.700   0.971   3.511  0.5153 -0.1715 -0.3059
 6711SOL    HW131769   1.673   0.882   3.534 -0.2147  0.1416  0.0699
 6711SOL    HW231770   1.675   1.022   3.588  0.9098  0.4225 -0.5709
 6712SOL     OW31771   3.178   1.795  15.088  0.1002  0.1951 -0.0041
 6712SOL    HW131772   3.196   1.736  15.015 -1.6532 -1.4546  0.9039
 6712SOL    HW231773   3.211   1.875  15.048 -0.9598 -0.0416 -1.3463
 6713SOL     OW31774   0.535   4.240   3.941  0.3660 -0.3165 -0.3628
 6713SOL    HW131775   0.454   4.212   3.984  0.4872 -1.4490 -0.8723
 6713SOL    HW231776   0.504   4.319   3.897  1.6183 -0.2472 -1.0887
 6714SOL     OW31777   2.920   3.660   4.833 -0.1013 -1.0253 -0.1979
 6714SOL    HW131778   2.952   3.589   4.889  3.5514 -0.5190 -1.6378
 6714SOL    HW231779   2.967   3.647   4.751 -0.0808 -0.2346 -0.3089
 6715SOL     OW31780   2.335   3.872  17.024  0.1069  0.0881  0.4216
 6715SOL    HW131781   2.332   3.897  16.932 -0.9911  0.2449  0.4975
 6715SOL    HW231782   2.336   3.960  17.063 -1.2723 -0.2359  1.2040
 6716SOL     OW31783   1.443   4.048   8.911  0.2274  0.4569  0.6248
 6716SOL    HW131784   1.347   4.057   8.908  0.3975  3.3015  3.3861
 6716SOL    HW231785   1.463   4.142   8.914 -0.2048  0.5714 -0.0028
 6717SOL     OW31786   2.478   1.488  16.339 -0.4418  0.5017  0.4638
 6717SOL    HW131787   2.434   1.424  16.394 -0.8612 -0.6303 -1.1964
 6717SOL    HW231788   2.496   1.428  16.267  0.1152  0.3543  0.7247
 6718SOL     OW31789   1.615   2.557   4.393 -0.1562  0.4891  0.1261
 6718SOL    HW131790   1.560   2.587   4.320 -1.2445 -0.2450  0.6490
 6718SOL    HW231791   1.552   2.511   4.449  2.0878 -2.0713  0.5512
 6719SOL     OW31792   4.158   2.772   5.314  0.2177 -0.0337 -0.2252
 6719SOL    HW131793   4.212   2.815   5.248 -1.4127 -1.6935 -2.6452
 6719SOL    HW231794   4.073   2.812   5.293  1.7521  2.7048 -1.2909
 6720SOL     OW31795   2.080   3.258   4.344 -0.0440 -0.1598  0.2521
 6720SOL    HW131796   2.025   3.252   4.265  1.0654 -2.1692 -0.3669
 6720SOL    HW231797   2.020   3.244   4.417 -1.7959  1.6894 -0.8099
 6721SOL     OW31798   0.566   1.106   1.764 -0.0980 -0.0056  0.1113
 6721SOL    HW131799   0.612   1.054   1.830 -0.0248  1.2895  1.0854
 6721SOL    HW231800   0.593   1.188   1.806 -1.4078  0.6936 -0.4030
 6722SOL     OW31801   3.626   0.996   6.146  0.4415  0.4607  0.5345
 6722SOL    HW131802   3.555   1.000   6.210 -0.2702 -0.6343 -0.1894
 6722SOL    HW231803   3.662   0.908   6.155 -0.1177  0.5595  3.6756
 6723SOL     OW31804   1.956   4.206   1.563  0.2847 -0.2991  0.0299
 6723SOL    HW131805   1.866   4.211   1.594  0.1713 -3.1169  0.1547
 6723SOL    HW231806   1.991   4.293   1.581  0.8633 -0.9877  2.1665
 6724SOL     OW31807   4.522   1.535   2.924 -0.7378 -0.3672  0.2705
 6724SOL    HW131808   4.441   1.557   2.970  0.9087  2.2603  1.9264
 6724SOL    HW231809   4.538   1.621   2.886  0.4458 -0.3206  0.8706
 6725SOL     OW31810   2.809   0.616   6.700 -0.2665 -0.7127 -0.1298
 6725SOL    HW131811   2.749   0.620   6.775 -0.5933  0.2062 -0.4389
 6725SOL    HW231812   2.877   0.675   6.733 -2.5617  1.0013  1.4931
 6726SOL     OW31813   3.072   0.691  11.125 -0.0492 -0.2014  0.6007
 6726SOL    HW131814   3.020   0.626  11.172  0.6103 -1.9076 -1.0089
 6726SOL    HW231815   3.008   0.761  11.119  0.0726 -0.0724  0.8286
 6727SOL     OW31816   4.335   3.864  15.915 -0.7103  0.2049  0.2985
 6727SOL    HW131817   4.373   3.947  15.887  0.9920 -1.0073 -0.9774
 6727SOL    HW231818   4.267   3.884  15.978  0.3810  0.1677  1.4767
 6728SOL     OW31819   3.422   4.033   9.541 -0.1147  0.0463  0.3636
 6728SOL    HW131820   3.397   4.125   9.541  1.8085  0.5665  0.3993
 6728SOL    HW231821   3.484   4.034   9.614 -0.1851 -2.1267  0.4613
 6729SOL     OW31822   0.534   0.879   1.594  0.5700  0.3558  0.3968
 6729SOL    HW131823   0.540   0.939   1.668  1.9156  0.0240  0.5601
 6729SOL    HW231824   0.475   0.918   1.529 -1.0146  0.0208  1.6277
 6730SOL     OW31825   1.290   0.455   6.454 -0.4751  0.0873  0.3967
 6730SOL    HW131826   1.271   0.533   6.507 -1.4252  1.3998 -1.8846
 6730SOL    HW231827   1.208   0.407   6.465 -0.5418  0.1286  0.0608
 6731SOL     OW31828   0.697   1.305   8.094  0.7245 -0.1515 -0.0661
 6731SOL    HW131829   0.677   1.232   8.036 -1.5874  0.0371  0.4786
 6731SOL    HW231830   0.655   1.272   8.173 -2.0503 -0.5055 -1.6667
 6732SOL     OW31831   4.224   2.727  14.715  0.8609  0.3374 -0.2699
 6732SOL    HW131832   4.221   2.800  14.777 -0.7649  0.1695 -0.1481
 6732SOL    HW231833   4.173   2.766  14.644 -0.0942 -0.3519  0.0409
 6733SOL     OW31834   3.408   2.651  12.068  0.4661 -0.0707 -0.6004
 6733SOL    HW131835   3.479   2.603  12.111 -0.9080 -1.8910 -0.3293
 6733SOL    HW231836   3.334   2.645  12.129 -0.4980  2.3300 -1.5272
 6734SOL     OW31837   2.615   3.910   6.236  0.0321 -0.4270  0.2808
 6734SOL    HW131838   2.531   3.868   6.218 -2.0253  3.7477 -0.0249
 6734SOL    HW231839   2.656   3.887   6.153 -0.9402 -0.8714 -0.0704
 6735SOL     OW31840   2.144   0.840  13.275 -0.1575 -0.1913  0.3177
 6735SOL    HW131841   2.089   0.762  13.283 -1.7652  1.0145  0.9970
 6735SOL    HW231842   2.107   0.875  13.194  1.6817  0.2425 -0.3323
 6736SOL     OW31843   2.415   3.766   2.065 -0.2589  0.7045 -0.2467
 6736SOL    HW131844   2.358   3.731   2.133 -0.0459 -0.1212 -0.4984
 6736SOL    HW231845   2.503   3.737   2.090 -1.2767 -0.7526  1.6659
 6737SOL     OW31846   4.333   1.767   1.484 -0.4493 -0.8660 -0.1914
 6737SOL    HW131847   4.339   1.688   1.537  1.2691 -0.0591  0.8032
 6737SOL    HW231848   4.250   1.761   1.436 -1.8144  2.9759  1.7022
 6738SOL     OW31849   0.684   0.224  13.585 -0.1958  0.2381  0.0570
 6738SOL    HW131850   0.665   0.316  13.601 -0.7808  0.7184 -3.4021
 6738SOL    HW231851   0.768   0.229  13.541  0.0313 -0.6689  0.3893
 6739SOL     OW31852   1.733   4.382   2.881 -0.4380  0.2452  0.3864
 6739SOL    HW131853   1.693   4.299   2.907 -1.9308  1.8012  3.0624
 6739SOL    HW231854   1.824   4.360   2.863 -0.3897  0.7790 -0.0010
 6740SOL     OW31855   4.122   2.193  11.509  0.1550  0.3880  0.1943
 6740SOL    HW131856   4.114   2.141  11.589 -4.9564  1.7537  0.6147
 6740SOL    HW231857   4.172   2.264  11.550  2.1027 -1.9309  1.8155
 6741SOL     OW31858   4.461   3.952   5.112 -0.7555  0.2607 -0.5256
 6741SOL    HW131859   4.375   3.911   5.118 -0.6015 -0.4294 -3.0661
 6741SOL    HW231860   4.459   3.988   5.023  1.7848  1.4693 -0.1124
 6742SOL     OW31861   1.517   1.161  13.465  0.1761 -0.2619 -0.1472
 6742SOL    HW131862   1.563   1.221  13.406 -1.6785  0.2917 -1.0469
 6742SOL    HW231863   1.447   1.223  13.487  1.0927  0.9727 -0.7060
 6743SOL     OW31864   1.144   2.816   4.478  0.4678 -0.2590 -0.4471
 6743SOL    HW131865   1.116   2.770   4.399 -2.4798 -2.1752  1.7065
 6743SOL    HW231866   1.100   2.757   4.539 -0.5314 -0.0929 -1.0016
 6744SOL     OW31867   1.509   0.166   5.606  0.9080  0.6450  0.1531
 6744SOL    HW131868   1.490   0.148   5.699 -1.5494  1.8212 -0.1320
 6744SOL    HW231869   1.530   0.258   5.618 -2.5503  1.2020  2.0897
 6745SOL     OW31870   1.832   4.605  16.635 -0.2783  0.0644 -0.4342
 6745SOL    HW131871   1.895   4.669  16.601 -0.3502 -0.1803 -1.0286
 6745SOL    HW231872   1.854   4.614  16.728  0.5277 -0.1983 -0.6017
 6746SOL     OW31873   0.406   1.868   4.431  0.4603  0.3849  0.3116
 6746SOL    HW131874   0.487   1.893   4.475 -0.4518  0.8280  1.7608
 6746SOL    HW231875   0.361   1.952   4.422 -1.3340 -0.6427 -0.3209
 6747SOL     OW31876   3.277   4.219  12.012  0.2159  0.6270 -0.2157
 6747SOL    HW131877   3.265   4.313  12.001 -2.1254  0.3765  0.2241
 6747SOL    HW231878   3.324   4.209  11.929 -0.5615 -0.7979 -0.4979
 6748SOL     OW31879   4.374   1.020  13.662 -0.2158 -0.4063  0.2151
 6748SOL    HW131880   4.364   0.973  13.579  0.2441  0.3950 -0.2865
 6748SOL    HW231881   4.282   1.036  13.682 -0.1271 -2.4595  2.3112
 6749SOL     OW31882   4.618   2.964  10.477 -0.0455 -0.6338  0.0181
 6749SOL    HW131883   4.640   3.037  10.419  0.4605 -0.6817  0.1514
 6749SOL    HW231884   4.701   2.944  10.518 -1.4700 -2.5960  1.9297
 6750SOL     OW31885   1.613   4.041   2.899 -0.3855  0.8669  0.2702
 6750SOL    HW131886   1.554   4.117   2.900 -3.3262 -1.4645  2.9573
 6750SOL    HW231887   1.616   4.023   2.993  1.1334  0.1349  0.0768
 6751SOL     OW31888   1.508   0.916   6.904  0.4125  0.2781 -0.1681
 6751SOL    HW131889   1.471   0.972   6.837 -1.7011  0.6156  1.2724
 6751SOL    HW231890   1.498   0.958   6.990  1.1662  0.6521 -0.2632
 6752SOL     OW31891   0.524   3.420   2.318  0.1302  0.2952  0.1408
 6752SOL    HW131892   0.487   3.442   2.404 -0.9051  0.7585 -0.4268
 6752SOL    HW231893   0.457   3.364   2.278  0.5470  0.3561 -0.6328
 6753SOL     OW31894   2.732   0.434   5.232  0.1067 -0.2084  0.2506
 6753SOL    HW131895   2.728   0.515   5.181  1.5410 -2.2306 -3.0837
 6753SOL    HW231896   2.644   0.428   5.269  0.3057 -0.9167  0.6119
 6754SOL     OW31897   0.886   4.292   2.677  0.5000 -0.5877 -0.0777
 6754SOL    HW131898   0.903   4.384   2.699 -1.2325 -0.0831 -0.8779
 6754SOL    HW231899   0.807   4.267   2.724 -0.2970  1.2284 -0.4646
 6755SOL     OW31900   2.857   0.971   7.264 -0.0510  0.1349 -0.0055
 6755SOL    HW131901   2.805   0.917   7.205 -0.8693 -1.2211  1.9633
 6755SOL    HW231902   2.809   1.053   7.275 -1.1454 -0.6801  1.2516
 6756SOL     OW31903   2.494   3.239   8.954 -0.2846 -0.2366 -0.0547
 6756SOL    HW131904   2.457   3.151   8.968  1.9389 -0.6361  3.2744
 6756SOL    HW231905   2.528   3.264   9.040  2.1627 -0.3419 -0.9970
 6757SOL     OW31906   2.521   0.119   6.975 -0.0847 -0.2579 -0.1832
 6757SOL    HW131907   2.443   0.170   6.954  0.6461  0.6088 -0.8211
 6757SOL    HW231908   2.554   0.094   6.888 -0.0269  0.5344 -0.3947
 6758SOL     OW31909   2.517   3.657  14.096 -0.4498 -0.5068  0.2369
 6758SOL    HW131910   2.439   3.633  14.046  0.2061 -0.9743 -0.5564
 6758SOL    HW231911   2.526   3.751  14.078 -0.9173 -0.1030  2.1250
 6759SOL     OW31912   2.715   0.689   5.129  0.0628 -0.2118  0.1428
 6759SOL    HW131913   2.675   0.661   5.047 -1.6918  0.2662  0.8281
 6759SOL    HW231914   2.696   0.783   5.131  0.2170 -0.1795  0.0703
 6760SOL     OW31915   4.536   3.229   4.064 -0.5239 -0.2526  0.0349
 6760SOL    HW131916   4.546   3.304   4.123 -0.3312 -1.6842  1.8585
 6760SOL    HW231917   4.488   3.271   3.993  3.2305  2.2225 -0.9695
 6761SOL     OW31918   3.332   4.598   7.665  0.1665  0.6682 -0.0396
 6761SOL    HW131919   3.307   4.526   7.723  0.6541  1.0627  0.6610
 6761SOL    HW231920   3.251   4.648   7.667 -0.8102 -0.8489 -1.9822
 6762SOL     OW31921   1.444   4.015  13.378  0.1226  0.0425 -0.0370
 6762SOL    HW131922   1.446   3.942  13.316 -1.3877 -1.6698  1.9472
 6762SOL    HW231923   1.355   4.009  13.413  1.4020 -0.9090  3.0766
 6763SOL     OW31924   1.241   4.645   7.788 -0.8524 -0.0904 -0.3544
 6763SOL    HW131925   1.183   4.589   7.736 -0.3058 -1.2876  0.3254
 6763SOL    HW231926   1.320   4.609   7.747 -0.3441  0.2805  0.3081
 6764SOL     OW31927   3.016   4.719   7.999  0.0830  0.2224 -0.2354
 6764SOL    HW131928   2.989   4.639   8.044 -0.6999 -0.5285 -2.0367
 6764SOL    HW231929   3.016   0.034   8.078  3.7902  0.6739 -0.5876
 6765SOL     OW31930   0.889   3.341   6.190  0.2774 -0.3126  0.0642
 6765SOL    HW131931   0.825   3.281   6.153 -0.9773 -0.0582  1.8338
 6765SOL    HW231932   0.956   3.285   6.230  0.1017 -1.9848 -2.0043
 6766SOL     OW31933   0.490   2.590   2.760  0.0687  0.3353 -0.1113
 6766SOL    HW131934   0.446   2.673   2.779  2.1532  0.8126  2.5923
 6766SOL    HW231935   0.442   2.551   2.686 -2.7291  1.3524  1.1776
 6767SOL     OW31936   2.098   3.568   0.426  0.5313  0.1242  0.5515
 6767SOL    HW131937   2.087   3.636   0.360 -0.5664  0.7373  1.3726
 6767SOL    HW231938   2.034   3.504   0.394  0.9138 -0.1903  0.4115
 6768SOL     OW31939   2.491   3.824   7.278  0.2152  0.1736  0.5037
 6768SOL    HW131940   2.465   3.896   7.334  4.5661 -0.8113  3.7436
 6768SOL    HW231941   2.510   3.756   7.343  1.8802  0.1061 -0.0555
 6769SOL     OW31942   1.437   4.026   4.183  0.0872  0.4821 -0.1034
 6769SOL    HW131943   1.395   4.093   4.129  0.9554  0.7518 -0.4268
 6769SOL    HW231944   1.367   3.997   4.242 -0.7799 -0.3124 -1.5472
 6770SOL     OW31945   1.500   3.679   1.340  0.0488 -0.1161  0.2352
 6770SOL    HW131946   1.592   3.699   1.323 -0.1326  1.3965  1.0382
 6770SOL    HW231947   1.511   3.596   1.387  0.8011 -0.0726  0.1343
 6771SOL     OW31948   2.350   1.862   3.412  0.0913 -0.4078 -0.0860
 6771SOL    HW131949   2.369   1.942   3.461 -1.2555  0.3920 -0.8875
 6771SOL    HW231950   2.401   1.879   3.333  0.9794  0.0006  0.5800
 6772SOL     OW31951   0.566   0.784   4.084  0.6044  0.2790 -0.3507
 6772SOL    HW131952   0.619   0.851   4.126 -0.3410  0.7413  0.1072
 6772SOL    HW231953   0.564   0.711   4.146  1.9245  0.7763  0.2750
 6773SOL     OW31954   0.675   4.098   4.305 -0.7360  0.1961  0.2721
 6773SOL    HW131955   0.694   4.007   4.281  0.5751  0.0056  1.9922
 6773SOL    HW231956   0.589   4.088   4.344 -0.7572  0.0975  0.2007
 6774SOL     OW31957   2.575   3.241   6.895  0.3759 -0.3019 -0.0670
 6774SOL    HW131958   2.610   3.171   6.950 -0.4221  1.4437  2.6451
 6774SOL    HW231959   2.656   3.289   6.881  0.1086  0.0491 -0.4302
 6775SOL     OW31960   3.707   2.354  16.305 -0.2345 -0.2526  0.2709
 6775SOL    HW131961   3.645   2.426  16.297 -0.8831 -0.6977  1.2145
 6775SOL    HW231962   3.751   2.372  16.222 -1.5059  0.1016 -0.3278
 6776SOL     OW31963   3.545   2.442  15.197 -0.1322 -0.3550  0.3218
 6776SOL    HW131964   3.620   2.486  15.237  2.2613 -3.4704 -0.7472
 6776SOL    HW231965   3.514   2.389  15.270 -1.8740  1.2535  0.7357
 6777SOL     OW31966   0.184   3.177   6.658  0.4552 -0.5354  0.1145
 6777SOL    HW131967   0.114   3.115   6.642  1.6129 -1.5301 -1.0599
 6777SOL    HW231968   0.163   3.234   6.584  2.1078  0.2117  0.2085
 6778SOL     OW31969   1.186   2.420   7.291 -0.1327  1.0924 -0.8446
 6778SOL    HW131970   1.272   2.443   7.256 -0.2386  1.7607 -0.6640
 6778SOL    HW231971   1.168   2.479   7.365 -2.0798 -2.5288  1.5599
 6779SOL     OW31972   2.861   0.606   4.760  0.3074 -0.5243 -0.1628
 6779SOL    HW131973   2.910   0.569   4.833 -0.2804  2.0112  1.5164
 6779SOL    HW231974   2.812   0.674   4.806 -0.9649 -0.4467 -1.6320
 6780SOL     OW31975   0.939   4.619   5.018 -0.2663  0.2893 -0.3098
 6780SOL    HW131976   0.926   4.706   4.980 -0.6502 -0.1348 -1.1592
 6780SOL    HW231977   0.891   4.558   4.961  0.0846 -1.4068  1.1839
 6781SOL     OW31978   0.835   2.199   9.907 -0.4854  0.0338 -0.2669
 6781SOL    HW131979   0.784   2.199   9.826 -1.5592 -1.3993  0.4080
 6781SOL    HW231980   0.795   2.276   9.947 -1.3187 -1.3523  1.5608
 6782SOL     OW31981   3.081   0.753   6.045 -0.1163 -0.1391 -0.3547
 6782SOL    HW131982   3.061   0.809   5.971 -1.1748  0.4346  0.3648
 6782SOL    HW231983   3.177   0.753   6.048 -0.0334  1.7261 -3.7169
 6783SOL     OW31984   1.833   3.690   3.802 -0.2864 -0.0486 -0.6603
 6783SOL    HW131985   1.910   3.644   3.771 -1.8891 -1.9548 -1.8164
 6783SOL    HW231986   1.808   3.654   3.887  1.5088 -0.7635 -0.4443
 6784SOL     OW31987   0.664   1.643   6.698 -0.0442  0.0224 -0.0929
 6784SOL    HW131988   0.614   1.706   6.750  2.9294  1.2628  1.2738
 6784SOL    HW231989   0.653   1.565   6.752 -0.0159  0.0574 -0.0369
 6785SOL     OW31990   3.921   2.801   5.117  0.2517  0.1685 -0.1105
 6785SOL    HW131991   3.871   2.744   5.059 -1.4032  0.5455  0.9369
 6785SOL    HW231992   3.892   2.771   5.203  0.5659  0.2046  0.0088
 6786SOL     OW31993   3.374   0.147   9.808 -0.0391  0.2865 -0.4962
 6786SOL    HW131994   3.417   0.071   9.848  1.6046  0.7420 -1.3966
 6786SOL    HW231995   3.441   0.177   9.747  1.7602 -1.3927  0.6206
 6787SOL     OW31996   1.523   3.153   1.414  0.1848 -0.3497 -0.6290
 6787SOL    HW131997   1.481   3.163   1.500 -2.0048 -1.5279 -1.5625
 6787SOL    HW231998   1.547   3.061   1.421  1.5867 -0.0484 -1.6218
 6788SOL     OW31999   3.563   4.467   6.300 -0.1099  0.3195 -0.0748
 6788SOL    HW132000   3.510   4.450   6.378 -0.6935  0.5539 -0.4224
 6788SOL    HW232001   3.545   4.390   6.246  0.8041  1.1390 -1.5485
 6789SOL     OW32002   3.958   1.623   4.208  0.2649  0.2365 -0.0167
 6789SOL    HW132003   3.961   1.539   4.255 -2.3144 -0.2194 -0.6739
 6789SOL    HW232004   3.866   1.646   4.206  0.4625  0.7127 -3.1037
 6790SOL     OW32005   1.711   4.110   6.350  0.1666 -0.3761  0.3716
 6790SOL    HW132006   1.647   4.130   6.418  0.6868  1.5663  0.3140
 6790SOL    HW232007   1.730   4.194   6.307 -0.2248 -0.4853 -0.0170
 6791SOL     OW32008   4.198   0.879  11.404 -0.4321  0.3886 -0.1669
 6791SOL    HW132009   4.215   0.964  11.364  1.1456  2.2581  4.5404
 6791SOL    HW232010   4.242   0.882  11.489 -0.8572 -0.8086  0.0876
 6792SOL     OW32011   0.984   3.188   8.445 -0.2470 -0.3843  0.0132
 6792SOL    HW132012   0.965   3.255   8.380 -1.6046  0.0539  0.8560
 6792SOL    HW232013   1.071   3.154   8.422  0.6954  0.7903  1.9354
 6793SOL     OW32014   1.344   1.409   8.022 -0.1976  0.4918 -0.4859
 6793SOL    HW132015   1.334   1.341   8.088  1.2739  0.3433 -0.4110
 6793SOL    HW232016   1.254   1.430   7.999 -0.6814 -1.0295  0.0477
 6794SOL     OW32017   2.797   3.810   0.017  0.7469  0.0420  0.2289
 6794SOL    HW132018   2.859   3.874   0.050  0.2117 -1.1405  3.5920
 6794SOL    HW232019   2.718   3.830   0.067  1.6998 -0.9952  2.1566
 6795SOL     OW32020   1.203   1.650  17.606  0.0981 -0.5259  0.0107
 6795SOL    HW132021   1.142   1.654  17.679  1.4701  2.0937  1.0051
 6795SOL    HW232022   1.283   1.686  17.645  0.2072 -0.5449 -0.1942
 6796SOL     OW32023   3.944   1.447   1.282 -0.1898  0.2237  0.9179
 6796SOL    HW132024   3.864   1.397   1.296  0.7108 -0.9548  1.8910
 6796SOL    HW232025   3.999   1.379   1.242  1.5379  1.3297  1.3996
 6797SOL     OW32026   3.702   1.794   6.366  0.0482 -0.0136  0.3689
 6797SOL    HW132027   3.651   1.859   6.319 -0.1384  0.3952  1.1444
 6797SOL    HW232028   3.771   1.848   6.404 -1.4888  1.9878  0.2825
 6798SOL     OW32029   2.359   0.152   7.978  0.2204 -0.5304  0.1050
 6798SOL    HW132030   2.291   0.192   7.924  0.5845 -0.5084 -0.3358
 6798SOL    HW232031   2.339   0.198   8.060 -0.3942  0.3685 -0.5487
 6799SOL     OW32032   0.131   0.364  12.788 -0.0389 -0.5923  0.8245
 6799SOL    HW132033   0.087   0.401  12.865 -1.0719  2.1060 -1.0676
 6799SOL    HW232034   0.204   0.426  12.780 -1.0608  0.8262  2.5301
 6800SOL     OW32035   0.230   3.548   0.448 -0.2214  0.3027 -0.4191
 6800SOL    HW132036   0.222   3.549   0.544 -1.7740 -1.3782 -0.5157
 6800SOL    HW232037   0.165   3.484   0.418 -0.7273  0.8358 -0.4725
 6801SOL     OW32038   0.310   1.161   8.159  0.3191 -0.3831 -0.5372
 6801SOL    HW132039   0.288   1.254   8.150  1.3400 -0.0549  0.3189
 6801SOL    HW232040   0.237   1.123   8.208 -0.4434  1.7399 -0.0272
 6802SOL     OW32041   3.622   2.489   4.261  0.2235 -0.3375 -0.2286
 6802SOL    HW132042   3.613   2.394   4.275  0.9887 -0.4168 -0.2497
 6802SOL    HW232043   3.555   2.501   4.194  0.9828 -0.6712 -1.0415
 6803SOL     OW32044   1.275   2.392   6.753  0.0828 -0.1134 -0.5211
 6803SOL    HW132045   1.258   2.459   6.820 -2.1227 -1.8729  0.6899
 6803SOL    HW232046   1.319   2.327   6.807  0.7852  0.2790 -0.6157
 6804SOL     OW32047   1.346   0.729   5.962  0.4059  0.5380 -0.4587
 6804SOL    HW132048   1.321   0.684   5.882 -2.3770 -1.7074  1.6735
 6804SOL    HW232049   1.299   0.667   6.018 -0.7163  2.9600  1.3272
 6805SOL     OW32050   0.727   3.862   0.327 -0.1263  0.4479 -0.0488
 6805SOL    HW132051   0.807   3.873   0.275  0.2986 -0.6585  0.3814
 6805SOL    HW232052   0.773   3.798   0.382 -0.3761 -0.0323 -0.4025
 6806SOL     OW32053   3.813   3.197   1.126  0.7485  0.0730 -0.1206
 6806SOL    HW132054   3.749   3.241   1.182  0.5571 -0.2936 -0.0484
 6806SOL    HW232055   3.778   3.108   1.127 -0.0053  0.3554 -1.6103
 6807SOL     OW32056   0.538   4.258   3.122 -0.0281 -0.2945 -0.5889
 6807SOL    HW132057   0.521   4.290   3.034 -3.1213 -2.8253 -0.8873
 6807SOL    HW232058   0.459   4.271   3.174  1.2520  0.9126  1.0722
 6808SOL     OW32059   3.442   2.359   7.792  0.0443  1.0738 -0.6714
 6808SOL    HW132060   3.385   2.299   7.744 -0.5602  0.4743  0.7828
 6808SOL    HW232061   3.464   2.309   7.871  0.9487 -0.8312 -2.1326
 6809SOL     OW32062   1.545   0.171   4.669  0.4803  0.0561  0.4328
 6809SOL    HW132063   1.580   0.260   4.662 -2.5129  1.2632  0.4917
 6809SOL    HW232064   1.545   0.150   4.575 -1.2524 -0.9413  0.6553
 6810SOL     OW32065   3.546   1.760   0.820 -0.4015 -0.0983 -0.0656
 6810SOL    HW132066   3.625   1.714   0.847  0.8945  1.1779 -1.6849
 6810SOL    HW232067   3.519   1.782   0.910  1.1072  1.9639 -0.1099
 6811SOL     OW32068   2.781   0.369   6.602  0.0541 -0.0302  0.4227
 6811SOL    HW132069   2.777   0.456   6.641  2.9954  1.0381 -1.7299
 6811SOL    HW232070   2.861   0.328   6.636  0.6187  0.3088 -0.5035
 6812SOL     OW32071   4.731   2.306   6.519 -0.0727 -0.5679 -0.0725
 6812SOL    HW132072   0.022   2.346   6.438  1.2979 -0.4389  0.5188
 6812SOL    HW232073   0.002   2.378   6.581 -0.9031  0.5613 -1.2398
 6813SOL     OW32074   4.520   1.787  10.542  0.2412 -0.1828  0.4087
 6813SOL    HW132075   4.558   1.867  10.578 -2.2400  2.1168 -2.2082
 6813SOL    HW232076   4.554   1.811  10.456  1.1822  0.7855  1.0437
 6814SOL     OW32077   1.793   2.386  12.030 -0.2198 -0.9042  0.2175
 6814SOL    HW132078   1.772   2.479  12.020 -1.6871 -1.3896 -1.3034
 6814SOL    HW232079   1.866   2.386  12.091 -0.1387 -0.9063  0.1200
 6815SOL     OW32080   3.676   4.247   6.687 -0.1719  0.1132  0.5658
 6815SOL    HW132081   3.714   4.173   6.735  0.9735  1.4579  1.7331
 6815SOL    HW232082   3.587   4.222   6.664  0.6276 -0.5398 -1.8497
 6816SOL     OW32083   1.423   3.798   8.808 -0.6882 -0.5453  0.4563
 6816SOL    HW132084   1.493   3.792   8.743 -0.9107 -0.1328  0.1746
 6816SOL    HW232085   1.442   3.884   8.846 -0.1292 -0.4301 -0.0781
 6817SOL     OW32086   4.225   4.314   4.890 -0.1521  0.4115  0.2637
 6817SOL    HW132087   4.170   4.297   4.967 -0.0920 -0.2934  0.1515
 6817SOL    HW232088   4.264   4.227   4.879 -0.9418  0.3277 -1.9000
 6818SOL     OW32089   0.088   4.359   3.574 -0.7656  0.2068 -0.7978
 6818SOL    HW132090   0.123   4.446   3.554  0.8092 -0.0344  0.9259
 6818SOL    HW232091   4.736   4.383   3.586 -0.1963  1.0042  1.9712
 6819SOL     OW32092   0.586   3.854   2.019 -0.1702 -0.1507  0.5613
 6819SOL    HW132093   0.579   3.799   2.097 -1.6826 -0.9049 -0.1037
 6819SOL    HW232094   0.565   3.939   2.058 -0.9149 -0.6077  1.1545
 6820SOL     OW32095   0.143   0.514   2.011  0.3158  0.1991 -0.1266
 6820SOL    HW132096   0.223   0.513   1.959  1.2461 -0.3484  1.3104
 6820SOL    HW232097   0.184   0.510   2.097 -0.9347  0.5792  0.4930
 6821SOL     OW32098   2.279   3.124   3.543 -0.3150 -0.2099 -0.1674
 6821SOL    HW132099   2.239   3.161   3.465 -1.3763 -0.3693  0.3058
 6821SOL    HW232100   2.329   3.048   3.514  0.5753  0.9513 -1.6814
 6822SOL     OW32101   1.068   3.223   4.365 -0.3953  0.0233  0.5475
 6822SOL    HW132102   1.017   3.144   4.383 -0.1868 -0.2957 -0.2447
 6822SOL    HW232103   0.998   3.286   4.344 -1.3708 -1.1824  0.1699
 6823SOL     OW32104   2.956   3.565   6.574  0.0201 -0.0461  0.3449
 6823SOL    HW132105   2.941   3.564   6.480  1.0533 -1.8862  0.1904
 6823SOL    HW232106   3.035   3.618   6.582  1.6452 -2.3747 -0.2090
 6824SOL     OW32107   0.580   2.677   3.485 -0.1617  0.0252 -0.4297
 6824SOL    HW132108   0.588   2.625   3.564 -1.2878 -0.8868 -0.9066
 6824SOL    HW232109   0.635   2.632   3.420  1.0071  0.9259 -0.0465
 6825SOL     OW32110   2.999   1.061  12.247 -0.2360 -0.2318 -0.4601
 6825SOL    HW132111   2.933   1.047  12.180  0.7139 -1.7393 -1.0935
 6825SOL    HW232112   2.936   1.058  12.319 -0.5532  0.6821 -0.7057
 6826SOL     OW32113   3.134   0.820   6.664  0.1253  0.2888 -0.0599
 6826SOL    HW132114   3.100   0.886   6.603 -0.6763  1.5029  1.7187
 6826SOL    HW232115   3.057   0.808   6.719 -0.2686 -2.3127 -1.1549
 6827SOL     OW32116   0.479   1.323  10.634  0.0996 -0.1662 -0.2145
 6827SOL    HW132117   0.447   1.313  10.545 -3.5732 -1.8969  1.3335
 6827SOL    HW232118   0.487   1.230  10.656 -0.7168 -0.9106 -3.1009
 6828SOL     OW32119   1.229   0.255   8.566 -0.0368 -0.4190  0.3453
 6828SOL    HW132120   1.195   0.204   8.492 -0.3132 -1.0292  0.8881
 6828SOL    HW232121   1.150   0.298   8.598  0.2012  0.8410 -0.7698
 6829SOL     OW32122   3.157   3.999  14.929  0.0852 -0.9244 -0.0551
 6829SOL    HW132123   3.196   3.998  14.842 -2.3093 -0.6436 -1.1450
 6829SOL    HW232124   3.069   3.964  14.912 -0.2373 -1.0592  1.8721
 6830SOL     OW32125   4.210   3.863   5.130 -0.0003 -0.0143  0.1819
 6830SOL    HW132126   4.131   3.902   5.167  0.7820  1.2185  0.5449
 6830SOL    HW232127   4.182   3.796   5.068  1.4938  0.1808 -0.7106
 6831SOL     OW32128   0.705   4.440   2.380  0.3248 -0.6296 -0.1245
 6831SOL    HW132129   0.747   4.372   2.433 -2.1568 -1.2954  0.9750
 6831SOL    HW232130   0.680   4.388   2.303 -0.9968  0.6931 -0.5870
 6832SOL     OW32131   1.922   1.817   1.046  0.3020 -0.3340 -0.5011
 6832SOL    HW132132   1.903   1.838   0.954  1.3574 -0.3162 -0.7073
 6832SOL    HW232133   1.843   1.851   1.089  0.4654 -0.4124 -0.1442
 6833SOL     OW32134   2.031   4.498   3.671 -0.0964 -0.0913  0.5084
 6833SOL    HW132135   1.994   4.539   3.749  1.8255  1.0809  0.7862
 6833SOL    HW232136   2.120   4.531   3.682 -0.5136  1.2154 -0.0014
 6834SOL     OW32137   0.605   3.844   7.760 -0.4548  0.3571 -0.1733
 6834SOL    HW132138   0.660   3.887   7.827  2.4079 -1.0833 -1.5867
 6834SOL    HW232139   0.590   3.759   7.800  0.1113  0.5211  0.3954
 6835SOL     OW32140   4.459   4.044   3.715 -0.4690  0.1585  0.0768
 6835SOL    HW132141   4.368   4.019   3.734 -0.0850  0.4095  2.2112
 6835SOL    HW232142   4.457   4.130   3.756  2.9191  0.6789 -0.8850
 6836SOL     OW32143   2.510   2.440  14.802  0.8740  0.1344 -0.2541
 6836SOL    HW132144   2.487   2.527  14.772 -1.5207 -0.6099 -0.6251
 6836SOL    HW232145   2.602   2.423  14.783  0.4828 -1.3874 -0.8372
 6837SOL     OW32146   1.191   3.386   1.938  0.0010 -0.4588  0.3060
 6837SOL    HW132147   1.100   3.362   1.925  0.0061  0.5267 -1.5228
 6837SOL    HW232148   1.210   3.406   1.846 -0.5740  0.3184  0.3550
 6838SOL     OW32149   0.597   2.484   1.351  0.7612 -0.1266  0.4306
 6838SOL    HW132150   0.521   2.440   1.313  0.1280 -1.4992  3.3016
 6838SOL    HW232151   0.656   2.409   1.345  3.4948  2.0938 -0.3223
 6839SOL     OW32152   3.931   3.002   2.329 -0.3476  0.2033 -0.4344
 6839SOL    HW132153   3.947   2.908   2.323 -2.6615 -0.2506  0.5110
 6839SOL    HW232154   3.855   3.021   2.273 -0.6873 -0.3381 -0.1548
 6840SOL     OW32155   3.518   4.134   2.220  0.0135  0.2280 -0.2161
 6840SOL    HW132156   3.457   4.142   2.147  0.8252  2.4364 -0.6604
 6840SOL    HW232157   3.497   4.221   2.253  1.5518  0.2737  0.6712
 6841SOL     OW32158   0.854   4.064   8.494 -0.0037 -0.0959 -0.2370
 6841SOL    HW132159   0.910   4.028   8.426 -0.6510  1.1988 -1.4378
 6841SOL    HW232160   0.864   4.159   8.496  0.4925 -0.2535  5.3584
 6842SOL     OW32161   0.216   4.282  10.969 -0.0941  0.1746  0.0861
 6842SOL    HW132162   0.247   4.220  11.035 -1.4578 -1.7179 -1.0445
 6842SOL    HW232163   0.281   4.294  10.900 -0.7805 -0.5553 -0.6908
 6843SOL     OW32164   0.388   3.854  11.683 -0.0543 -0.7028  0.1512
 6843SOL    HW132165   0.439   3.786  11.640 -0.4426 -0.7756 -0.1935
 6843SOL    HW232166   0.391   3.910  11.606  3.8556 -0.3958  0.5506
 6844SOL     OW32167   1.847   4.034   2.780 -0.2687 -0.7816  0.1341
 6844SOL    HW132168   1.777   4.022   2.844 -0.8699  0.1186 -0.3559
 6844SOL    HW232169   1.815   3.989   2.701 -2.8896  2.0446 -0.4045
 6845SOL     OW32170   2.480   4.206  10.710 -0.8885 -0.0829 -0.1495
 6845SOL    HW132171   2.505   4.219  10.618 -0.5841  1.4305  0.1531
 6845SOL    HW232172   2.488   4.110  10.712 -0.2028  0.0192  1.4280
 6846SOL     OW32173   4.092   3.125   2.635  0.2522  0.2731  0.0919
 6846SOL    HW132174   4.053   3.077   2.561 -0.0604  2.2237 -1.0087
 6846SOL    HW232175   4.026   3.194   2.646  1.7551  1.5590  0.8496
 6847SOL     OW32176   3.608   3.532   8.355 -0.2510 -0.5406  0.2911
 6847SOL    HW132177   3.630   3.468   8.288  1.0500  0.0650  0.1435
 6847SOL    HW232178   3.517   3.513   8.377 -1.4297  0.4687 -3.6143
 6848SOL     OW32179   0.587   3.709   8.311  0.4811  0.5918 -0.4784
 6848SOL    HW132180   0.547   3.765   8.245 -0.3158  0.7807  0.1676
 6848SOL    HW232181   0.559   3.626   8.274 -0.3894  1.1621 -1.1100
 6849SOL     OW32182   4.345   0.727   2.187 -0.0873  0.0375  0.3600
 6849SOL    HW132183   4.271   0.783   2.210 -1.4266 -1.4303 -0.3998
 6849SOL    HW232184   4.322   0.644   2.229  1.8375 -0.3517  0.6424
 6850SOL     OW32185   3.039   0.015   6.566 -0.4245 -0.6830  0.0032
 6850SOL    HW132186   3.072   4.698   6.635  0.4829 -0.4123 -0.2091
 6850SOL    HW232187   3.095   4.740   6.490 -1.0131 -0.3907 -0.4929
 6851SOL     OW32188   3.662   0.745  11.353 -0.4398  0.4425 -0.5520
 6851SOL    HW132189   3.608   0.813  11.392  0.7470  1.4735 -0.6925
 6851SOL    HW232190   3.704   0.790  11.279 -2.0680  3.0685  0.1404
 6852SOL     OW32191   4.243   2.000  11.357  0.4972 -0.9071 -0.5903
 6852SOL    HW132192   4.325   1.992  11.406  0.3596  0.8337 -0.0542
 6852SOL    HW232193   4.204   2.077  11.399  1.9050 -0.7249  0.3953
 6853SOL     OW32194   4.373   0.468   1.688 -0.0575  0.7113 -0.0942
 6853SOL    HW132195   4.462   0.447   1.660  0.2923  0.7215  1.0165
 6853SOL    HW232196   4.356   0.383   1.729 -0.4322  0.6161 -0.4475
 6854SOL     OW32197   3.909   3.057   3.446  0.1300 -0.0027  0.3601
 6854SOL    HW132198   3.891   3.108   3.526  0.8575  0.0675  0.4831
 6854SOL    HW232199   3.840   3.098   3.393  3.7378  1.5757 -3.1262
 6855SOL     OW32200   3.493   2.251  17.067  0.4017 -0.2359 -0.2937
 6855SOL    HW132201   3.445   2.217  17.143 -0.2410 -0.4961 -0.8264
 6855SOL    HW232202   3.420   2.241  17.007 -2.9517 -0.3994  3.8312
 6856SOL     OW32203   4.240   2.051   1.419  0.0267  0.1830 -0.0198
 6856SOL    HW132204   4.147   2.051   1.399 -0.1740  2.6289  0.8488
 6856SOL    HW232205   4.259   1.957   1.419 -1.8071 -0.1902 -0.0224
 6857SOL     OW32206   0.386   4.266  14.609 -0.3394  0.3399 -0.1495
 6857SOL    HW132207   0.423   4.217  14.536 -0.8900 -1.5325  0.8254
 6857SOL    HW232208   0.345   4.199  14.664 -0.4835  1.6806  1.3924
 6858SOL     OW32209   3.419   1.637   2.995  0.4515 -0.1267 -0.1494
 6858SOL    HW132210   3.507   1.620   3.029  0.4946 -0.1628 -0.2805
 6858SOL    HW232211   3.419   1.722   2.952  0.3382  0.3965  0.8767
 6859SOL     OW32212   3.504   3.819   1.468 -0.5809  0.1205 -0.4463
 6859SOL    HW132213   3.451   3.842   1.544  1.3025  2.0635  0.2854
 6859SOL    HW232214   3.567   3.757   1.502 -0.5042  1.0608  1.0917
 6860SOL     OW32215   1.734   0.360   3.279 -0.6717 -0.0810 -0.1237
 6860SOL    HW132216   1.659   0.414   3.303 -1.1591 -1.5033  1.6086
 6860SOL    HW232217   1.775   0.419   3.216 -1.7351 -0.8656 -1.5639
 6861SOL     OW32218   1.377   1.686   4.921 -0.2269  0.6680  0.3316
 6861SOL    HW132219   1.290   1.646   4.918 -1.0552  2.3429  2.3676
 6861SOL    HW232220   1.385   1.703   4.827 -0.2011  1.8837  0.5585
 6862SOL     OW32221   0.839   2.129   5.568 -0.2809 -0.4910 -0.2487
 6862SOL    HW132222   0.840   2.184   5.491 -2.3355 -1.4031 -0.9217
 6862SOL    HW232223   0.901   2.057   5.553  0.2751  0.3660 -1.9807
 6863SOL     OW32224   0.793   4.524   4.804  0.0984 -0.0432 -0.2801
 6863SOL    HW132225   0.798   4.557   4.714 -1.3669  0.2943 -0.2425
 6863SOL    HW232226   0.769   4.433   4.787  1.3744 -0.4138 -0.1265
 6864SOL     OW32227   3.556   1.071  13.682 -0.2240  0.0982 -0.2915
 6864SOL    HW132228   3.505   1.006  13.634  0.3917  0.0804 -0.9325
 6864SOL    HW232229   3.617   1.015  13.731  1.2032  2.4024  0.5362
 6865SOL     OW32230   2.103   2.538   1.878 -0.1356  0.2272  0.4093
 6865SOL    HW132231   2.188   2.571   1.909 -0.3070 -0.0893  1.2258
 6865SOL    HW232232   2.081   2.474   1.945  0.1412 -1.2260 -0.9017
 6866SOL     OW32233   4.047   4.135   3.468 -0.3248 -0.4509  0.0386
 6866SOL    HW132234   4.025   4.044   3.450 -4.1058  0.6293 -0.8910
 6866SOL    HW232235   3.970   4.178   3.431 -0.9141 -1.1443  0.4573
 6867SOL     OW32236   1.849   3.235  16.627 -0.4922 -0.1628  0.5473
 6867SOL    HW132237   1.797   3.157  16.605  1.3831 -0.2265 -3.6511
 6867SOL    HW232238   1.793   3.270  16.696  0.8192  0.4961  1.2795
 6868SOL     OW32239   0.431   1.328  10.114 -0.0483 -0.7298 -0.3670
 6868SOL    HW132240   0.434   1.417  10.076  0.6316 -0.7567 -0.3914
 6868SOL    HW232241   0.434   1.276  10.033 -1.1396  0.3495 -1.0912
 6869SOL     OW32242   2.341   1.120   4.803  0.4656 -0.0697  0.0160
 6869SOL    HW132243   2.412   1.156   4.750  1.6534 -1.7392  0.4655
 6869SOL    HW232244   2.300   1.194   4.848 -0.2987 -0.2824 -0.3279
 6870SOL     OW32245   1.840   2.801   7.227  0.0517  0.3447 -0.3517
 6870SOL    HW132246   1.868   2.876   7.279  0.0816  0.1647 -0.1052
 6870SOL    HW232247   1.906   2.732   7.239 -0.8322 -0.4932 -0.3445
 6871SOL     OW32248   3.467   0.130   3.803 -0.3023 -0.2632 -0.1822
 6871SOL    HW132249   3.413   0.073   3.857 -2.0639  0.2699 -1.3690
 6871SOL    HW232250   3.515   0.175   3.873  0.1738  1.1973 -1.4549
 6872SOL     OW32251   1.204   3.125   1.308  0.1231 -0.2513 -0.1862
 6872SOL    HW132252   1.220   3.149   1.399 -1.4775 -0.6627  0.2110
 6872SOL    HW232253   1.241   3.037   1.299  2.8380  1.1437 -2.7212
 6873SOL     OW32254   2.743   4.483   4.961  0.3705  0.4795 -0.7365
 6873SOL    HW132255   2.766   4.520   5.046  1.9164 -1.1683 -0.4193
 6873SOL    HW232256   2.654   4.451   4.978  0.6041  0.1802 -0.0725
 6874SOL     OW32257   1.561   1.560   9.120  0.4034  0.2654  0.4439
 6874SOL    HW132258   1.561   1.464   9.121  0.3940  0.2646  0.3732
 6874SOL    HW232259   1.469   1.577   9.097 -0.0337 -0.7304  1.3987
 6875SOL     OW32260   1.196   3.550   7.419  0.2426 -0.0468  0.2650
 6875SOL    HW132261   1.277   3.548   7.367 -0.8570  1.6397 -1.5019
 6875SOL    HW232262   1.148   3.620   7.375  0.3752  0.7575  1.3976
 6876SOL     OW32263   1.201   2.453   0.792  0.2724 -0.4005 -0.0991
 6876SOL    HW132264   1.238   2.462   0.880  1.8840  0.6685 -0.8955
 6876SOL    HW232265   1.129   2.392   0.808  2.8098 -2.3950  3.6436
 6877SOL     OW32266   1.282   1.364   6.319 -0.4517  0.4377  0.6884
 6877SOL    HW132267   1.312   1.273   6.314  1.4643  1.0009  2.0956
 6877SOL    HW232268   1.355   1.419   6.292 -0.2013 -1.2524 -2.0777
 6878SOL     OW32269   3.231   3.807   2.373  0.1932 -0.0064 -0.6686
 6878SOL    HW132270   3.284   3.776   2.301 -1.5323 -0.7537 -1.6105
 6878SOL    HW232271   3.180   3.727   2.386  0.3317  0.0088 -0.0020
 6879SOL     OW32272   3.705   3.966   6.128 -0.3896  0.2196 -0.7361
 6879SOL    HW132273   3.754   3.951   6.208 -1.0423  0.3996 -0.3052
 6879SOL    HW232274   3.618   3.981   6.164 -0.0376 -0.2028  0.2946
 6880SOL     OW32275   0.999   0.437   1.528 -0.2748  0.5038  0.3502
 6880SOL    HW132276   0.943   0.447   1.451  0.3993 -0.8509 -0.3210
 6880SOL    HW232277   0.971   0.515   1.577  0.3569  0.7978  0.2397
 6881SOL     OW32278   0.076   2.583   5.339 -0.2185 -0.1619 -0.3151
 6881SOL    HW132279   0.077   2.524   5.415 -1.0380 -0.8178 -0.8011
 6881SOL    HW232280   0.170   2.589   5.323 -0.5414 -0.2708 -2.2203
 6882SOL     OW32281   4.167   0.194   4.565 -0.1035 -0.3981  0.4723
 6882SOL    HW132282   4.092   0.161   4.515  0.1725  1.2407 -1.0057
 6882SOL    HW232283   4.119   0.266   4.606  0.3710  0.7425 -0.9733
 6883SOL     OW32284   1.603   1.395  13.358 -0.2491  0.1173  0.4601
 6883SOL    HW132285   1.582   1.437  13.275 -1.7584 -0.8285  0.3549
 6883SOL    HW232286   1.591   1.472  13.413  2.7019 -1.1525  2.8752
 6884SOL     OW32287   2.310   0.214   7.219 -0.0927 -0.5451  0.5238
 6884SOL    HW132288   2.280   0.146   7.159 -3.9115  3.2593 -1.9111
 6884SOL    HW232289   2.247   0.220   7.290 -1.2200  0.1449 -0.5279
 6885SOL     OW32290   1.262   3.705   7.940  0.1937 -0.1365  0.1216
 6885SOL    HW132291   1.220   3.757   8.009 -0.4238  1.3873 -1.3982
 6885SOL    HW232292   1.235   3.615   7.960  0.0003 -0.1870 -0.3623
 6886SOL     OW32293   3.873   1.159   6.192 -0.2706 -0.5784 -0.5472
 6886SOL    HW132294   3.804   1.093   6.196 -0.1218 -0.7384 -0.6269
 6886SOL    HW232295   3.935   1.114   6.250 -0.2994  0.3721  0.2265
 6887SOL     OW32296   2.026   2.683   5.817 -0.3264  0.5751  0.2810
 6887SOL    HW132297   1.983   2.746   5.875 -3.0672 -0.9874 -0.0133
 6887SOL    HW232298   1.947   2.645   5.777  2.4516 -2.6958 -2.0518
 6888SOL     OW32299   0.595   0.635   8.880  0.2026  0.5138 -0.1140
 6888SOL    HW132300   0.657   0.656   8.950 -0.3834  0.7773  0.3217
 6888SOL    HW232301   0.588   0.543   8.905 -0.2896  0.0179 -2.1135
 6889SOL     OW32302   1.544   2.106   4.749  0.6164  0.0201 -0.4374
 6889SOL    HW132303   1.549   2.044   4.821 -1.9897  1.1542  0.7160
 6889SOL    HW232304   1.570   2.050   4.675 -0.4983 -0.5878 -0.3750
 6890SOL     OW32305   2.773   2.619   2.398  0.2233  0.2594 -0.1863
 6890SOL    HW132306   2.688   2.662   2.391 -0.5653 -1.2782  0.0761
 6890SOL    HW232307   2.818   2.703   2.386 -0.6751  0.9321  1.1224
 6891SOL     OW32308   0.343   1.645   2.568 -0.0779  0.1172 -0.0528
 6891SOL    HW132309   0.258   1.617   2.601 -0.9081  3.0202  0.2011
 6891SOL    HW232310   0.336   1.737   2.592  1.1202  0.5071 -1.1985
 6892SOL     OW32311   3.058   2.072  17.555 -0.2896 -0.2387 -0.0675
 6892SOL    HW132312   3.104   2.045  17.476  2.1562 -1.7875  1.9037
 6892SOL    HW232313   3.043   1.989  17.600 -0.1054 -0.7185 -0.8993
 6893SOL     OW32314   0.724   2.084   1.846  0.3014  0.7063  0.5327
 6893SOL    HW132315   0.810   2.097   1.888 -0.2314  2.8331  0.9389
 6893SOL    HW232316   0.742   2.108   1.756  0.0997 -3.5285 -0.6553
 6894SOL     OW32317   3.074   2.654   3.203 -0.3052 -0.0291  0.1467
 6894SOL    HW132318   3.012   2.595   3.247 -0.7497 -0.2870 -0.8297
 6894SOL    HW232319   3.032   2.740   3.202 -1.5312 -0.6394 -1.2259
 6895SOL     OW32320   0.526   3.755  16.237  0.2186 -0.5083  0.1162
 6895SOL    HW132321   0.545   3.836  16.284 -0.3887 -0.2143 -0.1464
 6895SOL    HW232322   0.484   3.784  16.156  1.2916 -2.1239 -1.0182
 6896SOL     OW32323   0.030   1.376  15.300 -0.3986 -0.2135 -0.0313
 6896SOL    HW132324   0.011   1.393  15.208  0.7918 -1.0465 -0.4432
 6896SOL    HW232325   0.015   1.281  15.306  1.7477 -0.6932 -1.9458
 6897SOL     OW32326   2.609   4.627  15.465 -0.0933 -0.6030  0.5231
 6897SOL    HW132327   2.699   4.656  15.454 -0.0348 -1.4912 -1.3299
 6897SOL    HW232328   2.588   4.640  15.558 -0.9211  0.8461  0.1323
 6898SOL     OW32329   2.127   1.606   2.884 -0.3262 -0.2865 -0.4647
 6898SOL    HW132330   2.096   1.650   2.804  0.1443 -3.5159 -2.4335
 6898SOL    HW232331   2.203   1.564   2.842  0.1011 -1.0549  1.0975
 6899SOL     OW32332   0.393   3.476   7.080  0.1517  0.6833  0.5136
 6899SOL    HW132333   0.331   3.428   7.025  1.7199 -0.2711 -0.4000
 6899SOL    HW232334   0.436   3.408   7.133  1.2574  0.9576 -0.0428
 6900SOL     OW32335   3.659   0.333   8.655 -0.0117  0.1812  0.1446
 6900SOL    HW132336   3.603   0.339   8.732  1.8434  1.6613  1.3952
 6900SOL    HW232337   3.747   0.329   8.692 -0.4881 -1.6681  1.0576
 6901SOL     OW32338   3.809   1.178   4.926  0.5155 -0.8638  0.1836
 6901SOL    HW132339   3.805   1.216   4.838 -1.5412  0.1495  0.7055
 6901SOL    HW232340   3.757   1.241   4.976  0.6602 -0.6166  0.0276
 6902SOL     OW32341   1.061   3.983   5.678 -0.3006  0.3371  0.6501
 6902SOL    HW132342   1.034   4.001   5.588 -0.3811  2.1095  1.0136
 6902SOL    HW232343   1.154   3.993   5.660 -0.9111  2.3565 -1.3448
 6903SOL     OW32344   3.407   0.694   8.904  0.2644  0.1175 -0.3982
 6903SOL    HW132345   3.322   0.722   8.869 -0.4303 -1.6193 -0.1082
 6903SOL    HW232346   3.446   0.780   8.918 -1.6203  1.0275 -0.7382
 6904SOL     OW32347   1.878   4.025  16.834  0.4288 -0.2127 -0.3223
 6904SOL    HW132348   1.873   4.098  16.772  0.5863  0.9926  1.0665
 6904SOL    HW232349   1.790   4.029  16.870 -0.8497  1.8112 -3.6518
 6905SOL     OW32350   0.514   3.290   7.210 -0.0559  0.2395  0.1683
 6905SOL    HW132351   0.591   3.236   7.228 -1.9789 -2.1892  1.0921
 6905SOL    HW232352   0.463   3.234   7.152  1.0904  1.7312 -2.2816
 6906SOL     OW32353   2.771   3.318  14.728  0.1525  0.0767  0.2321
 6906SOL    HW132354   2.755   3.319  14.822  0.5596 -0.6728  0.3075
 6906SOL    HW232355   2.779   3.225  14.709  0.5809 -0.2178  1.8404
 6907SOL     OW32356   3.984   2.860   7.395 -0.1488 -0.9932  0.1904
 6907SOL    HW132357   3.968   2.837   7.487 -2.1270 -0.3579 -0.0016
 6907SOL    HW232358   3.915   2.810   7.352 -0.1219 -2.0086  1.3129
 6908SOL     OW32359   0.274   0.736   2.523 -0.4514 -0.0636  0.2842
 6908SOL    HW132360   0.318   0.736   2.608 -0.2799  1.0697  0.1952
 6908SOL    HW232361   0.214   0.811   2.522  0.2324  0.5082  1.2092
 6909SOL     OW32362   1.989   1.837   1.331 -0.0865  0.3744  0.2366
 6909SOL    HW132363   1.974   1.821   1.238  0.7670  2.6677 -0.3004
 6909SOL    HW232364   2.070   1.789   1.349  0.2219 -0.0720 -2.3881
 6910SOL     OW32365   2.586   4.203  14.386  0.3268 -0.9644  0.3869
 6910SOL    HW132366   2.510   4.191  14.330  0.0376  1.8092  0.1824
 6910SOL    HW232367   2.660   4.192  14.327 -1.0907 -1.7935 -1.2180
 6911SOL     OW32368   3.053   4.516   2.945 -0.0022  0.5114  0.1038
 6911SOL    HW132369   3.044   4.500   3.039 -1.7395 -2.0037 -0.4997
 6911SOL    HW232370   2.974   4.468   2.922  1.0064 -1.5033  0.8765
 6912SOL     OW32371   3.736   1.263  15.596 -1.3288  0.1356  0.2389
 6912SOL    HW132372   3.773   1.286  15.510 -0.5875  1.4868  0.9277
 6912SOL    HW232373   3.659   1.319  15.601 -3.1046 -2.2517 -0.4912
 6913SOL     OW32374   2.523   0.049   3.335  0.0981  0.0887  0.0640
 6913SOL    HW132375   2.562   0.069   3.250  1.5078 -0.6644  0.5374
 6913SOL    HW232376   2.595   0.010   3.384 -1.6934 -0.5258  2.2458
 6914SOL     OW32377   1.178   1.356  11.991 -0.0884 -0.5630  0.0818
 6914SOL    HW132378   1.169   1.443  12.029  0.1309 -1.0360  1.2252
 6914SOL    HW232379   1.201   1.385  11.903 -0.0616 -0.5177  0.1039
 6915SOL     OW32380   3.357   0.698   3.296 -0.1629 -0.2184  0.5734
 6915SOL    HW132381   3.350   0.779   3.347  1.0995  0.2787 -0.0364
 6915SOL    HW232382   3.353   0.631   3.364 -1.0667 -0.1353  0.6012
 6916SOL     OW32383   0.089   1.377   9.167 -0.6402  0.6111 -0.2961
 6916SOL    HW132384   0.179   1.362   9.136 -0.2198  0.3573  1.0411
 6916SOL    HW232385   0.093   1.470   9.189 -0.1268  0.6573 -0.5666
 6917SOL     OW32386   1.891   1.534   9.228 -0.1189  0.0554 -0.2013
 6917SOL    HW132387   1.940   1.462   9.187  0.8768  0.8889 -0.4822
 6917SOL    HW232388   1.838   1.484   9.289  0.4209 -0.3248 -0.0446
 6918SOL     OW32389   4.645   3.910  11.430 -0.2293 -0.6305  0.2547
 6918SOL    HW132390   4.615   3.917  11.521 -0.4673  1.7604  0.0181
 6918SOL    HW232391   4.728   3.958  11.436 -0.6350 -0.0474  1.4001
 6919SOL     OW32392   1.193   3.090   9.497 -0.5103  0.0070  0.1584
 6919SOL    HW132393   1.191   2.997   9.517  3.5227 -0.4451 -1.6370
 6919SOL    HW232394   1.255   3.123   9.562 -2.5059  1.3498  1.3738
 6920SOL     OW32395   1.090   2.509   5.250 -0.1234  0.4850  0.4149
 6920SOL    HW132396   1.050   2.585   5.208 -0.9706  0.8083  1.8237
 6920SOL    HW232397   1.110   2.545   5.336 -0.5394  1.0757  0.2678
 6921SOL     OW32398   1.340   2.806  11.095  0.0492  0.1498 -0.5110
 6921SOL    HW132399   1.415   2.774  11.045 -0.8880 -2.5921 -0.1549
 6921SOL    HW232400   1.274   2.823  11.028  1.6246 -1.2393 -2.4001
 6922SOL     OW32401   0.210   3.675  10.763  0.2139  0.2218 -0.1154
 6922SOL    HW132402   0.269   3.712  10.696  0.6847 -1.5767 -0.6948
 6922SOL    HW232403   0.139   3.651  10.704 -1.7254 -0.2930  2.4453
 6923SOL     OW32404   1.287   2.114   7.597  0.4550  0.3049  0.2916
 6923SOL    HW132405   1.363   2.067   7.563  0.5035  1.3330 -0.9984
 6923SOL    HW232406   1.297   2.095   7.691  2.0005 -0.1983  0.0159
 6924SOL     OW32407   4.616   0.386   5.949 -0.0463 -0.2056  0.0965
 6924SOL    HW132408   4.605   0.311   6.007 -0.1038  0.6432  1.1765
 6924SOL    HW232409   4.524   0.413   5.943  0.3288  0.4871 -2.7224
 6925SOL     OW32410   3.015   2.489   7.487 -0.3610 -0.5910 -0.0899
 6925SOL    HW132411   2.991   2.453   7.573  1.6134  1.2760  1.2444
 6925SOL    HW232412   2.961   2.569   7.488  1.2457  0.4922  0.4929
 6926SOL     OW32413   4.406   0.184   5.743 -0.4968  0.2691  0.4182
 6926SOL    HW132414   4.375   0.205   5.655  1.4254 -0.1931 -0.3736
 6926SOL    HW232415   4.500   0.170   5.733 -0.5610 -0.2037  0.4725
 6927SOL     OW32416   1.293   0.944   5.330  0.1219  0.0338 -0.2643
 6927SOL    HW132417   1.380   0.915   5.303  0.6071 -0.1295  1.4756
 6927SOL    HW232418   1.300   1.039   5.338 -1.4085  0.1949 -0.7749
 6928SOL     OW32419   0.551   0.901  14.857 -0.8494  0.0114 -0.1355
 6928SOL    HW132420   0.625   0.891  14.798 -1.4473  1.1971 -1.0977
 6928SOL    HW232421   0.527   0.811  14.877  1.2347 -0.8878 -1.7067
 6929SOL     OW32422   2.610   2.718   6.735  0.4352  0.0852 -0.5216
 6929SOL    HW132423   2.625   2.812   6.727  0.8170  0.0256 -0.4786
 6929SOL    HW232424   2.586   2.716   6.828  1.5001 -0.0823 -0.2523
 6930SOL     OW32425   2.452   4.615   1.732  0.0511 -0.3754  0.2339
 6930SOL    HW132426   2.417   4.662   1.807  2.0906  0.2878  0.7836
 6930SOL    HW232427   2.440   4.521   1.748 -1.4644  0.1464  2.1642
 6931SOL     OW32428   3.198   0.350   1.911  0.1622 -0.1260 -0.1344
 6931SOL    HW132429   3.200   0.317   2.001  0.0452 -1.7270 -0.7152
 6931SOL    HW232430   3.257   0.290   1.864  0.5299  1.6786 -1.9727
 6932SOL     OW32431   4.266   2.848   1.098  0.0766 -0.2162  0.7448
 6932SOL    HW132432   4.213   2.782   1.141 -1.4631  0.6890  0.2175
 6932SOL    HW232433   4.206   2.922   1.108  0.1633 -0.6676  4.5550
 6933SOL     OW32434   1.962   4.111   3.495  0.2458  0.2483 -0.5668
 6933SOL    HW132435   1.950   4.153   3.410  0.8738  1.7985  0.1125
 6933SOL    HW232436   1.870   4.120   3.520  0.3539 -1.5958  0.5060
 6934SOL     OW32437   0.812   3.998  16.864  0.3199  0.0700 -0.2250
 6934SOL    HW132438   0.860   3.922  16.833  2.8490  0.8663  1.7296
 6934SOL    HW232439   0.806   3.989  16.959  3.0472  0.0183 -0.0513
 6935SOL     OW32440   0.110   3.139   4.613  0.1887  0.0949 -0.2055
 6935SOL    HW132441   0.194   3.107   4.580  0.6149 -0.5369  1.4888
 6935SOL    HW232442   0.136   3.209   4.672  1.1840 -1.6653  1.4550
 6936SOL     OW32443   0.184   2.847  15.637  0.1094 -0.5485  0.2577
 6936SOL    HW132444   0.162   2.869  15.728 -3.0507  0.3511 -0.7183
 6936SOL    HW232445   0.103   2.867  15.591 -1.4751 -0.2108  3.1666
 6937SOL     OW32446   3.032   1.202  11.430  0.1497 -0.0789  0.1990
 6937SOL    HW132447   3.116   1.200  11.383  1.3460 -1.5686  2.4493
 6937SOL    HW232448   3.010   1.109  11.434  2.1415 -0.4674  1.7780
 6938SOL     OW32449   3.072   0.641   5.536  0.1995 -0.3345  0.0168
 6938SOL    HW132450   3.053   0.705   5.605 -0.7914 -1.5714  0.8899
 6938SOL    HW232451   3.008   0.662   5.467  2.4236  0.0251 -1.9121
 6939SOL     OW32452   1.626   0.122   8.695 -0.0914  0.9104  0.6029
 6939SOL    HW132453   1.538   0.105   8.728 -0.8449 -1.7281 -2.7098
 6939SOL    HW232454   1.655   0.034   8.671 -1.0551  0.8654 -0.3785
 6940SOL     OW32455   0.555   3.736  12.392 -0.2587  0.0177 -0.0607
 6940SOL    HW132456   0.620   3.705  12.455  0.1038 -2.9928 -1.9733
 6940SOL    HW232457   0.611   3.764  12.319 -0.6720  0.1592 -0.3242
 6941SOL     OW32458   3.013   3.267   7.908  0.4420 -0.0787  0.2139
 6941SOL    HW132459   2.987   3.260   8.000 -1.2568 -0.4675 -0.2968
 6941SOL    HW232460   3.107   3.252   7.914  0.7472  2.0326  0.5352
 6942SOL     OW32461   3.930   1.521   9.724 -0.2307  0.2239  0.0821
 6942SOL    HW132462   3.922   1.579   9.799  0.9118  1.6771 -0.9055
 6942SOL    HW232463   4.024   1.501   9.730 -0.3315  0.0060  0.8911
 6943SOL     OW32464   2.398   1.056   5.869 -0.0540  0.1891 -0.5708
 6943SOL    HW132465   2.319   1.064   5.816  0.6802 -1.1782 -1.8832
 6943SOL    HW232466   2.433   0.969   5.849 -1.6833 -0.6867  0.3337
 6944SOL     OW32467   4.688   1.740  17.126  0.2172 -0.6806  0.5296
 6944SOL    HW132468   4.685   1.768  17.217 -1.4690  0.3215  0.1684
 6944SOL    HW232469   4.622   1.671  17.124 -1.3997  0.9490 -2.2884
 6945SOL     OW32470   0.433   3.123  12.046 -0.0521  0.7265 -0.2391
 6945SOL    HW132471   0.386   3.044  12.071  0.2415  1.1129  1.5214
 6945SOL    HW232472   0.513   3.121  12.098 -0.3735 -2.6987  0.1114
 6946SOL     OW32473   3.477   1.772   4.445  0.1006  0.5131 -0.9260
 6946SOL    HW132474   3.461   1.863   4.473  1.4394 -0.0629  1.7537
 6946SOL    HW232475   3.391   1.735   4.462 -0.0088  2.3129  2.4718
 6947SOL     OW32476   1.491   2.383   6.460  0.5321  0.5358  0.2481
 6947SOL    HW132477   1.558   2.451   6.448  1.5602 -0.2804  1.3526
 6947SOL    HW232478   1.537   2.330   6.526 -1.3573 -0.3062  0.8748
 6948SOL     OW32479   3.239   2.323   8.880 -0.6036  0.1190 -0.3411
 6948SOL    HW132480   3.171   2.311   8.814  1.9010 -0.5282 -2.8259
 6948SOL    HW232481   3.233   2.240   8.925  0.6338  0.1386 -0.1404
 6949SOL     OW32482   2.348   0.492   9.030  0.1426  0.7685 -0.6491
 6949SOL    HW132483   2.409   0.431   8.989 -0.3389  0.3586 -0.7565
 6949SOL    HW232484   2.263   0.449   9.043  0.6562 -0.4506 -1.3169
 6950SOL     OW32485   3.203   4.665   3.794  0.2178 -0.2571  0.5035
 6950SOL    HW132486   3.259   4.684   3.869 -0.5724 -2.9986  1.7764
 6950SOL    HW232487   3.237   4.576   3.789 -0.1405 -0.3969  0.5248
 6951SOL     OW32488   2.955   3.479   2.550  0.6049  0.1428 -0.2700
 6951SOL    HW132489   3.021   3.414   2.574 -0.2672  0.1122  2.1332
 6951SOL    HW232490   2.942   3.477   2.456  2.4165  0.9418 -0.5380
 6952SOL     OW32491   2.302   3.492  14.958 -0.2468 -0.2058  0.4432
 6952SOL    HW132492   2.303   3.532  15.045 -0.7971 -1.3308  0.9570
 6952SOL    HW232493   2.302   3.399  14.977  1.0527 -0.0766  1.1349
 6953SOL     OW32494   3.836   2.483   8.036  0.3682  0.0538 -0.1400
 6953SOL    HW132495   3.890   2.517   8.108  1.6411 -0.7684 -0.7016
 6953SOL    HW232496   3.830   2.565   7.986  1.0969  1.0003  1.2922
 6954SOL     OW32497   2.688   4.739   1.572  0.0901  0.1806  0.3578
 6954SOL    HW132498   2.626   4.684   1.525 -0.2017 -0.9998  2.1222
 6954SOL    HW232499   2.630   0.045   1.633 -0.7926 -1.6747  0.9132
 6955SOL     OW32500   0.594   1.750   5.203  0.5262 -0.2280  0.1015
 6955SOL    HW132501   0.523   1.778   5.261 -0.6205 -0.6305 -1.1014
 6955SOL    HW232502   0.596   1.819   5.136  0.6674  0.4949  0.8528
 6956SOL     OW32503   1.074   0.161   1.477 -0.3176 -0.0801  0.2178
 6956SOL    HW132504   1.004   0.159   1.412 -0.9582  3.2080  0.7859
 6956SOL    HW232505   1.026   0.203   1.549 -2.2427 -0.5787 -0.7754
 6957SOL     OW32506   0.439   2.999   7.991  0.1874 -0.1216 -0.2695
 6957SOL    HW132507   0.534   2.988   7.998  0.0542  0.5066  2.5516
 6957SOL    HW232508   0.422   2.977   7.899  1.5777 -0.1802 -0.5122
 6958SOL     OW32509   4.737   0.711  10.405  0.5878 -0.2501  0.3559
 6958SOL    HW132510   0.043   0.785  10.367  0.1669 -0.0506  0.2286
 6958SOL    HW232511   4.717   0.733  10.496  3.1881  0.0119  0.8366
 6959SOL     OW32512   0.728   2.966   7.104  0.0932  1.0407  0.4581
 6959SOL    HW132513   0.767   3.045   7.142 -0.8397  0.7890  1.9253
 6959SOL    HW232514   0.639   3.001   7.100 -0.8061 -1.2579  0.6881
 6960SOL     OW32515   4.740   4.315  14.726  0.2498 -0.0426  0.0412
 6960SOL    HW132516   0.003   4.408  14.702  3.7085  0.0905  1.0032
 6960SOL    HW232517   4.685   4.276  14.658 -1.2490  1.4066  0.4333
 6961SOL     OW32518   3.498   1.714   7.712  0.2158 -0.4082 -0.1276
 6961SOL    HW132519   3.490   1.620   7.693  1.6281 -0.5848  0.1405
 6961SOL    HW232520   3.584   1.719   7.754  1.5508 -1.1511 -2.7599
 6962SOL     OW32521   1.449   4.325   8.961  0.1561 -0.0823 -0.1909
 6962SOL    HW132522   1.474   4.350   8.872 -1.7187  1.4292 -0.2978
 6962SOL    HW232523   1.397   4.400   8.988  0.2349  0.0725 -0.4676
 6963SOL     OW32524   0.181   4.258   7.716  0.0563  0.1907  0.3874
 6963SOL    HW132525   0.130   4.307   7.652 -0.0032 -0.8551 -0.3564
 6963SOL    HW232526   0.222   4.185   7.670  1.8120 -0.6690  3.3138
 6964SOL     OW32527   1.397   3.072   0.398 -0.2502  0.1357  0.4055
 6964SOL    HW132528   1.365   3.008   0.462 -2.9664  1.3996  0.3452
 6964SOL    HW232529   1.356   3.153   0.429 -0.8192  0.7254 -1.8851
 6965SOL     OW32530   3.951   1.034   1.577 -0.3550  0.3552  0.1770
 6965SOL    HW132531   3.972   1.037   1.671  1.9884 -0.7384 -0.3086
 6965SOL    HW232532   3.878   0.973   1.569 -1.2745  1.4900 -0.0801
 6966SOL     OW32533   2.199   2.409   3.254  0.3586 -0.6426 -0.0668
 6966SOL    HW132534   2.143   2.339   3.288  0.5926 -0.4486  0.7057
 6966SOL    HW232535   2.206   2.372   3.165  0.2822 -2.4604  0.6892
 6967SOL     OW32536   0.453   3.966   9.309 -0.3368 -0.0772  0.3105
 6967SOL    HW132537   0.481   4.039   9.254  0.2328  0.4992  1.3549
 6967SOL    HW232538   0.421   3.903   9.245  0.6172  0.8988 -1.1310
 6968SOL     OW32539   0.510   4.443   1.093 -0.2322 -0.0675 -0.4311
 6968SOL    HW132540   0.496   4.527   1.136 -2.5784 -0.7995  0.2822
 6968SOL    HW232541   0.424   4.403   1.109 -0.0428 -1.4097 -2.7736
 6969SOL     OW32542   1.097   1.791   7.602  0.0139 -0.4292 -0.0624
 6969SOL    HW132543   1.127   1.724   7.540 -0.2471 -1.6903  1.1656
 6969SOL    HW232544   1.077   1.857   7.536  0.6981  1.9275  2.1158
 6970SOL     OW32545   1.013   4.405   2.094 -0.2071 -0.3582  0.1069
 6970SOL    HW132546   0.961   4.329   2.120 -0.3034  0.0567  1.1361
 6970SOL    HW232547   1.059   4.369   2.018  0.7869  1.4097 -0.1336
 6971SOL     OW32548   1.816   4.243   6.812  0.1043 -0.5375  0.0653
 6971SOL    HW132549   1.811   4.207   6.900 -0.0467 -0.6370  0.0168
 6971SOL    HW232550   1.729   4.221   6.779  0.0554  0.0867 -0.2245
 6972SOL     OW32551   2.547   0.183   3.914 -0.2099 -0.1461  0.5013
 6972SOL    HW132552   2.563   0.255   3.854  2.0497 -0.6551  0.5010
 6972SOL    HW232553   2.581   0.114   3.858 -2.8846 -0.5960 -0.5738
 6973SOL     OW32554   2.740   1.282  10.764  0.4390 -0.2139 -0.2295
 6973SOL    HW132555   2.786   1.215  10.814 -1.2383 -0.7235  0.6377
 6973SOL    HW232556   2.814   1.333  10.731 -1.3274  1.4197 -1.6999
 6974SOL     OW32557   3.340   4.484   2.569  0.5793 -0.0065 -0.5440
 6974SOL    HW132558   3.305   4.396   2.582 -3.0932  1.2735 -1.7687
 6974SOL    HW232559   3.421   4.475   2.619  0.0353  0.7810  0.4842
 6975SOL     OW32560   2.298   4.290   9.798 -0.0753  0.2307 -0.1564
 6975SOL    HW132561   2.320   4.365   9.742 -0.4063  1.5696  1.4897
 6975SOL    HW232562   2.216   4.250   9.769  0.6639 -0.8256 -0.8052
 6976SOL     OW32563   1.079   3.390   6.499  0.4791  0.0550 -0.2195
 6976SOL    HW132564   1.001   3.337   6.515  1.2106 -1.1857 -0.8571
 6976SOL    HW232565   1.044   3.473   6.534  0.7632  0.2945 -0.5050
 6977SOL     OW32566   1.243   0.348   5.723 -0.2070  0.0493  0.5331
 6977SOL    HW132567   1.269   0.264   5.761  1.1355  0.2250  0.0185
 6977SOL    HW232568   1.253   0.318   5.633  1.0867 -0.6165  0.8892
 6978SOL     OW32569   0.648   0.408   2.487 -0.7044  0.6881 -0.5158
 6978SOL    HW132570   0.616   0.495   2.507 -1.4377  0.5795 -1.2164
 6978SOL    HW232571   0.702   0.396   2.565  1.2173 -1.4794 -2.1733
 6979SOL     OW32572   1.305   3.374  16.079 -0.2052 -0.0474  0.0438
 6979SOL    HW132573   1.382   3.337  16.122 -0.3252  0.0003  0.3018
 6979SOL    HW232574   1.237   3.309  16.099 -0.5824  0.1586 -0.5695
 6980SOL     OW32575   2.228   0.798   1.716 -0.1219 -0.1847 -0.2912
 6980SOL    HW132576   2.142   0.834   1.739 -0.2470 -2.4051  2.7399
 6980SOL    HW232577   2.271   0.871   1.672  2.4177 -0.9215  0.9826
 6981SOL     OW32578   0.090   1.139   5.461 -0.5344 -0.6848 -0.0670
 6981SOL    HW132579   0.185   1.130   5.460 -0.5172 -0.4803 -0.4159
 6981SOL    HW232580   0.081   1.217   5.406  1.6110 -0.7468 -0.5183
 6982SOL     OW32581   3.877   1.254  15.824  0.2365  0.0487 -0.4139
 6982SOL    HW132582   3.900   1.347  15.832 -2.2875  0.5993  0.3338
 6982SOL    HW232583   3.844   1.252  15.735 -0.5700  0.7823 -0.1299
 6983SOL     OW32584   0.924   2.116   7.780  0.1331  0.3000 -0.2100
 6983SOL    HW132585   0.940   2.088   7.690  1.4343  1.3788 -0.3167
 6983SOL    HW232586   0.853   2.056   7.801 -1.7599  1.6618 -2.6552
 6984SOL     OW32587   3.293   4.635  16.953  0.0868  0.0929 -0.5983
 6984SOL    HW132588   3.271   4.727  16.942 -2.4148 -0.4619 -0.2192
 6984SOL    HW232589   3.220   4.604  17.006 -1.1484 -0.5005 -2.6487
 6985SOL     OW32590   3.576   1.836   2.698 -0.5599  0.3650 -0.6030
 6985SOL    HW132591   3.502   1.896   2.712 -0.5489  0.0154  0.9518
 6985SOL    HW232592   3.657   1.868   2.739 -0.0144 -0.8220 -0.7678
 6986SOL     OW32593   4.262   3.311   6.535 -0.1925  0.3471  0.3446
 6986SOL    HW132594   4.244   3.341   6.624  0.5627 -0.7980  0.8837
 6986SOL    HW232595   4.278   3.390   6.484  3.1267  0.1112  1.0506
 6987SOL     OW32596   3.513   1.561   7.950 -0.3892 -0.0158  0.4657
 6987SOL    HW132597   3.428   1.600   7.928 -1.3905 -2.7882 -0.5705
 6987SOL    HW232598   3.535   1.614   8.026  0.1436 -0.7850  0.8419
 6988SOL     OW32599   3.743   1.753   8.521 -0.3928 -0.3735 -0.3479
 6988SOL    HW132600   3.698   1.755   8.606  1.3519 -0.6626  0.5635
 6988SOL    HW232601   3.682   1.808   8.471 -2.8521  0.4237  3.4811
 6989SOL     OW32602   3.277   2.057   4.225  0.3408 -0.4723 -0.1477
 6989SOL    HW132603   3.342   2.049   4.156  1.2283 -0.3985  0.6718
 6989SOL    HW232604   3.328   2.038   4.304 -1.8385 -0.9460  1.1401
 6990SOL     OW32605   1.259   2.837  12.456  0.0033 -0.1115  0.1737
 6990SOL    HW132606   1.284   2.747  12.435 -0.4345 -0.0559 -0.5709
 6990SOL    HW232607   1.218   2.819  12.540  0.7510 -0.8612  0.3817
 6991SOL     OW32608   2.387   0.676   5.080  0.6635 -0.0812 -0.0040
 6991SOL    HW132609   2.396   0.753   5.136  1.4208  0.4540 -0.8538
 6991SOL    HW232610   2.318   0.701   5.018  0.2000  0.6439  0.8031
 6992SOL     OW32611   4.426   2.626  12.832  0.5378  0.0151 -0.0877
 6992SOL    HW132612   4.437   2.673  12.915 -0.8003 -0.0921  0.1391
 6992SOL    HW232613   4.369   2.685  12.783  1.6182 -0.2072 -1.5912
 6993SOL     OW32614   4.404   1.798   2.178 -0.8844 -0.1878  0.2984
 6993SOL    HW132615   4.370   1.798   2.089 -0.2260  1.7509  0.0515
 6993SOL    HW232616   4.387   1.708   2.204  1.4465 -0.0261  2.4504
 6994SOL     OW32617   4.011   1.921   1.416 -0.3367 -0.0238  0.1161
 6994SOL    HW132618   3.945   1.985   1.388  1.4187  1.2983 -0.9597
 6994SOL    HW232619   4.007   1.860   1.343  0.6405 -3.0998  2.6589
 6995SOL     OW32620   1.498   2.680   2.098 -0.1226 -0.4195 -0.1780
 6995SOL    HW132621   1.413   2.657   2.061 -0.4902  3.8360 -1.9533
 6995SOL    HW232622   1.479   2.685   2.191 -0.1840 -2.1354 -0.1114
 6996SOL     OW32623   3.547   3.451   1.549 -0.1984 -0.1964 -0.2397
 6996SOL    HW132624   3.458   3.484   1.554  0.2496  0.8747  0.5979
 6996SOL    HW232625   3.603   3.526   1.570 -1.9041  0.5812  1.5771
 6997SOL     OW32626   1.069   2.178   6.880  0.5443  0.0753 -0.5408
 6997SOL    HW132627   1.075   2.258   6.932 -0.9232 -1.0182  1.2980
 6997SOL    HW232628   1.062   2.116   6.953 -0.5109  1.3503  0.4334
 6998SOL     OW32629   1.740   2.973   1.161  0.2492  1.0349 -0.2899
 6998SOL    HW132630   1.701   2.897   1.118  1.4425 -0.3132  0.9977
 6998SOL    HW232631   1.817   2.944   1.211 -1.9918 -1.9402  1.4473
 6999SOL     OW32632   3.827   4.655   4.737 -0.0558 -0.2086 -0.4791
 6999SOL    HW132633   3.900   4.716   4.747 -1.2495  0.9166  1.1921
 6999SOL    HW232634   3.763   4.713   4.778  0.5657  1.7396 -2.2667
 7000SOL     OW32635   2.458   1.056   2.216 -0.2213  0.0778 -0.2899
 7000SOL    HW132636   2.544   1.015   2.219 -0.3350 -0.1606 -0.2539
 7000SOL    HW232637   2.449   1.105   2.135  1.4233  1.2496  0.2331
 7001SOL     OW32638   4.070   3.741   1.351  0.0865 -0.4994 -0.1022
 7001SOL    HW132639   4.044   3.686   1.425 -0.9844  0.1471 -0.0046
 7001SOL    HW232640   4.070   3.831   1.384  0.3003  0.1057 -1.7382
 7002SOL     OW32641   2.472   1.661  13.915 -0.1202  0.1020 -0.2329
 7002SOL    HW132642   2.382   1.673  13.885  0.4841  2.2108 -1.1527
 7002SOL    HW232643   2.512   1.739  13.878  1.3464 -0.2398  0.6456
 7003SOL     OW32644   0.608   2.072   7.372  0.0704  0.1619  0.2770
 7003SOL    HW132645   0.636   2.103   7.458 -1.2275 -1.4361  1.2560
 7003SOL    HW232646   0.610   1.978   7.387 -0.7563 -0.1031 -1.2335
 7004SOL     OW32647   4.178   2.911  10.207 -0.2985 -0.1172  0.3047
 7004SOL    HW132648   4.131   2.965  10.144  0.6109 -0.5824 -0.7866
 7004SOL    HW232649   4.197   2.973  10.278  0.6237 -0.4805  0.3758
 7005SOL     OW32650   3.436   4.380  17.520  0.1473 -0.2899 -0.0390
 7005SOL    HW132651   3.483   4.302  17.548 -0.4785 -0.1592  1.3873
 7005SOL    HW232652   3.351   4.367  17.562  1.6801 -0.9587  2.8120
 7006SOL     OW32653   0.308   0.296   7.836  0.0254  0.2866 -0.0680
 7006SOL    HW132654   0.341   0.213   7.871  2.2620  2.1772  2.2778
 7006SOL    HW232655   0.348   0.294   7.749  0.2854  1.2691  0.0291
 7007SOL     OW32656   4.403   0.099   9.166 -0.2021  0.2402 -0.0054
 7007SOL    HW132657   4.412   0.049   9.247  0.1203 -1.6125 -1.1850
 7007SOL    HW232658   4.428   0.024   9.112  0.7633  0.4680  0.1251
 7008SOL     OW32659   1.677   0.537   6.375 -0.1960 -0.5632  0.2239
 7008SOL    HW132660   1.612   0.484   6.328  0.9962  0.6714 -2.8121
 7008SOL    HW232661   1.712   0.464   6.426  0.0970 -0.4247  0.2212
 7009SOL     OW32662   0.074   3.724  10.048 -0.2261 -0.1674  0.4536
 7009SOL    HW132663   0.065   3.640  10.001 -3.4339 -0.2052  1.1155
 7009SOL    HW232664   4.727   3.727  10.088 -1.0209  1.7196 -1.4524
 7010SOL     OW32665   1.858   1.783   3.302 -0.0129  0.1074  0.2638
 7010SOL    HW132666   1.855   1.771   3.397  3.9689  1.0782  0.5183
 7010SOL    HW232667   1.953   1.775   3.289 -0.0674 -0.2276  0.0766
 7011SOL     OW32668   0.111   1.991  12.314  0.2560  0.0089 -0.3123
 7011SOL    HW132669   0.194   2.036  12.326  0.0494 -0.5418  3.2342
 7011SOL    HW232670   0.068   2.023  12.393 -2.0696 -1.4827 -0.9552
 7012SOL     OW32671   2.920   2.493   3.375 -0.3365  0.2428  0.5372
 7012SOL    HW132672   2.977   2.481   3.451  0.0650 -2.1408 -0.1498
 7012SOL    HW232673   2.839   2.520   3.419 -0.0127  1.5812  0.3304
 7013SOL     OW32674   3.540   3.207   4.317  0.2388  0.1161  0.0040
 7013SOL    HW132675   3.450   3.181   4.336 -0.5339  1.4739 -1.7922
 7013SOL    HW232676   3.578   3.239   4.398 -1.7278 -1.0855  1.4175
 7014SOL     OW32677   1.028   4.290  17.041  0.0061  0.0413  0.8493
 7014SOL    HW132678   1.072   4.297  16.955 -0.5567  1.3701  0.6811
 7014SOL    HW232679   1.035   4.197  17.064 -1.1962  1.1856  5.6671
 7015SOL     OW32680   2.163   1.012   8.615  0.8243 -0.7993 -0.1477
 7015SOL    HW132681   2.199   0.968   8.537  1.2146 -0.5732 -0.0969
 7015SOL    HW232682   2.240   1.003   8.671  0.9781 -0.1486 -0.2610
 7016SOL     OW32683   2.578   3.287   9.215 -0.2621  0.2616 -0.0422
 7016SOL    HW132684   2.620   3.255   9.294 -0.2184 -0.8073 -0.4970
 7016SOL    HW232685   2.531   3.358   9.259 -1.5721  0.2625 -1.4343
 7017SOL     OW32686   3.199   4.737   8.710 -0.2241 -0.0092  0.4739
 7017SOL    HW132687   3.258   4.711   8.639 -0.9837  0.5322 -0.3524
 7017SOL    HW232688   3.158   0.079   8.683  1.5820 -0.5345 -3.9167
 7018SOL     OW32689   2.054   0.102   4.193 -0.6590 -1.2719  0.0937
 7018SOL    HW132690   2.120   0.149   4.244  0.4824 -0.3003 -2.2857
 7018SOL    HW232691   2.098   0.018   4.198  1.0445 -0.2321  2.7964
 7019SOL     OW32692   3.590   4.190   9.373  0.1708  0.0367  0.3373
 7019SOL    HW132693   3.512   4.223   9.328  1.2728  1.2313 -0.6948
 7019SOL    HW232694   3.577   4.229   9.459  2.4134  1.3799  0.0515
 7020SOL     OW32695   2.754   2.418   6.070 -0.5660 -0.2558  0.0866
 7020SOL    HW132696   2.692   2.454   6.133  2.7802 -1.2239  3.8925
 7020SOL    HW232697   2.765   2.332   6.110  0.6254 -1.0976 -2.0047
 7021SOL     OW32698   1.570   3.598   8.471 -0.1772  0.7981 -0.5386
 7021SOL    HW132699   1.601   3.550   8.394 -0.1256  0.3119 -0.2129
 7021SOL    HW232700   1.483   3.559   8.483  0.4433 -0.7750 -1.1539
 7022SOL     OW32701   2.411   4.684  16.678  0.5320 -0.2420  0.0132
 7022SOL    HW132702   2.441   0.032  16.654 -0.6300  0.2037  0.1902
 7022SOL    HW232703   2.456   4.624  16.619  1.3943 -0.0352  0.4665
 7023SOL     OW32704   4.550   3.024   8.543  0.2516  0.2928  0.0056
 7023SOL    HW132705   4.460   3.031   8.513  0.2567  0.5509  0.0531
 7023SOL    HW232706   4.579   3.104   8.499 -0.8888  0.8086  0.2032
 7024SOL     OW32707   2.648   0.363   4.348  0.3791  0.0250  0.4331
 7024SOL    HW132708   2.655   0.272   4.378 -0.5569 -0.8219 -1.9133
 7024SOL    HW232709   2.652   0.412   4.430  0.7618  1.9200 -0.7176
 7025SOL     OW32710   2.207   0.442   4.898  0.5191 -0.1818 -0.2929
 7025SOL    HW132711   2.281   0.432   4.958 -0.4890 -0.0240  0.9888
 7025SOL    HW232712   2.223   0.527   4.857 -1.1127 -0.5882 -1.7653
 7026SOL     OW32713   1.234   0.731   1.074  0.6081  0.1299 -0.2875
 7026SOL    HW132714   1.186   0.676   1.013  0.5606 -0.3067  0.1450
 7026SOL    HW232715   1.220   0.818   1.036  0.5276  0.2727  0.0670
 7027SOL     OW32716   3.071   3.568   1.768  0.3215 -0.2855 -0.2171
 7027SOL    HW132717   3.002   3.526   1.717  2.0511 -2.8782 -0.4499
 7027SOL    HW232718   3.030   3.619   1.838  3.0828  1.6246  0.0190
 7028SOL     OW32719   3.631   0.443  12.890  0.7012 -0.0496 -0.1589
 7028SOL    HW132720   3.590   0.414  12.808 -1.6897 -2.3626  1.8569
 7028SOL    HW232721   3.590   0.529  12.900 -1.0675 -0.8254 -0.6901
 7029SOL     OW32722   3.480   2.333   9.083  0.2262 -0.1587  0.0381
 7029SOL    HW132723   3.459   2.317   8.991  0.1787 -0.6513  0.1332
 7029SOL    HW232724   3.452   2.250   9.122  1.8019 -1.5243 -1.7326
 7030SOL     OW32725   4.333   0.325  15.728  0.2606 -0.3870 -0.0672
 7030SOL    HW132726   4.322   0.340  15.822  0.3142  1.2227 -0.3220
 7030SOL    HW232727   4.315   0.410  15.689  2.4904  0.1840  0.1419
 7031SOL     OW32728   1.505   2.323   5.953  0.6167  0.3333 -0.3020
 7031SOL    HW132729   1.454   2.330   6.033 -0.5405 -0.7982 -0.9331
 7031SOL    HW232730   1.464   2.394   5.904 -0.6536 -0.2450 -0.0630
 7032SOL     OW32731   1.715   2.103   0.814 -0.5564  0.4508 -0.0750
 7032SOL    HW132732   1.734   2.122   0.905  0.6936 -0.7925 -0.0679
 7032SOL    HW232733   1.741   2.011   0.812 -0.0418  0.6142 -0.7942
 7033SOL     OW32734   3.106   0.778   4.270 -0.0565  0.2792  0.5570
 7033SOL    HW132735   3.094   0.862   4.313 -0.6100 -1.0242  2.8941
 7033SOL    HW232736   3.189   0.752   4.310 -0.1110 -0.5639  0.1347
 7034SOL     OW32737   2.689   0.046  12.526  0.1018 -0.0250  0.2339
 7034SOL    HW132738   2.680   4.692  12.508 -3.8134  0.1521  1.1357
 7034SOL    HW232739   2.734   0.047  12.610 -1.4681 -1.1416  1.0818
 7035SOL     OW32740   2.546   1.367   8.179  0.0211  0.3101 -0.1887
 7035SOL    HW132741   2.500   1.412   8.108  0.4713 -0.8120 -1.2023
 7035SOL    HW232742   2.507   1.414   8.252 -0.8586 -0.6120 -0.0668
 7036SOL     OW32743   2.061   4.364  14.557  0.1028  0.1794  0.1185
 7036SOL    HW132744   1.973   4.367  14.519  0.1019  0.9553  0.1776
 7036SOL    HW232745   2.058   4.426  14.631 -1.9311  1.4153 -0.9847
 7037SOL     OW32746   3.267   2.672   3.406 -0.3605 -0.5326 -0.4301
 7037SOL    HW132747   3.344   2.640   3.359 -1.4209 -1.9095 -1.2176
 7037SOL    HW232748   3.197   2.644   3.348 -0.5560 -0.0548 -0.4199
 7038SOL     OW32749   2.332   3.854   3.460  0.2441 -0.1614  0.3915
 7038SOL    HW132750   2.258   3.855   3.521 -0.4466  0.1602 -0.4612
 7038SOL    HW232751   2.408   3.873   3.515 -0.0989 -0.6230  1.0248
 7039SOL     OW32752   4.117   4.635   5.812  0.8853 -0.0467  0.1399
 7039SOL    HW132753   4.057   4.703   5.780  0.7622  0.8478  2.2648
 7039SOL    HW232754   4.109   4.646   5.907  1.3037  1.3328  0.0208
 7040SOL     OW32755   0.884   3.221  17.434 -0.4813  0.1123 -0.4556
 7040SOL    HW132756   0.807   3.169  17.456 -0.6331  0.3781 -0.3569
 7040SOL    HW232757   0.852   3.294  17.381 -0.4311  0.7637  0.4226
 7041SOL     OW32758   1.032   3.219  15.774 -0.1651 -0.1190  0.3900
 7041SOL    HW132759   1.064   3.308  15.792 -0.9093  0.2802 -0.2590
 7041SOL    HW232760   1.006   3.184  15.859  2.4731 -0.6972  0.9675
 7042SOL     OW32761   4.571   0.379   2.742 -0.0409 -0.3817 -0.0071
 7042SOL    HW132762   4.588   0.446   2.675 -0.1168  1.5420  1.9053
 7042SOL    HW232763   4.641   0.406   2.801  0.2515 -0.5107 -0.2947
 7043SOL     OW32764   0.766   0.314  12.291  0.2312 -0.1242  0.1016
 7043SOL    HW132765   0.855   0.348  12.300  1.0744 -2.3126 -0.0040
 7043SOL    HW232766   0.778   0.221  12.276 -0.7941  0.0926 -1.9588
 7044SOL     OW32767   2.226   4.088   7.751 -0.0681  0.2514  0.2560
 7044SOL    HW132768   2.145   4.110   7.799 -0.5188  0.2455 -0.5083
 7044SOL    HW232769   2.235   3.995   7.772  0.7551  0.7337  2.1272
 7045SOL     OW32770   1.189   4.721   2.167 -0.4828 -0.8050 -0.0855
 7045SOL    HW132771   1.216   4.665   2.240 -0.8691  0.0583  0.7205
 7045SOL    HW232772   1.168   4.649   2.107  1.2621 -1.3595 -0.0451
 7046SOL     OW32773   1.753   1.136  12.744 -0.6360  0.4546  0.1551
 7046SOL    HW132774   1.759   1.076  12.670 -0.8324  1.8470 -0.9652
 7046SOL    HW232775   1.685   1.197  12.717  0.2069  1.4427  0.2679
 7047SOL     OW32776   3.149   1.281   1.999  0.5377 -0.0103  0.0836
 7047SOL    HW132777   3.220   1.346   1.999  1.8948 -1.4933 -0.2720
 7047SOL    HW232778   3.174   1.251   1.912 -2.6571 -0.5854 -0.6312
 7048SOL     OW32779   3.459   3.338   3.865 -1.0065  0.3454 -0.0409
 7048SOL    HW132780   3.424   3.286   3.937 -1.9061  2.2680  0.9271
 7048SOL    HW232781   3.402   3.299   3.799 -0.3554  0.0500 -0.4241
 7049SOL     OW32782   0.122   1.491   7.489  0.3067  0.6763 -0.1855
 7049SOL    HW132783   0.060   1.478   7.561 -0.1509 -0.5473 -0.8009
 7049SOL    HW232784   0.081   1.430   7.428 -1.0001 -0.2473  1.6146
 7050SOL     OW32785   3.898   3.647   5.161  0.6603  0.0359 -0.6166
 7050SOL    HW132786   3.931   3.735   5.178 -0.8568  0.9435 -2.3757
 7050SOL    HW232787   3.889   3.660   5.067 -0.3235 -1.2309 -0.7005
 7051SOL     OW32788   3.419   0.859   8.346 -0.5302  0.3113  0.3219
 7051SOL    HW132789   3.420   0.904   8.262 -2.3414  0.5447  0.4278
 7051SOL    HW232790   3.483   0.919   8.385 -1.8349  1.5829  0.4991
 7052SOL     OW32791   4.443   2.730   8.611 -0.4199 -0.2631  0.3340
 7052SOL    HW132792   4.459   2.664   8.544  1.7225 -0.0628  0.6314
 7052SOL    HW232793   4.488   2.810   8.583 -1.2359 -0.2904 -1.0493
 7053SOL     OW32794   3.466   3.175   3.480  0.4430 -0.3159 -0.2768
 7053SOL    HW132795   3.422   3.259   3.492 -2.5947 -1.6944 -1.9208
 7053SOL    HW232796   3.426   3.133   3.404 -1.1077  0.0411  0.3469
 7054SOL     OW32797   2.431   0.197   2.080 -0.1156  0.3562 -0.2133
 7054SOL    HW132798   2.354   0.159   2.038 -0.7552  2.6835 -1.1343
 7054SOL    HW232799   2.396   0.244   2.156 -2.5631 -0.1864 -1.0140
 7055SOL     OW32800   4.109   1.114   9.645 -0.2560  0.0006  0.0193
 7055SOL    HW132801   4.067   1.159   9.571 -1.7964 -0.2117  0.7483
 7055SOL    HW232802   4.034   1.071   9.686  0.8180 -0.6693  1.2723
 7056SOL     OW32803   1.249   3.383   5.023 -0.6502 -0.5197  0.2775
 7056SOL    HW132804   1.220   3.441   4.952  1.6754 -0.8487 -0.9346
 7056SOL    HW232805   1.297   3.445   5.077 -1.2268 -0.2416  0.4688
 7057SOL     OW32806   1.859   1.323   6.355 -0.6303  0.1173  0.1342
 7057SOL    HW132807   1.838   1.231   6.365 -0.0405 -0.2162 -1.7218
 7057SOL    HW232808   1.953   1.319   6.334 -0.2844  2.0296  1.2658
 7058SOL     OW32809   1.936   3.922   1.778  0.3424  0.6226 -0.3185
 7058SOL    HW132810   1.951   4.014   1.757 -2.4523  1.0495 -0.3589
 7058SOL    HW232811   1.950   3.917   1.873  0.7326  1.5200 -0.3347
 7059SOL     OW32812   2.618   1.637   6.966 -0.4251 -0.6107 -0.0010
 7059SOL    HW132813   2.564   1.681   7.031  0.9963  2.0633 -0.6405
 7059SOL    HW232814   2.691   1.609   7.020 -0.4784 -1.9843 -0.6413
 7060SOL     OW32815   1.417   2.220   6.904 -0.0685 -0.4241 -0.0647
 7060SOL    HW132816   1.431   2.128   6.925  0.1136 -0.5471 -0.7298
 7060SOL    HW232817   1.488   2.229   6.840  0.3472 -1.8017  0.2177
 7061SOL     OW32818   1.618   2.178   9.664 -0.1717  0.2071  0.5444
 7061SOL    HW132819   1.695   2.213   9.621 -0.6353  0.7359  0.1429
 7061SOL    HW232820   1.635   2.086   9.645 -1.5036 -0.2818  1.6819
 7062SOL     OW32821   4.028   4.030   5.454  0.6048 -0.0404 -0.6199
 7062SOL    HW132822   3.999   3.969   5.522  0.1534  1.9497  0.9869
 7062SOL    HW232823   4.035   4.117   5.495 -0.3768 -0.8633  1.3034
 7063SOL     OW32824   1.769   1.935   3.060 -0.2507  0.7487 -0.4730
 7063SOL    HW132825   1.809   1.924   3.147  0.7301  1.2288 -0.8554
 7063SOL    HW232826   1.693   1.879   3.074  1.5546 -2.6030 -4.1935
 7064SOL     OW32827   3.128   2.906   5.909 -0.3988 -0.3871  0.3429
 7064SOL    HW132828   3.045   2.927   5.867 -0.5990 -0.1221  0.8635
 7064SOL    HW232829   3.138   2.813   5.890 -1.0285 -0.0609 -1.5690
 7065SOL     OW32830   1.602   4.270  11.793 -0.1413 -0.6078 -0.3790
 7065SOL    HW132831   1.509   4.247  11.794  0.2561 -2.2815 -1.8426
 7065SOL    HW232832   1.650   4.198  11.835  1.1505  0.3482 -0.2553
 7066SOL     OW32833   1.314   4.058  12.192 -0.3649  0.4167 -0.2356
 7066SOL    HW132834   1.320   4.045  12.287 -2.1062 -1.0323 -0.3270
 7066SOL    HW232835   1.253   4.132  12.189  2.4655  2.7217 -0.3204
 7067SOL     OW32836   1.509   4.445   4.073  0.1093 -0.0740 -0.6132
 7067SOL    HW132837   1.452   4.368   4.075 -1.4118  1.0841  0.6756
 7067SOL    HW232838   1.473   4.474   3.989  1.4334  0.1131 -1.1083
 7068SOL     OW32839   4.467   2.632   9.272  0.4026 -0.0406 -0.3547
 7068SOL    HW132840   4.442   2.723   9.258 -0.5883  0.0599  2.0309
 7068SOL    HW232841   4.522   2.641   9.350 -2.0401  1.1425  1.2287
 7069SOL     OW32842   4.657   1.606   8.504 -0.2091  0.1065  0.3452
 7069SOL    HW132843   4.661   1.664   8.428 -0.9230 -0.3130 -0.0145
 7069SOL    HW232844   4.563   1.593   8.495 -0.3782  0.1933  1.9250
 7070SOL     OW32845   2.282   2.636   0.067  0.8924  0.1945 -0.3680
 7070SOL    HW132846   2.303   2.562   0.011 -0.5171  1.5302 -2.6704
 7070SOL    HW232847   2.300   2.697  17.753 -0.3608 -0.6093 -1.3710
 7071SOL     OW32848   2.589   3.692  17.065 -0.6311  0.2406  0.0074
 7071SOL    HW132849   2.537   3.649  17.133 -2.9424  2.2868 -0.4522
 7071SOL    HW232850   2.522   3.723  17.004 -0.3345  1.3472  0.2608
 7072SOL     OW32851   1.378   4.185   4.478  0.2439  0.2700  0.1287
 7072SOL    HW132852   1.304   4.230   4.436  0.3417 -1.0113 -1.4462
 7072SOL    HW232853   1.432   4.257   4.511  0.3764  0.9318 -1.4805
 7073SOL     OW32854   0.355   2.107  15.159  0.1240  0.2606  0.5353
 7073SOL    HW132855   0.449   2.104  15.145 -0.1725  1.5654 -1.8181
 7073SOL    HW232856   0.318   2.158  15.087  1.6441  2.0796  1.0401
 7074SOL     OW32857   3.430   0.171   8.445 -0.1507  0.3570  0.0158
 7074SOL    HW132858   3.522   0.169   8.418  0.0417 -1.5210  0.7766
 7074SOL    HW232859   3.428   0.251   8.497  0.2582 -0.7553  1.7444
 7075SOL     OW32860   3.505   2.026   2.045 -0.3039 -0.0672  0.1802
 7075SOL    HW132861   3.475   2.002   2.132 -0.3592  0.4805  0.3085
 7075SOL    HW232862   3.497   1.943   1.997 -3.0328 -0.8379  1.9779
 7076SOL     OW32863   3.513   1.857   4.006 -0.0973  0.3011 -0.4917
 7076SOL    HW132864   3.508   1.943   3.963  1.0758  0.9885  0.7324
 7076SOL    HW232865   3.482   1.811   3.928 -0.2947 -1.8094  0.8652
 7077SOL     OW32866   2.861   2.091   4.677  0.0401 -0.0698 -0.5503
 7077SOL    HW132867   2.845   2.185   4.689 -0.2110 -0.2592  0.5567
 7077SOL    HW232868   2.783   2.069   4.626 -1.0387  2.9610 -0.2053
 7078SOL     OW32869   0.128   0.296   4.654  0.1014 -0.1453 -0.2038
 7078SOL    HW132870   0.121   0.390   4.668 -0.6452 -0.1984 -0.2371
 7078SOL    HW232871   0.078   0.290   4.573 -0.2937  1.1119 -0.0414
 7079SOL     OW32872   1.062   0.741   6.274  0.0230 -0.3572 -0.3430
 7079SOL    HW132873   0.994   0.776   6.332  1.3193 -0.1255  1.0377
 7079SOL    HW232874   1.026   0.761   6.187  1.1161 -1.9140 -1.1472
 7080SOL     OW32875   3.800   0.320  13.042  0.2220 -0.1109 -0.3133
 7080SOL    HW132876   3.754   0.375  12.978 -1.4977  0.4429  1.3568
 7080SOL    HW232877   3.821   0.245  12.987 -1.2643  0.4508 -1.6361
 7081SOL     OW32878   3.810   3.942  11.259  0.5481 -0.1813 -0.0916
 7081SOL    HW132879   3.872   3.955  11.330 -1.1002  1.6922  1.0159
 7081SOL    HW232880   3.789   4.032  11.237  3.6224  0.7108  0.6739
 7082SOL     OW32881   1.701   4.051  11.913  0.0547  0.0685 -0.2933
 7082SOL    HW132882   1.680   4.055  12.006  1.8790  0.3626  0.1075
 7082SOL    HW232883   1.775   3.990  11.922 -0.0034  0.0429 -0.0131
 7083SOL     OW32884   0.934   3.925   3.004  0.2067  0.5110  0.6267
 7083SOL    HW132885   0.847   3.965   2.992  0.1430 -0.5998 -2.5107
 7083SOL    HW232886   0.978   3.999   3.047 -1.0143  0.5085  1.9063
 7084SOL     OW32887   4.737   1.304   9.518  0.2798  0.2253  0.4253
 7084SOL    HW132888   0.084   1.308   9.478  0.5001  2.4435  1.1517
 7084SOL    HW232889   4.695   1.382   9.481  1.5594  0.8321  0.2732
 7085SOL     OW32890   1.220   2.419   1.828  0.1532  0.6848 -0.1869
 7085SOL    HW132891   1.154   2.483   1.800 -3.6128 -2.9382  0.3436
 7085SOL    HW232892   1.296   2.442   1.774 -0.4141 -1.2149 -1.8227
 7086SOL     OW32893   2.728   1.564   7.244  0.3386  0.3077 -0.1932
 7086SOL    HW132894   2.656   1.509   7.274  1.1074 -0.1352  0.8741
 7086SOL    HW232895   2.741   1.612   7.326 -2.0857  0.0409  0.3511
 7087SOL     OW32896   4.258   0.262   2.227 -0.3048  0.1703 -0.6615
 7087SOL    HW132897   4.165   0.278   2.211 -0.5878 -0.3979  0.3838
 7087SOL    HW232898   4.275   0.180   2.180  2.1828  1.0775 -1.3414
 7088SOL     OW32899   3.184   2.505  10.711 -0.2741 -0.4350  0.4096
 7088SOL    HW132900   3.120   2.481  10.778 -0.6002  0.2085  0.3287
 7088SOL    HW232901   3.218   2.580  10.760 -1.0730 -0.7120  1.3895
 7089SOL     OW32902   1.044   1.661   0.063 -0.5117  0.2740  0.7735
 7089SOL    HW132903   0.960   1.632   0.027 -1.0089  1.1281  1.2231
 7089SOL    HW232904   1.033   1.644   0.157  1.4628  1.1828  1.1665
 7090SOL     OW32905   2.844   4.395   6.567 -0.2041  0.1648 -0.1116
 7090SOL    HW132906   2.754   4.362   6.573 -0.1186  0.0237  0.4684
 7090SOL    HW232907   2.846   4.416   6.661  1.3946  1.3661 -0.4172
 7091SOL     OW32908   1.042   3.702   8.294  0.3572 -0.0626  0.5979
 7091SOL    HW132909   1.016   3.742   8.211  0.1311 -0.5076  0.4502
 7091SOL    HW232910   1.137   3.699   8.283  0.2578 -0.6045 -0.1510
 7092SOL     OW32911   3.688   0.659   5.130 -0.2385  0.2535 -0.0354
 7092SOL    HW132912   3.666   0.688   5.218  0.5818 -0.8950  0.5458
 7092SOL    HW232913   3.609   0.608   5.117 -0.8019  0.5571  2.2464
 7093SOL     OW32914   2.224   3.988   3.240 -1.2139  0.2496 -0.2107
 7093SOL    HW132915   2.274   3.955   3.315  1.3513  0.3325 -1.8873
 7093SOL    HW232916   2.231   4.083   3.250  1.4657 -0.3021  3.5124
 7094SOL     OW32917   0.293   4.617   4.139  0.2026 -0.4960 -0.6905
 7094SOL    HW132918   0.388   4.605   4.143  0.0759 -1.4421 -0.5114
 7094SOL    HW232919   0.287   4.693   4.080 -1.3580 -1.4038 -1.6967
 7095SOL     OW32920   1.437   4.473   5.299 -0.2461  0.3055 -0.0615
 7095SOL    HW132921   1.391   4.516   5.371  1.7853 -0.5106  1.7086
 7095SOL    HW232922   1.429   4.545   5.237  0.5406  1.0824  0.7333
 7096SOL     OW32923   0.160   1.680   5.999  0.4977 -0.3938  0.0122
 7096SOL    HW132924   0.119   1.630   5.928 -0.2769  0.3178 -0.0492
 7096SOL    HW232925   0.108   1.649   6.073 -0.8669  0.5503 -0.5520
 7097SOL     OW32926   4.063   1.538  16.211 -0.4730 -0.2222  0.1853
 7097SOL    HW132927   4.137   1.596  16.229  1.5797 -1.9656 -2.5010
 7097SOL    HW232928   4.022   1.589  16.141  1.1499  0.4594 -0.2580
 7098SOL     OW32929   2.387   0.923  10.011 -0.6467  0.1957 -0.0203
 7098SOL    HW132930   2.372   0.830  10.024 -1.5810  0.7398  2.6650
 7098SOL    HW232931   2.312   0.943   9.955  0.0167  2.4625 -0.1000
 7099SOL     OW32932   4.206   2.665   4.982  0.5252  0.5373  0.4023
 7099SOL    HW132933   4.153   2.708   4.915  0.3765  0.5579  0.5335
 7099SOL    HW232934   4.263   2.735   5.013  0.8372  0.4900 -0.0490
 7100SOL     OW32935   2.601   2.733   8.613 -0.1916  0.0371 -0.1026
 7100SOL    HW132936   2.512   2.698   8.617  0.8087 -2.2058  2.3011
 7100SOL    HW232937   2.593   2.822   8.648  1.3874  1.9938 -4.6891
 7101SOL     OW32938   0.823   0.827   6.668 -0.4696  0.1026 -0.1715
 7101SOL    HW132939   0.767   0.904   6.668  1.0989  1.2567 -0.7683
 7101SOL    HW232940   0.844   0.814   6.576  0.3199  0.2217 -0.0079
 7102SOL     OW32941   1.753   2.883   2.721 -0.4455 -0.3481 -0.1420
 7102SOL    HW132942   1.749   2.975   2.747 -0.4373 -0.3590 -0.1008
 7102SOL    HW232943   1.805   2.882   2.641 -0.0381  2.5498  0.0857
 7103SOL     OW32944   2.004   2.577   6.227 -0.2312  0.3906  0.5447
 7103SOL    HW132945   1.962   2.662   6.218 -1.8578 -0.4287  0.4730
 7103SOL    HW232946   2.054   2.574   6.145 -0.5386 -2.0387  0.4372
 7104SOL     OW32947   2.216   0.234   6.049 -0.4310 -0.2431  0.0114
 7104SOL    HW132948   2.239   0.281   6.130  2.4051 -2.6192  0.5926
 7104SOL    HW232949   2.124   0.227   6.074 -1.3745 -1.8187 -3.9484
 7105SOL     OW32950   1.188   4.702  15.455  0.1805  0.3507 -0.2332
 7105SOL    HW132951   1.095   4.683  15.446  0.2116  0.1922 -0.2213
 7105SOL    HW232952   1.199   4.700  15.550 -0.4896 -0.6179 -0.1765
 7106SOL     OW32953   3.446   1.615  10.672 -0.1833 -0.2365  0.0862
 7106SOL    HW132954   3.369   1.671  10.682  0.5800  0.7780  0.3185
 7106SOL    HW232955   3.454   1.611  10.577 -1.4220  2.1356 -0.1309
 7107SOL     OW32956   3.691   0.843  17.188  0.4910  0.0866 -0.6554
 7107SOL    HW132957   3.770   0.867  17.140  0.0571  1.6934 -0.5762
 7107SOL    HW232958   3.651   0.789  17.119 -0.1310 -0.5044  0.1778
 7108SOL     OW32959   1.765   1.209   8.032  0.1160  0.0286  0.2903
 7108SOL    HW132960   1.744   1.162   7.952 -0.7747  3.6393 -1.6009
 7108SOL    HW232961   1.785   1.138   8.092  1.2586 -0.0222 -0.1500
 7109SOL     OW32962   3.208   2.568   2.986 -0.1422  0.1754  0.2292
 7109SOL    HW132963   3.123   2.571   2.941 -0.4083 -1.0515  0.6571
 7109SOL    HW232964   3.171   2.588   3.072  0.8539  2.0707  0.2017
 7110SOL     OW32965   0.503   3.527   0.327  0.1890 -0.9126 -0.8404
 7110SOL    HW132966   0.414   3.504   0.355  0.0024 -0.9109 -1.4460
 7110SOL    HW232967   0.536   3.548   0.414 -2.4119  3.5983 -0.9579
 7111SOL     OW32968   4.229   0.525   3.618 -0.2634 -0.1634 -0.4891
 7111SOL    HW132969   4.324   0.537   3.628 -0.5323  1.8404 -0.3600
 7111SOL    HW232970   4.233   0.439   3.576 -0.5527 -0.8836  0.9208
 7112SOL     OW32971   4.406   3.042   4.774 -0.4079 -0.0257  0.0103
 7112SOL    HW132972   4.493   3.041   4.735 -1.2487  0.7717 -1.9442
 7112SOL    HW232973   4.363   2.987   4.709  0.1698 -0.6418  0.1569
 7113SOL     OW32974   4.026   2.450   1.809 -0.2746  0.2070 -0.3494
 7113SOL    HW132975   4.010   2.491   1.894 -2.1501  0.0625 -0.6416
 7113SOL    HW232976   4.105   2.400   1.826  0.2832  1.2362  0.1133
 7114SOL     OW32977   1.203   3.285   4.138 -0.2925 -0.1090  0.0061
 7114SOL    HW132978   1.127   3.247   4.095  0.7311 -0.6247 -1.3346
 7114SOL    HW232979   1.183   3.254   4.226 -2.0316 -0.0281 -0.3745
 7115SOL     OW32980   0.794   0.045   7.229  0.4166  0.0644 -0.1042
 7115SOL    HW132981   0.715   0.000   7.259 -0.5869  1.7095 -0.2814
 7115SOL    HW232982   0.835   0.073   7.311  0.3278  3.1608 -1.1210
 7116SOL     OW32983   3.110   3.693  15.107  0.0013 -0.5471 -0.4888
 7116SOL    HW132984   3.040   3.707  15.171 -1.1399 -0.7435 -1.6917
 7116SOL    HW232985   3.066   3.722  15.027 -1.8194 -3.0877 -0.4359
 7117SOL     OW32986   2.605   0.003   2.696 -0.0107 -0.2495 -0.0082
 7117SOL    HW132987   2.567   4.664   2.734  0.7866  0.4572  2.3348
 7117SOL    HW232988   2.606   4.711   2.606  1.5120 -0.7123  0.1707
 7118SOL     OW32989   2.653   2.145  10.284  0.1434 -0.3935  0.8582
 7118SOL    HW132990   2.578   2.128  10.227 -0.2460 -0.0741  1.2746
 7118SOL    HW232991   2.706   2.066  10.271  1.6825  0.3983  2.3901
 7119SOL     OW32992   2.660   2.330   8.728  0.6057  0.5586  0.6295
 7119SOL    HW132993   2.662   2.391   8.802 -2.7369  0.9895  0.3812
 7119SOL    HW232994   2.569   2.300   8.725  1.4148 -1.6389 -1.2338
 7120SOL     OW32995   2.880   0.498   3.632 -0.0756  0.2628 -0.4031
 7120SOL    HW132996   2.915   0.504   3.722  0.8869 -0.6426 -0.7081
 7120SOL    HW232997   2.837   0.582   3.620 -1.8936 -0.4704  0.9861
 7121SOL     OW32998   3.266   2.267  14.778  0.1274 -0.3951 -0.4046
 7121SOL    HW132999   3.346   2.290  14.825 -0.3102  2.0992 -0.8799
 7121SOL    HW233000   3.313   2.254  14.695 -1.0496 -0.6792 -1.0159
 7122SOL     OW33001   0.427   1.157   4.348  0.4963  0.3613 -0.2933
 7122SOL    HW133002   0.484   1.233   4.362 -0.2608  0.9180 -0.2427
 7122SOL    HW233003   0.458   1.095   4.414  1.8252 -0.7832 -1.9876
 7123SOL     OW33004   1.152   4.069   1.703  0.1290 -0.2073 -0.0856
 7123SOL    HW133005   1.181   4.084   1.613 -2.9698 -1.8880 -1.3611
 7123SOL    HW233006   1.140   3.974   1.697  2.5852 -0.3665 -2.4484
 7124SOL     OW33007   4.086   1.798   7.332  0.0987  0.7088  0.0182
 7124SOL    HW133008   4.145   1.725   7.312  1.1151  0.7570  2.7949
 7124SOL    HW233009   4.077   1.790   7.427 -0.7217  1.0243 -0.0341
 7125SOL     OW33010   3.600   3.178  12.042 -0.2056 -0.4708  0.2619
 7125SOL    HW133011   3.595   3.172  11.947  0.0947 -0.4215  0.2433
 7125SOL    HW233012   3.582   3.090  12.077  0.1643 -0.9402 -0.7393
 7126SOL     OW33013   1.705   3.307   5.224  0.5865 -0.2362  0.1437
 7126SOL    HW133014   1.628   3.259   5.256  1.7236 -0.3790  2.7319
 7126SOL    HW233015   1.774   3.243   5.241 -0.5136 -1.1731  1.0820
 7127SOL     OW33016   2.231   0.386  11.472 -0.2198  0.5748 -0.2353
 7127SOL    HW133017   2.310   0.341  11.503 -0.0324  0.3286 -1.0699
 7127SOL    HW233018   2.247   0.403  11.379  0.8046 -0.2463 -0.2055
 7128SOL     OW33019   3.546   4.714   9.938 -0.0208 -0.3604  0.3983
 7128SOL    HW133020   3.616   0.036   9.958  0.8393 -1.4098  0.5961
 7128SOL    HW233021   3.499   4.717  10.022 -0.0755 -2.0604  0.4347
 7129SOL     OW33022   4.470   2.048   7.397 -0.5288 -0.5594  0.1134
 7129SOL    HW133023   4.506   2.033   7.484  1.9256  0.6396 -0.7217
 7129SOL    HW233024   4.540   2.013   7.342 -0.2404 -1.1580  0.8592
 7130SOL     OW33025   4.563   1.648   9.095  0.0027 -0.4051 -0.1291
 7130SOL    HW133026   4.613   1.609   9.023 -0.3617  2.1558 -1.7920
 7130SOL    HW233027   4.564   1.737   9.060 -0.4191 -0.3737 -0.0649
 7131SOL     OW33028   2.521   2.077   8.476  0.0216 -0.1359 -0.1108
 7131SOL    HW133029   2.483   2.159   8.444  0.4126 -0.2194 -0.7655
 7131SOL    HW233030   2.536   2.104   8.567  0.5349 -0.8184  0.0036
 7132SOL     OW33031   4.187   2.632   1.524 -0.0720 -0.0922 -0.3667
 7132SOL    HW133032   4.171   2.668   1.611 -0.6599 -0.1451 -0.4513
 7132SOL    HW233033   4.156   2.542   1.533 -0.2727  0.1241  1.1436
 7133SOL     OW33034   3.785   3.942   1.230  0.3245  0.0666  0.0936
 7133SOL    HW133035   3.864   3.926   1.281 -0.6139 -2.0960  0.8351
 7133SOL    HW233036   3.747   4.014   1.281 -0.2819 -0.4038  0.3037
 7134SOL     OW33037   2.211   2.677   7.538 -0.0976 -0.4899  0.0494
 7134SOL    HW133038   2.261   2.604   7.573  3.3310  1.3267 -1.1267
 7134SOL    HW233039   2.280   2.725   7.493 -0.5568 -2.2403 -2.5215
 7135SOL     OW33040   2.341   2.089   0.545 -0.1713  0.5781 -0.9391
 7135SOL    HW133041   2.345   1.996   0.565 -2.6976  0.7185  0.2672
 7135SOL    HW233042   2.405   2.120   0.609  0.0876 -2.6850  0.3585
 7136SOL     OW33043   2.574   4.707  10.765  0.5143  0.1107  0.5241
 7136SOL    HW133044   2.491   0.010  10.741  0.0234 -0.9698  0.3098
 7136SOL    HW233045   2.539   4.623  10.793 -0.3357 -0.1208 -1.2584
 7137SOL     OW33046   0.717   3.708  10.327 -0.0713  0.2637  0.1034
 7137SOL    HW133047   0.688   3.617  10.324  2.6514 -0.6114  1.1309
 7137SOL    HW233048   0.632   3.751  10.314 -0.6524 -1.5228 -1.9616
 7138SOL     OW33049   2.968   0.792   9.468  0.0937 -0.6516  0.2658
 7138SOL    HW133050   2.954   0.879   9.430 -2.1468 -1.3119 -0.4207
 7138SOL    HW233051   3.023   0.812   9.544  0.1626  1.1278 -0.2526
 7139SOL     OW33052   0.027   1.662  15.368  0.1273  0.0948 -0.3529
 7139SOL    HW133053   4.724   1.577  15.363 -2.1733  1.3312 -1.4155
 7139SOL    HW233054   4.716   1.717  15.427  1.5946  0.5929  0.4453
 7140SOL     OW33055   4.140   1.615   6.323 -0.1697  0.2967 -0.0236
 7140SOL    HW133056   4.091   1.614   6.406 -1.7880  1.1794 -0.9774
 7140SOL    HW233057   4.165   1.707   6.328 -1.6141  0.7691 -1.6818
 7141SOL     OW33058   4.175   1.735  10.022  0.0939 -0.3046 -0.9950
 7141SOL    HW133059   4.148   1.823   9.995  1.2466  0.1708 -0.5931
 7141SOL    HW233060   4.110   1.713  10.089 -0.3873  0.7914 -1.1098
 7142SOL     OW33061   2.935   4.508   8.723  0.1366 -0.0776  0.4913
 7142SOL    HW133062   2.898   4.434   8.773 -0.6900  1.3058  1.9210
 7142SOL    HW233063   3.010   4.476   8.673  0.8185  3.3245 -0.6320
 7143SOL     OW33064   4.143   2.840   2.212  0.0962 -0.4040 -0.6284
 7143SOL    HW133065   4.217   2.828   2.153  1.1017 -1.0456  0.7696
 7143SOL    HW233066   4.105   2.921   2.176  0.0968 -0.0347  0.2061
 7144SOL     OW33067   0.376   3.600   5.356  0.4787  0.3256 -0.7371
 7144SOL    HW133068   0.359   3.690   5.383  1.3283 -0.0488  1.0939
 7144SOL    HW233069   0.294   3.588   5.309  0.9968  0.4957 -1.6939
 7145SOL     OW33070   2.055   4.254   6.151  0.2072  0.1768 -0.1600
 7145SOL    HW133071   1.967   4.288   6.138  0.9849  1.1334 -2.8553
 7145SOL    HW233072   2.028   4.173   6.195  0.2389 -0.4619 -1.3316
 7146SOL     OW33073   2.023   4.202  13.642  0.2982  0.2481  0.0722
 7146SOL    HW133074   2.080   4.275  13.620  0.4604 -0.1269 -0.7810
 7146SOL    HW233075   2.083   4.128  13.644 -0.6437 -0.5394 -0.2381
 7147SOL     OW33076   4.384   1.099   5.555 -0.0131  0.2856 -0.1228
 7147SOL    HW133077   4.335   1.126   5.632 -0.6182  0.5240 -0.5937
 7147SOL    HW233078   4.454   1.045   5.593  1.6397  1.2078 -1.8483
 7148SOL     OW33079   0.008   0.836   4.192  0.2258  0.0972  0.2334
 7148SOL    HW133080   0.007   0.931   4.188  0.9205  0.1352  0.8558
 7148SOL    HW233081   0.094   0.817   4.230  0.0421  0.7021  0.9441
 7149SOL     OW33082   1.902   4.323   7.669 -0.4598  0.1624 -0.3834
 7149SOL    HW133083   1.964   4.351   7.601  0.8481 -2.8262 -0.4004
 7149SOL    HW233084   1.884   4.406   7.713  1.2615  0.1560  0.3278
 7150SOL     OW33085   2.151   2.658  14.929 -0.0012  0.2968  0.2891
 7150SOL    HW133086   2.062   2.634  14.955  0.5961 -1.5811  0.5533
 7150SOL    HW233087   2.210   2.619  14.993  1.1690 -1.1643 -1.6843
 7151SOL     OW33088   1.286   3.906   2.075  0.7313  0.3537 -0.2690
 7151SOL    HW133089   1.341   3.906   2.153 -2.0799 -0.1182  1.7453
 7151SOL    HW233090   1.227   3.832   2.093  1.1283 -0.0643 -0.6767
 7152SOL     OW33091   0.706   3.394   3.847  0.1084 -0.0107  0.1231
 7152SOL    HW133092   0.788   3.348   3.833 -1.5837 -2.9886  0.0122
 7152SOL    HW233093   0.705   3.454   3.772 -1.6061 -1.0107 -0.6530
 7153SOL     OW33094   0.245   1.205   7.735  0.0208  0.2422 -0.2600
 7153SOL    HW133095   0.278   1.149   7.806 -0.8540 -2.4943 -2.0403
 7153SOL    HW233096   0.326   1.211   7.684  0.1576 -0.4658 -0.1252
 7154SOL     OW33097   0.325   1.935  15.908 -0.2837 -0.0239  0.3179
 7154SOL    HW133098   0.265   1.936  15.834 -1.0524 -0.3679  0.9331
 7154SOL    HW233099   0.386   2.003  15.879 -1.0513  0.4707 -0.1310
 7155SOL     OW33100   2.467   2.200   3.720 -0.4516 -0.0780  0.3609
 7155SOL    HW133101   2.465   2.295   3.712  0.0071 -0.1179 -0.2013
 7155SOL    HW233102   2.467   2.164   3.632  1.4608 -1.1317  0.7871
 7156SOL     OW33103   3.453   1.064   7.565  0.2900 -0.1725 -0.0128
 7156SOL    HW133104   3.436   1.099   7.652  0.9542 -0.2056  0.1272
 7156SOL    HW233105   3.490   0.978   7.585 -1.2323 -0.4243  1.6496
 7157SOL     OW33106   4.264   3.169  11.388  0.7167  0.4473  0.8906
 7157SOL    HW133107   4.282   3.185  11.296 -0.5313 -1.4636  0.3196
 7157SOL    HW233108   4.230   3.256  11.409 -0.9616 -0.1331  0.5430
 7158SOL     OW33109   1.691   3.244   8.682 -0.3157 -0.4312 -0.2200
 7158SOL    HW133110   1.657   3.325   8.719 -0.2987 -1.2481  1.5926
 7158SOL    HW233111   1.628   3.174   8.701  2.6934 -2.5222  2.0645
 7159SOL     OW33112   4.268   1.076   8.800  0.1518 -0.5821  0.0542
 7159SOL    HW133113   4.304   0.996   8.763  0.2800 -0.9551  0.9705
 7159SOL    HW233114   4.251   1.115   8.715  0.6697 -0.2816  0.0887
 7160SOL     OW33115   0.004   4.611   4.851 -0.0112  0.6083 -0.1673
 7160SOL    HW133116   0.050   4.559   4.786  0.4725  0.2430  0.4600
 7160SOL    HW233117   0.062   4.625   4.926 -0.1715 -0.0112  0.0665
 7161SOL     OW33118   2.171   3.038   2.377 -0.2305 -0.6483  0.4441
 7161SOL    HW133119   2.232   2.990   2.321  0.0845  0.6970 -0.3595
 7161SOL    HW233120   2.237   3.099   2.412  1.0156 -1.8542  0.2202
 7162SOL     OW33121   2.000   3.498  12.399 -0.0227 -0.7458  0.0904
 7162SOL    HW133122   1.981   3.498  12.305  1.0554 -1.7572 -0.1192
 7162SOL    HW233123   2.018   3.592  12.407 -0.1983 -0.6324 -0.7747
 7163SOL     OW33124   4.072   2.682   6.190  0.2012  0.3775  0.8548
 7163SOL    HW133125   4.097   2.630   6.267  1.5921 -0.3660 -0.1036
 7163SOL    HW233126   4.134   2.641   6.130 -0.5949  1.1584 -0.5085
 7164SOL     OW33127   0.881   4.331   1.591  0.0302  0.4409 -0.5324
 7164SOL    HW133128   0.924   4.395   1.535 -1.3180  1.2536 -0.6317
 7164SOL    HW233129   0.823   4.392   1.637 -0.5353  0.1980 -0.9324
 7165SOL     OW33130   1.142   2.105   3.232  0.4052 -0.6472 -0.3715
 7165SOL    HW133131   1.155   2.059   3.149  0.5339 -2.7073  0.7985
 7165SOL    HW233132   1.077   2.046   3.268 -0.3975  0.9553  0.8038
 7166SOL     OW33133   0.830   1.046   7.542  0.0620  0.4716 -1.0612
 7166SOL    HW133134   0.858   1.014   7.627 -2.4494 -0.0387 -0.4047
 7166SOL    HW233135   0.796   1.134   7.558  1.6033  0.6676  1.1312
 7167SOL     OW33136   1.834   1.829   6.592  0.4768 -0.1304 -0.0900
 7167SOL    HW133137   1.834   1.897   6.659 -1.1854 -2.1286  1.9808
 7167SOL    HW233138   1.773   1.768   6.634 -1.5433  0.6894 -1.8564
 7168SOL     OW33139   2.580   0.516  17.711 -0.4424  0.2454 -0.2760
 7168SOL    HW133140   2.580   0.612  17.705  0.0165  0.3394  1.2129
 7168SOL    HW233141   2.508   0.500   0.015  1.7332 -1.8432  1.6973
 7169SOL     OW33142   4.278   1.126   2.901  0.5692 -0.0942 -0.1556
 7169SOL    HW133143   4.334   1.091   2.970 -1.2942  2.0993  2.5058
 7169SOL    HW233144   4.308   1.081   2.822 -2.3891  2.2939 -2.6434
 7170SOL     OW33145   2.907   2.640   5.297 -0.1460  0.4392  0.2843
 7170SOL    HW133146   2.885   2.580   5.225  2.5833  0.0551 -0.2185
 7170SOL    HW233147   3.001   2.629   5.309 -0.6916 -1.7290  2.4307
 7171SOL     OW33148   0.315   2.920   4.748  0.2465 -0.7042  0.2109
 7171SOL    HW133149   0.345   2.953   4.663  0.4466 -1.5190 -0.0321
 7171SOL    HW233150   0.386   2.863   4.776  1.3298  0.2969 -0.5185
 7172SOL     OW33151   1.755   3.260  11.233  0.1266 -0.1865 -0.4824
 7172SOL    HW133152   1.772   3.316  11.308  1.9850  0.1360 -1.1625
 7172SOL    HW233153   1.707   3.322  11.177  0.0441  1.2866  1.2347
 7173SOL     OW33154   0.782   4.040   2.284 -0.5634 -0.2996  0.1066
 7173SOL    HW133155   0.815   4.121   2.321 -0.9744 -0.8425  1.6696
 7173SOL    HW233156   0.853   4.012   2.227 -0.6816  0.1987 -0.2807
 7174SOL     OW33157   4.219   3.999   4.538  0.1304 -0.2031  0.0224
 7174SOL    HW133158   4.231   4.087   4.502  2.8411  0.3570  2.2981
 7174SOL    HW233159   4.301   3.968   4.499  2.0818  1.7856  2.5273
 7175SOL     OW33160   0.433   1.214   9.416  0.0002  0.4749 -0.7054
 7175SOL    HW133161   0.357   1.272   9.421  0.7736  1.4094  0.1758
 7175SOL    HW233162   0.413   1.148   9.483 -2.9841  2.0392 -0.0718
 7176SOL     OW33163   3.158   3.772   5.283 -0.1258 -0.2365  0.1579
 7176SOL    HW133164   3.245   3.733   5.274 -0.1326  0.0070 -0.9836
 7176SOL    HW233165   3.155   3.783   5.187 -0.6249  0.2764  0.2279
 7177SOL     OW33166   4.081   0.157   9.509 -0.2508  0.0551  0.2183
 7177SOL    HW133167   4.111   0.181   9.598  0.5168  0.1655 -0.0659
 7177SOL    HW233168   4.089   0.062   9.509  1.5529  0.1961  0.7286
 7178SOL     OW33169   0.105   1.506   2.628 -0.3139  0.0017  0.5279
 7178SOL    HW133170   0.064   1.442   2.686 -0.2272  0.4463  1.0713
 7178SOL    HW233171   0.159   1.446   2.575  0.4740  2.5767 -1.6240
 7179SOL     OW33172   2.801   2.048  14.638 -0.3155  0.5324  0.6898
 7179SOL    HW133173   2.782   2.119  14.578  0.3757 -0.5132 -0.7498
 7179SOL    HW233174   2.709   2.028  14.657  0.2138 -1.7342  0.8940
 7180SOL     OW33175   0.339   0.349   3.509  0.5569  0.2745  0.3553
 7180SOL    HW133176   0.373   0.391   3.430 -1.4377  1.6279  0.2468
 7180SOL    HW233177   0.420   0.319   3.550  0.5838  0.3259  0.3396
 7181SOL     OW33178   4.565   4.054   9.117 -0.7722  0.0802  0.3614
 7181SOL    HW133179   4.654   4.023   9.133  0.1106  1.7722 -1.3696
 7181SOL    HW233180   4.584   4.109   9.042  2.3461  1.0369  1.8549
 7182SOL     OW33181   4.074   0.073   0.869 -0.2837 -0.0538 -0.3844
 7182SOL    HW133182   4.101   0.030   0.950  1.0444  0.4958 -0.5249
 7182SOL    HW233183   4.112   0.023   0.797 -0.3264 -0.1176 -0.3625
 7183SOL     OW33184   2.184   4.263  15.299 -0.5008 -0.1388 -0.0921
 7183SOL    HW133185   2.231   4.305  15.370 -0.0722  0.7388 -0.8949
 7183SOL    HW233186   2.232   4.300  15.225  0.6732 -0.7320  0.3692
 7184SOL     OW33187   1.876   0.841  14.380  0.3471  0.2132  0.0621
 7184SOL    HW133188   1.871   0.852  14.475 -2.2274  4.2650 -0.5266
 7184SOL    HW233189   1.970   0.832  14.369  0.4795  0.4725  0.9370
 7185SOL     OW33190   3.738   4.737   9.410 -0.0131 -0.2309 -0.1548
 7185SOL    HW133191   3.769   0.067   9.467 -0.5539 -1.1568  1.2940
 7185SOL    HW233192   3.651   4.715   9.444  0.0220  1.3011  0.8985
 7186SOL     OW33193   0.788   3.207   7.258  0.1875 -0.4932  0.3402
 7186SOL    HW133194   0.807   3.169   7.344 -1.6174  1.4787  1.6094
 7186SOL    HW233195   0.857   3.274   7.254  0.9643 -1.3834 -1.3806
 7187SOL     OW33196   2.060   0.934  13.020  0.7389 -0.1945  0.0280
 7187SOL    HW133197   1.973   0.909  12.990  0.3621  1.4941 -0.3317
 7187SOL    HW233198   2.045   1.029  13.025 -0.6720 -0.2925 -2.1663
 7188SOL     OW33199   1.171   1.341   6.778 -0.0006  0.1444  0.2309
 7188SOL    HW133200   1.081   1.360   6.803  0.1852  1.3053  0.0357
 7188SOL    HW233201   1.152   1.311   6.689  0.1552 -3.5055  1.4453
 7189SOL     OW33202   4.565   2.053   9.179  0.2474  0.2810  0.6364
 7189SOL    HW133203   4.587   2.014   9.094  4.0155 -0.0517  1.7871
 7189SOL    HW233204   4.613   2.136   9.183 -0.3898  0.8000 -2.2817
 7190SOL     OW33205   2.932   0.144   7.088  0.4125 -0.7353 -0.1573
 7190SOL    HW133206   2.847   0.120   7.124  1.8104  0.1384  3.7350
 7190SOL    HW233207   2.972   0.176   7.169  2.1404  2.0221 -2.1410
 7191SOL     OW33208   2.297   4.234   6.684  0.0774 -0.3878  0.6855
 7191SOL    HW133209   2.279   4.243   6.778 -0.6952 -1.7287  0.6587
 7191SOL    HW233210   2.284   4.322   6.649 -0.1485 -0.9673 -0.6692
 7192SOL     OW33211   0.979   2.531   0.977 -0.7348  0.3204 -0.1911
 7192SOL    HW133212   1.066   2.563   1.002 -1.0561  0.7639  0.3485
 7192SOL    HW233213   0.927   2.543   1.056 -1.0580  0.4238 -0.4157
 7193SOL     OW33214   3.185   3.956  15.203 -0.2662  0.5556  0.2758
 7193SOL    HW133215   3.147   4.000  15.127  0.9272  1.1785  0.0485
 7193SOL    HW233216   3.194   3.863  15.182 -1.6465  0.4838 -0.0401
 7194SOL     OW33217   0.267   0.126   5.305 -0.1857 -0.2485  0.1525
 7194SOL    HW133218   0.244   0.061   5.371  0.1622 -1.8952 -1.3618
 7194SOL    HW233219   0.185   0.126   5.256 -1.0401  1.8225  1.5748
 7195SOL     OW33220   3.581   3.162   3.188 -0.6594 -0.1390  0.1246
 7195SOL    HW133221   3.525   3.193   3.116  0.6989  0.3826 -0.6988
 7195SOL    HW233222   3.520   3.099   3.226  0.8869 -1.4475  0.3798
 7196SOL     OW33223   4.381   0.321   5.217 -0.0002 -0.6582 -0.0901
 7196SOL    HW133224   4.471   0.340   5.240 -0.1033  0.2679 -0.4449
 7196SOL    HW233225   4.374   0.236   5.260  2.2033 -0.5810  0.3719
 7197SOL     OW33226   1.071   2.005  12.333 -0.5205  0.5489 -0.0183
 7197SOL    HW133227   1.003   2.010  12.266 -0.4586  1.4066 -0.0167
 7197SOL    HW233228   1.101   1.916  12.316 -1.0592 -0.1150  2.5871
 7198SOL     OW33229   3.886   1.609   6.196  0.4666 -0.4458 -0.1510
 7198SOL    HW133230   3.868   1.683   6.253  1.6711 -0.5914  0.4077
 7198SOL    HW233231   3.963   1.562   6.229  1.4592  0.9842 -0.4372
 7199SOL     OW33232   1.730   2.725   1.952  0.4000 -0.3596 -0.4178
 7199SOL    HW133233   1.780   2.797   1.989 -0.6936  0.1262  0.1040
 7199SOL    HW233234   1.647   2.730   1.999  0.0187 -2.7285 -0.8359
 7200SOL     OW33235   0.065   3.098  16.914  0.1319 -0.1119  0.0384
 7200SOL    HW133236   0.145   3.047  16.914  0.8994  1.0974  0.4376
 7200SOL    HW233237   0.042   3.100  16.821  0.7762 -0.6538 -0.1317
 7201SOL     OW33238   3.287   1.049  12.337 -0.2358  0.3002 -0.3715
 7201SOL    HW133239   3.288   1.145  12.346  1.6646  0.2199  0.2608
 7201SOL    HW233240   3.197   1.020  12.347 -0.6604  1.8364  0.3025
 7202SOL     OW33241   4.640   3.400  12.711  0.6336  0.0205  0.1065
 7202SOL    HW133242   4.699   3.471  12.737 -0.2861  0.7708  0.1484
 7202SOL    HW233243   4.554   3.441  12.719 -0.0074 -1.4650  0.7321
 7203SOL     OW33244   1.099   3.364  16.744  0.2601  0.7735 -1.2378
 7203SOL    HW133245   1.063   3.436  16.794  0.8126 -0.4767  0.9599
 7203SOL    HW233246   1.023   3.331  16.696  0.1593  1.1808 -1.3536
 7204SOL     OW33247   2.482   2.162  14.850  0.1707  0.0817  0.5877
 7204SOL    HW133248   2.489   2.112  14.769 -2.4504  0.2479  0.2714
 7204SOL    HW233249   2.526   2.243  14.823  3.5192 -1.9278 -0.0624
 7205SOL     OW33250   1.712   1.737   0.033  0.1434 -0.0203 -0.0793
 7205SOL    HW133251   1.788   1.742  17.733 -0.3799  0.3107 -0.7519
 7205SOL    HW233252   1.643   1.716  17.726 -2.1629 -1.5963  2.8821
 7206SOL     OW33253   0.877   0.197   4.201 -0.1960 -0.2055 -0.0291
 7206SOL    HW133254   0.908   0.266   4.259  0.3429  1.5694 -2.4119
 7206SOL    HW233255   0.934   0.206   4.124  1.2557  1.1143  1.2051
 7207SOL     OW33256   4.346   4.231  10.737 -0.5823  0.6706 -0.3593
 7207SOL    HW133257   4.307   4.247  10.823 -0.3207  1.7633 -0.4461
 7207SOL    HW233258   4.346   4.136  10.738  1.5390  0.6959  0.8583
 7208SOL     OW33259   4.221   1.293   7.103  0.1708 -0.3157  0.5672
 7208SOL    HW133260   4.299   1.261   7.059 -0.1326  0.2252 -0.3560
 7208SOL    HW233261   4.178   1.358   7.048 -0.4117 -0.0099  1.3804
 7209SOL     OW33262   3.191   1.840   9.534 -0.4810  0.2960  0.1619
 7209SOL    HW133263   3.140   1.920   9.521 -0.2524  0.5788  0.9486
 7209SOL    HW233264   3.148   1.782   9.472  3.4950  0.5157 -2.8121
 7210SOL     OW33265   4.167   3.036   1.460 -0.4338 -0.1689  0.4560
 7210SOL    HW133266   4.260   3.010   1.458 -0.4071  0.0117 -0.7744
 7210SOL    HW233267   4.170   3.099   1.388  2.3338  0.1960  0.8627
 7211SOL     OW33268   4.714   3.658  14.450 -0.2617  0.5018 -0.6329
 7211SOL    HW133269   0.025   3.617  14.380 -2.6478 -0.3258 -1.8842
 7211SOL    HW233270   4.639   3.702  14.409 -1.1564  0.4501  0.9650
 7212SOL     OW33271   4.437   3.921   8.704  0.6766 -0.3103 -0.0908
 7212SOL    HW133272   4.514   3.934   8.760  1.0636 -1.7835 -0.2885
 7212SOL    HW233273   4.396   4.007   8.717  1.1206  0.0367 -0.9917
 7213SOL     OW33274   0.445   0.588   5.529 -0.5130  0.1426  0.6701
 7213SOL    HW133275   0.448   0.648   5.603 -1.2692  1.0492 -0.0289
 7213SOL    HW233276   0.393   0.638   5.466  3.4391  2.8960 -0.4016
 7214SOL     OW33277   4.035   3.281   4.537  0.0793  0.0576 -0.2128
 7214SOL    HW133278   4.097   3.332   4.485 -2.3310  2.7825 -0.4911
 7214SOL    HW233279   4.047   3.320   4.624  0.5417  1.8715 -1.0811
 7215SOL     OW33280   3.216   1.670   5.803 -0.5788 -0.0368  0.1981
 7215SOL    HW133281   3.193   1.638   5.891 -0.7697 -1.1851 -0.2710
 7215SOL    HW233282   3.144   1.731   5.787  0.2537  0.5117 -1.4433
 7216SOL     OW33283   2.947   3.884   4.407  0.1885 -0.8495  0.3617
 7216SOL    HW133284   2.879   3.912   4.347  0.4798 -0.5078  0.1938
 7216SOL    HW233285   3.004   3.956   4.381 -0.9205 -0.5817 -1.3336
 7217SOL     OW33286   3.263   2.613   7.756 -0.5738  0.5449  0.0297
 7217SOL    HW133287   3.176   2.578   7.774  0.0149 -1.2259 -0.5534
 7217SOL    HW233288   3.317   2.536   7.775  1.4529  1.4896 -1.9191
 7218SOL     OW33289   3.213   2.038   5.015 -0.0228 -1.0093 -0.0193
 7218SOL    HW133290   3.258   2.106   4.966 -0.2297  0.7768  2.2839
 7218SOL    HW233291   3.275   1.965   5.010  0.3995 -0.4341 -2.9855
 7219SOL     OW33292   1.858   1.878   1.965 -0.3331  0.7713 -0.0074
 7219SOL    HW133293   1.794   1.820   1.923 -0.7250 -0.0947  1.7693
 7219SOL    HW233294   1.937   1.848   1.921  1.7536  1.6762  3.0870
 7220SOL     OW33295   0.122   0.495   7.855 -0.4971 -0.6464  0.0340
 7220SOL    HW133296   0.189   0.427   7.864  1.2272  1.0101 -0.3571
 7220SOL    HW233297   0.160   0.553   7.921  1.8244 -1.0278 -0.9674
 7221SOL     OW33298   0.465   0.119   8.608 -0.1242 -0.3374  0.2574
 7221SOL    HW133299   0.558   0.116   8.627  0.2858 -0.1441 -1.6630
 7221SOL    HW233300   0.454   0.033   8.568 -2.3854 -0.0022  0.1444
 7222SOL     OW33301   2.392   3.964  13.121  0.0683 -0.1775  0.1050
 7222SOL    HW133302   2.444   4.020  13.179 -1.2086  1.6290 -0.4785
 7222SOL    HW233303   2.352   3.893  13.170  0.2928 -1.3085 -1.3498
 7223SOL     OW33304   1.242   1.915   5.126  0.2648  0.3858 -0.5324
 7223SOL    HW133305   1.173   1.852   5.147 -0.5842  0.2811 -3.5844
 7223SOL    HW233306   1.314   1.853   5.119 -2.0051 -2.0277 -2.4228
 7224SOL     OW33307   2.719   2.853   4.505 -0.0306  0.0900  0.0811
 7224SOL    HW133308   2.688   2.901   4.428 -0.0781 -3.2634 -1.9678
 7224SOL    HW233309   2.724   2.916   4.577  1.3008  0.3012 -0.1933
 7225SOL     OW33310   1.263   3.212   5.851  0.1752 -0.7376  0.6112
 7225SOL    HW133311   1.344   3.196   5.803  1.2078 -0.0011  2.0977
 7225SOL    HW233312   1.301   3.232   5.936  3.1921  2.5863 -1.5083
 7226SOL     OW33313   1.108   3.511  10.563  0.0889  0.1424  0.0326
 7226SOL    HW133314   1.032   3.568  10.550  0.2678  0.9448  2.6613
 7226SOL    HW233315   1.152   3.558  10.634 -0.5463  1.4696 -0.4461
 7227SOL     OW33316   0.034   3.629   8.531  0.2330  0.1200 -0.0130
 7227SOL    HW133317   0.116   3.666   8.501  1.2955 -1.4571  0.9475
 7227SOL    HW233318   0.059   3.557   8.588  0.5288 -0.4105 -0.8219
 7228SOL     OW33319   3.815   2.238   8.362 -0.6150  0.1429  0.1568
 7228SOL    HW133320   3.870   2.284   8.426 -0.7563  2.2038 -1.1930
 7228SOL    HW233321   3.744   2.300   8.349 -1.8073 -1.2406  0.0267
 7229SOL     OW33322   0.815   3.246   3.173 -0.0126  0.2186  0.0032
 7229SOL    HW133323   0.906   3.229   3.147  0.2051 -0.3171  1.1054
 7229SOL    HW233324   0.776   3.274   3.090  2.8117  0.0097 -1.4036
 7230SOL     OW33325   0.976   1.305   3.688 -1.1603  0.1965  0.3590
 7230SOL    HW133326   0.963   1.394   3.654  0.4073  0.3977  0.2925
 7230SOL    HW233327   0.904   1.260   3.644 -0.7590 -0.1764  0.0855
 7231SOL     OW33328   3.566   0.158   0.344  0.5849 -0.1605  0.3876
 7231SOL    HW133329   3.608   0.189   0.424  1.5278  1.6810 -0.8261
 7231SOL    HW233330   3.527   0.236   0.305  0.9448 -0.6328 -0.9257
 7232SOL     OW33331   1.987   0.194   9.902  0.6027  0.7085 -0.1201
 7232SOL    HW133332   1.898   0.180   9.871  0.4488 -0.1721  0.7179
 7232SOL    HW233333   1.996   0.148   9.985  2.4720  1.3976  0.0690
 7233SOL     OW33334   1.491   2.209  13.929 -0.5144  0.3961 -0.9144
 7233SOL    HW133335   1.486   2.129  13.876  2.9640  0.3177 -1.1101
 7233SOL    HW233336   1.586   2.218  13.927 -0.6102  2.0010  2.4112
 7234SOL     OW33337   1.154   0.588   7.525  0.8456 -0.6717 -0.3735
 7234SOL    HW133338   1.189   0.526   7.589 -1.1792 -1.4051  0.0241
 7234SOL    HW233339   1.110   0.639   7.593  1.0697 -0.5289 -0.3349
 7235SOL     OW33340   3.530   3.968  13.067  0.1088  0.3064 -0.5152
 7235SOL    HW133341   3.545   4.002  12.979  0.6762  0.9412 -0.1661
 7235SOL    HW233342   3.482   4.035  13.116  1.3632 -0.4386  1.7592
 7236SOL     OW33343   2.148   4.556   7.840 -0.0125 -0.0131 -0.5730
 7236SOL    HW133344   2.231   4.599   7.862 -0.5500  1.6638 -1.8082
 7236SOL    HW233345   2.154   4.474   7.890  0.1732  0.1577 -0.3151
 7237SOL     OW33346   0.668   4.730   2.337 -0.2196  0.2659 -0.6629
 7237SOL    HW133347   0.642   4.645   2.374  0.8260  0.0116 -0.5138
 7237SOL    HW233348   0.704   4.694   2.256 -0.5960 -2.0660  0.1961
 7238SOL     OW33349   1.195   4.602   8.079  0.5116  0.6425  0.5541
 7238SOL    HW133350   1.219   4.593   7.987 -0.5357 -0.4622  0.3751
 7238SOL    HW233351   1.279   4.586   8.121  0.9193 -0.6033 -0.7251
 7239SOL     OW33352   4.336   2.819   6.438  0.2327  0.2244 -0.2277
 7239SOL    HW133353   4.319   2.746   6.497 -0.0133 -0.3880 -1.0479
 7239SOL    HW233354   4.380   2.867   6.508  0.8274 -0.5794 -0.0624
 7240SOL     OW33355   3.662   2.078  16.314  0.3681 -0.4897 -0.8292
 7240SOL    HW133356   3.651   2.048  16.405 -3.0562  0.8685 -0.8012
 7240SOL    HW233357   3.679   2.171  16.325  0.7652 -0.8604  1.8036
 7241SOL     OW33358   4.438   2.251   7.818 -0.2741 -0.3892 -0.3959
 7241SOL    HW133359   4.399   2.217   7.899  0.3913  2.7631  1.2514
 7241SOL    HW233360   4.413   2.343   7.824  2.7631  0.3893  0.2800
 7242SOL     OW33361   1.777   3.727   2.329  0.2236 -0.6208 -0.5729
 7242SOL    HW133362   1.691   3.695   2.303 -1.0679  1.3583  1.2652
 7242SOL    HW233363   1.805   3.764   2.245  0.5066  0.4174 -0.0279
 7243SOL     OW33364   0.783   2.798   4.486 -0.1269  0.3273  0.2445
 7243SOL    HW133365   0.772   2.703   4.490  1.0117  0.1042 -2.4583
 7243SOL    HW233366   0.693   2.828   4.468 -0.0938  0.4065  0.2128
 7244SOL     OW33367   4.521   1.302  16.995  0.1816  0.4680  0.1584
 7244SOL    HW133368   4.472   1.225  17.023 -0.3320  1.3869  1.7650
 7244SOL    HW233369   4.575   1.272  16.921 -1.6859 -4.2889  0.7443
 7245SOL     OW33370   4.309   4.729   0.313  0.2100 -0.1428 -0.6449
 7245SOL    HW133371   4.234   4.697   0.263 -1.1897  0.1218  1.2831
 7245SOL    HW233372   4.353   4.645   0.328  1.7775  0.8194  0.2026
 7246SOL     OW33373   3.837   2.695   5.330  0.4080  0.4214  0.0764
 7246SOL    HW133374   3.795   2.640   5.265  1.1400 -0.3622  0.2616
 7246SOL    HW233375   3.819   2.645   5.409  0.9956 -1.0854 -0.7560
 7247SOL     OW33376   0.296   3.678   8.557 -0.0450  0.3381  0.1751
 7247SOL    HW133377   0.334   3.677   8.644  0.6724 -0.2861 -0.1477
 7247SOL    HW233378   0.344   3.608   8.513 -0.8345 -0.3265  0.3784
 7248SOL     OW33379   2.783   1.253   4.349 -0.1027  0.6778  0.4132
 7248SOL    HW133380   2.791   1.344   4.378  0.4285  0.9132 -0.4656
 7248SOL    HW233381   2.742   1.216   4.427  2.4040  0.7616  1.7788
 7249SOL     OW33382   2.956   4.426   9.235  0.0002  0.3052 -0.1108
 7249SOL    HW133383   3.037   4.411   9.186  0.5318 -0.9804  1.1452
 7249SOL    HW233384   2.948   4.521   9.244 -1.4443  0.3210 -1.6951
 7250SOL     OW33385   0.371   3.229   2.260  0.2188 -0.1854  0.1361
 7250SOL    HW133386   0.289   3.272   2.284 -1.0630 -1.0247 -2.8010
 7250SOL    HW233387   0.379   3.229   2.165  1.7167 -0.0702  0.2632
 7251SOL     OW33388   1.177   3.263   4.626  0.3337 -0.5987 -0.6038
 7251SOL    HW133389   1.095   3.246   4.672 -0.1121  1.4313 -0.6929
 7251SOL    HW233390   1.157   3.252   4.533  0.5738  1.3156 -0.8739
 7252SOL     OW33391   3.515   2.701   5.103  0.2416  0.7010 -0.2434
 7252SOL    HW133392   3.548   2.772   5.049 -0.6432  0.1755 -1.4695
 7252SOL    HW233393   3.600   2.665   5.128  0.3546  1.0205 -0.1759
 7253SOL     OW33394   0.993   0.355   9.498  0.8945 -0.1510 -0.4402
 7253SOL    HW133395   1.062   0.308   9.545 -1.1600 -0.6949  2.0324
 7253SOL    HW233396   0.933   0.389   9.565 -0.7919  1.1728 -2.6398
 7254SOL     OW33397   4.654   0.728   9.571  0.1656 -0.1596  0.0549
 7254SOL    HW133398   4.662   0.636   9.546 -0.6493 -0.6656  1.6810
 7254SOL    HW233399   0.004   0.758   9.555 -0.8730  1.5274 -2.5165
 7255SOL     OW33400   0.275   1.628   8.457 -0.6362  0.1575  0.2576
 7255SOL    HW133401   0.358   1.650   8.415 -0.6520 -0.3249 -0.0255
 7255SOL    HW233402   0.275   1.533   8.440  0.1992  0.3240 -0.6713
 7256SOL     OW33403   0.081   0.103   9.032 -0.2011  0.5337  0.0552
 7256SOL    HW133404   0.159   0.122   8.980 -0.6837  0.7064 -0.6003
 7256SOL    HW233405   0.089   0.178   9.092  0.9151  0.6445 -0.2340
 7257SOL     OW33406   0.933   1.993   4.600  0.5735  0.0681  0.1039
 7257SOL    HW133407   0.956   1.906   4.568  1.8437  0.0941  0.9358
 7257SOL    HW233408   0.972   2.060   4.545  0.8689  0.1894  0.4627
 7258SOL     OW33409   3.828   1.012   0.510  0.4179  0.4418  0.4076
 7258SOL    HW133410   3.913   1.056   0.512 -0.2491  1.7889 -0.7858
 7258SOL    HW233411   3.837   0.954   0.586  2.4301  0.3499  0.0947
 7259SOL     OW33412   2.831   3.179   6.036  0.7948  0.2919  0.2881
 7259SOL    HW133413   2.741   3.184   6.067  0.6051  0.9235 -0.3597
 7259SOL    HW233414   2.867   3.105   6.084  2.6000 -0.4853 -2.2636
 7260SOL     OW33415   1.512   1.865   9.158  0.2175  0.0211  0.1143
 7260SOL    HW133416   1.449   1.866   9.085 -0.1600  0.5726  0.4392
 7260SOL    HW233417   1.542   1.775   9.169 -0.8595 -0.3106  0.3777
 7261SOL     OW33418   3.438   2.324   8.635 -0.3624 -0.4697 -0.0037
 7261SOL    HW133419   3.349   2.324   8.670  0.0258 -2.2070  0.9718
 7261SOL    HW233420   3.474   2.248   8.681  2.0178  0.9641  0.4689
 7262SOL     OW33421   0.000   0.050   9.347 -0.2780 -0.4488  0.8168
 7262SOL    HW133422   4.651   0.040   9.380 -0.6518  1.0282  0.2451
 7262SOL    HW233423   4.727   0.028   9.254  1.8310 -0.9474  0.6208
 7263SOL     OW33424   0.016   4.344   4.349 -1.0952 -0.9185  0.1761
 7263SOL    HW133425   0.042   4.298   4.429  0.5715 -1.4394 -0.6745
 7263SOL    HW233426   4.663   4.332   4.329 -0.9907 -1.7744  0.2225
 7264SOL     OW33427   4.699   1.649   5.098 -0.0621 -0.3451  0.0642
 7264SOL    HW133428   4.632   1.622   5.160 -1.1451  2.4078  0.1043
 7264SOL    HW233429   4.643   1.696   5.035 -0.0535 -0.9996 -0.4322
 7265SOL     OW33430   2.920   3.995   3.121  0.1720 -0.4226 -0.1073
 7265SOL    HW133431   2.971   3.915   3.110 -1.2501 -1.5804  1.7301
 7265SOL    HW233432   2.827   3.972   3.124  0.0387  0.2819  1.0014
 7266SOL     OW33433   3.896   0.174  14.603 -0.2010  0.5978  0.0955
 7266SOL    HW133434   3.978   0.221  14.621 -0.6526  0.9820  1.1445
 7266SOL    HW233435   3.880   0.191  14.510 -1.0711  2.7052  0.6331
 7267SOL     OW33436   2.614   4.647  16.281 -0.2944 -0.0301 -0.0539
 7267SOL    HW133437   2.645   4.737  16.285  1.4544 -0.7687  2.9399
 7267SOL    HW233438   2.690   4.608  16.238 -2.3548 -0.6645 -3.1108
 7268SOL     OW33439   2.046   1.085   5.336  0.4704 -0.7030  0.1971
 7268SOL    HW133440   2.127   1.076   5.386  0.4899 -1.0718  0.0980
 7268SOL    HW233441   1.991   1.141   5.391  1.2926  1.4230 -1.1675
 7269SOL     OW33442   2.162   3.137   5.082  0.6256 -0.1505  0.3752
 7269SOL    HW133443   2.194   3.046   5.079 -0.2779 -0.4578 -0.0432
 7269SOL    HW233444   2.143   3.162   4.992  2.5609  0.5732  0.1758
 7270SOL     OW33445   2.020   3.030   8.287  0.9238  0.3811 -0.4146
 7270SOL    HW133446   2.001   3.106   8.342 -1.7279  0.3636 -1.3094
 7270SOL    HW233447   2.108   3.000   8.312  1.2001  1.6112  0.0628
 7271SOL     OW33448   3.885   4.590   3.634  0.2645  0.3196  0.2520
 7271SOL    HW133449   3.939   4.648   3.580  0.3787  0.2925  0.3368
 7271SOL    HW233450   3.812   4.648   3.655 -0.1826 -0.0664 -0.2492
 7272SOL     OW33451   1.664   3.420   9.872  0.1816 -0.3040  0.2107
 7272SOL    HW133452   1.661   3.434   9.966  2.5717 -3.2114  0.7268
 7272SOL    HW233453   1.688   3.327   9.873  0.5589 -0.2074  0.1020
 7273SOL     OW33454   3.220   1.047   4.148  0.3236  0.1152 -0.6544
 7273SOL    HW133455   3.179   1.119   4.099  1.4520 -0.3401 -2.2802
 7273SOL    HW233456   3.150   1.029   4.210  0.5447 -1.6766 -0.9098
 7274SOL     OW33457   4.104   1.992  16.212  0.8273 -0.3222  0.9049
 7274SOL    HW133458   4.121   2.070  16.265  1.6937  0.9909 -1.3475
 7274SOL    HW233459   4.047   1.934  16.263 -1.2986  0.6079 -0.4391
 7275SOL     OW33460   3.701   0.793   5.868 -0.2507 -0.1359 -0.4270
 7275SOL    HW133461   3.694   0.713   5.919 -0.5662  0.9190  1.1973
 7275SOL    HW233462   3.631   0.770   5.808 -1.2871 -0.4596  0.8945
 7276SOL     OW33463   0.498   1.469   8.799 -0.0367  0.5606  0.2818
 7276SOL    HW133464   0.558   1.538   8.773 -0.7656  0.1261 -2.5671
 7276SOL    HW233465   0.448   1.443   8.721 -1.0173  0.3788  0.9624
 7277SOL     OW33466   4.205   0.124   9.741  0.8535  0.3713 -0.3046
 7277SOL    HW133467   4.252   0.042   9.750  1.9438  1.2141  1.7178
 7277SOL    HW233468   4.213   0.152   9.832 -0.2504  0.6621 -0.2964
 7278SOL     OW33469   4.025   0.134   0.075  0.4709  0.1303  0.0158
 7278SOL    HW133470   4.083   0.066   0.110 -0.4550 -1.2162 -1.0745
 7278SOL    HW233471   4.030   0.188   0.154 -0.3398 -1.4315  1.1428
 7279SOL     OW33472   4.565   0.710   3.798  0.4197 -0.4342  0.3215
 7279SOL    HW133473   4.534   0.653   3.728 -0.6521  0.8943 -0.2896
 7279SOL    HW233474   4.590   0.644   3.863  2.4966 -0.3724 -0.4007
 7280SOL     OW33475   1.073   4.438   7.643 -0.7350  0.4741  0.1705
 7280SOL    HW133476   1.021   4.451   7.563  0.5405  2.5079 -0.3344
 7280SOL    HW233477   1.133   4.369   7.614  0.3535  1.4735  0.0271
 7281SOL     OW33478   1.911   2.775  13.993 -0.0883  0.2665 -0.2981
 7281SOL    HW133479   1.871   2.693  13.964 -0.1080  1.1456 -2.7850
 7281SOL    HW233480   1.955   2.740  14.070  1.3234 -0.1575 -1.2798
 7282SOL     OW33481   4.283   1.858   9.105 -0.2963  0.1325  0.3734
 7282SOL    HW133482   4.325   1.903   9.031  2.4935  0.3812  2.1336
 7282SOL    HW233483   4.279   1.926   9.172  0.6081 -0.6316  1.1882
 7283SOL     OW33484   4.586   4.145   3.474 -0.0533  0.1582  0.1389
 7283SOL    HW133485   4.671   4.137   3.518  0.4127 -0.6776 -0.9522
 7283SOL    HW233486   4.524   4.098   3.531  1.0585 -0.6009  0.7210
 7284SOL     OW33487   2.549   0.892   1.768 -0.3276  0.6391 -0.6427
 7284SOL    HW133488   2.561   0.873   1.860 -1.0021 -3.1449 -1.3686
 7284SOL    HW233489   2.569   0.809   1.725 -1.1484 -0.2520  0.7436
 7285SOL     OW33490   4.438   3.981   2.844 -0.2754  0.6267 -0.4772
 7285SOL    HW133491   4.383   4.060   2.846  0.3762  1.0995 -1.6769
 7285SOL    HW233492   4.522   4.014   2.875 -0.3769 -0.5241  1.0320
 7286SOL     OW33493   0.448   3.912   8.763 -0.2798  1.2392 -0.5218
 7286SOL    HW133494   0.503   3.945   8.692 -1.6412 -0.2904 -2.3104
 7286SOL    HW233495   0.494   3.832   8.787 -1.0487  1.5973  2.1586
 7287SOL     OW33496   0.625   1.367   1.574  0.1350 -0.1362  0.8556
 7287SOL    HW133497   0.678   1.315   1.513  1.0859  1.3972  0.3549
 7287SOL    HW233498   0.690   1.380   1.644  0.8952 -3.0418  0.6932
 7288SOL     OW33499   0.199   1.244   4.247  0.8595  0.3029  0.0762
 7288SOL    HW133500   0.268   1.210   4.303  1.9388  0.5875 -1.0919
 7288SOL    HW233501   0.217   1.200   4.164  0.9802 -0.0423  0.2829
 7289SOL     OW33502   1.150   4.372   6.134 -0.2042  0.2357 -0.3539
 7289SOL    HW133503   1.131   4.300   6.074  1.8261  0.2796 -1.0349
 7289SOL    HW233504   1.213   4.416   6.079  0.6402 -0.0221  0.3983
 7290SOL     OW33505   0.483   3.589   2.752 -0.2304 -0.1058  0.0852
 7290SOL    HW133506   0.440   3.581   2.667  2.0934  1.7699 -1.2459
 7290SOL    HW233507   0.410   3.586   2.814 -0.2046 -2.3190  0.0155
 7291SOL     OW33508   4.425   4.483   0.361 -0.3450  0.1917 -0.2840
 7291SOL    HW133509   4.362   4.412   0.375 -0.2132 -0.3718 -2.6594
 7291SOL    HW233510   4.491   4.462   0.427 -0.0455  1.1768 -0.2742
 7292SOL     OW33511   2.910   3.841   9.073 -0.1090 -0.4520 -0.4508
 7292SOL    HW133512   2.822   3.864   9.042 -0.2537 -0.2211  0.1309
 7292SOL    HW233513   2.888   3.823   9.165 -1.0625  1.0391 -0.3904
 7293SOL     OW33514   3.571   2.502   7.468 -0.3172  0.0187 -0.7114
 7293SOL    HW133515   3.628   2.429   7.493  1.5322  1.6004 -0.3151
 7293SOL    HW233516   3.481   2.470   7.471 -1.1666  2.4313 -0.6254
 7294SOL     OW33517   3.290   2.232   8.173 -0.1796 -0.0162 -0.0766
 7294SOL    HW133518   3.263   2.317   8.139 -0.7514 -0.3414 -0.4323
 7294SOL    HW233519   3.225   2.176   8.131 -1.4127  0.9061  0.6046
 7295SOL     OW33520   3.844   4.544  17.245  0.0351  0.5180  0.1861
 7295SOL    HW133521   3.909   4.553  17.315  0.4485  1.5971 -0.3417
 7295SOL    HW233522   3.760   4.535  17.290 -0.6615  1.2889 -0.9721
 7296SOL     OW33523   3.483   2.352  14.919 -0.1156 -0.1858 -0.4046
 7296SOL    HW133524   3.502   2.386  15.007 -1.0727 -0.8849  0.0706
 7296SOL    HW233525   3.566   2.324  14.881  0.5781  0.6088  0.4954
 7297SOL     OW33526   3.818   3.080   9.068  0.2470 -0.8261 -0.3935
 7297SOL    HW133527   3.895   3.026   9.084  0.7126 -0.6674 -2.1547
 7297SOL    HW233528   3.835   3.095   8.975  2.7709 -1.0151  0.0384
 7298SOL     OW33529   3.531   1.944  14.972  0.3670 -0.3144 -0.1391
 7298SOL    HW133530   3.457   1.953  14.912  0.2418 -0.0753  0.0482
 7298SOL    HW233531   3.556   1.852  14.971 -0.0677 -0.4640  1.3879
 7299SOL     OW33532   2.089   4.575   5.658 -0.3680  0.1272  0.2993
 7299SOL    HW133533   2.125   4.561   5.570  1.5303  0.5564  1.0126
 7299SOL    HW233534   2.117   4.664   5.678 -1.6717  0.6019  0.0134
 7300SOL     OW33535   4.288   1.364  12.425  0.0772 -0.0795 -0.2346
 7300SOL    HW133536   4.296   1.431  12.358 -1.8689 -0.9872 -1.3733
 7300SOL    HW233537   4.311   1.290  12.369  1.5626  1.1524 -1.2382
 7301SOL     OW33538   0.114   0.132   1.989 -0.9233  0.1024 -1.0328
 7301SOL    HW133539   0.086   0.153   2.078  0.2456  1.6107 -1.0286
 7301SOL    HW233540   0.179   0.200   1.975  0.7502 -1.3833 -0.5060
 7302SOL     OW33541   3.651   4.546   6.025  0.1208  0.1943 -0.2630
 7302SOL    HW133542   3.560   4.517   6.028 -0.7941  2.8439 -1.5059
 7302SOL    HW233543   3.694   4.471   6.066  1.1541  0.1879 -1.3622
 7303SOL     OW33544   4.531   1.915   8.921 -0.0601 -0.3295  1.2722
 7303SOL    HW133545   4.478   1.864   8.861  2.5765 -1.0669 -0.4398
 7303SOL    HW233546   4.587   1.965   8.861 -2.8857  2.1057  0.6568
 7304SOL     OW33547   0.024   2.591   3.143  0.1564 -0.3890 -0.0981
 7304SOL    HW133548   0.011   2.509   3.192  2.0777 -0.5819  0.0836
 7304SOL    HW233549   0.114   2.585   3.114 -0.1736 -1.0443 -0.9795
 7305SOL     OW33550   4.456   1.228  14.536  0.0182  0.0923  0.1903
 7305SOL    HW133551   4.493   1.286  14.470  1.9177 -0.8762  0.3953
 7305SOL    HW233552   4.514   1.155  14.515 -0.2414 -0.2421  0.6505
 7306SOL     OW33553   3.929   4.313  10.766  0.0070  0.0554  0.4925
 7306SOL    HW133554   3.958   4.401  10.790  0.1052  0.1147  0.1545
 7306SOL    HW233555   3.997   4.290  10.702  0.5980 -0.1425  1.1865
 7307SOL     OW33556   1.794   2.590   3.130  0.2117 -0.2466 -0.5349
 7307SOL    HW133557   1.772   2.538   3.207 -1.2206  0.0246 -0.7472
 7307SOL    HW233558   1.770   2.678   3.161 -1.4200 -0.5998 -0.7607
 7308SOL     OW33559   0.597   0.112   7.828 -0.2227 -0.1400 -0.1561
 7308SOL    HW133560   0.525   0.054   7.854 -0.0227 -0.7871 -1.0319
 7308SOL    HW233561   0.564   0.149   7.747  2.8411  2.0130 -0.4353
 7309SOL     OW33562   2.137   0.956   6.647  0.2515  0.4252  0.1188
 7309SOL    HW133563   2.097   0.869   6.636 -1.0581  0.7238  2.3592
 7309SOL    HW233564   2.137   0.990   6.558  0.0372  2.4699  0.8985
 7310SOL     OW33565   1.032   2.750  11.148  0.0774 -0.5055  0.1771
 7310SOL    HW133566   1.064   2.789  11.067  0.9267  0.5351  1.0237
 7310SOL    HW233567   0.944   2.729  11.117 -0.1323 -3.2003  2.6424
 7311SOL     OW33568   0.100   0.618   7.591 -0.2432  0.1646 -0.0617
 7311SOL    HW133569   0.110   0.570   7.673 -0.6132  0.8904  0.4089
 7311SOL    HW233570   0.094   0.547   7.528  1.0038  0.3997 -0.4385
 7312SOL     OW33571   4.350   4.271  16.055  0.2642  0.1657 -0.2952
 7312SOL    HW133572   4.354   4.301  16.146 -3.0579 -0.2802 -0.0187
 7312SOL    HW233573   4.314   4.351  16.017 -0.0048  0.3946  0.4328
 7313SOL     OW33574   4.565   4.024   4.034  0.1042 -0.1242  0.1325
 7313SOL    HW133575   4.593   4.115   4.022  0.0331  0.3281  3.4798
 7313SOL    HW233576   4.646   3.992   3.993  1.1367  0.3260  1.8170
 7314SOL     OW33577   3.072   0.010  12.525  0.5653 -0.1832  0.0034
 7314SOL    HW133578   2.984   4.719  12.546 -0.4468  1.7950 -1.3683
 7314SOL    HW233579   3.057   0.039  12.435 -2.0701  0.4736  0.6476
 7315SOL     OW33580   3.371   3.051   8.215  0.1857  0.2000 -0.6396
 7315SOL    HW133581   3.394   2.987   8.284 -3.7613 -0.3905  0.1029
 7315SOL    HW233582   3.296   3.019   8.167  0.3708  1.4003 -1.7158
 7316SOL     OW33583   1.895   0.284   6.306 -0.0842 -0.1664 -1.0104
 7316SOL    HW133584   1.927   0.374   6.306 -2.0570  0.5313 -0.7080
 7316SOL    HW233585   1.963   0.242   6.359  1.4651  2.1475 -1.1098
 7317SOL     OW33586   3.130   0.734  11.709 -0.1883  0.1907  0.4830
 7317SOL    HW133587   3.175   0.756  11.628 -0.8909  1.0520  0.3163
 7317SOL    HW233588   3.134   0.818  11.756 -1.3467 -0.0047  0.9507
 7318SOL     OW33589   2.972   2.014   9.439 -0.1232  0.0847  0.4988
 7318SOL    HW133590   2.899   1.961   9.407 -1.0581  1.4480  0.3731
 7318SOL    HW233591   2.952   2.021   9.533 -1.1321 -1.0325  0.3641
 7319SOL     OW33592   2.500   2.470   6.729 -0.3799  0.5385 -0.0343
 7319SOL    HW133593   2.483   2.448   6.637  1.8246 -1.8210  0.1185
 7319SOL    HW233594   2.534   2.559   6.719  1.1848 -0.0815 -0.2630
 7320SOL     OW33595   2.570   0.089  13.976 -0.3219  0.0646 -0.5420
 7320SOL    HW133596   2.598   0.125  14.060 -0.1506  1.2337 -1.1028
 7320SOL    HW233597   2.498   0.032  14.003 -0.6154  0.3012 -0.8269
 7321SOL     OW33598   0.960   1.968   3.385 -0.1544  0.1806 -0.3434
 7321SOL    HW133599   0.956   1.987   3.479 -0.3096  1.6815 -0.6402
 7321SOL    HW233600   0.902   1.892   3.383 -0.1115  0.1142  0.8078
 7322SOL     OW33601   0.842   0.885   3.563  0.2281  0.3087  0.7011
 7322SOL    HW133602   0.899   0.934   3.503 -0.0367  1.9000  1.7400
 7322SOL    HW233603   0.901   0.864   3.635  1.5021  0.1153 -0.3905
 7323SOL     OW33604   1.869   4.559   2.602 -0.5400  0.5002  0.5385
 7323SOL    HW133605   1.816   4.481   2.584 -1.6678  1.4606 -0.3084
 7323SOL    HW233606   1.958   4.525   2.594 -0.1418  1.6469  0.1921
 7324SOL     OW33607   4.586   2.208   9.518 -0.4495  0.1702  0.2874
 7324SOL    HW133608   4.533   2.128   9.527  0.0832 -0.1217  0.8648
 7324SOL    HW233609   4.606   2.220   9.611 -0.0060 -1.3133  0.3871
 7325SOL     OW33610   3.207   0.831   0.257 -0.3650 -0.3765 -0.2030
 7325SOL    HW133611   3.228   0.878   0.338  2.7367 -0.8475 -0.7015
 7325SOL    HW233612   3.141   0.881   0.209 -3.1947 -0.5402  3.5147
 7326SOL     OW33613   2.078   2.756   3.895  0.1816  0.7141 -0.1213
 7326SOL    HW133614   2.071   2.665   3.865  0.6995  0.3796  0.7972
 7326SOL    HW233615   2.044   2.803   3.819 -1.1634 -0.4476 -0.2523
 7327SOL     OW33616   4.151   3.192   2.330  0.1245  0.1878 -0.2123
 7327SOL    HW133617   4.086   3.136   2.289  0.9631 -0.7106 -0.3098
 7327SOL    HW233618   4.213   3.121   2.348 -1.0665 -0.8225 -0.1368
 7328SOL     OW33619   2.141   3.426   0.755  0.4917 -0.0621 -0.1071
 7328SOL    HW133620   2.195   3.354   0.724  3.8616  2.5899 -0.4649
 7328SOL    HW233621   2.146   3.487   0.681  0.9687  0.0088 -0.0125
 7329SOL     OW33622   4.176   1.730  11.388 -0.1921  0.5167  0.2902
 7329SOL    HW133623   4.206   1.821  11.385  1.8657 -0.2139 -1.3637
 7329SOL    HW233624   4.257   1.679  11.393 -0.5519 -0.1456 -0.5560
 7330SOL     OW33625   1.399   1.506   0.098 -0.6387  0.1641  0.4525
 7330SOL    HW133626   1.416   1.553   0.017  0.2185  1.2520  1.2767
 7330SOL    HW233627   1.376   1.586   0.146  1.1964  1.3102 -0.5985
 7331SOL     OW33628   1.114   3.789   2.308  0.2300 -0.0610 -0.0755
 7331SOL    HW133629   1.110   3.734   2.230 -2.8673 -0.0142  0.0456
 7331SOL    HW233630   1.140   3.728   2.377 -0.8136 -0.7472 -0.2913
 7332SOL     OW33631   4.106   4.348   7.253  0.0873 -0.5068  0.1159
 7332SOL    HW133632   4.110   4.441   7.276  0.9034 -0.3861 -0.5121
 7332SOL    HW233633   4.025   4.332   7.301 -1.3148  0.4709 -1.9252
 7333SOL     OW33634   0.625   3.332  10.777 -0.2569 -0.1475  0.1077
 7333SOL    HW133635   0.533   3.342  10.801 -0.0382  0.7915  0.5616
 7333SOL    HW233636   0.633   3.237  10.782 -1.8290 -0.3743 -1.9966
 7334SOL     OW33637   0.719   4.358   8.253  0.4857 -0.0174  1.0013
 7334SOL    HW133638   0.630   4.379   8.282 -0.0302 -0.9958  0.1491
 7334SOL    HW233639   0.764   4.442   8.256 -1.5983  1.0221  3.1989
 7335SOL     OW33640   2.158   2.310  15.433  0.4529 -0.2433  0.2667
 7335SOL    HW133641   2.094   2.286  15.366  1.4896 -0.0372 -0.7871
 7335SOL    HW233642   2.157   2.404  15.421 -0.1211 -0.1329  1.1486
 7336SOL     OW33643   4.150   4.265   5.584 -0.2103 -0.4673 -0.1666
 7336SOL    HW133644   4.130   4.359   5.586 -1.1676 -0.6542 -1.2192
 7336SOL    HW233645   4.139   4.249   5.678  2.8112 -2.8676 -0.2242
 7337SOL     OW33646   2.960   3.998   1.198  0.1741 -0.3820 -0.3057
 7337SOL    HW133647   2.997   3.910   1.188  0.3255 -0.3327 -0.1665
 7337SOL    HW233648   2.950   4.008   1.292  0.8615 -1.0637 -0.1607
 7338SOL     OW33649   4.004   1.777   2.558  0.5529  0.0502 -0.3894
 7338SOL    HW133650   3.919   1.737   2.577  0.2374  0.3264 -1.2285
 7338SOL    HW233651   3.975   1.865   2.535 -2.4228 -0.2184  2.3334
 7339SOL     OW33652   3.159   3.322   2.108 -0.0232  0.2809  0.4652
 7339SOL    HW133653   3.146   3.268   2.186  1.9783 -1.5150 -0.4448
 7339SOL    HW233654   3.074   3.310   2.065  0.5471  0.5213 -0.7233
 7340SOL     OW33655   0.181   1.323   6.139 -0.0118 -0.3406  0.1860
 7340SOL    HW133656   0.267   1.305   6.101 -0.5046 -2.3158 -0.0020
 7340SOL    HW233657   0.143   1.293   6.056 -1.6031  1.4040  0.3080
 7341SOL     OW33658   3.799   3.997  17.175 -0.0612  0.1912 -0.2579
 7341SOL    HW133659   3.856   3.922  17.157  0.1694  0.7653 -1.8670
 7341SOL    HW233660   3.743   4.006  17.099 -0.7945 -1.9292  0.0268
 7342SOL     OW33661   2.836   4.344   7.945  0.0284 -0.2649 -0.1046
 7342SOL    HW133662   2.866   4.386   7.864  1.4719 -0.6776  0.2077
 7342SOL    HW233663   2.826   4.251   7.924 -3.3246  0.2603 -0.8491
 7343SOL     OW33664   0.452   4.422  13.243  0.5509 -0.2650 -0.0424
 7343SOL    HW133665   0.480   4.393  13.329 -1.4780 -1.3752  0.2478
 7343SOL    HW233666   0.434   4.340  13.197 -1.3245  0.8080 -1.2200
 7344SOL     OW33667   2.864   0.803  17.080  0.0967 -0.2388 -0.1753
 7344SOL    HW133668   2.882   0.753  17.160  1.5504 -0.7413 -0.8215
 7344SOL    HW233669   2.829   0.733  17.026 -0.4966 -0.4092  0.4206
 7345SOL     OW33670   4.733   4.612   7.820 -0.0524 -0.7190  0.1916
 7345SOL    HW133671   4.652   4.640   7.863 -0.1954  0.5825 -0.9276
 7345SOL    HW233672   0.009   4.684   7.760  0.1010  0.2168  1.3687
 7346SOL     OW33673   0.060   2.102  14.499  0.0153 -0.4336 -0.4243
 7346SOL    HW133674   0.088   2.178  14.448 -1.2496  0.5271  0.3150
 7346SOL    HW233675   4.740   2.057  14.440 -0.4317 -0.8693  0.3623
 7347SOL     OW33676   1.115   3.924   8.048 -0.6045 -0.3736  0.3035
 7347SOL    HW133677   1.115   3.987   8.120 -0.9956  1.8307 -1.6056
 7347SOL    HW233678   1.141   3.980   7.975  0.7891  0.2091  1.2540
 7348SOL     OW33679   2.084   1.616  17.447 -0.3619  0.0713 -0.4774
 7348SOL    HW133680   2.072   1.599  17.540 -1.0133  0.4077 -0.5034
 7348SOL    HW233681   2.133   1.540  17.414  1.3004  0.3109  1.4476
 7349SOL     OW33682   4.417   3.094   8.841  0.5537 -0.4408 -0.3703
 7349SOL    HW133683   4.469   3.029   8.793 -0.9799 -0.4620 -1.9737
 7349SOL    HW233684   4.326   3.075   8.820  0.4939 -1.0292  0.4079
 7350SOL     OW33685   4.550   3.614   0.202  0.5388  0.5974  0.4875
 7350SOL    HW133686   4.489   3.681   0.174 -0.1331 -1.3556 -2.7181
 7350SOL    HW233687   4.631   3.636   0.155  1.4325 -1.0214  1.2371
 7351SOL     OW33688   1.604   0.888   5.400 -0.3429 -0.1535 -0.2105
 7351SOL    HW133689   1.668   0.830   5.441 -0.3019 -1.0297 -1.4914
 7351SOL    HW233690   1.587   0.842   5.318 -1.5334  1.1553 -0.6825
 7352SOL     OW33691   3.494   2.074   8.143 -0.2908  0.1345 -0.2266
 7352SOL    HW133692   3.514   2.102   8.054  0.0971 -0.9170 -0.4692
 7352SOL    HW233693   3.417   2.128   8.161 -0.2525  0.2979 -0.5486
 7353SOL     OW33694   1.395   2.987   2.325 -0.3452 -0.2291 -0.0852
 7353SOL    HW133695   1.403   3.071   2.370  0.0853 -0.7237  0.7634
 7353SOL    HW233696   1.364   3.019   2.240 -0.5330  1.1763  0.5079
 7354SOL     OW33697   0.560   4.088  17.435  0.2860 -0.1766  0.3151
 7354SOL    HW133698   0.557   4.086  17.339  1.9131 -0.2623  0.2688
 7354SOL    HW233699   0.563   3.999  17.470  2.4391 -0.2046  0.0076
 7355SOL     OW33700   0.483   1.700   8.113 -0.2436 -0.3213  0.2147
 7355SOL    HW133701   0.389   1.691   8.099 -0.0925 -0.7588 -0.5263
 7355SOL    HW233702   0.486   1.784   8.157  1.3733  0.2460 -0.9537
 7356SOL     OW33703   0.319   1.303   8.568 -0.3184  0.4389 -0.2891
 7356SOL    HW133704   0.326   1.257   8.484 -0.0374  0.6274 -0.3691
 7356SOL    HW233705   0.312   1.219   8.613  0.8852 -0.0376 -0.9961
 7357SOL     OW33706   3.297   3.824   6.439 -0.0495 -0.3348  0.0110
 7357SOL    HW133707   3.241   3.762   6.486  1.0962 -0.9696  0.5460
 7357SOL    HW233708   3.376   3.774   6.462 -0.5390 -0.7705  0.7361
 7358SOL     OW33709   1.654   1.803  14.860  0.0939 -0.0179  0.2095
 7358SOL    HW133710   1.600   1.821  14.783 -0.4485  1.6237  0.9585
 7358SOL    HW233711   1.723   1.869  14.846  0.1023 -0.2086 -0.6099
 7359SOL     OW33712   3.215   3.579   2.935  0.0672 -0.3294  0.1291
 7359SOL    HW133713   3.271   3.549   3.007  0.4978 -1.0146 -0.4925
 7359SOL    HW233714   3.190   3.495   2.897 -3.5301  1.2246 -0.9452
 7360SOL     OW33715   3.579   3.632  14.969 -0.2820 -0.6410  0.2843
 7360SOL    HW133716   3.506   3.579  14.939  0.3317 -0.4014 -1.6515
 7360SOL    HW233717   3.530   3.698  15.019  1.6147  1.9555 -1.2310
 7361SOL     OW33718   1.583   4.085   5.951  0.8031  0.0704 -0.0058
 7361SOL    HW133719   1.553   3.994   5.953 -0.2388  0.4549  2.0310
 7361SOL    HW233720   1.649   4.085   5.882  0.4566 -1.9879 -0.3227
 7362SOL     OW33721   4.309   1.886  15.024  0.1595 -0.2603  0.2173
 7362SOL    HW133722   4.393   1.933  15.027  1.5080 -2.5461 -1.8526
 7362SOL    HW233723   4.253   1.938  14.966 -0.7386 -0.1978  1.1490
 7363SOL     OW33724   0.551   4.354   1.696  0.3424  0.5537  0.3169
 7363SOL    HW133725   0.549   4.399   1.611  1.7764  1.5576  0.8177
 7363SOL    HW233726   0.579   4.425   1.754  0.0933  0.2777  0.7716
 7364SOL     OW33727   1.275   3.021   5.509  0.4701  0.1021  0.6281
 7364SOL    HW133728   1.189   2.980   5.515  1.2366 -0.9365  4.4650
 7364SOL    HW233729   1.342   2.970   5.554  0.7840  1.0772  1.2831
 7365SOL     OW33730   4.492   0.102   0.716  0.3414  0.5981  0.7109
 7365SOL    HW133731   4.550   0.037   0.756 -0.2012 -0.3847 -0.0757
 7365SOL    HW233732   4.441   0.106   0.797 -1.0279 -1.5420 -0.0299
 7366SOL     OW33733   1.429   3.921   2.320  0.5875 -0.3572  0.5203
 7366SOL    HW133734   1.425   3.890   2.410  1.8166  0.1140  0.7377
 7366SOL    HW233735   1.482   3.852   2.280  0.1893  0.0022 -0.6370
 7367SOL     OW33736   3.555   1.160   9.732  0.1559 -0.7129 -0.3365
 7367SOL    HW133737   3.588   1.078   9.767 -0.7255 -0.8283  0.2080
 7367SOL    HW233738   3.637   1.209   9.723  0.6986 -1.5982 -0.1970
 7368SOL     OW33739   2.841   2.269  11.030  0.0572 -0.4578 -0.3219
 7368SOL    HW133740   2.829   2.189  11.081 -1.3205 -0.8624 -1.2693
 7368SOL    HW233741   2.764   2.319  11.057  0.4453  1.0873 -2.0405
 7369SOL     OW33742   3.659   4.276  16.668 -0.0722 -0.1911 -0.7184
 7369SOL    HW133743   3.640   4.362  16.631  1.9159 -1.1919 -4.1253
 7369SOL    HW233744   3.568   4.255  16.687 -0.4394  0.8336 -1.3750
 7370SOL     OW33745   4.254   2.028   8.309  0.0199 -0.0084  0.3504
 7370SOL    HW133746   4.256   2.002   8.401  1.4753 -0.3463  0.2239
 7370SOL    HW233747   4.294   1.959   8.256  2.0112  0.4828  1.2156
 7371SOL     OW33748   0.107   2.255  10.216  0.2088 -0.0747  0.1817
 7371SOL    HW133749   0.175   2.202  10.258 -1.4659 -1.7711  0.7478
 7371SOL    HW233750   0.121   2.337  10.264  1.4277 -1.1136  1.5832
 7372SOL     OW33751   0.294   2.474   1.460 -0.2088  0.0551  0.3551
 7372SOL    HW133752   0.276   2.465   1.366  0.2264 -0.7448  0.3550
 7372SOL    HW233753   0.209   2.505   1.492 -0.0445 -1.0446  1.8257
 7373SOL     OW33754   1.045   3.808  12.359  0.0009 -0.4476 -1.0161
 7373SOL    HW133755   1.011   3.756  12.286 -0.1694 -1.0387 -0.5202
 7373SOL    HW233756   1.017   3.892  12.323  2.5835  0.8858  0.0773
 7374SOL     OW33757   4.438   3.116  16.234  0.6458 -0.0417 -0.0314
 7374SOL    HW133758   4.461   3.051  16.301  1.4462  2.3907  2.0736
 7374SOL    HW233759   4.519   3.142  16.191 -0.3101 -0.0285 -1.8127
 7375SOL     OW33760   2.673   4.426   1.624 -0.0637  0.4107  0.1907
 7375SOL    HW133761   2.763   4.405   1.648 -0.4746 -0.0359  1.3937
 7375SOL    HW233762   2.663   4.521   1.632 -0.5887  0.2537  1.5339
 7376SOL     OW33763   1.363   4.110   7.047 -0.2215 -0.0834  0.6004
 7376SOL    HW133764   1.268   4.105   7.046 -0.3343  2.1158  0.8096
 7376SOL    HW233765   1.373   4.163   7.126  1.9010 -0.8135  0.8240
 7377SOL     OW33766   1.423   2.884   9.120 -0.1388 -0.2743 -0.2422
 7377SOL    HW133767   1.495   2.902   9.181 -0.6357  2.8118 -0.5888
 7377SOL    HW233768   1.348   2.918   9.169 -2.2293 -2.9858 -1.6096
 7378SOL     OW33769   3.403   1.658   6.575  0.3281 -0.4683 -0.3058
 7378SOL    HW133770   3.419   1.568   6.601 -0.7221 -0.1080  1.5918
 7378SOL    HW233771   3.315   1.644   6.541  1.4004 -1.4713 -2.6157
 7379SOL     OW33772   4.433   1.735   5.010  0.2558 -0.5209 -0.3601
 7379SOL    HW133773   4.417   1.827   5.032  1.8157 -0.3595  0.1481
 7379SOL    HW233774   4.484   1.750   4.930 -0.5240  0.1556 -0.7260
 7380SOL     OW33775   2.273   0.870   6.176 -0.1449 -0.1848  0.4048
 7380SOL    HW133776   2.240   0.825   6.254  0.6101 -0.5288  0.5224
 7380SOL    HW233777   2.366   0.850   6.175  0.2114  1.4457  1.0505
 7381SOL     OW33778   1.103   3.581   4.901  0.5020 -0.4606  0.2900
 7381SOL    HW133779   1.147   3.662   4.876  1.0607 -1.0312 -0.5795
 7381SOL    HW233780   1.031   3.580   4.838  0.1583 -1.8783  0.7071
 7382SOL     OW33781   3.610   4.381   1.965  0.0158 -0.3471 -0.5886
 7382SOL    HW133782   3.560   4.304   1.939  1.5191 -1.3817 -0.4140
 7382SOL    HW233783   3.547   4.431   2.018  1.3321  1.8771 -1.1223
 7383SOL     OW33784   2.633   4.027   6.519  0.5478 -0.5545  0.2199
 7383SOL    HW133785   2.607   3.937   6.497 -1.2700  0.3568 -1.3333
 7383SOL    HW233786   2.626   4.022   6.614  0.0736  0.9441  0.2560
 7384SOL     OW33787   3.798   0.460   5.416 -0.4214  0.1589  0.0043
 7384SOL    HW133788   3.818   0.549   5.387 -0.6508 -0.7940 -3.1565
 7384SOL    HW233789   3.885   0.427   5.435 -0.3063 -0.1876 -1.1177
 7385SOL     OW33790   4.266   0.222   2.503  0.5018 -0.1391 -0.0820
 7385SOL    HW133791   4.308   0.136   2.493  1.7561  0.6270 -1.5159
 7385SOL    HW233792   4.255   0.252   2.413 -0.2787 -3.6758 -1.1733
 7386SOL     OW33793   3.847   0.899   3.113 -0.0974 -1.1574 -0.0419
 7386SOL    HW133794   3.936   0.934   3.109 -0.8076  0.7770  0.9863
 7386SOL    HW233795   3.806   0.935   3.034  1.0531  0.8128  0.2609
 7387SOL     OW33796   2.175   2.935   4.339 -0.0005  0.4258 -0.3499
 7387SOL    HW133797   2.175   2.846   4.305  1.4689 -0.3746  1.7548
 7387SOL    HW233798   2.220   2.931   4.423 -0.9127  1.7041  0.1979
 7388SOL     OW33799   0.792   0.179   8.543 -0.3183  0.2692  0.2077
 7388SOL    HW133800   0.784   0.161   8.449  0.1132 -0.6085  0.3360
 7388SOL    HW233801   0.867   0.239   8.545 -0.2290  0.1508  0.4119
 7389SOL     OW33802   2.289   0.849   8.432 -0.2502  0.9279 -0.1684
 7389SOL    HW133803   2.343   0.919   8.397 -1.2331  2.1604  0.7792
 7389SOL    HW233804   2.358   0.797   8.474 -0.2411  0.4906 -0.7239
 7390SOL     OW33805   0.262   2.280   3.270 -0.8663  0.4550 -0.9551
 7390SOL    HW133806   0.285   2.316   3.185 -1.3582  2.2053 -0.3499
 7390SOL    HW233807   0.261   2.185   3.257  0.9013  0.2197  0.6179
 7391SOL     OW33808   3.322   2.507   8.425 -0.0034 -0.1700 -0.1399
 7391SOL    HW133809   3.343   2.423   8.467  1.5237  0.5068  0.4535
 7391SOL    HW233810   3.280   2.554   8.498 -1.7498 -0.9724 -0.6081
 7392SOL     OW33811   2.987   3.546   3.180 -0.9565 -0.0572 -0.3101
 7392SOL    HW133812   3.040   3.622   3.155  0.2409 -0.4134  1.1592
 7392SOL    HW233813   3.030   3.476   3.130  2.2650  1.8089 -0.1277
 7393SOL     OW33814   4.291   2.003   0.342 -0.4488  0.2356 -0.4825
 7393SOL    HW133815   4.293   2.053   0.261 -1.1005  0.1205 -0.5663
 7393SOL    HW233816   4.197   2.002   0.359  0.0323  2.0811  2.3006
 7394SOL     OW33817   2.425   0.132  17.066  0.4341  0.0219  0.6438
 7394SOL    HW133818   2.355   0.106  17.005 -0.9001  1.0756  1.7225
 7394SOL    HW233819   2.423   0.066  17.135  1.9943 -1.1723 -0.4439
 7395SOL     OW33820   3.606   4.421   3.814  0.3471 -0.2297 -0.2542
 7395SOL    HW133821   3.654   4.346   3.778 -1.7297 -2.2896  1.3017
 7395SOL    HW233822   3.679   4.460   3.861  0.4888  0.3624 -0.9698
 7396SOL     OW33823   1.084   3.113   3.579  0.3971 -0.3490  0.0613
 7396SOL    HW133824   1.168   3.087   3.617 -0.9132 -4.3495  0.2271
 7396SOL    HW233825   1.098   3.096   3.485  1.5538  1.0233 -0.0085
 7397SOL     OW33826   0.528   2.469   6.540 -0.3906  0.4926  0.3559
 7397SOL    HW133827   0.500   2.381   6.513  1.3381  0.2851 -0.7107
 7397SOL    HW233828   0.550   2.513   6.458  0.8368  1.3313  1.1345
 7398SOL     OW33829   4.319   1.494  11.078 -0.9263  0.4510 -0.1434
 7398SOL    HW133830   4.232   1.533  11.086 -0.9494 -0.1960  2.5776
 7398SOL    HW233831   4.364   1.553  11.138  0.0681 -0.6472  0.2005
 7399SOL     OW33832   2.364   2.894   2.213  0.7107 -0.1669  0.3182
 7399SOL    HW133833   2.446   2.884   2.165  0.5915  0.3756  0.0067
 7399SOL    HW233834   2.305   2.906   2.138 -0.3569 -0.3025  1.1350
 7400SOL     OW33835   3.011   2.656   5.774 -0.0843  0.0757 -0.1982
 7400SOL    HW133836   2.929   2.643   5.822 -1.2963  1.9634 -1.7491
 7400SOL    HW233837   3.013   2.574   5.724 -1.5144  1.2313 -2.1866
 7401SOL     OW33838   2.047   1.693   6.365  0.0535  0.0394 -0.5379
 7401SOL    HW133839   2.081   1.611   6.328 -0.9888 -0.5600 -0.1529
 7401SOL    HW233840   2.056   1.757   6.294 -0.1295  0.7460  0.0749
 7402SOL     OW33841   3.283   0.172   8.220 -0.1656 -0.3294 -0.0877
 7402SOL    HW133842   3.206   0.209   8.262  0.6802 -2.1053  3.0930
 7402SOL    HW233843   3.340   0.164   8.297 -0.9529 -0.0384  0.5303
 7403SOL     OW33844   3.432   0.917  16.689 -0.3853 -0.0757  0.3632
 7403SOL    HW133845   3.460   0.989  16.632 -1.8023 -0.4530 -0.8234
 7403SOL    HW233846   3.342   0.918  16.657 -1.2845  0.5327  2.9071
 7404SOL     OW33847   4.368   4.249  15.171  1.1026  0.0572  0.6505
 7404SOL    HW133848   4.377   4.253  15.076  1.5586  1.2991  0.7567
 7404SOL    HW233849   4.342   4.157  15.178  2.2222 -0.1875  1.5345
 7405SOL     OW33850   1.428   2.737   3.942  0.0465 -0.1578  0.4698
 7405SOL    HW133851   1.337   2.738   3.971  0.2964  1.5631  1.2356
 7405SOL    HW233852   1.407   2.764   3.853  2.3023  2.7879  0.8364
 7406SOL     OW33853   2.528   1.631   6.710  0.1961 -0.4495  0.3316
 7406SOL    HW133854   2.564   1.650   6.797  0.5529  0.7322 -0.0684
 7406SOL    HW233855   2.605   1.637   6.652 -0.9424 -2.1278 -1.3522
 7407SOL     OW33856   2.709   1.365  13.261 -0.5657  0.0470  0.1687
 7407SOL    HW133857   2.786   1.421  13.267 -0.7256  0.4580 -1.6568
 7407SOL    HW233858   2.647   1.432  13.236  0.1623 -0.2940 -2.4906
 7408SOL     OW33859   4.540   3.424   0.631  0.2481  0.4277 -0.1196
 7408SOL    HW133860   4.448   3.426   0.656 -0.0634  3.0924 -1.4437
 7408SOL    HW233861   4.525   3.412   0.537  2.8798 -3.0828 -0.0691
 7409SOL     OW33862   0.275   0.647   4.892 -0.0439  0.0289 -0.3294
 7409SOL    HW133863   0.321   0.672   4.972  2.1795  1.4293 -2.0476
 7409SOL    HW233864   0.342   0.620   4.830 -0.2352 -2.0841  0.3826
 7410SOL     OW33865   4.536   0.867   0.732 -0.3618 -0.1407 -0.3333
 7410SOL    HW133866   4.495   0.903   0.810  0.1085  1.5606 -0.8888
 7410SOL    HW233867   4.576   0.946   0.696  1.7497 -2.0760 -2.3162
 7411SOL     OW33868   0.090   3.596  15.204  0.3006  0.6828  0.4054
 7411SOL    HW133869   0.012   3.609  15.258  0.4065  1.2744  0.4204
 7411SOL    HW233870   0.060   3.518  15.157 -0.6215 -0.0797  2.2784
 7412SOL     OW33871   0.891   2.688  15.729 -0.2015 -0.0994  0.2464
 7412SOL    HW133872   0.953   2.615  15.719  1.3400  0.6548  4.2922
 7412SOL    HW233873   0.854   2.698  15.642 -1.9889  2.7507  1.3429
 7413SOL     OW33874   2.883   2.249   8.600  0.3351 -0.0449 -0.0415
 7413SOL    HW133875   2.815   2.305   8.637 -1.5586 -2.1015 -0.4200
 7413SOL    HW233876   2.884   2.173   8.659  2.5373 -0.0823 -0.1038
 7414SOL     OW33877   2.425   2.233   7.503  0.6527 -0.0305  0.0906
 7414SOL    HW133878   2.354   2.221   7.566  0.3862  1.7621  0.1318
 7414SOL    HW233879   2.377   2.245   7.421  0.0772  0.1653  0.4605
 7415SOL     OW33880   1.673   4.593   6.229  0.2929  0.0341  0.2180
 7415SOL    HW133881   1.757   4.630   6.204  0.0177 -0.4485 -1.4300
 7415SOL    HW233882   1.625   4.668   6.265 -1.8503 -0.3305 -1.9104
 7416SOL     OW33883   2.635   0.944   3.129 -0.1500  0.0128 -0.1637
 7416SOL    HW133884   2.657   0.852   3.141 -2.3134 -0.6197 -1.0355
 7416SOL    HW233885   2.634   0.983   3.217 -0.3366 -0.1227 -0.1055
 7417SOL     OW33886   2.756   1.890   6.096  0.4209  0.4992  0.2486
 7417SOL    HW133887   2.727   1.889   6.005  1.0620  0.0452  0.0580
 7417SOL    HW233888   2.720   1.805   6.122 -1.2279  0.9734 -0.4581
 7418SOL     OW33889   3.056   0.904   5.757 -0.3211 -0.2181  0.0379
 7418SOL    HW133890   3.140   0.937   5.727 -0.3101  0.8727  1.2373
 7418SOL    HW233891   2.998   0.980   5.760 -1.0552 -0.8256  1.4630
 7419SOL     OW33892   2.596   1.143   6.404  0.4779  0.3078  0.1481
 7419SOL    HW133893   2.632   1.131   6.316  1.9388 -0.4145  0.8499
 7419SOL    HW233894   2.608   1.057   6.445 -0.6882  0.4588  0.7946
 7420SOL     OW33895   0.673   2.430   9.919 -0.5990  0.9175 -0.0220
 7420SOL    HW133896   0.659   2.524   9.914 -0.9538  0.8874  0.4104
 7420SOL    HW233897   0.596   2.392   9.878  0.2720 -1.1424  0.2140
 7421SOL     OW33898   2.325   1.428   6.806 -0.5579 -0.6255  0.6183
 7421SOL    HW133899   2.332   1.491   6.735 -1.1123 -0.8968  0.3229
 7421SOL    HW233900   2.253   1.371   6.777  0.2455 -1.5804  0.4912
 7422SOL     OW33901   4.155   1.378   2.891 -0.2491 -0.7361  0.4403
 7422SOL    HW133902   4.151   1.382   2.795  1.2420 -0.1895  0.3877
 7422SOL    HW233903   4.210   1.300   2.899  0.0318 -0.5902 -0.0033
 7423SOL     OW33904   3.613   1.402  10.463  0.1965  0.0491  0.0383
 7423SOL    HW133905   3.536   1.457  10.450  1.1553  2.1169  3.1973
 7423SOL    HW233906   3.577   1.315  10.443 -0.4396  0.0567  1.0964
 7424SOL     OW33907   2.433   1.222  14.199 -0.2164 -0.3865 -0.7290
 7424SOL    HW133908   2.431   1.317  14.209  1.5834 -0.2639 -1.5451
 7424SOL    HW233909   2.464   1.216  14.108  0.0471 -2.4949 -0.5110
 7425SOL     OW33910   2.657   1.814   8.820  0.1149  0.0249  0.1093
 7425SOL    HW133911   2.702   1.838   8.902 -0.1118 -0.2605  0.3179
 7425SOL    HW233912   2.565   1.838   8.821 -0.1465 -1.0250  1.3598
 7426SOL     OW33913   3.588   3.786   3.406 -0.0089 -0.9028 -0.1999
 7426SOL    HW133914   3.669   3.793   3.355 -0.5787  0.0699 -0.9504
 7426SOL    HW233915   3.627   3.722   3.466 -0.2368  0.4290  1.3636
 7427SOL     OW33916   4.385   2.222  15.458  0.1607  0.3000 -0.3575
 7427SOL    HW133917   4.342   2.306  15.472  0.2542  0.5960 -1.8676
 7427SOL    HW233918   4.432   2.210  15.541 -3.8124 -3.0995  1.4045
 7428SOL     OW33919   1.051   3.990   4.900  0.4682  0.0170  0.1952
 7428SOL    HW133920   1.080   3.960   4.986 -1.4431 -0.7880  0.5579
 7428SOL    HW233921   1.062   4.081   4.927 -0.1434 -0.0050  0.5231
 7429SOL     OW33922   3.961   4.601   2.500  0.0488 -0.5478  0.5564
 7429SOL    HW133923   3.962   4.632   2.409  0.3147 -2.4602 -0.0950
 7429SOL    HW233924   3.866   4.597   2.510  0.1158 -0.7956  1.0717
 7430SOL     OW33925   1.341   4.413  17.030  0.5252 -0.1135  0.0221
 7430SOL    HW133926   1.289   4.385  16.954  0.2125  0.7865 -0.1000
 7430SOL    HW233927   1.397   4.479  16.987 -0.7214 -0.5033 -2.1939
 7431SOL     OW33928   4.475   0.407   3.938 -0.3428 -0.0435  0.1265
 7431SOL    HW133929   4.433   0.483   3.978 -0.6099  0.3269 -0.8521
 7431SOL    HW233930   4.568   0.424   3.952 -0.0056 -0.9384 -0.9420
 7432SOL     OW33931   1.128   2.012   7.102  0.0143  0.0593 -0.6276
 7432SOL    HW133932   1.146   1.919   7.109 -0.2930  0.1436  1.3372
 7432SOL    HW233933   1.133   2.042   7.193 -1.0660  0.8796 -0.8311
 7433SOL     OW33934   1.265   2.762   7.755  0.3871  0.1475  0.1195
 7433SOL    HW133935   1.235   2.814   7.680  0.4010  0.0329  0.0330
 7433SOL    HW233936   1.235   2.809   7.833 -1.1727  1.9017 -1.5287
 7434SOL     OW33937   0.971   3.589   9.043  0.2608  0.3809 -0.5809
 7434SOL    HW133938   1.012   3.664   9.087  1.9976 -1.7673  1.4750
 7434SOL    HW233939   0.975   3.520   9.109 -1.0903 -1.3311 -2.2840
 7435SOL     OW33940   1.094   1.250   2.049  0.4145  0.5182  0.5433
 7435SOL    HW133941   1.121   1.159   2.036  2.7593  1.1435  1.0893
 7435SOL    HW233942   1.009   1.245   2.092  0.6857  1.1255  1.1503
 7436SOL     OW33943   3.848   1.651   5.707 -0.0443  0.5439  0.5353
 7436SOL    HW133944   3.901   1.623   5.782 -2.4372 -1.4572  1.5084
 7436SOL    HW233945   3.762   1.623   5.737 -0.5281  1.5295  0.0581
 7437SOL     OW33946   2.714   1.975   8.303 -0.2792  0.0701 -0.3101
 7437SOL    HW133947   2.792   2.029   8.317 -1.0053  1.1853 -0.5582
 7437SOL    HW233948   2.662   2.015   8.372  2.0913 -1.4289  2.3187
 7438SOL     OW33949   3.116   0.892   7.383  0.0062 -0.1264  0.2976
 7438SOL    HW133950   3.180   0.930   7.323 -1.3579  0.1947 -0.9571
 7438SOL    HW233951   3.028   0.901   7.345  0.5095  0.6300 -0.6961
 7439SOL     OW33952   0.130   2.370   1.817 -0.3120 -0.7314  0.2663
 7439SOL    HW133953   0.053   2.336   1.771 -0.7968  2.3515 -1.2004
 7439SOL    HW233954   0.121   2.325   1.901 -0.1188 -1.2211  0.0323
 7440SOL     OW33955   0.191   0.896  10.270  0.3192  0.0272  0.3976
 7440SOL    HW133956   0.183   0.980  10.226  0.1708 -0.0099  0.3531
 7440SOL    HW233957   0.231   0.913  10.356  2.3248  1.2683 -0.7796
 7441SOL     OW33958   0.884   1.063   2.101  0.5398  0.3733  0.0254
 7441SOL    HW133959   0.882   1.056   2.196  2.0731 -1.2621 -0.0689
 7441SOL    HW233960   0.891   0.971   2.074 -2.6593  0.3587 -0.7617
 7442SOL     OW33961   2.874   0.616   4.262  0.1094  0.2706 -0.0476
 7442SOL    HW133962   2.828   0.700   4.271  0.4557  0.4413  0.1469
 7442SOL    HW233963   2.962   0.649   4.240  0.3616 -1.3769 -1.5406
 7443SOL     OW33964   4.425   1.752  13.444  0.0522  0.4479  0.3206
 7443SOL    HW133965   4.511   1.760  13.486  0.0652 -0.1787  0.4030
 7443SOL    HW233966   4.395   1.663  13.461  1.3355  0.0018  0.2442
 7444SOL     OW33967   1.813   1.465   2.832 -0.1106 -0.1188  0.0784
 7444SOL    HW133968   1.865   1.488   2.909 -1.2963  1.8150  0.3066
 7444SOL    HW233969   1.843   1.377   2.809 -0.1613 -0.3255  0.7985
 7445SOL     OW33970   3.413   1.916   6.092 -0.4873 -0.1463  0.5687
 7445SOL    HW133971   3.395   1.838   6.145 -4.3889  1.2403  1.2172
 7445SOL    HW233972   3.359   1.985   6.129  1.5513  0.7066  1.9871
 7446SOL     OW33973   2.637   1.605  17.469  0.0358 -0.0134  0.2725
 7446SOL    HW133974   2.730   1.600  17.446  0.0543 -0.6108  0.4956
 7446SOL    HW233975   2.623   1.520  17.509 -1.7042 -1.2740 -3.0253
 7447SOL     OW33976   0.539   2.266   3.405 -0.2758  0.4347 -0.3156
 7447SOL    HW133977   0.453   2.274   3.365 -0.5478 -0.7593  0.0199
 7447SOL    HW233978   0.511   2.246   3.495 -0.3853 -0.0429 -0.4539
 7448SOL     OW33979   1.236   0.452   7.739 -0.2796  0.0897 -0.1613
 7448SOL    HW133980   1.312   0.475   7.793  1.0992  0.1709 -2.1257
 7448SOL    HW233981   1.239   0.356   7.740  2.4468  0.1674  0.9312
 7449SOL     OW33982   2.659   4.398  15.316  0.7414  0.7283 -0.2830
 7449SOL    HW133983   2.754   4.411  15.317  0.4862  2.4087  1.4958
 7449SOL    HW233984   2.623   4.472  15.365  0.8323 -0.1105  1.0542
 7450SOL     OW33985   3.337   2.728   6.203 -0.1693 -0.4073 -0.4909
 7450SOL    HW133986   3.408   2.745   6.141 -0.1415 -0.1867 -0.3985
 7450SOL    HW233987   3.384   2.675   6.267 -1.9409 -0.4159  0.7914
 7451SOL     OW33988   4.620   2.848   5.977  0.2268 -0.0103  0.0686
 7451SOL    HW133989   4.556   2.881   5.915 -0.1968 -0.6932  0.1383
 7451SOL    HW233990   4.622   2.755   5.955 -0.3578  0.6564 -2.7538
 7452SOL     OW33991   4.064   3.422   5.186 -0.1160 -0.2773  0.5039
 7452SOL    HW133992   4.021   3.373   5.116  1.1618  2.2925 -2.0835
 7452SOL    HW233993   4.015   3.502   5.167  1.4820  0.6657  0.3489
 7453SOL     OW33994   1.093   4.311   4.054 -0.5339  0.2504  0.3532
 7453SOL    HW133995   1.087   4.393   4.006  3.4269 -0.0939 -0.7216
 7453SOL    HW233996   1.022   4.322   4.117 -0.8625  0.6209 -0.0803
 7454SOL     OW33997   1.705   3.356   4.280  0.2493  0.2866 -0.2686
 7454SOL    HW133998   1.759   3.422   4.324 -0.6140 -0.1355  1.3955
 7454SOL    HW233999   1.771   3.298   4.243  0.3681  1.3423 -1.7328
 7455SOL     OW34000   0.100   2.946   8.467 -0.0065 -0.1214  0.3700
 7455SOL    HW134001   0.011   2.960   8.500  0.1960  1.5821  0.1671
 7455SOL    HW234002   0.138   3.033   8.460 -1.0417  0.2521 -0.5915
 7456SOL     OW34003   2.423   3.009  12.391 -0.1373  1.0247 -0.3414
 7456SOL    HW134004   2.501   3.064  12.388  0.4395  0.1588 -1.3704
 7456SOL    HW234005   2.458   2.924  12.363 -0.8062  0.1120  1.6284
 7457SOL     OW34006   2.262   1.434  17.309  0.0827 -0.0144  0.1890
 7457SOL    HW134007   2.323   1.500  17.275  0.1244 -0.3042 -0.2994
 7457SOL    HW234008   2.232   1.393  17.228  2.5753  0.9325 -1.2217
 7458SOL     OW34009   2.364   2.760  12.675 -0.6221 -0.2578  0.0601
 7458SOL    HW134010   2.351   2.752  12.770  0.1955 -2.3751  0.0114
 7458SOL    HW234011   2.289   2.812  12.647  0.8293  0.1310 -3.0653
 7459SOL     OW34012   1.961   1.513   1.961  0.4840 -0.1760  0.3317
 7459SOL    HW134013   1.989   1.603   1.945 -1.3733  0.4419  0.4851
 7459SOL    HW234014   1.955   1.486   1.869 -1.2324 -0.4425  0.5222
 7460SOL     OW34015   2.951   1.685  15.704 -0.1309 -0.1884  0.4236
 7460SOL    HW134016   3.015   1.743  15.663  0.2421 -1.0295 -0.1699
 7460SOL    HW234017   2.991   1.675  15.791 -3.0521 -2.5120  1.4855
 7461SOL     OW34018   0.992   4.402  15.417  0.3237 -0.6504  0.3586
 7461SOL    HW134019   0.934   4.476  15.435 -0.4170 -0.7519 -1.5949
 7461SOL    HW234020   0.930   4.330  15.423  1.4724 -1.7601 -0.9903
 7462SOL     OW34021   3.203   0.132  13.315  0.2364  0.0408  0.0457
 7462SOL    HW134022   3.135   0.095  13.258 -0.3384 -3.1253  2.7437
 7462SOL    HW234023   3.199   0.064  13.383  1.8690 -0.7902 -0.6821
 7463SOL     OW34024   0.468   2.007   1.763  0.1753 -0.1566  0.0999
 7463SOL    HW134025   0.550   2.031   1.806 -0.6209  1.4343  0.7666
 7463SOL    HW234026   0.444   2.096   1.737  0.8779  0.3831  1.2806
 7464SOL     OW34027   4.302   1.181   9.955  0.0335 -0.3405  0.3509
 7464SOL    HW134028   4.230   1.220  10.005  1.9061 -0.4444  3.1048
 7464SOL    HW234029   4.269   1.173   9.866  2.6417 -1.3030 -0.5144
 7465SOL     OW34030   0.058   4.104   3.638  0.4561  0.2243  0.1867
 7465SOL    HW134031   0.141   4.061   3.619 -0.1766  0.3347 -2.8641
 7465SOL    HW234032   0.090   4.195   3.642 -2.0978  1.0083  2.3598
 7466SOL     OW34033   2.505   2.312  17.267  0.0239  0.3532 -0.3231
 7466SOL    HW134034   2.530   2.245  17.203 -0.0566 -0.2356  0.2637
 7466SOL    HW234035   2.410   2.310  17.280 -0.0119 -2.3244 -1.0184
 7467SOL     OW34036   0.616   3.879   6.997  0.5165  0.1147  0.2268
 7467SOL    HW134037   0.571   3.960   7.020 -1.2265 -1.8611  3.8317
 7467SOL    HW234038   0.550   3.825   6.954  1.6948  0.8038 -2.4048
 7468SOL     OW34039   1.055   2.983   4.776  0.0317 -0.3649  0.2084
 7468SOL    HW134040   1.150   2.988   4.783  0.0074 -0.2615  0.4646
 7468SOL    HW234041   1.028   3.071   4.801 -1.0563 -1.5018  3.0816
 7469SOL     OW34042   0.287   1.805   7.910  0.2243 -0.5462  0.1602
 7469SOL    HW134043   0.374   1.844   7.902 -0.8138  1.6423 -0.4581
 7469SOL    HW234044   0.256   1.790   7.820 -1.9516  3.4390  0.2509
 7470SOL     OW34045   0.591   1.608   9.575  0.0263  0.0959  0.0508
 7470SOL    HW134046   0.653   1.553   9.527  0.5572  0.2543  0.5646
 7470SOL    HW234047   0.532   1.541   9.611 -0.5844  0.5215 -0.1624
 7471SOL     OW34048   3.424   3.059   5.034  0.4833  0.6189  0.1439
 7471SOL    HW134049   3.354   3.008   5.076  2.4333 -0.3631  2.1805
 7471SOL    HW234050   3.424   3.031   4.943 -0.8555  4.8178 -1.1718
 7472SOL     OW34051   3.838   1.847   3.890  0.4766 -0.2731 -0.0061
 7472SOL    HW134052   3.772   1.779   3.881  0.6790 -0.6909  1.6329
 7472SOL    HW234053   3.782   1.923   3.908  1.1618  0.0621  0.7197
 7473SOL     OW34054   4.100   0.880   8.206 -0.2041 -0.5794  0.3649
 7473SOL    HW134055   4.034   0.835   8.153  0.1925  0.3184 -0.8995
 7473SOL    HW234056   4.040   0.930   8.261  0.0541  0.0752  0.0518
 7474SOL     OW34057   1.723   1.030  12.505  0.3603  0.1629  0.0404
 7474SOL    HW134058   1.737   1.123  12.489 -0.5306  0.5831  1.7602
 7474SOL    HW234059   1.665   1.020  12.430  1.6871  0.0129 -0.9799
 7475SOL     OW34060   3.946   3.982   7.253 -0.2633 -0.9488  0.3935
 7475SOL    HW134061   4.025   3.927   7.255 -0.3657 -1.0019  2.3574
 7475SOL    HW234062   3.918   3.980   7.344 -0.2738  2.4196  0.4452
 7476SOL     OW34063   2.394   0.290   3.430 -0.1538  0.0176 -0.0568
 7476SOL    HW134064   2.302   0.265   3.435 -0.5573  1.4923 -0.1042
 7476SOL    HW234065   2.440   0.212   3.400  0.0580  0.3752 -0.6813
 7477SOL     OW34066   2.347   2.974   0.959  0.1310 -0.5387  0.4984
 7477SOL    HW134067   2.253   2.968   0.973  0.0847 -2.0147 -0.4828
 7477SOL    HW234068   2.359   2.959   0.865 -1.0450 -1.1146  0.4446
 7478SOL     OW34069   1.561   2.087  13.685  0.4017  0.4438 -0.6527
 7478SOL    HW134070   1.637   2.139  13.657  1.8764 -1.8516 -0.8591
 7478SOL    HW234071   1.494   2.128  13.630 -0.8865  1.3805  1.6512
 7479SOL     OW34072   4.045   3.396   6.843 -0.0572  0.0436 -0.6862
 7479SOL    HW134073   4.134   3.361   6.848  0.1244  0.3416 -1.8588
 7479SOL    HW234074   3.990   3.321   6.865  0.3489  0.2430  1.0296
 7480SOL     OW34075   1.758   3.516   8.879  0.3712 -0.2022 -0.0328
 7480SOL    HW134076   1.663   3.506   8.870  0.7305 -0.6526 -3.5198
 7480SOL    HW234077   1.774   3.598   8.925  2.0948 -0.8123  0.4405
 7481SOL     OW34078   3.399   3.963   9.248  0.1367 -0.3197 -0.4790
 7481SOL    HW134079   3.377   3.959   9.341  1.1711 -1.9897 -0.3023
 7481SOL    HW234080   3.462   4.035   9.243  0.0867 -0.2120  0.4446
 7482SOL     OW34081   0.544   2.961   8.548 -0.3039 -0.6094  0.1687
 7482SOL    HW134082   0.584   2.923   8.469  2.0911  2.0603  0.1060
 7482SOL    HW234083   0.555   3.053   8.525 -0.2216 -0.2603  1.6423
 7483SOL     OW34084   4.568   4.071   4.634 -0.4348 -0.2893 -0.1314
 7483SOL    HW134085   4.559   4.041   4.543  1.7371 -2.0349  0.2280
 7483SOL    HW234086   4.586   4.164   4.620 -1.3515 -0.1650 -0.4989
 7484SOL     OW34087   4.273   2.400   4.918  0.3131  0.0721  0.3917
 7484SOL    HW134088   4.355   2.421   4.873 -0.2842  0.5650 -0.4514
 7484SOL    HW234089   4.247   2.484   4.955 -3.1242 -1.3380  1.1417
 7485SOL     OW34090   2.128   4.604   2.934 -0.0071  0.1213  0.6582
 7485SOL    HW134091   2.062   4.606   3.004 -0.3907 -1.0629  0.3250
 7485SOL    HW234092   2.208   4.610   2.987  1.0246  0.8312 -0.9716
 7486SOL     OW34093   1.286   3.875   6.661  0.1696 -0.4575 -0.0439
 7486SOL    HW134094   1.219   3.848   6.598  1.3468 -0.0610 -1.4545
 7486SOL    HW234095   1.267   3.968   6.658 -3.9516 -1.2843  0.7732
 7487SOL     OW34096   2.450   0.261   2.769 -0.2200 -0.6952 -0.4390
 7487SOL    HW134097   2.513   0.190   2.749 -0.2556 -0.7485 -0.3597
 7487SOL    HW234098   2.459   0.279   2.862  0.6933 -1.2234 -0.4175
 7488SOL     OW34099   2.499   0.612   5.960 -0.0133 -0.4199  0.6007
 7488SOL    HW134100   2.510   0.682   5.895  1.2889 -0.6849  0.5401
 7488SOL    HW234101   2.507   0.657   6.043 -0.4547  0.3860  0.2006
 7489SOL     OW34102   2.238   4.011   6.350 -0.5096  0.4871  0.5789
 7489SOL    HW134103   2.313   4.057   6.314 -0.2057 -0.3874  0.0915
 7489SOL    HW234104   2.278   3.939   6.400  0.5047  0.1203 -0.7529
 7490SOL     OW34105   1.563   1.785   3.742  0.2566  0.5575  0.0739
 7490SOL    HW134106   1.572   1.858   3.681  0.2100  0.6608  0.1901
 7490SOL    HW234107   1.621   1.720   3.704  1.0368  0.1662  1.9479
 7491SOL     OW34108   0.435   4.689   8.992 -0.0826 -0.8528 -0.4184
 7491SOL    HW134109   0.474   4.723   9.072 -1.5275 -0.4270  0.1021
 7491SOL    HW234110   0.364   0.011   8.973  0.2293  0.0664  1.4698
 7492SOL     OW34111   1.172   1.637   4.230  0.2167  0.4344 -0.2098
 7492SOL    HW134112   1.184   1.640   4.325 -3.6211  1.4736  0.2255
 7492SOL    HW234113   1.129   1.721   4.216 -0.7170 -0.0186 -0.0399
 7493SOL     OW34114   1.901   0.846   2.142  0.3882 -0.2691 -0.1477
 7493SOL    HW134115   1.956   0.922   2.129 -0.5718  1.1203  4.0035
 7493SOL    HW234116   1.841   0.871   2.212 -2.0602 -0.1286 -2.2741
 7494SOL     OW34117   0.769   1.884   3.770  0.2172 -0.2314 -0.0650
 7494SOL    HW134118   0.763   1.832   3.690  0.4550  2.0578 -1.5750
 7494SOL    HW234119   0.678   1.912   3.781  1.1871  2.0428  2.1745
 7495SOL     OW34120   1.947   1.209   2.794  0.2262  0.1555  0.6159
 7495SOL    HW134121   1.924   1.120   2.819  0.0233  0.4783  1.5577
 7495SOL    HW234122   2.021   1.221   2.854  0.1393  0.8288  0.5879
 7496SOL     OW34123   2.092   4.563  14.745 -0.5400 -0.1649 -0.1277
 7496SOL    HW134124   2.052   4.643  14.710  0.8042  0.3321 -0.5181
 7496SOL    HW234125   2.167   4.598  14.794 -0.2545 -2.9481  1.4161
 7497SOL     OW34126   1.526   1.382   8.336 -0.0247  0.2180 -0.3777
 7497SOL    HW134127   1.568   1.319   8.395  0.9892  0.0527 -1.2663
 7497SOL    HW234128   1.445   1.398   8.383  0.5142  0.0843  0.5910
 7498SOL     OW34129   4.540   1.555   1.100  0.6725  0.2667  0.8007
 7498SOL    HW134130   4.613   1.607   1.066  0.6023 -0.1245  0.0668
 7498SOL    HW234131   4.583   1.500   1.165 -1.7644  0.0567  2.2384
 7499SOL     OW34132   1.580   1.904   2.645 -0.4496 -0.3360 -0.1715
 7499SOL    HW134133   1.569   1.879   2.554  0.4756  0.0051 -0.3835
 7499SOL    HW234134   1.617   1.823   2.682  3.3438  1.8529  0.8510
 7500SOL     OW34135   2.911   3.573   7.153 -0.3081 -0.1553 -0.0177
 7500SOL    HW134136   2.959   3.539   7.077  0.5970  0.3144  0.3446
 7500SOL    HW234137   2.858   3.643   7.114 -0.1796 -0.7521 -1.2607
 7501SOL     OW34138   2.152   0.392   1.652  0.2904  0.5886  0.3294
 7501SOL    HW134139   2.134   0.468   1.597  2.8807  0.2097 -1.0351
 7501SOL    HW234140   2.076   0.381   1.709 -0.0811  1.7954  0.0513
 7502SOL     OW34141   2.924   3.932   7.089  0.0991 -0.1412  0.1611
 7502SOL    HW134142   2.904   3.998   7.023 -1.1152 -1.3183 -0.6496
 7502SOL    HW234143   2.841   3.885   7.094  0.7938 -1.5874 -1.8050
 7503SOL     OW34144   2.754   0.711   3.950  0.3263  0.0230 -0.2392
 7503SOL    HW134145   2.767   0.639   4.013  0.4083 -1.4844 -1.9935
 7503SOL    HW234146   2.843   0.743   3.961  0.2382 -0.2887  1.4481
 7504SOL     OW34147   4.637   3.335   5.717  0.1409  0.7678  0.0191
 7504SOL    HW134148   4.616   3.385   5.795  0.3169 -2.5425  2.1832
 7504SOL    HW234149   4.726   3.304   5.733 -0.0538  0.1189 -0.1556
 7505SOL     OW34150   2.587   2.737  15.018  0.0904  0.2456  0.5948
 7505SOL    HW134151   2.675   2.713  14.988  0.7187  2.8669  0.3665
 7505SOL    HW234152   2.548   2.649  15.020  0.1317  0.2166  0.0959
 7506SOL     OW34153   2.314   1.217   3.702  0.4246 -0.0379 -0.4227
 7506SOL    HW134154   2.272   1.302   3.712  0.5665 -0.3072  2.4727
 7506SOL    HW234155   2.383   1.227   3.768  0.5638 -1.6027 -0.3342
 7507SOL     OW34156   1.610   0.706   5.202 -0.2411 -0.1820 -0.1772
 7507SOL    HW134157   1.665   0.632   5.178  0.7361 -0.0929  1.7420
 7507SOL    HW234158   1.523   0.666   5.201 -0.6193  0.6937 -1.7709
 7508SOL     OW34159   2.663   4.572   7.879 -0.2730 -0.0310  0.0262
 7508SOL    HW134160   2.725   4.645   7.881  2.0092 -1.8726 -3.1823
 7508SOL    HW234161   2.717   4.502   7.915 -1.2543  0.2329  2.0380
 7509SOL     OW34162   1.169   3.234  10.656  0.1827  0.4411 -0.1121
 7509SOL    HW134163   1.141   3.323  10.677 -1.2190  0.0478 -0.2821
 7509SOL    HW234164   1.135   3.184  10.730  0.0158 -1.0198 -1.1537
 7510SOL     OW34165   2.391   3.748   6.167 -0.0653 -0.3269 -0.1386
 7510SOL    HW134166   2.410   3.672   6.113 -2.9399 -2.6172  2.0830
 7510SOL    HW234167   2.335   3.704   6.231  0.8543  0.5326  1.2737
 7511SOL     OW34168   2.870   4.578  12.975  0.5212  0.1788  0.1298
 7511SOL    HW134169   2.915   4.504  13.015  0.3896 -0.7852 -1.5083
 7511SOL    HW234170   2.786   4.580  13.020 -0.1067 -0.4549 -1.0200
 7512SOL     OW34171   3.867   1.570   4.881 -0.1637  0.3955 -0.7151
 7512SOL    HW134172   3.831   1.486   4.854  1.1654 -0.9754  1.8232
 7512SOL    HW234173   3.898   1.610   4.799  0.9974  0.7097 -0.1266
 7513SOL     OW34174   3.361   0.345   9.360  0.5446  0.2951 -0.0981
 7513SOL    HW134175   3.279   0.343   9.409  1.6202  0.6329  1.7370
 7513SOL    HW234176   3.344   0.426   9.313 -2.3022 -0.1585  0.1498
 7514SOL     OW34177   2.106   1.974   1.576  0.6023 -0.1659 -0.6446
 7514SOL    HW134178   2.058   1.981   1.659 -1.2562 -0.8905 -1.6716
 7514SOL    HW234179   2.035   1.986   1.514  0.4943 -2.0926 -0.8940
 7515SOL     OW34180   3.504   3.791   8.177  0.7162 -0.1847 -0.1806
 7515SOL    HW134181   3.445   3.806   8.251  1.9677  0.9412  0.5988
 7515SOL    HW234182   3.499   3.861   8.112 -2.0540  0.0765  0.3227
 7516SOL     OW34183   0.689   1.887   8.918  0.1245  0.2234 -0.2081
 7516SOL    HW134184   0.737   1.839   8.985  1.3105 -0.0252 -1.2272
 7516SOL    HW234185   0.602   1.906   8.953  0.4351  1.0489  0.1136
 7517SOL     OW34186   0.936   3.728   7.948  0.3944  0.6847 -0.1085
 7517SOL    HW134187   0.869   3.790   7.978 -0.5196  1.6721 -4.2288
 7517SOL    HW234188   1.004   3.794   7.954  0.9492  0.1771 -0.7843
 7518SOL     OW34189   0.813   4.491   7.136  0.5963 -0.8763  0.5588
 7518SOL    HW134190   0.847   4.574   7.102 -0.8054 -0.9456 -1.0088
 7518SOL    HW234191   0.765   4.450   7.064  0.5464  0.4809 -0.1904
 7519SOL     OW34192   1.233   2.387   7.672  0.2995  0.3718 -0.1388
 7519SOL    HW134193   1.262   2.318   7.613  1.8093  1.0197 -0.1566
 7519SOL    HW234194   1.298   2.378   7.741 -0.2096 -2.4277 -0.0458
 7520SOL     OW34195   3.340   4.723  13.519  0.0825 -0.4085  0.2135
 7520SOL    HW134196   3.417   0.007  13.468 -0.9255 -3.5558 -2.7997
 7520SOL    HW234197   3.317   4.641  13.476  0.8901 -1.0638  1.0338
 7521SOL     OW34198   1.032   3.446   2.960  0.5457  0.3638  0.4862
 7521SOL    HW134199   0.977   3.459   2.883  1.2393  0.4589  0.0074
 7521SOL    HW234200   0.998   3.518   3.014 -3.9272 -2.2772  1.2560
 7522SOL     OW34201   3.564   0.195   4.069  0.1039 -0.0740  0.1781
 7522SOL    HW134202   3.647   0.148   4.075 -0.1753 -0.4738  0.9353
 7522SOL    HW234203   3.599   0.284   4.069  1.0311 -0.4267  1.3331
 7523SOL     OW34204   1.852   1.407   2.170 -0.5097 -0.2251 -0.5461
 7523SOL    HW134205   1.879   1.444   2.087  2.1638  0.2336  0.5312
 7523SOL    HW234206   1.895   1.321   2.173 -0.5069 -0.1359  2.4810
 7524SOL     OW34207   1.407   0.606   4.883  0.4994  0.5493  0.1234
 7524SOL    HW134208   1.475   0.605   4.816 -0.3428 -2.5319 -0.6606
 7524SOL    HW234209   1.332   0.637   4.833  1.0322  0.3531 -0.7835
 7525SOL     OW34210   2.110   1.302   8.640  0.1326  0.1257 -0.1766
 7525SOL    HW134211   2.162   1.333   8.714  0.3741  0.4774 -0.4873
 7525SOL    HW234212   2.117   1.208   8.655  0.0076  0.4551  1.9616
 7526SOL     OW34213   3.815   4.109   2.139 -0.0451 -0.1577 -0.2360
 7526SOL    HW134214   3.724   4.139   2.147 -0.4297 -1.2693 -0.4408
 7526SOL    HW234215   3.842   4.088   2.229 -1.0515 -0.0730  0.0942
 7527SOL     OW34216   4.034   0.033   9.134 -0.6013 -0.3448 -0.6059
 7527SOL    HW134217   4.094   4.724   9.189 -2.2013 -0.3019  1.1918
 7527SOL    HW234218   3.956   4.718   9.123 -0.0978 -1.2477  0.4475
 7528SOL     OW34219   2.767   3.000   2.407  0.0934 -0.6153  0.0804
 7528SOL    HW134220   2.828   2.947   2.458 -0.6055  0.5244  2.1118
 7528SOL    HW234221   2.687   2.948   2.418  0.3205 -0.6099  1.7600
 7529SOL     OW34222   4.690   0.729   3.527 -0.2892  0.5234 -0.0857
 7529SOL    HW134223   4.670   0.651   3.578 -1.4624  0.1567 -1.1089
 7529SOL    HW234224   4.622   0.708   3.463  1.2004 -2.2734 -0.7633
 7530SOL     OW34225   0.264   0.653  16.920  0.1343  0.5735 -0.8684
 7530SOL    HW134226   0.307   0.591  16.862 -1.4258 -1.0472 -0.2860
 7530SOL    HW234227   0.312   0.727  16.884  0.6902  0.8389  0.4379
 7531SOL     OW34228   4.266   3.912   3.459  0.1030 -0.5587 -0.1263
 7531SOL    HW134229   4.175   3.940   3.445  0.3113  0.5907  0.7480
 7531SOL    HW234230   4.311   3.979   3.408 -0.5928 -1.4216 -1.8605
 7532SOL     OW34231   3.841   1.686   9.927 -0.0947 -0.0192 -0.2494
 7532SOL    HW134232   3.782   1.625   9.971 -1.9307  1.5140 -0.5993
 7532SOL    HW234233   3.775   1.717   9.865 -0.8247 -2.4637 -0.6973
 7533SOL     OW34234   1.044   3.051   6.701 -0.0752 -0.3001 -0.5134
 7533SOL    HW134235   1.125   3.006   6.720  0.0141  1.3482  3.1677
 7533SOL    HW234236   0.993   2.991   6.756  1.2426  0.7646  1.8711
 7534SOL     OW34237   4.446   0.086  11.608  0.1970  0.7609 -0.1229
 7534SOL    HW134238   4.540   0.099  11.599  0.5544  0.4639  3.2638
 7534SOL    HW234239   4.421   0.175  11.584  2.0132  1.1778 -0.4765
 7535SOL     OW34240   4.353   4.207  13.755 -0.1458 -0.6352  0.1779
 7535SOL    HW134241   4.419   4.276  13.744 -2.7021  2.2156  2.6390
 7535SOL    HW234242   4.408   4.134  13.726  0.2417 -0.2168 -0.1487
 7536SOL     OW34243   2.482   3.982   7.538 -0.5903 -0.5937 -0.0468
 7536SOL    HW134244   2.456   3.907   7.591  1.7923 -1.0552  0.4515
 7536SOL    HW234245   2.489   4.052   7.602 -1.7397 -0.7062  0.2021
 7537SOL     OW34246   0.506   3.471   4.017 -0.0343  0.2429  0.5910
 7537SOL    HW134247   0.429   3.504   3.971 -1.5065 -1.8656  1.5159
 7537SOL    HW234248   0.574   3.468   3.950  0.9845 -0.8871  1.6621
 7538SOL     OW34249   4.221   2.467   5.917 -0.3190 -0.7646  0.1262
 7538SOL    HW134250   4.283   2.480   5.989 -1.8032 -1.6173  1.5668
 7538SOL    HW234251   4.217   2.371   5.916  1.7585 -0.8771  1.7767
 7539SOL     OW34252   1.090   1.911   4.237 -0.4521  0.2680 -0.1956
 7539SOL    HW134253   1.175   1.889   4.275  0.4579  0.3320 -2.2023
 7539SOL    HW234254   1.111   2.003   4.217  1.7902 -0.1763  0.1212
 7540SOL     OW34255   2.622   2.882   2.103  0.1319 -0.2797  0.1430
 7540SOL    HW134256   2.648   2.945   2.036  1.1347 -0.1961  0.6013
 7540SOL    HW234257   2.711   2.878   2.138  0.0511  0.2611  0.4114
 7541SOL     OW34258   0.210   4.544   1.153 -0.4196 -0.3469  0.3055
 7541SOL    HW134259   0.131   4.501   1.121 -0.2531 -2.2436  2.4850
 7541SOL    HW234260   0.202   4.538   1.248 -0.1579  2.2217  0.4882
 7542SOL     OW34261   0.727   1.800  14.384  0.2861 -0.1951 -0.5301
 7542SOL    HW134262   0.712   1.706  14.388 -2.1425  0.2194 -0.0382
 7542SOL    HW234263   0.778   1.803  14.303  1.3157 -0.7715  0.1029
 7543SOL     OW34264   1.896   1.400  13.086  0.0119  0.0404 -0.1500
 7543SOL    HW134265   1.801   1.397  13.075 -0.1850 -1.4367  1.9078
 7543SOL    HW234266   1.910   1.495  13.081 -1.5852  0.2368 -0.7841
 7544SOL     OW34267   0.351   3.403   0.964 -0.1480 -0.7612 -0.2588
 7544SOL    HW134268   0.421   3.339   0.951  0.9461  0.8620 -2.3502
 7544SOL    HW234269   0.312   3.376   1.047  0.7390 -0.2843  0.3118
 7545SOL     OW34270   4.331   1.307   5.082  0.1982 -0.5624 -0.5495
 7545SOL    HW134271   4.361   1.291   5.172  0.9286 -1.0033 -0.8713
 7545SOL    HW234272   4.400   1.361   5.045 -0.0604  1.0380  1.2907
 7546SOL     OW34273   0.612   2.132   9.108  0.0798 -0.1969  0.1105
 7546SOL    HW134274   0.562   2.210   9.129 -0.9566 -0.0721 -2.8557
 7546SOL    HW234275   0.545   2.082   9.063  0.8180 -1.6452  0.5913
 7547SOL     OW34276   3.077   4.191   4.759 -0.3410 -0.3695  0.0378
 7547SOL    HW134277   3.015   4.169   4.829  2.0393  0.1768  2.3408
 7547SOL    HW234278   3.103   4.280   4.784  0.7144 -0.8910  0.7851
 7548SOL     OW34279   3.671   3.154   3.833 -0.8904  0.2978  0.0035
 7548SOL    HW134280   3.688   3.127   3.923  1.4299 -1.6410 -1.0265
 7548SOL    HW234281   3.613   3.227   3.853 -1.6013 -1.2245  3.4621
 7549SOL     OW34282   4.319   4.638  12.608  0.0224 -0.3337  0.0194
 7549SOL    HW134283   4.300   4.617  12.516 -0.3910 -0.9650  0.2537
 7549SOL    HW234284   4.394   4.696  12.595 -0.3089 -0.3518 -2.0051
 7550SOL     OW34285   4.161   2.386  13.851 -0.5071 -0.6785 -0.3267
 7550SOL    HW134286   4.143   2.472  13.813 -0.3545 -0.8834 -0.8585
 7550SOL    HW234287   4.133   2.324  13.784 -0.1258  0.1947 -1.2898
 7551SOL     OW34288   2.913   2.795   4.167 -0.6894 -0.3498  0.1821
 7551SOL    HW134289   2.917   2.708   4.207  1.8497 -0.3845 -0.1365
 7551SOL    HW234290   2.910   2.768   4.075  0.7586 -0.7896  0.2586
 7552SOL     OW34291   1.619   3.830   8.641  0.2300  0.2085 -0.4250
 7552SOL    HW134292   1.704   3.862   8.669  0.8804 -2.2738  0.4308
 7552SOL    HW234293   1.630   3.763   8.574 -2.0817 -2.0664  1.4574
 7553SOL     OW34294   1.540   0.225   7.194 -0.1042 -0.2648 -0.7476
 7553SOL    HW134295   1.609   0.279   7.156 -0.2042  1.5847  1.6758
 7553SOL    HW234296   1.464   0.228   7.136  0.3847  1.1607 -1.3017
 7554SOL     OW34297   4.273   1.694   2.547 -0.0206  0.6933 -0.2129
 7554SOL    HW134298   4.311   1.651   2.470 -0.0855 -0.0956  0.2031
 7554SOL    HW234299   4.181   1.710   2.530 -0.1881  1.7032  1.6116
 7555SOL     OW34300   0.150   4.184   9.329 -0.3016  0.6670 -0.5483
 7555SOL    HW134301   0.139   4.096   9.293  0.2832  0.3414  0.0631
 7555SOL    HW234302   0.199   4.169   9.410 -0.1194  1.7667 -0.4567
 7556SOL     OW34303   2.942   2.365  16.420 -0.4428  0.0343  0.0518
 7556SOL    HW134304   3.013   2.418  16.384 -0.6987  0.3981  0.0774
 7556SOL    HW234305   2.961   2.281  16.378 -0.2959  1.3341 -2.4941
 7557SOL     OW34306   2.356   2.575  16.223  0.4763 -0.8077 -0.0665
 7557SOL    HW134307   2.413   2.591  16.148 -0.6540 -2.8544 -1.3310
 7557SOL    HW234308   2.413   2.596  16.298  0.8344 -0.4884 -0.4286
 7558SOL     OW34309   1.832   0.862   1.405 -0.1226  0.0459 -0.0849
 7558SOL    HW134310   1.845   0.807   1.482 -1.6245  0.0489  0.1716
 7558SOL    HW234311   1.777   0.803   1.354 -1.0501  1.2999 -0.5225
 7559SOL     OW34312   2.359   3.074   8.080 -0.2314  0.2853  0.3914
 7559SOL    HW134313   2.267   3.071   8.055  0.3412  0.4042 -1.7589
 7559SOL    HW234314   2.391   3.113   7.999 -1.0471 -1.7319 -0.9007
 7560SOL     OW34315   1.744   2.595   1.264  0.7534  0.0528 -0.2088
 7560SOL    HW134316   1.745   2.514   1.213 -2.0543 -1.2566  1.8212
 7560SOL    HW234317   1.774   2.565   1.351 -0.5481  1.9994  0.9015
 7561SOL     OW34318   2.119   2.225  15.146 -0.1714 -0.1773 -0.3331
 7561SOL    HW134319   2.202   2.258  15.112 -0.2934  2.1068  1.5645
 7561SOL    HW234320   2.100   2.151  15.089 -0.5570 -0.6795  0.4434
 7562SOL     OW34321   0.088   2.597   7.119  0.0667  0.5397  0.2730
 7562SOL    HW134322   0.106   2.641   7.035  0.0058  0.4371  0.2064
 7562SOL    HW234323   0.153   2.642   7.174 -0.2994  1.7272 -0.2624
 7563SOL     OW34324   2.882   4.391  16.399  0.4168 -0.1537 -0.3563
 7563SOL    HW134325   2.824   4.325  16.437 -0.8869  0.5670 -1.0818
 7563SOL    HW234326   2.898   4.452  16.472 -2.0280  0.7543 -0.5760
 7564SOL     OW34327   0.920   3.833   1.419  0.0930  0.2994 -0.1527
 7564SOL    HW134328   0.949   3.795   1.502 -1.2988 -1.5310 -0.5150
 7564SOL    HW234329   0.913   3.923   1.450  0.4622  0.2164  0.1750
 7565SOL     OW34330   1.771   0.489   5.153 -0.0234  0.0652  0.0591
 7565SOL    HW134331   1.820   0.467   5.232 -0.7875 -2.0469 -0.0540
 7565SOL    HW234332   1.740   0.405   5.120 -0.1670  0.3787 -0.6117
 7566SOL     OW34333   0.089   0.634   6.855  0.1763  0.5077  0.1735
 7566SOL    HW134334   0.081   0.546   6.891  0.7260  0.5959  0.5026
 7566SOL    HW234335   0.010   0.676   6.890  0.8376  3.0169 -1.3474
 7567SOL     OW34336   2.724   0.998  12.375 -0.0933 -0.0908 -0.2574
 7567SOL    HW134337   2.690   0.983  12.464 -1.4592  1.3044 -0.5510
 7567SOL    HW234338   2.746   1.090  12.383  0.5730 -0.2043 -0.8627
 7568SOL     OW34339   1.740   2.376   2.991 -0.4737 -0.4302 -0.4385
 7568SOL    HW134340   1.691   2.404   2.913 -2.6787 -1.9863  0.3855
 7568SOL    HW234341   1.758   2.457   3.038  0.0627 -0.9580  0.2694
 7569SOL     OW34342   3.302   3.582   8.877  0.2441  0.2872 -0.1436
 7569SOL    HW134343   3.207   3.577   8.868  0.3650  0.2034 -1.3372
 7569SOL    HW234344   3.316   3.654   8.938  0.2410  0.8106 -0.7643
 7570SOL     OW34345   3.187   1.433   5.663  0.1694 -0.1529 -0.8486
 7570SOL    HW134346   3.184   1.520   5.703 -2.1259 -1.0420  0.9102
 7570SOL    HW234347   3.223   1.371   5.726 -1.5206  0.4957  0.7675
 7571SOL     OW34348   4.258   1.097   4.923 -0.1997 -0.1206 -0.6410
 7571SOL    HW134349   4.163   1.082   4.928 -0.5318  1.3254 -2.5183
 7571SOL    HW234350   4.268   1.174   4.979  0.9987  0.4438 -1.6261
 7572SOL     OW34351   3.106   3.007   5.084  0.4227  0.6895 -0.4951
 7572SOL    HW134352   3.063   2.995   5.169 -2.4830 -0.4181 -2.0930
 7572SOL    HW234353   3.088   2.926   5.035  0.9483 -0.3025  0.9613
 7573SOL     OW34354   3.832   4.663  16.978  0.4048  0.2656 -0.2244
 7573SOL    HW134355   3.925   4.687  16.972  0.3973  0.1409 -0.8774
 7573SOL    HW234356   3.839   4.604  17.053  1.6238  1.1554  0.3668
 7574SOL     OW34357   3.088   3.634   4.348  0.0710  0.1652  0.0733
 7574SOL    HW134358   3.156   3.700   4.332 -1.0106  0.9993 -1.1366
 7574SOL    HW234359   3.020   3.695   4.379  0.5017  2.1135 -2.8567
 7575SOL     OW34360   0.615   0.990   0.698  0.1008  0.6481 -0.8602
 7575SOL    HW134361   0.556   1.055   0.662  0.1300  0.5443 -1.0928
 7575SOL    HW234362   0.625   1.018   0.789 -3.0223 -0.1266 -0.3056
 7576SOL     OW34363   0.589   3.620   7.917  0.3552 -0.0982  0.0592
 7576SOL    HW134364   0.500   3.626   7.953 -0.6352  1.9210 -2.7145
 7576SOL    HW234365   0.643   3.585   7.988 -0.2541 -0.8093  0.1713
 7577SOL     OW34366   2.547   3.009   9.738  0.7242 -0.0239 -0.2249
 7577SOL    HW134367   2.514   3.034   9.824 -1.7012  1.5110 -1.6180
 7577SOL    HW234368   2.627   2.961   9.759 -0.3654 -0.9174  1.8529
 7578SOL     OW34369   0.280   3.765   4.677  0.1535  0.1599 -0.1484
 7578SOL    HW134370   0.320   3.680   4.658 -1.9300 -0.7743 -0.3520
 7578SOL    HW234371   0.210   3.768   4.612 -1.5170 -1.1943  1.5940
 7579SOL     OW34372   0.243   3.255   2.635  0.0691  0.2447 -0.1019
 7579SOL    HW134373   0.334   3.237   2.657  0.8592  3.0246 -1.0305
 7579SOL    HW234374   0.209   3.175   2.596  1.4157  0.6142 -2.0655
 7580SOL     OW34375   3.058   4.177  15.325 -0.2701 -0.3259  0.3491
 7580SOL    HW134376   3.087   4.088  15.304 -1.9121 -1.0621  1.2357
 7580SOL    HW234377   3.146   4.211  15.344 -0.5595  0.3869  0.4200
 7581SOL     OW34378   3.590   4.235   7.889  0.4632  0.9088  0.0443
 7581SOL    HW134379   3.620   4.270   7.973  0.0098  2.2326 -0.3513
 7581SOL    HW234380   3.638   4.152   7.891  0.3628  0.9093  2.0829
 7582SOL     OW34381   0.193   4.166  11.644  0.2343 -0.2515 -0.1513
 7582SOL    HW134382   0.130   4.208  11.704  3.9249  1.6311  2.4059
 7582SOL    HW234383   0.269   4.224  11.637  0.2177 -0.3734 -1.3244
 7583SOL     OW34384   1.914   0.702  12.814 -0.5502 -0.3636 -0.0411
 7583SOL    HW134385   1.991   0.648  12.797  1.6575  2.5380  0.6739
 7583SOL    HW234386   1.871   0.702  12.728 -2.9694 -2.3651  1.1957
 7584SOL     OW34387   0.936   0.100   8.778  0.6353 -0.1774  0.1725
 7584SOL    HW134388   0.893   0.036   8.835  0.7259 -0.5355 -0.1579
 7584SOL    HW234389   0.887   0.107   8.696  1.9160 -0.6195 -0.6373
 7585SOL     OW34390   0.804   0.281   9.087  0.5426 -0.0332  0.3491
 7585SOL    HW134391   0.800   0.344   9.158 -2.5504  0.3045 -0.1241
 7585SOL    HW234392   0.881   0.226   9.097 -0.1989 -0.9543  1.0543
 7586SOL     OW34393   3.168   2.180   5.367  0.0966  0.2648 -0.0140
 7586SOL    HW134394   3.119   2.101   5.389 -0.5151  0.8447  0.6735
 7586SOL    HW234395   3.158   2.243   5.439  0.0534  0.3628 -0.1074
 7587SOL     OW34396   1.892   4.731  13.249  0.0621  0.3265 -0.2339
 7587SOL    HW134397   1.911   0.003  13.157  3.5160 -0.2503  0.4021
 7587SOL    HW234398   1.865   4.639  13.250 -0.2521  0.4215  0.0985
 7588SOL     OW34399   1.385   4.037   7.513 -0.3994 -0.4697 -0.2330
 7588SOL    HW134400   1.476   4.015   7.492 -0.1497 -1.2134  1.6124
 7588SOL    HW234401   1.338   3.998   7.439  1.2774 -0.7829 -1.1272
 7589SOL     OW34402   3.111   3.533  15.641  0.0178  0.3878  0.3953
 7589SOL    HW134403   3.154   3.569  15.719 -0.3823  0.4253  0.5953
 7589SOL    HW234404   3.162   3.568  15.567  0.8474  0.0405  0.7984
 7590SOL     OW34405   0.982   1.769   6.126  0.2669  0.1479  0.5589
 7590SOL    HW134406   1.022   1.686   6.153  0.2913 -0.0144  0.0244
 7590SOL    HW234407   1.052   1.830   6.152  0.0183  0.9644 -0.7071
 7591SOL     OW34408   4.149   2.497   3.030 -0.3390  0.6719 -0.0561
 7591SOL    HW134409   4.181   2.587   3.039 -0.3332  0.5624  1.0401
 7591SOL    HW234410   4.165   2.455   3.114  1.7719  0.1903 -0.6957
 7592SOL     OW34411   2.074   2.791   2.543  0.1700 -0.1065  0.3159
 7592SOL    HW134412   2.113   2.718   2.591 -1.7153 -0.5441  1.1738
 7592SOL    HW234413   1.997   2.746   2.509 -0.2259  1.2400 -0.5769
 7593SOL     OW34414   3.892   3.927  16.810 -0.4947  0.3262  0.0937
 7593SOL    HW134415   3.812   3.972  16.838 -1.3414 -1.2898  0.3011
 7593SOL    HW234416   3.956   3.992  16.836  0.4923  0.2449 -2.1274
 7594SOL     OW34417   0.015   1.567   5.768 -0.0306 -0.3491 -0.0709
 7594SOL    HW134418   4.728   1.476   5.755  0.9124 -0.3941 -1.7817
 7594SOL    HW234419   4.679   1.621   5.745 -0.1885 -0.3321  0.5055
 7595SOL     OW34420   0.743   4.535   1.805 -0.4197 -0.6271  0.3865
 7595SOL    HW134421   0.714   4.606   1.863 -2.3171 -1.3955  0.3830
 7595SOL    HW234422   0.786   4.581   1.733 -0.0990 -2.3673 -0.5329
 7596SOL     OW34423   4.058   3.714   7.258  0.2715  0.0827  0.2261
 7596SOL    HW134424   4.124   3.668   7.311 -1.3157  1.7997  3.7378
 7596SOL    HW234425   3.990   3.647   7.251 -0.2792  0.5711  0.9054
 7597SOL     OW34426   0.086   3.371   6.077  0.3753 -0.2139  0.1494
 7597SOL    HW134427   0.131   3.455   6.065 -0.1089 -0.2027 -1.6787
 7597SOL    HW234428   0.017   3.391   6.139  1.5950  2.3261  0.6923
 7598SOL     OW34429   4.636   0.172   8.160  0.1641  0.2870 -0.5646
 7598SOL    HW134430   4.561   0.165   8.220  2.1255 -3.5436  1.4573
 7598SOL    HW234431   4.612   0.132   8.076 -0.9324  0.8402 -0.5202
 7599SOL     OW34432   3.888   1.164   4.152  0.3097 -0.6517 -0.2783
 7599SOL    HW134433   3.870   1.211   4.071  1.1511  3.2133  1.7819
 7599SOL    HW234434   3.964   1.213   4.184 -1.5203  2.0234 -0.1270
 7600SOL     OW34435   4.609   4.422  15.603 -0.2967 -0.5940 -0.5904
 7600SOL    HW134436   4.605   4.406  15.697 -1.1209 -0.7129 -0.6441
 7600SOL    HW234437   4.515   4.436  15.586  0.1059  0.3079 -2.0718
 7601SOL     OW34438   3.821   0.102   1.796  0.2145  0.0989  0.1620
 7601SOL    HW134439   3.795   0.043   1.867 -2.4135 -0.1831 -1.0059
 7601SOL    HW234440   3.915   0.096   1.810  0.0302 -1.1854  0.8375
 7602SOL     OW34441   1.680   4.400  16.482  0.1526 -0.1914 -0.7922
 7602SOL    HW134442   1.726   4.483  16.495  1.8332 -1.1486 -0.6842
 7602SOL    HW234443   1.590   4.425  16.502  0.2369  0.5798 -1.3301
 7603SOL     OW34444   0.434   0.210   4.731 -0.3288  0.0294 -0.2588
 7603SOL    HW134445   0.341   0.206   4.710 -0.5937 -1.2399  1.1102
 7603SOL    HW234446   0.443   0.285   4.791 -0.5368 -2.2399  2.6302
 7604SOL     OW34447   0.731   0.438   0.806  0.3431 -0.3351 -0.3443
 7604SOL    HW134448   0.639   0.414   0.794  1.2468 -2.8072 -2.3519
 7604SOL    HW234449   0.721   0.533   0.817  0.5448 -0.4395  0.7675
 7605SOL     OW34450   4.716   0.469  12.992 -0.4858 -0.1846 -0.5761
 7605SOL    HW134451   4.694   0.455  13.084 -1.3842  0.3262 -0.7078
 7605SOL    HW234452   4.708   0.565  12.987 -0.5014 -0.1264  0.4793
 7606SOL     OW34453   2.618   4.168   7.283 -0.0730  0.3160  0.0970
 7606SOL    HW134454   2.580   4.183   7.370  0.3884  1.7226  0.0535
 7606SOL    HW234455   2.687   4.234   7.293  1.3680 -1.0999 -0.5404
 7607SOL     OW34456   4.106   3.570   6.620 -0.1769 -0.2417  0.2512
 7607SOL    HW134457   4.082   3.522   6.699  0.3743  0.6313  0.9527
 7607SOL    HW234458   4.118   3.661   6.647 -0.2311  0.5242 -2.2604
 7608SOL     OW34459   3.293   1.091  11.451 -0.4185  0.1192  0.6999
 7608SOL    HW134460   3.371   1.062  11.498 -0.2283  2.2899  1.6953
 7608SOL    HW234461   3.265   1.152  11.519 -3.5573 -0.0574 -0.4461
 7609SOL     OW34462   3.296   1.399   3.135  0.2794  0.3152 -0.1122
 7609SOL    HW134463   3.334   1.483   3.110 -1.0194 -0.1659 -3.7197
 7609SOL    HW234464   3.205   1.422   3.113  0.0746  0.5112  0.9240
 7610SOL     OW34465   1.952   4.305   2.110 -0.0000 -0.4990 -0.3701
 7610SOL    HW134466   2.027   4.288   2.167 -2.3737 -1.8175  2.4187
 7610SOL    HW234467   1.926   4.392   2.141  1.5157 -0.2324  0.1542
 7611SOL     OW34468   4.486   4.299  14.902 -0.4819 -0.0387 -0.0033
 7611SOL    HW134469   4.443   4.370  14.856  1.7332  0.9654 -0.5264
 7611SOL    HW234470   4.576   4.306  14.869 -0.0917 -0.1519  1.0304
 7612SOL     OW34471   0.346   0.035  14.659 -0.0209  0.6172  0.3392
 7612SOL    HW134472   0.373   0.109  14.605  0.3438  0.5611  0.4427
 7612SOL    HW234473   0.354   4.699  14.601 -0.4464  0.8037  0.0444
 7613SOL     OW34474   3.976   0.336   3.653 -0.2388  0.1274  0.1918
 7613SOL    HW134475   3.901   0.393   3.669 -0.0910 -0.1422  1.8521
 7613SOL    HW234476   3.979   0.370   3.563  1.5867  1.3581  0.7260
 7614SOL     OW34477   4.725   1.025  17.688  0.2314  0.7307  0.7509
 7614SOL    HW134478   0.066   0.973  17.690  0.5764  1.2636  0.5742
 7614SOL    HW234479   4.731   1.073  17.606 -1.9623 -0.2774  0.0094
 7615SOL     OW34480   3.224   1.241  16.437  0.0897  0.3148  0.1620
 7615SOL    HW134481   3.253   1.230  16.527 -2.2347 -0.4075  0.8274
 7615SOL    HW234482   3.131   1.253  16.455  0.4423  1.2698  1.3739
 7616SOL     OW34483   3.610   4.350  11.375 -0.1881  0.6827 -0.0870
 7616SOL    HW134484   3.623   4.259  11.402  0.6594 -0.1410 -3.3002
 7616SOL    HW234485   3.540   4.377  11.435  1.1086  3.3378  0.2433
 7617SOL     OW34486   4.468   4.007  17.550 -0.4907  0.6832  0.1041
 7617SOL    HW134487   4.445   3.921  17.586  0.2352  0.0998 -0.8477
 7617SOL    HW234488   4.492   3.996  17.458  1.0878 -1.1221  0.7367
 7618SOL     OW34489   0.275   1.565   3.244 -0.6555 -0.1586  0.4616
 7618SOL    HW134490   0.180   1.575   3.256 -0.4843  0.9504  0.8760
 7618SOL    HW234491   0.280   1.562   3.148  2.5148 -0.4560  0.6521
 7619SOL     OW34492   2.066   0.425   5.158 -0.3948 -0.6121 -0.0309
 7619SOL    HW134493   2.078   0.458   5.069 -1.2353 -0.2419  0.0018
 7619SOL    HW234494   2.016   0.488   5.209 -0.5047 -1.7653  1.2702
 7620SOL     OW34495   4.190   1.347   7.684  0.4319  0.4815  0.0512
 7620SOL    HW134496   4.224   1.262   7.657 -0.4931 -0.0511  0.5705
 7620SOL    HW234497   4.155   1.384   7.603  0.6641 -1.9812 -1.1891
 7621SOL     OW34498   1.615   1.689   7.975 -0.6617  0.2041 -0.2534
 7621SOL    HW134499   1.624   1.668   7.882  0.8786  1.7212 -0.4380
 7621SOL    HW234500   1.661   1.613   8.011 -0.4033 -0.9947 -3.0825
 7622SOL     OW34501   3.390   4.162  13.199 -0.1945  0.0526  0.2688
 7622SOL    HW134502   3.322   4.225  13.222  1.5284  2.3422 -0.9935
 7622SOL    HW234503   3.444   4.218  13.144 -2.5925 -0.4343 -2.5616
 7623SOL     OW34504   3.102   2.743   7.127 -0.1197  0.6492 -1.4246
 7623SOL    HW134505   3.174   2.806   7.136 -0.7886  1.5284 -2.1237
 7623SOL    HW234506   3.137   2.675   7.070 -2.4915 -1.1181 -0.7342
 7624SOL     OW34507   3.564   3.989   7.072  0.2335 -0.5288 -0.1437
 7624SOL    HW134508   3.642   3.937   7.090  0.4086 -0.0319  0.5303
 7624SOL    HW234509   3.591   4.067   7.120 -0.3279  0.0081 -0.6932
 7625SOL     OW34510   0.800   1.817   5.438  0.4952  0.5532  0.7855
 7625SOL    HW134511   0.786   1.774   5.354  1.7517  2.6034 -0.4720
 7625SOL    HW234512   0.871   1.878   5.417  0.7101 -0.3399 -1.1026
 7626SOL     OW34513   1.067   3.831   1.180  1.1174  0.2027 -0.5235
 7626SOL    HW134514   0.999   3.892   1.153  0.2478 -0.7833 -0.5758
 7626SOL    HW234515   1.048   3.811   1.271  0.9765 -0.8000 -0.7697
 7627SOL     OW34516   1.728   2.415   4.691  0.2549  0.4418  0.1256
 7627SOL    HW134517   1.660   2.352   4.667 -1.2891  0.9285  3.1514
 7627SOL    HW234518   1.677   2.487   4.729 -0.5115 -0.3907  0.6610
 7628SOL     OW34519   2.696   4.191   8.605 -0.5039 -0.3287  0.1626
 7628SOL    HW134520   2.773   4.189   8.662  1.3002  0.7794 -2.2237
 7628SOL    HW234521   2.638   4.130   8.649  0.4250  0.6495  2.7366
 7629SOL     OW34522   3.781   3.681   7.847 -0.5733  0.1451  0.2652
 7629SOL    HW134523   3.704   3.675   7.789 -2.1145  1.5505  2.1679
 7629SOL    HW234524   3.848   3.645   7.789  1.9884  1.7729  2.2063
 7630SOL     OW34525   2.090   0.684   7.406 -0.5308 -1.0796 -0.2350
 7630SOL    HW134526   2.037   0.762   7.395  0.2413 -0.5112  0.0942
 7630SOL    HW234527   2.179   0.715   7.389  0.0161 -2.2689  0.4402
 7631SOL     OW34528   0.481   4.191   3.640  0.0911  0.2930  0.1656
 7631SOL    HW134529   0.456   4.271   3.686  1.4238 -1.3446  3.7121
 7631SOL    HW234530   0.514   4.146   3.718 -0.0938 -0.1530 -0.0130
 7632SOL     OW34531   4.135   3.143   5.507 -0.3280  0.2742  0.1796
 7632SOL    HW134532   4.183   3.220   5.475  0.6926 -1.4641 -2.3954
 7632SOL    HW234533   4.082   3.111   5.435 -0.2217  2.9448 -1.0909
 7633SOL     OW34534   1.969   3.649   1.771  0.7244  0.1571 -0.1902
 7633SOL    HW134535   2.047   3.645   1.717  0.4259 -0.1075 -0.6072
 7633SOL    HW234536   2.000   3.700   1.846  0.1944 -0.2796  0.3355
 7634SOL     OW34537   0.256   0.110  14.056 -0.6652  0.0077 -0.2905
 7634SOL    HW134538   0.182   0.073  14.007 -0.7089 -0.1103 -0.1353
 7634SOL    HW234539   0.329   0.068  14.011  0.0633  1.0766 -0.1143
 7635SOL     OW34540   4.571   2.619   5.623 -0.0446  0.1360 -0.2815
 7635SOL    HW134541   4.637   2.689   5.628  1.8966 -1.5747 -1.5610
 7635SOL    HW234542   4.519   2.645   5.547 -3.3328 -1.0800  1.6122
 7636SOL     OW34543   4.439   2.842   5.745  0.3070 -0.9375 -0.5690
 7636SOL    HW134544   4.373   2.865   5.679  0.1071  0.8107  0.2387
 7636SOL    HW234545   4.521   2.839   5.694  0.3168  0.4108 -0.6471
 7637SOL     OW34546   3.097   3.217   5.628 -0.0115  0.5199 -0.0735
 7637SOL    HW134547   3.049   3.293   5.660 -1.0269  1.1078 -2.9758
 7637SOL    HW234548   3.124   3.178   5.711  0.3756  1.1296  0.0889
 7638SOL     OW34549   4.397   0.479   0.774 -0.4430  0.2365  0.2014
 7638SOL    HW134550   4.344   0.536   0.829 -1.1975  0.7533 -1.0682
 7638SOL    HW234551   4.348   0.401   0.747 -1.6852  0.8075  0.8251
 7639SOL     OW34552   2.352   3.380   6.204  0.1353  0.4607  0.5769
 7639SOL    HW134553   2.436   3.425   6.198  0.9182 -1.1458 -0.5450
 7639SOL    HW234554   2.314   3.401   6.118 -2.6182 -0.4551  1.5501
 7640SOL     OW34555   0.287   1.178   3.582 -0.5382  0.0563  0.0455
 7640SOL    HW134556   0.264   1.251   3.639 -1.9547 -1.1369  1.0160
 7640SOL    HW234557   0.319   1.227   3.506  1.4598 -0.3219  0.6695
 7641SOL     OW34558   2.866   3.065  15.025  0.5492  0.1388 -0.0120
 7641SOL    HW134559   2.821   3.019  14.954 -2.2039 -0.2010  1.9548
 7641SOL    HW234560   2.798   3.074  15.092 -0.2155 -0.2412 -0.7308
 7642SOL     OW34561   0.033   1.605  10.051  0.5313  0.6989 -0.0819
 7642SOL    HW134562   0.002   1.520  10.081  0.7788 -0.4897 -3.1584
 7642SOL    HW234563   0.031   1.596   9.956  1.4624  0.4628 -0.0755
 7643SOL     OW34564   2.614   3.788   5.782  0.6092  0.2066 -0.0199
 7643SOL    HW134565   2.620   3.863   5.724  0.5229  0.1248 -0.1319
 7643SOL    HW234566   2.526   3.800   5.818 -0.8619 -0.9811 -3.3306
 7644SOL     OW34567   4.095   2.202   4.882 -0.1494  0.2327 -0.1638
 7644SOL    HW134568   4.130   2.289   4.865  1.2303 -0.2837  0.0124
 7644SOL    HW234569   4.064   2.208   4.972  0.1787 -0.0746 -0.0307
 7645SOL     OW34570   0.984   1.451  11.626  0.0253  0.9553 -0.2306
 7645SOL    HW134571   0.937   1.442  11.544 -0.1704 -0.2040  0.0031
 7645SOL    HW234572   1.072   1.460  11.591 -0.2728  2.6670 -0.5588
 7646SOL     OW34573   0.230   3.073  13.850 -0.4916  0.6620  0.1879
 7646SOL    HW134574   0.314   3.097  13.891 -0.9630 -1.3978  2.3416
 7646SOL    HW234575   0.168   3.125  13.902  0.3284  0.9558  0.8791
 7647SOL     OW34576   3.158   3.172   7.143 -0.1317  0.7527  0.3835
 7647SOL    HW134577   3.206   3.214   7.072  0.1985 -1.8405 -0.9384
 7647SOL    HW234578   3.104   3.104   7.103  0.5542  0.0830  0.5828
 7648SOL     OW34579   3.954   1.934   6.427 -0.4685  0.4561  0.0065
 7648SOL    HW134580   3.970   1.903   6.517 -0.5764  2.7611  0.8126
 7648SOL    HW234581   3.976   2.026   6.437 -1.4585  0.7009 -0.1396
 7649SOL     OW34582   1.781   0.751   5.565 -0.3486 -0.0314  0.2007
 7649SOL    HW134583   1.868   0.754   5.604  0.2798  1.1501 -1.2596
 7649SOL    HW234584   1.735   0.702   5.632 -0.1095  1.2485  1.2956
 7650SOL     OW34585   0.783   4.237   6.917 -0.2491 -0.7243  0.2170
 7650SOL    HW134586   0.756   4.264   6.829 -1.4176  0.5026  0.9426
 7650SOL    HW234587   0.868   4.281   6.910 -0.6625  0.1855  0.8802
 7651SOL     OW34588   4.709   1.034   3.109  0.6139  0.1439  0.4325
 7651SOL    HW134589   4.660   0.954   3.088  0.7719  0.8102 -2.5251
 7651SOL    HW234590   4.668   1.101   3.054  1.1816  0.1581  0.0292
 7652SOL     OW34591   4.075   4.387   6.075 -0.1290  0.5840 -0.5715
 7652SOL    HW134592   3.984   4.409   6.058 -0.0532 -0.5087 -2.3967
 7652SOL    HW234593   4.099   4.346   5.992  0.3640  1.1409 -0.7035
 7653SOL     OW34594   1.489   1.193   2.457  0.7634  0.3333 -0.3557
 7653SOL    HW134595   1.436   1.190   2.378  1.0191 -0.6775 -0.4929
 7653SOL    HW234596   1.574   1.222   2.422  0.8607 -0.3914 -0.7146
 7654SOL     OW34597   3.055   3.066   3.937 -0.3992 -0.4273 -0.8133
 7654SOL    HW134598   2.984   3.059   3.874 -1.1693 -1.7786  0.2091
 7654SOL    HW234599   3.011   3.032   4.015  1.2327  0.5859  0.5494
 7655SOL     OW34600   2.622   2.067  12.908 -0.0398 -0.0427 -0.0522
 7655SOL    HW134601   2.634   2.000  12.840 -1.5628  0.4100 -0.7736
 7655SOL    HW234602   2.708   2.107  12.917  0.6728 -1.5755 -0.1010
 7656SOL     OW34603   0.399   0.186  17.672 -0.4633  0.5732 -0.3474
 7656SOL    HW134604   0.484   0.166  17.631 -0.4888 -0.0210 -0.1215
 7656SOL    HW234605   0.405   0.130  17.750 -0.9893  0.7639 -0.1752
 7657SOL     OW34606   1.569   3.428   3.045 -0.3464  0.4964  0.1307
 7657SOL    HW134607   1.489   3.415   2.993 -1.8724 -1.0514  2.8917
 7657SOL    HW234608   1.532   3.461   3.127 -0.7261 -2.2888  1.0756
 7658SOL     OW34609   1.472   3.086   3.943  0.3821 -0.5541 -0.8238
 7658SOL    HW134610   1.464   3.009   3.999  0.3560  1.7394  2.3390
 7658SOL    HW234611   1.560   3.109   3.975  0.5710 -1.2628 -0.8497
 7659SOL     OW34612   4.017   0.452   5.090  0.2937  0.0708 -0.0347
 7659SOL    HW134613   4.086   0.426   5.028  0.0737 -0.9461  0.1494
 7659SOL    HW234614   4.077   0.469   5.162 -1.1884  1.2993  0.9058
 7660SOL     OW34615   2.359   3.563   4.124  0.2897  0.4273  0.0553
 7660SOL    HW134616   2.403   3.486   4.159 -0.6377  0.2204  0.7695
 7660SOL    HW234617   2.306   3.518   4.058  0.4287  0.6624 -0.2168
 7661SOL     OW34618   2.931   1.540   9.583 -0.8664  0.5121 -0.8004
 7661SOL    HW134619   2.929   1.609   9.650 -0.9585 -1.3692  1.1447
 7661SOL    HW234620   2.975   1.590   9.515 -0.4214 -1.0127 -1.6159
 7662SOL     OW34621   0.260   4.198   5.513 -0.1082  0.1153 -0.0473
 7662SOL    HW134622   0.175   4.184   5.469  0.2546  1.4031 -1.1720
 7662SOL    HW234623   0.230   4.231   5.597  1.5851  0.1432  0.5294
 7663SOL     OW34624   0.198   4.545   9.485 -0.4590  0.4430 -0.1475
 7663SOL    HW134625   0.199   4.509   9.573 -0.2948 -0.3807 -0.4823
 7663SOL    HW234626   0.107   4.523   9.462  0.1761  0.1348 -2.3697
 7664SOL     OW34627   2.430   2.037   7.802 -0.4859 -0.0973 -0.1807
 7664SOL    HW134628   2.427   2.067   7.892 -4.6732  1.8899 -1.0175
 7664SOL    HW234629   2.364   2.091   7.759  0.2479  2.0459  1.4195
 7665SOL     OW34630   1.467   4.169   1.313  0.0282 -0.6640 -0.3103
 7665SOL    HW134631   1.535   4.113   1.276  1.7901  0.7642  0.7269
 7665SOL    HW234632   1.411   4.176   1.236  1.1511 -0.1248 -1.0785
 7666SOL     OW34633   0.131   0.520   1.432  0.6224  0.1458 -0.1126
 7666SOL    HW134634   0.197   0.528   1.501  2.1206 -1.6215 -1.3459
 7666SOL    HW234635   0.179   0.463   1.372  0.7596 -0.1551  0.2836
 7667SOL     OW34636   4.088   3.377  13.420  0.1584  1.0537  0.2124
 7667SOL    HW134637   4.139   3.435  13.363 -0.1936  1.2967  0.1408
 7667SOL    HW234638   4.137   3.368  13.502 -0.7066  3.8440  1.0387
 7668SOL     OW34639   2.959   2.394   4.068  0.6032  0.1414  0.5491
 7668SOL    HW134640   2.911   2.428   3.992 -0.8052 -1.3270  0.7715
 7668SOL    HW234641   3.041   2.438   4.047  0.1060  1.0671  0.5421
 7669SOL     OW34642   2.752   1.772   7.422  0.7096 -0.0625  0.6531
 7669SOL    HW134643   2.741   1.801   7.331 -1.2969 -1.9654  0.2760
 7669SOL    HW234644   2.819   1.830   7.458  0.7304  0.2848  0.0635
 7670SOL     OW34645   3.546   2.621   2.077 -0.5629 -0.3220 -0.3980
 7670SOL    HW134646   3.599   2.678   2.021 -0.8520  1.9385  1.6388
 7670SOL    HW234647   3.492   2.677   2.133 -1.1509 -0.1809 -1.1019
 7671SOL     OW34648   0.933   2.279   5.777 -0.4243 -0.3153 -0.1634
 7671SOL    HW134649   0.953   2.197   5.822  0.9129 -0.8525 -1.7473
 7671SOL    HW234650   0.897   2.235   5.700 -0.0192  0.8054 -1.0104
 7672SOL     OW34651   3.179   4.368  14.038 -0.2105  0.1697 -0.4530
 7672SOL    HW134652   3.137   4.284  14.055 -0.8549  1.0416  2.2924
 7672SOL    HW234653   3.243   4.373  14.109  0.4530 -3.7473 -0.8126
 7673SOL     OW34654   2.036   2.223  11.543  0.0009 -0.1244 -0.1881
 7673SOL    HW134655   2.024   2.221  11.638 -0.8406  1.0489 -0.2693
 7673SOL    HW234656   2.032   2.130  11.521 -1.0424 -0.7570  2.6120
 7674SOL     OW34657   3.759   3.435  17.731  0.7992 -0.8212  0.0191
 7674SOL    HW134658   3.763   3.360   0.033 -1.8154 -0.1312  1.0515
 7674SOL    HW234659   3.849   3.448  17.701  1.2918  1.1882  2.3428
 7675SOL     OW34660   3.869   3.213  11.299  0.5620  0.2620  0.2553
 7675SOL    HW134661   3.863   3.216  11.203 -0.4729  0.0567  0.3128
 7675SOL    HW234662   3.807   3.283  11.320 -0.8077 -0.2227 -2.1312
 7676SOL     OW34663   2.195   0.713   4.850 -0.0947 -0.3879  0.4553
 7676SOL    HW134664   2.137   0.679   4.918  0.1512 -0.0295  0.8523
 7676SOL    HW234665   2.140   0.778   4.805 -0.0470 -0.3425  0.4627
 7677SOL     OW34666   3.451   3.476   8.653 -0.1671 -0.0390  0.2788
 7677SOL    HW134667   3.393   3.493   8.578 -1.1232  1.4735  1.3542
 7677SOL    HW234668   3.417   3.530   8.724 -2.7866 -2.2340  0.6951
 7678SOL     OW34669   2.704   2.099   7.753  0.7868 -0.4996  0.1561
 7678SOL    HW134670   2.612   2.078   7.769  1.2533 -3.7398 -1.3914
 7678SOL    HW234671   2.734   2.103   7.844  0.8024  0.1873  0.1229
 7679SOL     OW34672   1.323   3.093  17.438  0.0194  0.4939  0.0162
 7679SOL    HW134673   1.318   3.137  17.523  0.9558  0.7310 -0.0543
 7679SOL    HW234674   1.416   3.100  17.419 -0.2907  2.0769 -0.9665
 7680SOL     OW34675   0.146   3.766   5.552  0.4606  0.1122  0.2340
 7680SOL    HW134676   0.109   3.834   5.609  1.8991  0.4992  0.6834
 7680SOL    HW234677   0.235   3.775   5.585  1.1192  0.0459 -1.5282
 7681SOL     OW34678   2.595   4.254   3.048 -0.3544 -0.7563  0.0158
 7681SOL    HW134679   2.578   4.206   3.129 -1.3259 -0.3140  0.0781
 7681SOL    HW234680   2.606   4.341   3.087 -2.0160  0.4841 -2.2890
 7682SOL     OW34681   1.256   2.618   6.957  0.2565 -0.2925  0.2905
 7682SOL    HW134682   1.188   2.678   6.986  1.4610  1.4069 -0.3882
 7682SOL    HW234683   1.309   2.610   7.037  1.3865  1.6671 -0.2729
 7683SOL     OW34684   1.657   2.078   2.870 -0.0499 -0.0990  0.2206
 7683SOL    HW134685   1.655   2.007   2.806  0.5249  0.8348 -0.8402
 7683SOL    HW234686   1.703   2.034   2.941  0.5799  0.5564  0.2208
 7684SOL     OW34687   2.814   4.109   7.788 -0.4268  0.1881 -0.4739
 7684SOL    HW134688   2.848   4.037   7.736  1.2745 -1.3698  2.8371
 7684SOL    HW234689   2.776   4.058   7.859  1.1169  1.7795  1.4673
 7685SOL     OW34690   1.397   1.186   3.946  0.2820 -0.7156 -1.2928
 7685SOL    HW134691   1.335   1.197   4.018 -1.5380  0.1621 -2.9698
 7685SOL    HW234692   1.459   1.259   3.956  0.4629 -0.8858 -1.1800
 7686SOL     OW34693   2.389   1.730   9.863 -0.2410 -0.5327 -0.1854
 7686SOL    HW134694   2.469   1.745   9.912 -0.3463  0.2163 -0.2516
 7686SOL    HW234695   2.323   1.780   9.910 -2.4907 -1.4886 -2.2742
 7687SOL     OW34696   0.080   4.452   7.541 -0.3067 -0.2789  0.3039
 7687SOL    HW134697   0.085   4.458   7.446 -1.3145  0.8376  0.3224
 7687SOL    HW234698   0.063   4.544   7.562  1.1644 -0.2977  1.6435
 7688SOL     OW34699   3.212   0.808  13.039  0.2973 -0.1293  0.3553
 7688SOL    HW134700   3.182   0.896  13.064 -0.0990  0.1693 -1.1671
 7688SOL    HW234701   3.155   0.750  13.089 -0.4507 -0.4870 -0.9160
 7689SOL     OW34702   0.014   4.725  10.751 -0.1033 -0.8164  0.3084
 7689SOL    HW134703   4.676   0.025  10.712  0.6794  2.7802  2.4211
 7689SOL    HW234704   0.034   0.057  10.810  3.8341  0.4916 -2.5733
 7690SOL     OW34705   2.259   1.343   4.936 -0.1641 -0.0781  0.3693
 7690SOL    HW134706   2.211   1.388   4.867  1.2924  0.7353 -0.0913
 7690SOL    HW234707   2.211   1.366   5.016 -0.6189  0.4140 -0.0472
 7691SOL     OW34708   3.078   4.231  16.251  0.0236  0.1690  0.2384
 7691SOL    HW134709   3.044   4.154  16.296 -2.1453  0.2202 -1.3246
 7691SOL    HW234710   3.016   4.298  16.280 -2.7114 -1.7980 -1.1285
 7692SOL     OW34711   2.962   0.124  17.617  0.3676  0.2869 -0.1824
 7692SOL    HW134712   2.928   0.120  17.707  0.8342 -0.1214 -0.0230
 7692SOL    HW234713   3.056   0.120  17.633  0.0770  1.2508  1.7517
 7693SOL     OW34714   1.304   1.481   4.514 -0.0078  0.2284 -0.3416
 7693SOL    HW134715   1.315   1.485   4.419 -0.3668 -0.1830 -0.3953
 7693SOL    HW234716   1.221   1.436   4.524 -1.2554  2.3246 -1.4278
 7694SOL     OW34717   4.190   3.581   4.088  0.0889  0.5074 -0.0152
 7694SOL    HW134718   4.209   3.673   4.106  0.1389  0.7472 -1.2627
 7694SOL    HW234719   4.100   3.597   4.060 -0.3159 -1.5484  0.0859
 7695SOL     OW34720   3.009   1.418  13.389 -0.3769 -0.2028 -0.5433
 7695SOL    HW134721   3.100   1.415  13.419 -0.9179  0.9412  1.2318
 7695SOL    HW234722   2.993   1.325  13.375  1.4305 -0.4538 -0.9513
 7696SOL     OW34723   3.049   0.287   3.568 -1.0053  0.4376  0.3727
 7696SOL    HW134724   3.105   0.319   3.639 -1.7940  1.9668  0.3172
 7696SOL    HW234725   2.976   0.349   3.564 -1.2088  0.3208  2.2556
 7697SOL     OW34726   1.948   3.484   9.770 -0.2628  0.0288 -0.6534
 7697SOL    HW134727   1.881   3.431   9.813 -0.5509  0.1695 -0.9327
 7697SOL    HW234728   1.996   3.418   9.721  1.1340 -0.6686  1.6431
 7698SOL     OW34729   1.019   0.171  16.608  0.1003 -0.3534  0.8849
 7698SOL    HW134730   0.934   0.186  16.649 -1.1672 -1.0940 -1.4162
 7698SOL    HW234731   1.062   0.105  16.661  0.7123 -1.3249 -0.7978
 7699SOL     OW34732   2.081   3.572  17.289 -0.4226  0.1061 -0.5251
 7699SOL    HW134733   2.023   3.502  17.317 -1.2182  0.7045 -0.6918
 7699SOL    HW234734   2.052   3.635  17.355 -2.3298  2.2523 -3.4200
 7700SOL     OW34735   1.401   4.648   5.054  0.6726 -0.0067 -0.5990
 7700SOL    HW134736   1.458   4.656   4.977 -0.4084  1.0478 -1.2992
 7700SOL    HW234737   1.325   4.632   4.999  0.9510  0.5967 -1.1731
 7701SOL     OW34738   4.197   3.586   9.016  0.5851 -0.2078  0.0593
 7701SOL    HW134739   4.203   3.494   8.991 -2.1670  0.0852 -1.7001
 7701SOL    HW234740   4.242   3.624   8.941  0.8410 -0.4471  0.0926
 7702SOL     OW34741   4.423   1.749  13.061 -0.1910  0.1564  0.1756
 7702SOL    HW134742   4.335   1.744  13.098 -1.0035  0.9199 -1.6791
 7702SOL    HW234743   4.436   1.844  13.053  0.3116  0.2366  1.9504
 7703SOL     OW34744   1.870   2.666   4.404 -0.2957  0.4622 -0.2080
 7703SOL    HW134745   1.776   2.648   4.413 -0.3901  0.8587 -0.4088
 7703SOL    HW234746   1.908   2.578   4.403 -0.8168  0.2178  1.0547
 7704SOL     OW34747   1.098   2.152   8.797 -0.4381 -0.0730 -0.1154
 7704SOL    HW134748   1.152   2.082   8.834 -2.0371 -1.9750 -1.3243
 7704SOL    HW234749   1.090   2.210   8.872 -0.1956 -2.8142  2.0570
 7705SOL     OW34750   2.562   2.899  16.313  0.3765  0.0151  0.5710
 7705SOL    HW134751   2.653   2.918  16.289 -0.8473  3.9404 -0.9314
 7705SOL    HW234752   2.582   2.846  16.390  2.0312 -1.0149 -0.5425
 7706SOL     OW34753   0.718   2.960   5.908 -0.5477  0.6736  0.0209
 7706SOL    HW134754   0.794   2.909   5.936  1.2615  1.4021 -3.5577
 7706SOL    HW234755   0.640   2.908   5.928 -0.1142 -0.6006 -1.5863
 7707SOL     OW34756   1.541   2.668   0.047  0.1032  0.3775 -0.0531
 7707SOL    HW134757   1.498   2.630  17.729 -0.3422 -1.3705  1.0674
 7707SOL    HW234758   1.532   2.600   0.114  1.0566 -0.6587 -0.9863
 7708SOL     OW34759   0.154   0.168   6.610  0.8850 -0.2970 -0.2004
 7708SOL    HW134760   0.246   0.191   6.622  0.7658  0.2728 -0.3879
 7708SOL    HW234761   0.155   0.082   6.568  0.4530 -0.0819 -0.6399
 7709SOL     OW34762   0.537   1.855   6.054  0.5364  0.2287 -0.0463
 7709SOL    HW134763   0.485   1.778   6.077 -0.0244  0.7459  0.4122
 7709SOL    HW234764   0.584   1.870   6.136  0.0070 -1.7228  0.6301
 7710SOL     OW34765   3.799   2.068   5.067  0.0771 -0.0799  0.0945
 7710SOL    HW134766   3.874   2.119   5.097  1.0921 -1.4294 -0.1498
 7710SOL    HW234767   3.761   2.050   5.153 -0.5879 -0.0065 -0.1889
 7711SOL     OW34768   3.880   4.236   0.741  0.0972 -0.2138  0.1953
 7711SOL    HW134769   3.943   4.298   0.704 -0.0939 -0.1393 -0.0109
 7711SOL    HW234770   3.938   4.165   0.770 -0.0248 -0.1648  0.5552
 7712SOL     OW34771   1.932   0.803   8.613 -0.0618 -0.1660  0.2054
 7712SOL    HW134772   2.009   0.852   8.640  1.7752 -3.2076  0.3897
 7712SOL    HW234773   1.901   0.776   8.699  0.2475 -0.0634  0.3462
 7713SOL     OW34774   2.290   2.455   0.374 -0.4649  0.6270  0.4844
 7713SOL    HW134775   2.280   2.364   0.346  3.1313 -0.0132  1.2731
 7713SOL    HW234776   2.384   2.468   0.360  0.0091  0.0325  3.1467
 7714SOL     OW34777   3.724   1.319   3.230 -0.0160 -0.0878  0.3424
 7714SOL    HW134778   3.764   1.322   3.143 -1.2420  0.3728 -0.2114
 7714SOL    HW234779   3.674   1.241   3.206  0.5045 -0.7490  1.4242
 7715SOL     OW34780   3.159   4.205   3.479  0.9362  0.2014 -0.1536
 7715SOL    HW134781   3.240   4.247   3.451  0.7530  0.1401 -0.7790
 7715SOL    HW234782   3.115   4.186   3.396 -1.9667 -0.3108  1.4898
 7716SOL     OW34783   2.422   4.306   5.181  0.0549  0.0203 -0.1379
 7716SOL    HW134784   2.454   4.272   5.098  0.2921 -0.4431  0.1444
 7716SOL    HW234785   2.422   4.401   5.167 -0.3269  0.1852  0.9704
 7717SOL     OW34786   0.974   2.522  16.992  0.2016  0.1156  0.7496
 7717SOL    HW134787   0.941   2.537  16.903 -0.0259 -1.8287  0.5034
 7717SOL    HW234788   0.998   2.610  17.021 -0.3669  0.1543  1.1022
 7718SOL     OW34789   1.087   3.367  14.006 -0.0851 -0.5564 -0.3680
 7718SOL    HW134790   1.077   3.388  14.099  2.7357  0.0891 -0.2165
 7718SOL    HW234791   1.013   3.309  13.987  1.7163 -2.6959 -0.8673
 7719SOL     OW34792   4.648   3.277   3.561 -0.2442  0.1700 -0.1380
 7719SOL    HW134793   4.583   3.339   3.593 -0.6126  0.4131 -1.3517
 7719SOL    HW234794   4.723   3.297   3.617  0.9110 -0.2298 -1.5281
 7720SOL     OW34795   0.525   2.326   5.970  0.1827 -0.3292  0.8897
 7720SOL    HW134796   0.564   2.240   5.952  0.7760  0.2560 -0.6870
 7720SOL    HW234797   0.438   2.315   5.931  0.2189 -0.2389  0.7797
 7721SOL     OW34798   2.343   3.131   3.968  0.0048  0.5321  0.0086
 7721SOL    HW134799   2.344   3.037   3.988  1.5251  0.5230 -0.1164
 7721SOL    HW234800   2.409   3.129   3.898 -1.5948 -0.5102 -1.4767
 7722SOL     OW34801   4.137   0.516   2.931  0.0190 -0.1046  0.2433
 7722SOL    HW134802   4.181   0.492   2.849 -0.2876 -0.0765  0.0707
 7722SOL    HW234803   4.105   0.602   2.905  2.0087  0.2795 -0.9217
 7723SOL     OW34804   2.630   3.013   4.263 -0.1737  0.0402  0.1954
 7723SOL    HW134805   2.561   3.078   4.276 -0.8110 -0.6457  0.1937
 7723SOL    HW234806   2.584   2.932   4.241  1.0483 -0.7741  0.6131
 7724SOL     OW34807   4.289   0.496   4.600 -0.1916 -0.4903 -0.1537
 7724SOL    HW134808   4.299   0.452   4.684  0.5537 -1.4235 -0.7306
 7724SOL    HW234809   4.193   0.495   4.595 -0.0713 -0.0078 -2.5579
 7725SOL     OW34810   1.082   1.896   6.466 -0.0744  0.4471  0.1420
 7725SOL    HW134811   0.988   1.874   6.465 -0.2447  1.2157 -0.8152
 7725SOL    HW234812   1.084   1.953   6.543  0.0380  1.0736 -0.3243
 7726SOL     OW34813   4.254   1.642   8.046 -0.7860  0.2727 -0.0135
 7726SOL    HW134814   4.308   1.647   8.125  1.1742  2.1699 -1.4844
 7726SOL    HW234815   4.286   1.567   7.996  2.1402  0.7081  1.2200
 7727SOL     OW34816   4.084   4.148  14.024 -0.1590 -0.0271  0.6869
 7727SOL    HW134817   4.064   4.069  14.075  0.0408 -0.4484  0.1224
 7727SOL    HW234818   4.056   4.219  14.080  0.3339  1.4888 -0.9965
 7728SOL     OW34819   1.274   3.111   8.432 -0.2338  0.2690 -0.8441
 7728SOL    HW134820   1.302   3.077   8.347 -0.1242 -1.3637 -0.1579
 7728SOL    HW234821   1.289   3.203   8.412 -0.9292  0.3166 -1.1528
 7729SOL     OW34822   2.106   0.444   4.032  0.0101  0.1342 -0.8352
 7729SOL    HW134823   2.079   0.422   3.943  1.8967 -1.8852 -0.9038
 7729SOL    HW234824   2.191   0.403   4.047  0.9071  2.5609  0.7250
 7730SOL     OW34825   1.075   0.797   6.787 -0.3013 -0.2000 -0.3463
 7730SOL    HW134826   1.003   0.837   6.739 -0.4563  0.3931  0.3809
 7730SOL    HW234827   1.071   0.842   6.872 -2.3971  1.3424 -1.2706
 7731SOL     OW34828   4.137   1.655   6.986 -0.6345 -0.0479  0.0977
 7731SOL    HW134829   4.205   1.682   7.048 -0.2016 -1.7490  0.3527
 7731SOL    HW234830   4.081   1.732   6.978 -1.0885 -0.2096  1.8400
 7732SOL     OW34831   0.233   3.227   0.396 -0.4936 -0.1742  0.2585
 7732SOL    HW134832   0.319   3.185   0.403 -1.1528 -1.7034 -0.8410
 7732SOL    HW234833   0.248   3.285   0.322  1.3620 -0.3935  0.4418
 7733SOL     OW34834   0.954   2.075   2.500  0.3644  1.0120  0.4787
 7733SOL    HW134835   0.953   2.069   2.595  0.9390 -0.2769  0.4029
 7733SOL    HW234836   0.862   2.062   2.476  0.5681  1.1193 -0.3782
 7734SOL     OW34837   3.411   4.031   1.143  0.1246  0.5802 -0.3107
 7734SOL    HW134838   3.420   3.943   1.179 -2.6971  0.6549  0.5828
 7734SOL    HW234839   3.357   4.075   1.208  1.8521 -0.4880  1.8346
 7735SOL     OW34840   1.243   0.166   7.783 -0.2506  0.3190 -0.2190
 7735SOL    HW134841   1.246   0.172   7.878  1.5294  1.1834 -0.3104
 7735SOL    HW234842   1.262   0.073   7.778  0.5853  0.4631  0.2518
 7736SOL     OW34843   0.134   3.567  14.232 -0.0397 -0.2551  0.1254
 7736SOL    HW134844   0.125   3.582  14.138  2.3590 -0.9388 -0.2085
 7736SOL    HW234845   0.119   3.472  14.234 -0.5591 -0.1682  0.2727
 7737SOL     OW34846   1.887   3.472   6.999  0.2838 -0.2778 -0.7048
 7737SOL    HW134847   1.850   3.436   6.919 -0.4609  0.5765 -0.7598
 7737SOL    HW234848   1.879   3.403   7.064  0.7057 -1.0846 -1.5165
 7738SOL     OW34849   1.303   4.044   0.077  0.3681 -0.0863 -0.1749
 7738SOL    HW134850   1.333   3.954   0.067 -0.3806 -0.3666  0.1140
 7738SOL    HW234851   1.215   4.038   0.041 -1.0033 -2.6705  3.6308
 7739SOL     OW34852   4.409   2.372  12.012 -0.0321 -0.6875 -0.5241
 7739SOL    HW134853   4.328   2.383  11.962  0.6949 -0.7612 -1.7150
 7739SOL    HW234854   4.448   2.289  11.986 -0.9496 -2.1220  2.7802
 7740SOL     OW34855   0.858   1.499   9.804  0.4827 -0.1657  0.2985
 7740SOL    HW134856   0.811   1.416   9.816  3.5833 -1.9606  0.1511
 7740SOL    HW234857   0.827   1.519   9.715 -0.7715 -1.5184  0.4372
 7741SOL     OW34858   0.583   1.054   2.528 -0.5967 -0.3393  0.1261
 7741SOL    HW134859   0.631   0.984   2.484 -1.0909 -1.3506  1.1870
 7741SOL    HW234860   0.639   1.076   2.603 -0.7337  0.1607  0.0813
 7742SOL     OW34861   1.069   2.648  11.467 -0.4112 -0.0929 -0.6396
 7742SOL    HW134862   1.046   2.635  11.559  1.0901  2.4676  0.1005
 7742SOL    HW234863   0.991   2.608  11.429  0.2554 -0.3347 -1.7504
 7743SOL     OW34864   3.368   2.398  16.231  0.1357 -0.2605  0.3553
 7743SOL    HW134865   3.343   2.331  16.167  2.7710  1.4971 -2.5023
 7743SOL    HW234866   3.406   2.467  16.176  2.8676 -1.2719  1.0092
 7744SOL     OW34867   4.683   3.386   4.495 -0.1856 -0.2350  0.1584
 7744SOL    HW134868   4.726   3.328   4.558 -0.9441 -0.4554  0.4790
 7744SOL    HW234869   4.595   3.373   4.532  0.2013 -0.1551  1.1037
 7745SOL     OW34870   0.975   2.392   7.819  0.0919 -0.1555 -0.2312
 7745SOL    HW134871   0.922   2.342   7.881  0.6278 -0.5983 -0.1325
 7745SOL    HW234872   1.058   2.346   7.806  0.0281  0.1399 -1.6721
 7746SOL     OW34873   4.424   3.870  12.408  0.3472 -0.2547  0.2899
 7746SOL    HW134874   4.454   3.781  12.428 -1.7626 -1.1020 -0.3969
 7746SOL    HW234875   4.507   3.909  12.379 -0.5720  2.0200  0.7199
 7747SOL     OW34876   0.084   4.326  11.395  0.3396 -0.1770  0.0118
 7747SOL    HW134877   0.037   4.276  11.461 -1.9144  0.4164 -1.1363
 7747SOL    HW234878   0.162   4.357  11.442  0.1606  0.6948 -0.2665
 7748SOL     OW34879   1.652   3.849   4.046 -0.0400  0.2860 -0.5565
 7748SOL    HW134880   1.665   3.780   4.111 -0.5804  1.5826  0.9375
 7748SOL    HW234881   1.603   3.916   4.095  0.9713  0.9641 -0.4654
 7749SOL     OW34882   0.042   2.259  14.261  0.1162  0.1437  0.5576
 7749SOL    HW134883   0.109   2.249  14.194  1.0508 -1.9025  1.8053
 7749SOL    HW234884   4.715   2.299  14.206 -1.9202 -3.9077  0.1541
 7750SOL     OW34885   1.113   1.625   5.681 -0.3393  0.1937  0.2261
 7750SOL    HW134886   1.031   1.673   5.674 -0.8241 -0.6115  0.4234
 7750SOL    HW234887   1.098   1.574   5.761 -0.4621 -3.4360 -2.0991
 7751SOL     OW34888   1.785   2.696  11.466  0.7103 -0.0487 -0.4900
 7751SOL    HW134889   1.800   2.604  11.487  3.5029  0.2828 -1.0710
 7751SOL    HW234890   1.832   2.731  11.542 -0.2162 -3.8666  1.8505
 7752SOL     OW34891   3.332   4.374  16.289 -0.1474  0.4745  0.0442
 7752SOL    HW134892   3.259   4.410  16.238 -0.0160 -1.7505 -1.7343
 7752SOL    HW234893   3.292   4.287  16.292  2.0219 -0.5545 -0.8936
 7753SOL     OW34894   0.693   3.575   3.640  0.0380 -0.3884 -0.0119
 7753SOL    HW134895   0.789   3.580   3.636 -0.1567  3.1190  0.2474
 7753SOL    HW234896   0.670   3.663   3.610  2.7427 -0.3757 -2.0586
 7754SOL     OW34897   1.254   0.387   1.667 -0.2212  0.0177 -0.0892
 7754SOL    HW134898   1.195   0.408   1.595 -2.0727  0.6822  1.6435
 7754SOL    HW234899   1.193   0.356   1.733 -1.1067  0.2158 -0.8226
 7755SOL     OW34900   1.580   4.433  16.002 -0.4901  0.4988 -0.1940
 7755SOL    HW134901   1.504   4.481  16.036  0.4418  0.9495  1.2685
 7755SOL    HW234902   1.606   4.375  16.073  0.4367 -0.0655 -1.0011
 7756SOL     OW34903   3.364   4.585   8.929 -0.6912 -0.5119  0.5218
 7756SOL    HW134904   3.405   4.660   8.973 -1.6187 -0.1960  0.8534
 7756SOL    HW234905   3.313   4.622   8.857  1.2346  0.3150 -0.4335
 7757SOL     OW34906   2.687   4.238  16.515 -0.1401  0.2789  0.2578
 7757SOL    HW134907   2.639   4.166  16.558  2.4783 -0.5775  1.7576
 7757SOL    HW234908   2.622   4.308  16.518  0.4391  0.8449 -0.6115
 7758SOL     OW34909   1.913   2.133   2.072  0.1252  0.1969  0.2889
 7758SOL    HW134910   1.832   2.099   2.109  0.2962 -1.1226 -0.5357
 7758SOL    HW234911   1.941   2.055   2.023 -0.3320  0.8668 -1.0576
 7759SOL     OW34912   0.714   3.633   9.779 -0.4380 -0.2460 -0.5879
 7759SOL    HW134913   0.667   3.717   9.777 -0.1434  0.0067  2.9225
 7759SOL    HW234914   0.803   3.663   9.797 -0.1710 -1.4777  0.1189
 7760SOL     OW34915   2.722   1.082   6.159  0.2215 -0.1045 -0.4167
 7760SOL    HW134916   2.689   1.105   6.072  0.6197  2.1000  0.0223
 7760SOL    HW234917   2.815   1.103   6.149  0.1158  0.1941 -0.7626
 7761SOL     OW34918   0.170   2.401  14.490  0.0943 -0.0336 -0.0135
 7761SOL    HW134919   0.130   2.391  14.404 -0.2148 -3.4176  0.5411
 7761SOL    HW234920   0.095   2.427  14.544  1.2846  2.0864  0.6489
 7762SOL     OW34921   1.861   2.380  14.703  0.5373  0.1726 -0.6191
 7762SOL    HW134922   1.876   2.380  14.797  2.3246  0.6712 -0.9124
 7762SOL    HW234923   1.936   2.331  14.668  0.7893  0.8722 -1.0586
 7763SOL     OW34924   1.358   4.571  16.742  0.1310 -0.1132  0.6149
 7763SOL    HW134925   1.391   4.587  16.653 -3.7382 -0.1008 -0.8238
 7763SOL    HW234926   1.418   4.498  16.759  1.5965  1.2759  1.2850
 7764SOL     OW34927   2.395   4.575   7.984 -0.0186 -0.1919 -0.4651
 7764SOL    HW134928   2.490   4.563   7.989  0.2785  3.1127  1.5509
 7764SOL    HW234929   2.383   4.670   7.988 -0.9870 -0.3823  1.2561
 7765SOL     OW34930   0.865   3.571   2.058  0.1888 -0.1497 -0.4196
 7765SOL    HW134931   0.784   3.564   2.008  0.2360  0.0404 -0.5234
 7765SOL    HW234932   0.906   3.486   2.048 -0.2630 -0.3550 -0.5075
 7766SOL     OW34933   4.389   1.277   0.473 -0.1016 -0.3547 -0.5763
 7766SOL    HW134934   4.343   1.238   0.547 -0.8893 -0.5035 -1.1470
 7766SOL    HW234935   4.457   1.212   0.456 -1.4633 -2.2693  1.2854
 7767SOL     OW34936   3.919   4.267   4.658 -0.7406  0.4937  0.1909
 7767SOL    HW134937   3.929   4.362   4.645 -3.1223  0.4647 -1.9605
 7767SOL    HW234938   4.003   4.251   4.701 -1.1717 -0.9396  0.4755
 7768SOL     OW34939   3.873   1.552  16.674 -0.1966 -0.5887 -0.0210
 7768SOL    HW134940   3.949   1.610  16.685 -0.9919  0.7056 -1.4421
 7768SOL    HW234941   3.884   1.502  16.754  1.3119 -0.2228  0.0066
 7769SOL     OW34942   3.105   2.275   1.777 -0.0401  0.1822 -0.2154
 7769SOL    HW134943   3.078   2.367   1.770 -1.0861 -0.1329 -0.3189
 7769SOL    HW234944   3.193   2.287   1.811  0.2827 -2.3021 -0.2030
 7770SOL     OW34945   3.496   2.752   4.797  0.3341 -0.4277 -0.3489
 7770SOL    HW134946   3.574   2.800   4.827 -0.2510 -0.1954  0.8020
 7770SOL    HW234947   3.451   2.834   4.777  0.8688  0.4753  2.0760
 7771SOL     OW34948   2.280   2.447   9.953  0.0371 -0.2699  0.0305
 7771SOL    HW134949   2.185   2.452   9.944  0.1467  1.5153 -0.1374
 7771SOL    HW234950   2.307   2.533   9.985 -2.4298  0.0461  1.2578
 7772SOL     OW34951   2.878   2.915   8.731 -0.2364  0.3760  0.2302
 7772SOL    HW134952   2.899   2.922   8.824 -3.3181  1.9760  0.7990
 7772SOL    HW234953   2.841   3.001   8.708 -1.8622  0.1763  2.1571
 7773SOL     OW34954   4.413   0.535   7.689  1.0197 -0.0334 -0.1198
 7773SOL    HW134955   4.467   0.457   7.697  0.6671 -0.3932 -1.3414
 7773SOL    HW234956   4.455   0.588   7.758 -0.8964 -0.2424  1.2033
 7774SOL     OW34957   3.906   1.051   9.981 -0.1694 -0.0910  0.2397
 7774SOL    HW134958   3.961   1.129   9.977  0.3482 -0.4802 -0.1778
 7774SOL    HW234959   3.859   1.067   9.899  0.0108 -0.5831  0.0327
 7775SOL     OW34960   3.533   4.516   9.193  0.3070  0.4423 -0.3252
 7775SOL    HW134961   3.618   4.545   9.225  2.2733 -5.6829  0.0166
 7775SOL    HW234962   3.474   4.590   9.205  0.8758  0.9231 -0.4851
 7776SOL     OW34963   4.607   1.364   4.260  0.1129 -0.1922 -0.1695
 7776SOL    HW134964   4.657   1.406   4.189 -0.4891  2.0098  0.7002
 7776SOL    HW234965   4.611   1.425   4.334  1.8904 -1.4162  0.7344
 7777SOL     OW34966   1.479   1.929   6.632  0.2904 -0.0423  0.9983
 7777SOL    HW134967   1.527   1.858   6.674  1.8546 -1.3727 -3.0426
 7777SOL    HW234968   1.390   1.918   6.665 -0.4229  1.4496 -0.4462
 7778SOL     OW34969   0.410   1.654   6.516 -0.1845  0.3157 -0.1028
 7778SOL    HW134970   0.384   1.580   6.461 -1.4630  2.1860 -1.9996
 7778SOL    HW234971   0.477   1.608   6.567  1.3250  2.2908 -0.3025
 7779SOL     OW34972   2.306   4.662   6.353  0.8911 -0.1785  0.3058
 7779SOL    HW134973   2.293   4.569   6.334  1.0779  0.0271 -0.8236
 7779SOL    HW234974   2.312   4.688   6.261  0.8570  0.2496  0.4248
 7780SOL     OW34975   3.619   2.934   1.349 -0.0624  0.0203 -0.0316
 7780SOL    HW134976   3.574   2.850   1.353  2.0608 -1.2409 -2.4624
 7780SOL    HW234977   3.687   2.927   1.417  0.5387  0.2517 -0.6155
 7781SOL     OW34978   0.716   3.932   9.772  0.0451 -0.2571 -0.2309
 7781SOL    HW134979   0.632   3.947   9.729  0.6714  0.9900 -1.0028
 7781SOL    HW234980   0.789   3.975   9.728  0.4961 -0.0893  0.6802
 7782SOL     OW34981   4.480   0.815   4.222 -0.0407  0.0319  0.2559
 7782SOL    HW134982   4.479   0.862   4.306  0.2278 -0.9887  0.8334
 7782SOL    HW234983   4.574   0.817   4.204  0.2843  1.7349  2.0175
 7783SOL     OW34984   4.728   1.299  10.052  0.5444 -0.5587 -0.3064
 7783SOL    HW134985   4.673   1.221  10.041 -0.7487  0.4853 -1.3844
 7783SOL    HW234986   0.001   1.312   9.958 -0.7256 -0.4472 -0.4668
 7784SOL     OW34987   0.935   1.541   0.778 -0.3155 -0.0148  0.7709
 7784SOL    HW134988   0.956   1.576   0.865  0.6497  1.6777 -0.1307
 7784SOL    HW234989   0.897   1.458   0.807 -1.4090  0.3399  0.3301
 7785SOL     OW34990   0.106   3.896  15.386  0.1990  0.6429 -0.2842
 7785SOL    HW134991   0.019   3.856  15.378  0.2648  0.1213  1.5948
 7785SOL    HW234992   0.162   3.822  15.411  1.1903  1.8509  1.0947
 7786SOL     OW34993   2.474   0.669   7.729 -0.2069 -0.9231 -0.1165
 7786SOL    HW134994   2.555   0.717   7.747 -1.3417  0.5377  1.1934
 7786SOL    HW234995   2.425   0.691   7.809 -0.2291 -0.8369 -0.1539
 7787SOL     OW34996   4.506   3.201   6.472  0.0807 -0.3551  0.4358
 7787SOL    HW134997   4.486   3.190   6.379 -2.8913 -2.5063  1.3228
 7787SOL    HW234998   4.421   3.231   6.504  0.1570  0.3560 -0.0365
 7788SOL     OW34999   4.350   1.526   1.636  0.4662 -0.0242  0.4095
 7788SOL    HW135000   4.355   1.445   1.586  1.4807  0.4335 -0.2313
 7788SOL    HW235001   4.305   1.489   1.712  0.3695  1.1242  0.9200
 7789SOL     OW35002   0.468   0.220   2.258  0.1047 -0.3831  0.1455
 7789SOL    HW135003   0.446   0.294   2.314  1.1008 -1.0481  1.3987
 7789SOL    HW235004   0.488   0.160   2.329  0.8554  0.1415  0.3753
 7790SOL     OW35005   1.316   2.765   6.456 -0.0140 -0.1775  0.0142
 7790SOL    HW135006   1.352   2.704   6.392 -1.7272  1.1652 -2.2455
 7790SOL    HW235007   1.324   2.857   6.430  1.1344 -0.8293 -1.9692
 7791SOL     OW35008   2.101   1.246   3.017  0.2493  0.4929 -0.3384
 7791SOL    HW135009   2.161   1.320   3.006 -1.2817  1.6585 -0.9059
 7791SOL    HW235010   2.165   1.181   3.043 -0.0713  0.2912 -0.0486
 7792SOL     OW35011   4.495   2.106  12.088 -0.4173 -0.1027 -0.2257
 7792SOL    HW135012   4.446   2.077  12.165  0.3255  0.8064  0.5826
 7792SOL    HW235013   4.545   2.179  12.126  0.4819 -1.2148  0.7574
 7793SOL     OW35014   0.211   1.611   3.601 -0.3719  0.0369 -0.4234
 7793SOL    HW135015   0.210   1.516   3.588 -1.9154 -0.1058  0.7073
 7793SOL    HW235016   0.133   1.631   3.652 -0.5047 -0.3871 -0.4588
 7794SOL     OW35017   3.870   4.576   6.755 -0.3245  0.0571  0.4357
 7794SOL    HW135018   3.874   4.488   6.792  0.5957 -0.5864 -1.1799
 7794SOL    HW235019   3.938   4.568   6.687 -0.2481  1.1591  0.3843
 7795SOL     OW35020   2.728   0.487   9.548  0.1455  0.1568  0.5837
 7795SOL    HW135021   2.806   0.446   9.510 -0.2700 -0.1909  0.1105
 7795SOL    HW235022   2.739   0.485   9.643  0.3526  3.0264  0.6267
 7796SOL     OW35023   0.039   0.936   2.469  0.5244  0.2271 -0.6037
 7796SOL    HW135024   0.025   0.884   2.389 -0.5551 -0.1873 -0.1547
 7796SOL    HW235025   0.026   0.878   2.544 -0.5366 -1.1964 -1.8641
 7797SOL     OW35026   1.433   2.638  13.621  0.2888  0.1296 -0.0760
 7797SOL    HW135027   1.339   2.625  13.609  0.0750  0.9849  0.6213
 7797SOL    HW235028   1.478   2.562  13.584 -3.8760 -0.8662 -3.0479
 7798SOL     OW35029   2.022   2.912   1.968 -0.2362 -0.0076 -0.2942
 7798SOL    HW135030   2.001   2.998   2.003  1.3855  0.5590 -0.7409
 7798SOL    HW235031   2.081   2.939   1.898 -1.0038  0.7104 -0.6665
 7799SOL     OW35032   3.570   3.293   4.577  0.4554 -0.2857 -0.1398
 7799SOL    HW135033   3.585   3.297   4.671 -1.1801  0.6091  0.0885
 7799SOL    HW235034   3.504   3.363   4.577 -1.4721 -2.0840 -1.2742
 7800SOL     OW35035   1.491   1.087   7.541 -0.4072 -0.2383  0.1691
 7800SOL    HW135036   1.396   1.080   7.554 -0.5207  2.3271  0.6724
 7800SOL    HW235037   1.501   1.011   7.483 -2.4720 -0.2110 -0.2507
 7801SOL     OW35038   1.336   1.582  12.149  0.6982  0.6072  0.2512
 7801SOL    HW135039   1.310   1.525  12.221  2.7924  2.1157  2.2049
 7801SOL    HW235040   1.252   1.612  12.113  1.5414  1.0291 -1.3843
 7802SOL     OW35041   3.867   3.834   4.609 -0.6150  0.8823 -0.6693
 7802SOL    HW135042   3.876   3.753   4.557 -0.1287  0.0467  0.7291
 7802SOL    HW235043   3.782   3.853   4.569 -1.5946 -1.0526  0.4746
 7803SOL     OW35044   0.660   3.441   6.859 -0.0480  0.2299 -0.2201
 7803SOL    HW135045   0.733   3.503   6.867  1.1345 -0.7766 -3.2441
 7803SOL    HW235046   0.703   3.361   6.888 -0.4265  0.6974  1.6458
 7804SOL     OW35047   3.190   1.502   7.596 -0.0609 -0.1132  0.4758
 7804SOL    HW135048   3.169   1.498   7.503 -2.9174 -1.4731  1.1835
 7804SOL    HW235049   3.222   1.413   7.614 -0.0473 -0.8545 -3.0815
 7805SOL     OW35050   1.565   4.171   2.585  0.3043  0.3163 -0.3034
 7805SOL    HW135051   1.535   4.124   2.662 -0.0978 -0.6961 -1.0726
 7805SOL    HW235052   1.566   4.264   2.610 -0.8135  0.6972 -1.6533
 7806SOL     OW35053   2.612   4.352   5.718  0.5826 -0.5401  0.3897
 7806SOL    HW135054   2.608   4.360   5.622  2.6125 -1.3781  0.2416
 7806SOL    HW235055   2.700   4.387   5.733  1.1294 -0.4533 -2.9691
 7807SOL     OW35056   4.260   1.961  13.422 -0.0756  0.1717 -0.4012
 7807SOL    HW135057   4.325   1.893  13.408 -0.2988 -0.3835  1.2902
 7807SOL    HW235058   4.282   1.990  13.510 -2.7151  0.7903  0.0807
 7808SOL     OW35059   3.291   4.720   2.423 -0.2538  0.2175  0.2307
 7808SOL    HW135060   3.368   0.003   2.371  2.0208 -0.2202  3.3492
 7808SOL    HW235061   3.311   4.632   2.456 -0.5553  0.7892  1.9475
 7809SOL     OW35062   0.743   0.222   1.556  0.8930  0.2574  0.0376
 7809SOL    HW135063   0.718   0.144   1.507 -1.6539  1.0156  0.1052
 7809SOL    HW235064   0.731   0.291   1.490 -1.7770  0.0497  0.3145
 7810SOL     OW35065   2.849   1.951  11.694  0.3570 -0.3189 -0.6750
 7810SOL    HW135066   2.840   2.032  11.643  0.1510 -0.5191 -0.9572
 7810SOL    HW235067   2.887   1.883  11.637 -2.6155 -2.1050 -0.5141
 7811SOL     OW35068   4.281   2.846   9.036  0.5199 -0.2871 -0.2882
 7811SOL    HW135069   4.240   2.759   9.043  0.2497  0.0829  2.7615
 7811SOL    HW235070   4.368   2.809   9.021  0.6100  1.4032 -3.8463
 7812SOL     OW35071   2.001   1.225   7.319  0.2990  0.4730 -0.1030
 7812SOL    HW135072   1.961   1.162   7.380  1.5152 -1.1394 -0.9667
 7812SOL    HW235073   1.968   1.304   7.361 -1.0022  0.4507 -1.0945
 7813SOL     OW35074   0.760   3.443  13.643  0.0927  0.0787  0.6973
 7813SOL    HW135075   0.820   3.482  13.707  1.8620  0.5105 -1.2296
 7813SOL    HW235076   0.673   3.463  13.679  0.6445 -0.9687  2.6282
 7814SOL     OW35077   1.413   0.524   7.151  0.2423 -0.3558  0.6400
 7814SOL    HW135078   1.494   0.568   7.173  1.4111 -0.9589 -2.4139
 7814SOL    HW235079   1.374   0.526   7.239  0.0916  0.7516  0.5445
 7815SOL     OW35080   4.198   4.177   4.308 -0.5704 -0.4230  0.1584
 7815SOL    HW135081   4.156   4.102   4.265 -2.4136  0.9719 -0.4759
 7815SOL    HW235082   4.128   4.237   4.284  0.0472 -0.4034 -1.6095
 7816SOL     OW35083   3.775   2.609   7.657 -0.5993  0.0351 -0.1360
 7816SOL    HW135084   3.694   2.623   7.608 -0.7271 -0.2440 -0.0045
 7816SOL    HW235085   3.787   2.514   7.647 -0.0059  0.3844 -3.0059
 7817SOL     OW35086   2.797   3.401   5.503  0.6260 -0.5667  0.6005
 7817SOL    HW135087   2.803   3.351   5.583 -2.3308 -2.0438 -0.0902
 7817SOL    HW235088   2.878   3.451   5.494  0.5695 -0.5834 -0.0298
 7818SOL     OW35089   0.359   4.198   5.800 -0.1384  0.2130 -0.1617
 7818SOL    HW135090   0.284   4.255   5.782 -0.0160  0.3497 -0.2420
 7818SOL    HW235091   0.423   4.265   5.823  0.9969 -0.5988 -0.9968
 7819SOL     OW35092   4.043   2.508   5.128 -0.3623 -0.4885 -0.6544
 7819SOL    HW135093   4.059   2.572   5.196  2.0746 -0.7355 -0.9796
 7819SOL    HW235094   4.097   2.544   5.057  0.5447 -0.7886 -0.1254
 7820SOL     OW35095   3.393   2.193  14.544  0.7199  0.2105 -0.0494
 7820SOL    HW135096   3.468   2.251  14.531  0.3246  0.4190 -1.3697
 7820SOL    HW235097   3.371   2.196  14.451 -0.2236  0.6708  0.1950
 7821SOL     OW35098   4.090   0.895  10.311  0.2233 -0.3079  0.1526
 7821SOL    HW135099   4.052   0.906  10.398  3.1826 -0.2578  1.4151
 7821SOL    HW235100   4.007   0.887  10.263  0.6679  0.9258 -0.8063
 7822SOL     OW35101   4.431   1.573   5.229  0.1992 -0.0342  0.2473
 7822SOL    HW135102   4.406   1.636   5.161  0.0529  0.3777  0.6766
 7822SOL    HW235103   4.385   1.612   5.304  1.2980 -0.8248  1.3303
 7823SOL     OW35104   2.958   1.377  14.935 -0.1836  0.0470  0.5138
 7823SOL    HW135105   2.907   1.452  14.904  1.2475  0.4033 -0.9958
 7823SOL    HW235106   3.050   1.401  14.918 -0.7498  0.9184 -1.3623
 7824SOL     OW35107   2.244   1.427   5.202  0.6101  0.3216 -0.5061
 7824SOL    HW135108   2.272   1.348   5.250  1.7774  0.6575 -0.6378
 7824SOL    HW235109   2.223   1.473   5.284 -0.8620 -2.2489  0.5728
 7825SOL     OW35110   0.004   3.397   0.361  0.2474 -0.2084  0.3970
 7825SOL    HW135111   4.650   3.377   0.364  0.1525  0.0827 -0.7006
 7825SOL    HW235112   0.034   3.307   0.367  2.1909  0.3734 -0.7112
 7826SOL     OW35113   3.395   3.484   5.040  0.0985  0.1144  0.2567
 7826SOL    HW135114   3.384   3.558   5.099 -0.7280  1.4094 -1.5285
 7826SOL    HW235115   3.309   3.447   5.061  0.0927 -0.3400 -0.5480
 7827SOL     OW35116   4.302   3.586  14.194  0.0154  0.5556  0.3753
 7827SOL    HW135117   4.354   3.636  14.258 -0.8793  0.9541  0.7826
 7827SOL    HW235118   4.283   3.644  14.120 -0.4646 -1.5251 -1.1409
 7828SOL     OW35119   3.345   0.265  16.051  0.2168 -0.0599 -0.1708
 7828SOL    HW135120   3.396   0.345  16.042  0.8279 -0.4841 -0.4657
 7828SOL    HW235121   3.257   0.297  16.032 -0.7496 -2.4742  0.1355
 7829SOL     OW35122   0.619   0.487  13.564 -0.6908  0.1010 -0.5324
 7829SOL    HW135123   0.698   0.508  13.514  0.0605 -1.2820  0.0649
 7829SOL    HW235124   0.560   0.558  13.538  0.5494  1.5199  0.5316
 7830SOL     OW35125   4.066   3.947   9.041  0.0688 -0.0140 -0.1876
 7830SOL    HW135126   4.154   3.922   9.068 -0.2348 -1.1525 -0.2213
 7830SOL    HW235127   4.017   3.868   9.017  0.3373  0.2175 -1.5040
 7831SOL     OW35128   3.456   4.471   9.805 -0.3302 -0.3737 -0.1555
 7831SOL    HW135129   3.500   4.552   9.831 -0.2127 -0.3952 -0.2917
 7831SOL    HW235130   3.487   4.412   9.874  0.0900 -1.8772 -1.6466
 7832SOL     OW35131   1.767   4.348   4.013 -0.7757  0.1604  0.2253
 7832SOL    HW135132   1.792   4.266   4.055 -1.5044 -0.5675 -0.7837
 7832SOL    HW235133   1.681   4.373   4.048 -0.5572  1.4566 -0.1562
 7833SOL     OW35134   3.756   2.483   1.207  0.0543 -0.2124 -0.3394
 7833SOL    HW135135   3.789   2.566   1.242  0.7904 -0.7190  0.1715
 7833SOL    HW235136   3.832   2.429   1.231 -0.7766 -0.4983  1.6485
 7834SOL     OW35137   1.191   4.019  11.287 -0.0875 -0.0710  0.7610
 7834SOL    HW135138   1.133   3.952  11.324 -0.9761 -0.4522 -1.3148
 7834SOL    HW235139   1.250   4.032  11.362  1.6962 -2.5769 -0.2001
 7835SOL     OW35140   2.186   4.263   4.796 -0.2296  0.2554  0.2481
 7835SOL    HW135141   2.260   4.306   4.754  1.5417 -0.1895  2.9170
 7835SOL    HW235142   2.213   4.292   4.883  2.2371 -0.5061 -0.2791
 7836SOL     OW35143   1.651   2.319  16.422 -0.2494 -0.5972  0.2415
 7836SOL    HW135144   1.629   2.366  16.342 -0.4179 -0.1453  0.5491
 7836SOL    HW235145   1.577   2.350  16.475 -1.6352 -0.1575 -1.9804
 7837SOL     OW35146   2.541   2.461   0.333  0.4255 -0.1565 -0.6165
 7837SOL    HW135147   2.574   2.452   0.243 -0.2266 -0.0664 -0.8651
 7837SOL    HW235148   2.596   2.536   0.356  1.0870 -0.8614  0.0604
 7838SOL     OW35149   0.270   3.878  17.411  0.1110  0.5401  0.4094
 7838SOL    HW135150   0.285   3.814  17.341 -0.5707  1.2385 -0.3646
 7838SOL    HW235151   0.351   3.869  17.463 -0.2812  0.0080  0.9373
 7839SOL     OW35152   4.009   4.331   2.226  0.4769  0.0573 -0.0457
 7839SOL    HW135153   3.971   4.262   2.171  1.8346 -0.0508 -0.8342
 7839SOL    HW235154   3.941   4.329   2.293  1.6575 -0.2536  1.1385
 7840SOL     OW35155   0.904   1.950   5.919  0.5119 -0.3476 -0.2215
 7840SOL    HW135156   0.901   1.895   5.997  0.1886  1.0666  0.7582
 7840SOL    HW235157   0.979   1.904   5.881 -0.7026 -2.9593  0.5312
 7841SOL     OW35158   1.692   2.208   6.511 -0.1336 -0.3943 -0.2098
 7841SOL    HW135159   1.746   2.136   6.478  0.0729 -0.9695  1.3920
 7841SOL    HW235160   1.733   2.285   6.472  0.8150 -0.5184  0.5789
 7842SOL     OW35161   3.854   2.879  13.414  0.1074  0.5150 -0.1889
 7842SOL    HW135162   3.889   2.968  13.405 -1.8962  1.4150  0.8444
 7842SOL    HW235163   3.830   2.859  13.324  0.5187 -1.7976  0.2091
 7843SOL     OW35164   3.915   1.508   7.398  0.4799 -0.4240 -0.0181
 7843SOL    HW135165   3.885   1.475   7.313  0.1257  1.2773 -0.5622
 7843SOL    HW235166   3.992   1.453   7.412  0.6574 -0.4263 -0.9872
 7844SOL     OW35167   2.374   0.046   5.410  0.2925 -0.4279 -0.0546
 7844SOL    HW135168   2.467   0.050   5.433 -0.1554 -1.9438  1.9820
 7844SOL    HW235169   2.356   0.133   5.372  1.2607 -0.5775 -0.8751
 7845SOL     OW35170   0.559   1.336  15.396 -0.7030  0.1021 -0.3760
 7845SOL    HW135171   0.563   1.317  15.490  0.0912 -1.3688 -0.7147
 7845SOL    HW235172   0.478   1.386  15.406  0.3112  1.6058  0.4003
 7846SOL     OW35173   4.719   2.832   5.629  0.2247 -0.8261  0.4793
 7846SOL    HW135174   0.024   2.865   5.551  0.5757 -1.9919  0.1990
 7846SOL    HW235175   0.053   2.830   5.689  1.5184 -0.8546 -1.1128
 7847SOL     OW35176   2.220   0.109   1.963  0.0086  0.2240  0.3585
 7847SOL    HW135177   2.148   0.160   2.001 -1.9421 -1.9597 -0.4301
 7847SOL    HW235178   2.169   0.079   1.887 -0.7659 -1.8929  1.7086
 7848SOL     OW35179   4.017   3.406   2.807 -0.2350 -0.3130  0.6541
 7848SOL    HW135180   4.059   3.440   2.886  0.4710 -2.2538  1.1062
 7848SOL    HW235181   4.076   3.447   2.744 -2.1339 -0.1688 -1.0352
 7849SOL     OW35182   2.866   1.373   2.754 -0.4353  0.0754 -0.1203
 7849SOL    HW135183   2.772   1.357   2.749 -0.3290 -0.9486  1.2192
 7849SOL    HW235184   2.882   1.285   2.786 -1.5654 -0.3947 -0.8663
 7850SOL     OW35185   2.846   4.161   6.243 -0.2570 -0.1913 -0.3904
 7850SOL    HW135186   2.888   4.115   6.169 -0.0508  0.4664 -0.6774
 7850SOL    HW235187   2.777   4.097   6.261  0.2001 -0.5859 -0.0298
 7851SOL     OW35188   1.718   4.566   8.222 -0.0506  0.7096 -0.1062
 7851SOL    HW135189   1.765   4.602   8.147  2.3361  0.3652  1.1927
 7851SOL    HW235190   1.736   4.472   8.210 -0.0666  0.5498  1.1324
 7852SOL     OW35191   3.043   2.603   2.113 -0.2081 -0.1775 -0.3283
 7852SOL    HW135192   2.992   2.538   2.161 -0.9840  0.3350 -0.4533
 7852SOL    HW235193   3.119   2.556   2.079 -0.2262  0.4505 -1.2287
 7853SOL     OW35194   3.607   2.040   6.880 -0.2000 -0.2213  1.0103
 7853SOL    HW135195   3.603   2.007   6.970  0.1480  0.4992  1.2862
 7853SOL    HW235196   3.513   2.035   6.860  0.2175  0.8901 -1.1806
 7854SOL     OW35197   1.098   1.589   9.915  0.5944  0.5635  0.3002
 7854SOL    HW135198   1.014   1.551   9.889 -0.0396  0.8363  1.9398
 7854SOL    HW235199   1.110   1.558  10.005  1.6239  0.6912  0.2046
 7855SOL     OW35200   4.711   3.495   1.923 -0.6135 -0.5867  0.0564
 7855SOL    HW135201   0.023   3.523   1.847 -3.7794  0.7917 -1.6555
 7855SOL    HW235202   0.003   3.563   1.982  1.5883 -2.7018  1.3030
 7856SOL     OW35203   4.188   4.648  16.967  0.1900  0.3961  0.0173
 7856SOL    HW135204   4.210   4.663  17.058  1.8950 -1.8970 -0.0318
 7856SOL    HW235205   4.132   4.724  16.951 -0.3140  0.1951  0.8366
 7857SOL     OW35206   1.090   3.220   8.101 -0.4567 -0.0030 -0.1373
 7857SOL    HW135207   1.001   3.225   8.136 -0.1454 -1.2857  0.7908
 7857SOL    HW235208   1.075   3.184   8.014  0.2084  0.1397 -0.3069
 7858SOL     OW35209   1.550   0.120   6.574 -0.5523  0.1111  0.2102
 7858SOL    HW135210   1.456   0.135   6.565 -1.1032 -2.4546  1.5404
 7858SOL    HW235211   1.552   0.108   6.669  0.9463 -3.8370 -0.3097
 7859SOL     OW35212   1.899   4.162  13.909 -0.0553  0.0115 -0.2212
 7859SOL    HW135213   1.930   4.245  13.944 -1.4494  0.3789  0.1132
 7859SOL    HW235214   1.908   4.186  13.816  0.6538  0.6137  0.0008
 7860SOL     OW35215   2.295   0.163  11.747  0.0133  0.2116  0.4565
 7860SOL    HW135216   2.347   0.168  11.668 -1.2146 -1.4757 -0.4671
 7860SOL    HW235217   2.207   0.159  11.710  0.3678  3.5006 -0.6588
 7861SOL     OW35218   4.428   2.248   2.411 -0.8130  0.1069  0.7384
 7861SOL    HW135219   4.401   2.190   2.482  0.6612  1.9947  2.8417
 7861SOL    HW235220   4.408   2.188   2.340 -0.0307  2.6776 -1.6531
 7862SOL     OW35221   1.592   1.861   4.993 -0.1537 -0.1172 -0.0434
 7862SOL    HW135222   1.549   1.777   4.977 -0.7692  0.6217 -2.3795
 7862SOL    HW235223   1.657   1.861   4.921 -0.2709 -1.4397 -0.1399
 7863SOL     OW35224   4.324   3.888   9.093 -0.3596 -0.2057  0.1910
 7863SOL    HW135225   4.383   3.839   9.035  1.3161 -0.1868  1.8562
 7863SOL    HW235226   4.380   3.964   9.109 -0.2669 -0.4562  1.0599
 7864SOL     OW35227   0.851   4.144   7.166  0.1095 -0.7257 -0.1876
 7864SOL    HW135228   0.804   4.163   7.085  1.0082  2.1844 -0.0116
 7864SOL    HW235229   0.807   4.195   7.234  1.7612  1.3452 -0.6956
 7865SOL     OW35230   4.580   0.466   5.378  0.3247 -0.4934  0.2644
 7865SOL    HW135231   4.547   0.415   5.451  1.9607 -1.8103  0.1001
 7865SOL    HW235232   4.545   0.550   5.407  0.9935 -0.4027  0.8216
 7866SOL     OW35233   1.686   4.342   8.552 -0.1855 -0.2468  0.1158
 7866SOL    HW135234   1.616   4.350   8.617 -0.3260 -0.1980 -0.0430
 7866SOL    HW235235   1.638   4.309   8.476 -0.2283  0.5464 -0.2002
 7867SOL     OW35236   1.737   4.620   8.551  0.0150  0.3017  0.5699
 7867SOL    HW135237   1.719   4.528   8.533  2.1073 -0.0559  0.3353
 7867SOL    HW235238   1.732   4.658   8.463 -1.5106 -1.5039 -0.1078
 7868SOL     OW35239   2.238   2.788  12.039 -0.0126 -0.5948 -0.6246
 7868SOL    HW135240   2.191   2.714  12.000 -0.7105 -1.9602  2.7952
 7868SOL    HW235241   2.161   2.843  12.036  0.6228  0.3668  0.6449
 7869SOL     OW35242   2.873   0.615  11.711  0.0163  0.1290 -0.3349
 7869SOL    HW135243   2.967   0.633  11.706 -0.3072  1.7781 -0.6696
 7869SOL    HW235244   2.831   0.700  11.729 -0.2106  0.1920 -1.1784
 7870SOL     OW35245   2.984   2.953   6.592 -0.0707 -0.5000 -0.1013
 7870SOL    HW135246   3.062   2.952   6.537 -0.3648  1.2852 -0.5711
 7870SOL    HW235247   2.920   2.921   6.528  0.3559  1.4021 -1.5067
 7871SOL     OW35248   3.036   3.659   6.079  0.3103 -0.1118 -0.4917
 7871SOL    HW135249   3.026   3.666   5.985  0.3676  2.0729 -0.3279
 7871SOL    HW235250   3.127   3.682   6.099  0.1144  0.3975 -0.1887
 7872SOL     OW35251   1.084   3.987  14.942  0.3411  0.4575 -0.0968
 7872SOL    HW135252   1.041   4.034  15.013 -0.5621 -0.7083  0.1381
 7872SOL    HW235253   1.110   3.905  14.985  0.0912  0.7511  0.6068
 7873SOL     OW35254   3.041   3.508   9.213  0.4509 -0.3660 -0.3019
 7873SOL    HW135255   3.108   3.563   9.255 -0.2321  1.4259 -1.5401
 7873SOL    HW235256   2.962   3.559   9.230  1.2704  0.7779  0.0795
 7874SOL     OW35257   0.852   4.203  17.571  0.2869  0.7210  0.8382
 7874SOL    HW135258   0.892   4.266  17.510 -1.2361  0.6531 -0.2263
 7874SOL    HW235259   0.763   4.197  17.537  0.6079  1.6220 -0.1664
 7875SOL     OW35260   0.418   3.074   3.549 -0.0011  0.0716  0.6940
 7875SOL    HW135261   0.471   3.144   3.588 -0.0149  0.2025  0.4783
 7875SOL    HW235262   0.373   3.132   3.486  0.7386 -0.0258  0.0745
 7876SOL     OW35263   0.797   1.969   8.014  0.3921 -0.1497 -0.4227
 7876SOL    HW135264   0.852   1.909   8.064  2.6575  2.4478  0.2162
 7876SOL    HW235265   0.843   2.049   8.041  0.4190  0.2939 -1.8070
 7877SOL     OW35266   2.146   3.363   1.773  0.4512 -0.2983  0.1076
 7877SOL    HW135267   2.146   3.432   1.708  2.0727 -2.5459 -2.2776
 7877SOL    HW235268   2.218   3.376   1.835 -1.0912 -1.3623  2.1266
 7878SOL     OW35269   4.024   1.631   6.572  0.0380 -0.3810  0.5008
 7878SOL    HW135270   3.947   1.648   6.625  0.1392  1.0703  0.1835
 7878SOL    HW235271   4.087   1.689   6.615  0.4041 -0.4873  0.1121
 7879SOL     OW35272   3.275   4.119  17.451  0.8862 -0.2170  0.9507
 7879SOL    HW135273   3.255   4.039  17.402 -0.1369  0.8801 -0.4413
 7879SOL    HW235274   3.368   4.133  17.434  0.2816  2.0859 -0.5041
 7880SOL     OW35275   3.517   0.862   9.712 -0.0827 -0.6356  0.2781
 7880SOL    HW135276   3.571   0.815   9.777 -1.2914 -1.5764  0.5990
 7880SOL    HW235277   3.524   0.802   9.638  0.1030  0.1913 -0.3757
 7881SOL     OW35278   1.476   0.501   2.095  0.1687  0.0378  0.1538
 7881SOL    HW135279   1.427   0.431   2.051  1.5493 -1.4762  1.0135
 7881SOL    HW235280   1.516   0.545   2.021  0.4437  2.3460  1.6868
 7882SOL     OW35281   0.802   4.532   6.732  0.0317  0.1978  0.2573
 7882SOL    HW135282   0.783   4.453   6.681 -1.0750  0.6849 -0.0736
 7882SOL    HW235283   0.711   4.545   6.758 -0.5560 -2.7732 -0.3025
 7883SOL     OW35284   2.886   3.519  12.618  0.4277  0.4322  0.2272
 7883SOL    HW135285   2.899   3.610  12.647  0.4436 -0.0120  1.5985
 7883SOL    HW235286   2.868   3.463  12.693  0.3350 -0.1371 -0.2242
 7884SOL     OW35287   4.166   0.572   9.129 -0.4261 -0.2380 -0.0686
 7884SOL    HW135288   4.105   0.627   9.179  0.2855  1.3644 -0.9402
 7884SOL    HW235289   4.191   0.497   9.183  2.3954  0.1660 -0.8108
 7885SOL     OW35290   1.942   4.079   7.592  0.4272 -0.1040  0.0924
 7885SOL    HW135291   2.026   4.115   7.564  0.2821 -0.0760 -0.3105
 7885SOL    HW235292   1.906   4.167   7.608 -1.1483 -1.1928  2.4813
 7886SOL     OW35293   2.180   3.758   7.247 -0.5179  0.6918  0.2215
 7886SOL    HW135294   2.248   3.740   7.182  0.3156 -1.6053  1.7199
 7886SOL    HW235295   2.186   3.852   7.264  1.3838  0.6810 -0.4078
 7887SOL     OW35296   3.045   0.555   7.117  0.5433 -0.1293 -0.5433
 7887SOL    HW135297   3.098   0.583   7.192  1.7684  1.4926 -2.0026
 7887SOL    HW235298   2.956   0.555   7.153  1.7717  1.5445  2.5286
 7888SOL     OW35299   0.951   4.585  15.103 -0.2180 -0.1248  0.0198
 7888SOL    HW135300   0.999   4.575  15.185  1.6879  0.8834 -0.9852
 7888SOL    HW235301   1.022   4.594  15.040  0.5876 -0.0920  0.9457
 7889SOL     OW35302   1.359   1.007   9.274  0.1580  0.3813  0.1958
 7889SOL    HW135303   1.436   1.033   9.324  0.4351 -0.4182  0.1875
 7889SOL    HW235304   1.336   0.929   9.323  1.0991  0.0875  0.1700
 7890SOL     OW35305   4.059   3.616  11.065 -0.0101 -0.1141 -0.1364
 7890SOL    HW135306   4.033   3.693  11.015 -0.2790  0.3821  0.7745
 7890SOL    HW235307   4.016   3.634  11.149 -1.6359 -2.4477 -0.4831
 7891SOL     OW35308   0.411   2.126  12.850  0.0985  0.5600  0.2456
 7891SOL    HW135309   0.405   2.067  12.774  1.4500 -0.3153  0.8010
 7891SOL    HW235310   0.396   2.214  12.816  0.3415  0.3105 -0.5201
 7892SOL     OW35311   3.380   1.009   1.867  0.4572  0.0701 -0.6220
 7892SOL    HW135312   3.427   1.065   1.929 -0.1570  0.9330 -0.9436
 7892SOL    HW235313   3.373   0.932   1.924  1.0352  1.1390  0.9087
 7893SOL     OW35314   3.897   4.539   4.485  0.0567 -0.8297 -0.7139
 7893SOL    HW135315   3.967   4.595   4.451  1.0399 -2.3122 -1.1461
 7893SOL    HW235316   3.892   4.585   4.569  2.3649 -2.0223  0.0921
 7894SOL     OW35317   3.683   1.592  14.368  0.4235  0.6117 -0.1452
 7894SOL    HW135318   3.716   1.531  14.435 -1.3707 -0.6445 -0.4203
 7894SOL    HW235319   3.604   1.623  14.411 -0.4222 -1.2315 -0.3461
 7895SOL     OW35320   2.836   2.388   7.196 -0.3990  0.1320 -0.2727
 7895SOL    HW135321   2.895   2.312   7.204  0.7633  1.0518 -0.0425
 7895SOL    HW235322   2.752   2.346   7.211  0.3309 -1.5336 -0.7640
 7896SOL     OW35323   4.454   4.482   4.532 -0.1212 -0.4316 -0.3404
 7896SOL    HW135324   4.443   4.497   4.625 -1.5689 -1.2693 -0.3741
 7896SOL    HW235325   4.368   4.495   4.492 -0.1495  0.8204  0.1479
 7897SOL     OW35326   0.712   1.940   1.586 -0.5313  0.4909  0.0773
 7897SOL    HW135327   0.679   1.866   1.636  0.4091 -0.8664 -1.2953
 7897SOL    HW235328   0.635   1.988   1.555 -1.0964  0.2673  1.1498
 7898SOL     OW35329   0.777   0.341   1.811  0.4676  0.3688  0.2996
 7898SOL    HW135330   0.742   0.264   1.855  0.0571  0.4424  0.1103
 7898SOL    HW235331   0.750   0.325   1.720 -0.5170 -0.5019  0.7406
 7899SOL     OW35332   0.622   1.006   6.995 -0.5363 -0.3714  0.2405
 7899SOL    HW135333   0.624   1.052   7.078 -0.7954 -2.9856  1.7157
 7899SOL    HW235334   0.608   0.914   7.019  0.3498 -0.6239 -0.1839
 7900SOL     OW35335   4.511   1.691   3.825 -0.6794  0.1771  0.1285
 7900SOL    HW135336   4.484   1.744   3.900 -0.8298  2.4906 -1.5219
 7900SOL    HW235337   4.475   1.734   3.747  0.0758 -0.5027 -0.5938
 7901SOL     OW35338   2.716   3.739  14.746 -0.7264  0.1624 -0.0287
 7901SOL    HW135339   2.630   3.756  14.785  0.2216  4.2203  0.2209
 7901SOL    HW235340   2.711   3.767  14.655 -3.3750 -3.2234 -0.9273
 7902SOL     OW35341   0.408   2.022   3.270 -0.3136  0.0592 -0.1009
 7902SOL    HW135342   0.433   1.959   3.202  0.2280  1.9258 -1.6225
 7902SOL    HW235343   0.495   2.031   3.310 -0.9621 -0.3768  1.3898
 7903SOL     OW35344   1.518   2.944  16.117  0.1203 -0.1866  0.0278
 7903SOL    HW135345   1.473   2.859  16.107  1.3186 -1.0355  2.0558
 7903SOL    HW235346   1.606   2.909  16.124 -0.9506 -3.1095 -0.7668
 7904SOL     OW35347   2.633   0.388   4.849 -0.5502  0.1062 -0.2077
 7904SOL    HW135348   2.659   0.378   4.758 -2.7813  0.7051 -0.8831
 7904SOL    HW235349   2.623   0.483   4.853  0.0165  0.2022 -1.2546
 7905SOL     OW35350   2.281   0.272   5.790 -0.0167 -0.2680  0.5692
 7905SOL    HW135351   2.253   0.286   5.881 -1.1786  1.1226 -0.0141
 7905SOL    HW235352   2.306   0.363   5.773 -1.2738 -0.1797 -0.7723
 7906SOL     OW35353   3.674   1.659   5.967 -0.1570  0.7116 -0.3478
 7906SOL    HW135354   3.585   1.624   5.969 -0.3710  1.4763  2.7840
 7906SOL    HW235355   3.723   1.620   6.039  0.5886  0.4010 -1.0195
 7907SOL     OW35356   2.672   2.457   4.964 -0.4743 -0.0383  0.1411
 7907SOL    HW135357   2.737   2.432   4.897  0.0692  1.8258 -0.0147
 7907SOL    HW235358   2.716   2.429   5.044  0.8763 -1.1293 -0.9736
 7908SOL     OW35359   0.658   0.784   9.331 -0.3222 -0.1498  0.0643
 7908SOL    HW135360   0.589   0.801   9.396 -2.9351  1.9267 -3.2005
 7908SOL    HW235361   0.726   0.741   9.382 -0.8007  0.0010  0.8451
 7909SOL     OW35362   0.141   1.950   0.261 -0.2562 -0.0293  0.2952
 7909SOL    HW135363   0.181   1.867   0.289 -0.1757  0.0530  0.4236
 7909SOL    HW235364   0.174   2.006   0.331  0.2343  1.5884 -1.2676
 7910SOL     OW35365   0.374   3.072  13.219  0.1307  0.1842 -0.7455
 7910SOL    HW135366   0.300   3.129  13.242 -0.3469 -0.8006  0.1688
 7910SOL    HW235367   0.324   2.998  13.187  1.0494 -1.1815  0.9993
 7911SOL     OW35368   4.410   0.728   1.699  0.5286  0.2522 -0.1988
 7911SOL    HW135369   4.396   0.639   1.666 -0.4591  0.9577 -1.6852
 7911SOL    HW235370   4.414   0.711   1.794 -1.3805 -0.0198 -0.1700
 7912SOL     OW35371   4.067   0.805   8.530  0.4685 -0.0634 -0.3466
 7912SOL    HW135372   3.974   0.814   8.549  0.9168 -0.0293  1.8088
 7912SOL    HW235373   4.092   0.750   8.603  0.7790 -1.0714 -1.2119
 7913SOL     OW35374   0.400   3.764   4.123 -0.1559  0.1767 -0.1229
 7913SOL    HW135375   0.408   3.719   4.207 -0.5485  2.1557  0.9796
 7913SOL    HW235376   0.487   3.771   4.083  1.9316 -2.5333  3.9538
 7914SOL     OW35377   0.699   2.178   4.022 -0.2763  0.3151  0.3037
 7914SOL    HW135378   0.640   2.104   4.009 -1.6499  1.3601  0.5887
 7914SOL    HW235379   0.738   2.140   4.101  1.8477 -0.2790 -1.0192
 7915SOL     OW35380   3.851   2.726   1.248 -0.0579 -0.4930 -0.3324
 7915SOL    HW135381   3.941   2.697   1.234  0.0038  1.3026 -3.6772
 7915SOL    HW235382   3.853   2.797   1.312  0.4071 -0.0963 -0.7861
 7916SOL     OW35383   2.304   4.659   0.398 -0.4010 -0.0815  0.2862
 7916SOL    HW135384   2.230   4.630   0.344  0.6034  0.3701 -1.3216
 7916SOL    HW235385   2.375   4.601   0.371 -0.0283  0.3712  0.2943
 7917SOL     OW35386   2.239   1.246  15.060  0.0409  0.0745  0.0079
 7917SOL    HW135387   2.233   1.260  15.155 -0.8993 -2.3534  0.2997
 7917SOL    HW235388   2.273   1.331  15.033 -1.7179  0.6417 -0.4703
 7918SOL     OW35389   0.866   1.940  12.562 -0.0914 -0.0102 -0.0088
 7918SOL    HW135390   0.882   1.873  12.495 -1.1948 -1.2647  0.9525
 7918SOL    HW235391   0.851   1.884  12.639  1.0879 -1.3680 -0.7588
 7919SOL     OW35392   0.293   1.169   5.138  0.2143 -0.1265 -0.4208
 7919SOL    HW135393   0.201   1.177   5.112 -0.6966 -0.6757  2.6252
 7919SOL    HW235394   0.313   1.257   5.167 -4.3875  1.2028 -1.2130
 7920SOL     OW35395   0.119   0.500   3.570 -0.0914 -0.1202 -0.6654
 7920SOL    HW135396   0.191   0.450   3.531 -1.1074 -2.1119 -0.0093
 7920SOL    HW235397   0.056   0.437   3.607 -1.5359  1.8432  0.2075
 7921SOL     OW35398   1.053   4.314  16.312  0.0813 -0.1190 -0.0270
 7921SOL    HW135399   1.029   4.395  16.266 -1.9518 -1.4616 -1.3403
 7921SOL    HW235400   1.142   4.344  16.332 -0.1454 -1.4944  3.0139
 7922SOL     OW35401   2.066   1.073   9.330  0.2754  0.4918 -0.3507
 7922SOL    HW135402   2.147   1.042   9.290 -0.0332  1.5755 -1.8322
 7922SOL    HW235403   2.091   1.061   9.422  2.4898  4.2250 -0.4783
 7923SOL     OW35404   0.134   3.112   2.949 -0.0915 -0.4395 -0.1580
 7923SOL    HW135405   0.173   3.026   2.966 -1.1169 -0.4764  2.0423
 7923SOL    HW235406   0.116   3.147   3.036 -0.0440 -0.7754 -0.0149
 7924SOL     OW35407   4.374   1.596   5.909  0.1993  0.3244 -0.5483
 7924SOL    HW135408   4.435   1.640   5.850  1.1954  1.5512  1.3636
 7924SOL    HW235409   4.307   1.664   5.922 -0.7725 -0.6526 -0.5310
 7925SOL     OW35410   4.229   3.971   6.841 -0.0062  0.4157  0.1253
 7925SOL    HW135411   4.250   3.895   6.895  0.4054  0.4683  0.0408
 7925SOL    HW235412   4.302   4.033   6.840 -0.9266  1.5121  0.6745
 7926SOL     OW35413   4.235   2.888   9.344 -0.5475 -0.1476  0.6651
 7926SOL    HW135414   4.294   2.881   9.270 -0.1057 -1.6374  1.1560
 7926SOL    HW235415   4.154   2.860   9.302  0.4919 -0.5233 -1.0539
 7927SOL     OW35416   1.515   2.489  11.859  0.2332  0.2061 -0.3290
 7927SOL    HW135417   1.581   2.511  11.924  1.4219  0.0568 -1.4830
 7927SOL    HW235418   1.449   2.454  11.919 -0.4612  0.6493 -0.8358
 7928SOL     OW35419   0.759   1.809   0.915 -0.3882 -0.8635 -0.0380
 7928SOL    HW135420   0.674   1.766   0.928 -0.1156 -1.3670  0.0796
 7928SOL    HW235421   0.819   1.736   0.928  0.0594 -0.3418  0.7762
 7929SOL     OW35422   2.861   2.676   7.170  0.1754 -0.2964 -0.4179
 7929SOL    HW135423   2.947   2.708   7.143  0.7166 -0.5184  1.0138
 7929SOL    HW235424   2.877   2.582   7.181  0.7352 -0.4087 -2.3261
 7930SOL     OW35425   4.684   2.793   8.017 -0.0764 -0.2209  0.1575
 7930SOL    HW135426   0.003   2.798   8.092 -0.8686 -1.1360  0.8373
 7930SOL    HW235427   4.694   2.702   7.990  2.1443  0.3586 -1.0247
 7931SOL     OW35428   2.713   0.146  11.628  0.4099 -0.2964  0.4116
 7931SOL    HW135429   2.726   0.202  11.704  2.4861 -1.7945  1.1635
 7931SOL    HW235430   2.789   0.172  11.576 -0.7576  0.2650 -1.0458
 7932SOL     OW35431   2.271   1.622   4.429 -0.9945 -0.3024  0.2097
 7932SOL    HW135432   2.363   1.602   4.444 -0.9176  1.2858  1.7517
 7932SOL    HW235433   2.247   1.682   4.499 -1.2481  1.2178 -1.1577
 7933SOL     OW35434   3.353   0.868   5.924  0.2862 -0.1612 -0.1422
 7933SOL    HW135435   3.405   0.795   5.957  2.6251  1.1803 -0.8401
 7933SOL    HW235436   3.390   0.879   5.836  0.6467  1.2248  0.1807
 7934SOL     OW35437   1.472   4.444   7.657  0.2701 -0.0223  0.4727
 7934SOL    HW135438   1.492   4.536   7.640 -0.0790 -0.2782 -1.3560
 7934SOL    HW235439   1.499   4.446   7.749 -0.6064  0.2820  0.7279
 7935SOL     OW35440   0.368   1.419   5.235  0.3533  0.4488 -0.0115
 7935SOL    HW135441   0.357   1.479   5.309 -0.0571 -1.5508  1.5624
 7935SOL    HW235442   0.463   1.411   5.228  0.1729 -0.2207 -1.6692
 7936SOL     OW35443   0.386   2.707   1.808 -0.2942 -0.0642 -0.1305
 7936SOL    HW135444   0.359   2.733   1.895  2.7566  0.5025  0.6548
 7936SOL    HW235445   0.410   2.616   1.828  1.0050  0.3860  0.3546
 7937SOL     OW35446   3.552   2.253   3.208  0.1315 -0.3859  0.0001
 7937SOL    HW135447   3.637   2.292   3.188 -0.6098  0.7339 -1.0061
 7937SOL    HW235448   3.498   2.318   3.161 -0.5464 -0.6880  0.3764
 7938SOL     OW35449   4.652   1.615   2.307 -1.0317  0.3305  0.5237
 7938SOL    HW135450   4.642   1.641   2.399  1.1493 -1.3743  1.2475
 7938SOL    HW235451   4.690   1.699   2.280 -0.5006 -0.0234  0.1656
 7939SOL     OW35452   2.914   3.705  15.268  0.8360  0.5141 -0.1696
 7939SOL    HW135453   2.870   3.779  15.312 -1.4039 -1.4666  0.9440
 7939SOL    HW235454   2.838   3.669  15.222 -1.3688  2.1720  2.1756
 7940SOL     OW35455   2.861   2.263   4.299  0.2396 -0.6855 -0.8516
 7940SOL    HW135456   2.909   2.324   4.243  0.0124  0.3354  0.0832
 7940SOL    HW235457   2.914   2.184   4.313 -0.4235 -0.6787  1.5668
 7941SOL     OW35458   2.503   0.367   6.782  0.9143  0.3518  0.5846
 7941SOL    HW135459   2.441   0.395   6.714  1.6797  0.1118 -0.2203
 7941SOL    HW235460   2.560   0.298   6.748 -0.2489 -1.7893  3.0063
 7942SOL     OW35461   1.467   1.743   1.755 -0.3287 -0.0374  0.4802
 7942SOL    HW135462   1.408   1.679   1.795  0.2140  0.1405  1.5659
 7942SOL    HW235463   1.431   1.760   1.668 -0.0473  1.5989  0.6874
 7943SOL     OW35464   4.575   3.291   1.825  0.4345  0.1404 -0.1180
 7943SOL    HW135465   4.623   3.269   1.745 -2.6483 -2.0044 -1.3484
 7943SOL    HW235466   4.636   3.357   1.858 -0.2570 -0.1474  1.7196
 7944SOL     OW35467   3.728   0.737   7.361  0.3641  0.1521  0.1853
 7944SOL    HW135468   3.687   0.657   7.327  1.2310  0.5568 -1.8533
 7944SOL    HW235469   3.733   0.713   7.453  0.4041  1.7059  0.5881
 7945SOL     OW35470   2.342   3.719   4.340  0.2193  0.4709  0.6866
 7945SOL    HW135471   2.261   3.762   4.367 -1.1244 -1.3651 -0.4679
 7945SOL    HW235472   2.319   3.681   4.256 -2.0552  1.3350  0.9254
 7946SOL     OW35473   4.623   1.329   3.682 -0.5380 -0.7398  0.2181
 7946SOL    HW135474   4.650   1.420   3.696  0.2705 -1.2755  2.1356
 7946SOL    HW235475   4.673   1.306   3.603 -0.9105  0.7847 -0.4537
 7947SOL     OW35476   0.232   1.688   4.085  0.0985 -0.0518 -0.5132
 7947SOL    HW135477   0.170   1.758   4.066  1.6539  1.3552 -0.3848
 7947SOL    HW235478   0.193   1.646   4.162  1.9355 -0.5621  0.1290
 7948SOL     OW35479   2.137   4.462  10.000  0.0837 -0.2779 -0.2461
 7948SOL    HW135480   2.214   4.417  10.033  0.8240  0.0452 -1.5329
 7948SOL    HW235481   2.178   4.527   9.943  0.8078  0.5854  1.2419
 7949SOL     OW35482   0.258   0.948   8.358  0.1639 -0.8106 -0.0220
 7949SOL    HW135483   0.175   0.989   8.338 -0.2808 -2.1415 -0.9826
 7949SOL    HW235484   0.271   0.977   8.448  0.7401  0.8851 -0.6613
 7950SOL     OW35485   1.697   1.228  13.012  0.4144  0.3208 -0.8769
 7950SOL    HW135486   1.738   1.175  13.080  1.5967  3.5528  0.9518
 7950SOL    HW235487   1.693   1.164  12.941 -0.1261 -1.1435  0.4721
 7951SOL     OW35488   0.280   4.578   3.486 -0.1561 -0.0689 -0.3176
 7951SOL    HW135489   0.212   4.641   3.462  0.3556  0.6069 -0.0160
 7951SOL    HW235490   0.359   4.630   3.475  0.7229 -0.8102  2.3659
 7952SOL     OW35491   2.953   1.744   6.209  0.0901  0.3353 -0.3566
 7952SOL    HW135492   2.976   1.673   6.149  0.5679 -1.3449  1.8212
 7952SOL    HW235493   2.918   1.814   6.154 -0.7121 -0.2722 -0.6313
 7953SOL     OW35494   1.793   4.577  14.817 -0.2823  0.0752  0.0137
 7953SOL    HW135495   1.747   4.606  14.739  2.1295  1.4194 -0.9047
 7953SOL    HW235496   1.820   4.657  14.861  0.7559 -0.1179 -0.2547
 7954SOL     OW35497   3.266   2.908   4.431 -0.7494 -0.1058  0.3389
 7954SOL    HW135498   3.200   2.896   4.499 -0.6302 -1.6243  0.1684
 7954SOL    HW235499   3.275   3.003   4.444  0.5541 -0.0904 -0.6352
 7955SOL     OW35500   2.483   1.492  14.112  0.0719  0.0640 -0.0387
 7955SOL    HW135501   2.456   1.525  14.027  1.0920 -2.7939 -1.4723
 7955SOL    HW235502   2.578   1.496  14.103  0.1131 -0.3566  0.1942
 7956SOL     OW35503   2.700   1.654   7.690 -0.2979  0.1110 -0.0955
 7956SOL    HW135504   2.695   1.670   7.596 -0.4326 -0.5326 -0.2020
 7956SOL    HW235505   2.684   1.733   7.741  0.3901  0.8578 -1.0686
 7957SOL     OW35506   2.048   3.913   5.535 -0.2773  0.2031  0.1087
 7957SOL    HW135507   2.066   3.991   5.586 -0.5201  0.3851 -0.0822
 7957SOL    HW235508   2.088   3.848   5.593  0.0032 -0.2680 -0.6232
 7958SOL     OW35509   4.654   2.070   6.395 -0.2914  0.5069  0.4057
 7958SOL    HW135510   4.738   2.027   6.382  0.5495  1.2579  3.3515
 7958SOL    HW235511   4.670   2.158   6.429 -1.5688  0.6012  0.7818
 7959SOL     OW35512   3.821   2.666   3.549  0.2225 -0.2415 -0.2058
 7959SOL    HW135513   3.744   2.659   3.605 -0.3645  2.1933 -0.7003
 7959SOL    HW235514   3.880   2.610   3.600 -0.7617 -0.2265  0.9394
 7960SOL     OW35515   2.958   3.614   5.371 -0.2027  0.2005  0.0924
 7960SOL    HW135516   2.963   3.539   5.312 -0.4553 -0.4780  0.9263
 7960SOL    HW235517   3.000   3.687   5.327  0.4492 -2.1269 -3.1632
 7961SOL     OW35518   1.804   1.162   1.952  0.8030 -0.0703 -0.2708
 7961SOL    HW135519   1.772   1.248   1.924 -0.6259 -0.2833  0.7288
 7961SOL    HW235520   1.876   1.153   1.890  0.4537 -0.1151 -0.6719
 7962SOL     OW35521   2.313   2.474   1.677 -0.2458 -0.2795 -0.6997
 7962SOL    HW135522   2.364   2.440   1.750  1.0085  0.0306 -1.4256
 7962SOL    HW235523   2.325   2.403   1.613 -1.9233 -1.6285  0.4857
 7963SOL     OW35524   3.549   0.608   9.140  0.3689 -0.6322  0.3521
 7963SOL    HW135525   3.469   0.635   9.095  0.7553 -0.8196 -0.4498
 7963SOL    HW235526   3.616   0.577   9.079  0.8420  0.0459  0.5241
 7964SOL     OW35527   0.071   2.919  13.721 -0.1443  0.3108 -0.4399
 7964SOL    HW135528   0.127   2.977  13.773  1.6183 -0.5961 -1.3413
 7964SOL    HW235529   0.133   2.864  13.673 -0.5814 -0.4363 -0.1496
 7965SOL     OW35530   0.623   0.430   0.515  0.3314  0.2593 -0.1935
 7965SOL    HW135531   0.636   0.496   0.584 -0.4341 -0.6505  0.8361
 7965SOL    HW235532   0.706   0.434   0.468  0.3699  1.7977  0.0014
 7966SOL     OW35533   0.893   2.876   6.888 -0.1196 -0.1325 -0.3460
 7966SOL    HW135534   0.838   2.910   6.959  0.4910  1.0525 -0.4470
 7966SOL    HW235535   0.840   2.799   6.868  1.3860 -1.4750  0.7798
 7967SOL     OW35536   0.110   1.369   6.664  0.9033  0.1836 -0.1345
 7967SOL    HW135537   0.109   1.462   6.642 -0.2829  0.4365  1.0311
 7967SOL    HW235538   0.200   1.347   6.639 -0.0457 -3.1532 -0.5364
 7968SOL     OW35539   2.823   3.185   7.720  0.2004 -0.1140  0.1752
 7968SOL    HW135540   2.912   3.202   7.751  0.4367 -1.6337  0.3236
 7968SOL    HW235541   2.791   3.253   7.778 -0.9934 -0.9629  0.5152
 7969SOL     OW35542   3.077   4.227  10.702  0.3593  0.0485 -0.5495
 7969SOL    HW135543   3.076   4.190  10.613 -0.6841  0.8012 -0.8422
 7969SOL    HW235544   2.994   4.188  10.728 -0.8877  3.1144  0.0034
 7970SOL     OW35545   4.135   3.336   1.738 -0.3048  0.1452  0.1335
 7970SOL    HW135546   4.132   3.414   1.793 -0.6977 -1.0292  1.7719
 7970SOL    HW235547   4.199   3.279   1.781  1.0346 -0.4909 -2.6786
 7971SOL     OW35548   0.827   4.625   8.950  0.1680  0.1195  0.5410
 7971SOL    HW135549   0.798   4.533   8.945  2.2323 -0.5998  1.5453
 7971SOL    HW235550   0.838   4.636   9.045 -0.6510  3.3748  0.2546
 7972SOL     OW35551   3.045   3.918  11.804  0.2793 -0.0290  0.3988
 7972SOL    HW135552   3.134   3.949  11.822  0.6378 -1.6228  1.3903
 7972SOL    HW235553   3.044   3.943  11.711  2.1577  0.7388  0.5808
 7973SOL     OW35554   1.344   3.739   3.419  0.0367 -0.0727  0.6581
 7973SOL    HW135555   1.329   3.767   3.509 -0.6588  2.6418 -0.3248
 7973SOL    HW235556   1.439   3.726   3.416 -0.4752 -3.0693 -2.3800
 7974SOL     OW35557   3.016   3.277  15.035  0.2395  0.6548  0.6855
 7974SOL    HW135558   2.959   3.354  15.030 -2.0597 -1.1528 -0.7588
 7974SOL    HW235559   2.951   3.207  15.037 -0.2488  1.0998  0.2571
 7975SOL     OW35560   0.461   0.401   4.351 -0.9992 -0.0277 -0.0063
 7975SOL    HW135561   0.509   0.318   4.341  1.1930  1.1617  0.7811
 7975SOL    HW235562   0.386   0.384   4.408  1.0057 -1.8066  2.1227
 7976SOL     OW35563   2.973   2.202  16.722  0.3507 -0.3126  0.1638
 7976SOL    HW135564   2.927   2.241  16.795 -0.7578 -0.2670 -0.5675
 7976SOL    HW235565   3.042   2.264  16.697  0.0911  0.8170  2.3130
 7977SOL     OW35566   4.518   1.611   7.712 -0.0886 -0.9909  0.1727
 7977SOL    HW135567   4.586   1.544   7.709 -0.3202 -1.2669  0.9828
 7977SOL    HW235568   4.452   1.558   7.756 -0.1885 -1.3338 -0.3924
 7978SOL     OW35569   3.519   1.903   6.604  0.0586 -0.3364  0.1095
 7978SOL    HW135570   3.552   1.935   6.520  1.8310 -0.4216  0.7900
 7978SOL    HW235571   3.476   1.820   6.579 -0.1214 -0.7075  1.6806
 7979SOL     OW35572   1.396   4.331   0.098 -0.3878 -0.1698 -0.4355
 7979SOL    HW135573   1.318   4.370   0.060  0.1263 -0.3109 -1.6330
 7979SOL    HW235574   1.386   4.238   0.078 -1.6762 -0.4372  1.4428
 7980SOL     OW35575   3.700   1.084   7.805  0.1309  0.1177 -0.1658
 7980SOL    HW135576   3.725   1.159   7.859  2.5598 -0.0317 -1.0758
 7980SOL    HW235577   3.606   1.099   7.796 -0.0891 -1.3525 -0.2427
 7981SOL     OW35578   4.006   2.454   3.926 -0.2790 -0.2216 -0.2099
 7981SOL    HW135579   4.074   2.387   3.925 -1.0023 -0.9787  1.1056
 7981SOL    HW235580   3.992   2.469   4.020  0.6456  2.2161 -0.4574
 7982SOL     OW35581   1.329   2.633   8.247  0.4530 -0.4331  0.1726
 7982SOL    HW135582   1.321   2.601   8.157 -0.3666 -0.0729  0.1133
 7982SOL    HW235583   1.352   2.550   8.290 -0.0206  0.5372  2.3039
 7983SOL     OW35584   0.016   4.667   3.854 -0.2914 -0.0668  0.0280
 7983SOL    HW135585   0.096   4.714   3.832 -1.4588  0.7009 -2.5429
 7983SOL    HW235586   0.016   4.649   3.948  1.8667 -2.0663 -0.3828
 7984SOL     OW35587   2.453   2.240   5.286 -0.5256  0.3536 -0.2266
 7984SOL    HW135588   2.371   2.241   5.335  0.0667 -0.6508  0.8036
 7984SOL    HW235589   2.427   2.197   5.204  0.0119 -0.0433 -0.1935
 7985SOL     OW35590   0.902   0.893   1.026 -0.1988  0.1382  0.0731
 7985SOL    HW135591   0.925   0.814   0.977 -0.6019  0.6511 -0.9368
 7985SOL    HW235592   0.928   0.870   1.116  1.6103 -0.7238 -0.6631
 7986SOL     OW35593   3.944   4.396  16.780 -0.1429 -0.1438 -0.3518
 7986SOL    HW135594   3.996   4.383  16.859  0.9996  0.1661 -1.0504
 7986SOL    HW235595   3.860   4.396  16.825  1.6620  0.3674  2.9544
 7987SOL     OW35596   3.665   3.499   5.813 -0.3809 -0.0558 -0.3847
 7987SOL    HW135597   3.685   3.580   5.766  3.9382  0.5641  2.4576
 7987SOL    HW235598   3.744   3.493   5.868  0.1171  3.7317 -0.6478
 7988SOL     OW35599   0.691   2.058   2.415 -0.2860  0.2645  0.0831
 7988SOL    HW135600   0.645   1.996   2.358  2.5901 -0.5077 -1.3928
 7988SOL    HW235601   0.625   2.127   2.411  0.0746  0.5469 -1.0615
 7989SOL     OW35602   0.325   2.499   7.331 -0.0940 -0.1802  0.0420
 7989SOL    HW135603   0.404   2.538   7.292  1.2113 -1.1648  1.7184
 7989SOL    HW235604   0.364   2.414   7.351 -0.1953 -0.2590 -0.0990
 7990SOL     OW35605   0.552   0.228   5.880  0.3586  0.1811  0.3850
 7990SOL    HW135606   0.541   0.270   5.795 -2.6446  0.3243  0.8410
 7990SOL    HW235607   0.569   0.138   5.854 -0.7186  0.6644 -1.9204
 7991SOL     OW35608   1.676   3.369  12.367  0.2730 -0.3892  0.3193
 7991SOL    HW135609   1.625   3.444  12.339  0.1124 -0.1819  1.1429
 7991SOL    HW235610   1.756   3.403  12.407 -0.7877  1.7122  0.6447
 7992SOL     OW35611   2.895   0.874  12.685 -0.1062  0.4276  0.3553
 7992SOL    HW135612   2.808   0.906  12.662  0.1631  1.2419  0.4624
 7992SOL    HW235613   2.869   0.797  12.736 -0.5231  1.1065  1.1724
 7993SOL     OW35614   2.228   0.797   2.010  0.0994 -0.0410 -0.1366
 7993SOL    HW135615   2.323   0.798   1.997  0.3443  0.7872  1.8272
 7993SOL    HW235616   2.203   0.829   1.923 -2.5702  1.0184  1.0381
 7994SOL     OW35617   4.281   1.083   0.688  0.1555  0.5888  0.5673
 7994SOL    HW135618   4.187   1.064   0.685  0.5102 -0.8018 -1.7480
 7994SOL    HW235619   4.286   1.130   0.772  0.2878 -0.8797  1.3798
 7995SOL     OW35620   2.266   4.375  14.155  0.4628 -0.2327  0.0750
 7995SOL    HW135621   2.260   4.329  14.239  0.8517  0.7702  0.6552
 7995SOL    HW235622   2.330   4.440  14.186  1.7926 -2.0067  1.0084
 7996SOL     OW35623   2.514   4.033   8.720  0.2245  0.3675 -0.2338
 7996SOL    HW135624   2.489   3.977   8.647  1.5468 -2.0338  1.1626
 7996SOL    HW235625   2.448   4.021   8.789  0.7324  0.6551  0.3009
 7997SOL     OW35626   2.395   3.567   2.579 -0.0643 -0.2288 -0.3393
 7997SOL    HW135627   2.437   3.653   2.578 -0.8085  0.0924 -3.1970
 7997SOL    HW235628   2.471   3.512   2.592 -0.9497 -2.1408 -3.3232
 7998SOL     OW35629   2.769   0.852   4.859  0.2824 -0.1712  0.3578
 7998SOL    HW135630   2.709   0.911   4.904  0.6717  0.5637 -0.0960
 7998SOL    HW235631   2.844   0.911   4.867 -0.4870  1.0551 -1.4166
 7999SOL     OW35632   2.767   4.093  14.215 -0.4414 -0.7313 -0.0692
 7999SOL    HW135633   2.713   4.037  14.160  0.2025 -2.9056  1.5020
 7999SOL    HW235634   2.857   4.079  14.183  0.4342 -1.6636  2.7866
 8000SOL     OW35635   1.850   3.963   4.688  0.4055  0.8583 -0.9482
 8000SOL    HW135636   1.923   3.985   4.746 -0.3450 -1.5521  0.9276
 8000SOL    HW235637   1.795   4.041   4.695  0.6786  1.1449 -1.9673
 8001SOL     OW35638   1.061   0.283   1.856  0.4122  0.4838 -0.1244
 8001SOL    HW135639   0.976   0.294   1.813 -0.1432 -1.2547  0.5070
 8001SOL    HW235640   1.046   0.322   1.942  2.2597  4.6575 -1.6691
 8002SOL     OW35641   4.093   2.882   3.339 -0.6463 -0.0020 -0.7203
 8002SOL    HW135642   4.017   2.936   3.362  0.4217  1.8646 -1.5764
 8002SOL    HW235643   4.102   2.846   3.427  0.3716 -0.2883 -0.9497
 8003SOL     OW35644   0.832   0.146   5.517 -0.1217 -0.1978  0.2499
 8003SOL    HW135645   0.827   0.241   5.508 -0.0781 -0.2052  0.1567
 8003SOL    HW235646   0.737   0.130   5.514  0.1629 -2.2142  1.6924
 8004SOL     OW35647   1.352   3.120   3.454 -0.3678 -0.0963 -0.4098
 8004SOL    HW135648   1.430   3.093   3.504  1.1903  0.7192 -2.4067
 8004SOL    HW235649   1.347   3.215   3.466 -1.6432  0.2126 -3.5580
 8005SOL     OW35650   4.688   2.072   8.741 -0.5906 -0.1582 -0.1927
 8005SOL    HW135651   4.628   2.107   8.675  0.4058  0.2592 -0.8643
 8005SOL    HW235652   4.736   2.016   8.681  1.6459  1.1809  0.3590
 8006SOL     OW35653   1.614   2.289   9.365 -0.8975  0.0403  0.1820
 8006SOL    HW135654   1.703   2.273   9.396 -1.0853 -1.7324 -0.1897
 8006SOL    HW235655   1.583   2.344   9.437 -0.6105  0.0269  0.3151
 8007SOL     OW35656   1.707   4.462  17.036  0.0661  0.2322  0.1572
 8007SOL    HW135657   1.657   4.429  16.962 -0.3657 -1.1593  1.0723
 8007SOL    HW235658   1.749   4.537  16.994  0.9709  1.0434  2.5162
 8008SOL     OW35659   4.375   4.045   6.211  0.1206  0.0168 -0.0033
 8008SOL    HW135660   4.345   4.025   6.300 -1.2816  1.4232 -0.1708
 8008SOL    HW235661   4.353   4.137   6.198  1.0139 -0.0039 -1.7390
 8009SOL     OW35662   2.732   3.492   1.316  0.6265 -0.1272  0.2021
 8009SOL    HW135663   2.822   3.473   1.342  0.0797 -1.4937  1.0947
 8009SOL    HW235664   2.748   3.567   1.258  1.0766 -0.9132 -0.7010
 8010SOL     OW35665   1.013   4.410   5.616 -0.0363 -0.2589  0.2531
 8010SOL    HW135666   1.091   4.395   5.563  1.3632 -1.4231  2.6735
 8010SOL    HW235667   0.998   4.504   5.607  0.7035 -0.1490  0.2170
 8011SOL     OW35668   2.756   0.250   5.919  0.0012  0.1034  0.2954
 8011SOL    HW135669   2.821   0.187   5.950  0.4750  2.3345  3.8617
 8011SOL    HW235670   2.818   0.311   5.879  0.2823  0.0758  0.6870
 8012SOL     OW35671   1.439   4.643  15.761 -0.3693  0.1558  0.4777
 8012SOL    HW135672   1.424   4.705  15.833  1.2076  0.5400  0.4662
 8012SOL    HW235673   1.407   4.562  15.800  1.0225  1.1079  3.5740
 8013SOL     OW35674   0.072   2.878  12.912 -0.2352  0.4218 -0.3993
 8013SOL    HW135675   0.033   2.797  12.879 -2.4422  0.9605  0.9116
 8013SOL    HW235676   0.131   2.892  12.837  1.3624 -2.9200  0.2054
 8014SOL     OW35677   0.138   1.645   8.681 -0.9467 -0.5466 -0.0415
 8014SOL    HW135678   0.194   1.634   8.604 -1.4167  0.0845 -0.4748
 8014SOL    HW235679   0.055   1.652   8.633 -0.8542  1.7701  0.1667
 8015SOL     OW35680   1.648   3.017   5.992 -0.3336 -0.2573  0.3382
 8015SOL    HW135681   1.564   3.040   6.030 -0.1959  0.5421  0.1554
 8015SOL    HW235682   1.708   3.086   6.019  1.4855 -2.4928  2.0114
 8016SOL     OW35683   3.800   2.015   2.755  0.1914  0.0917  0.0779
 8016SOL    HW135684   3.825   2.104   2.729  2.6081 -0.5505  0.1906
 8016SOL    HW235685   3.803   2.033   2.849 -1.0548  0.0066  0.1404
 8017SOL     OW35686   3.555   1.757  16.032  0.1649 -0.7137 -0.4166
 8017SOL    HW135687   3.583   1.847  16.052 -1.4245 -0.4280  0.5557
 8017SOL    HW235688   3.626   1.703  16.066  0.6412 -0.4850 -1.0309
 8018SOL     OW35689   4.530   3.668   6.819  0.4318 -0.5295 -0.3419
 8018SOL    HW135690   4.489   3.694   6.901  0.4566 -1.0922 -0.1551
 8018SOL    HW235691   4.591   3.603   6.854 -1.7155 -0.5757  3.2937
 8019SOL     OW35692   4.518   2.061   2.699  0.1857  0.0825 -0.3176
 8019SOL    HW135693   4.551   2.148   2.719 -0.8538  0.1886  0.9260
 8019SOL    HW235694   4.433   2.056   2.742 -0.1128  2.0125 -0.6787
 8020SOL     OW35695   1.505   0.869   7.369 -0.0910  0.0650  0.0543
 8020SOL    HW135696   1.567   0.813   7.416 -0.1995 -1.7976 -2.0232
 8020SOL    HW235697   1.434   0.813   7.337  0.9902 -1.3735  0.1686
 8021SOL     OW35698   0.880   1.980  14.551 -0.4341 -0.4949  0.2033
 8021SOL    HW135699   0.962   1.961  14.506  0.2601  1.4895  0.6508
 8021SOL    HW235700   0.825   1.905  14.527 -1.1940  0.8296 -2.2548
 8022SOL     OW35701   1.726   0.178   0.687  0.4277 -0.1727  0.1685
 8022SOL    HW135702   1.789   0.162   0.757 -0.1808 -1.6419  0.3865
 8022SOL    HW235703   1.777   0.144   0.614 -1.0060 -0.8263 -0.5374
 8023SOL     OW35704   1.052   0.251   1.046  0.1714 -0.3200  0.3850
 8023SOL    HW135705   1.114   0.260   1.118  1.1031  1.8987 -0.7031
 8023SOL    HW235706   1.113   0.260   0.973  1.2749 -3.8710  0.8717
 8024SOL     OW35707   2.883   4.730   2.952  0.3137  0.0621 -0.1025
 8024SOL    HW135708   2.909   0.028   3.036  0.6813  1.5873 -0.8951
 8024SOL    HW235709   2.928   4.647   2.937 -1.9515 -1.1133 -0.4513
 8025SOL     OW35710   2.103   1.398  13.889  0.4598  0.5357  0.4859
 8025SOL    HW135711   2.008   1.386  13.879  0.9300 -2.3348 -0.6744
 8025SOL    HW235712   2.127   1.338  13.818 -1.0747 -0.2325  0.6078
 8026SOL     OW35713   1.486   0.137   1.446 -0.4875 -0.5485 -0.4095
 8026SOL    HW135714   1.527   0.116   1.362 -2.8979  0.8205 -1.9226
 8026SOL    HW235715   1.530   0.220   1.464 -0.5562 -1.1462  2.5269
 8027SOL     OW35716   1.376   2.882  14.960  0.0494  0.2721 -0.3569
 8027SOL    HW135717   1.284   2.854  14.963  0.0293  0.2162 -1.2931
 8027SOL    HW235718   1.365   2.961  14.907 -1.9172 -1.4681 -2.5369
 8028SOL     OW35719   4.166   3.433  11.334 -0.5705 -0.1864  0.0047
 8028SOL    HW135720   4.075   3.462  11.321 -0.5353  0.0644  0.3464
 8028SOL    HW235721   4.198   3.448  11.245  1.1882 -1.0234  0.5095
 8029SOL     OW35722   4.172   4.622   9.309  0.0577  0.0902 -0.4101
 8029SOL    HW135723   4.130   4.640   9.394  0.4892 -1.5975  0.1503
 8029SOL    HW235724   4.262   4.596   9.327  0.0915  1.2103  1.0821
 8030SOL     OW35725   0.080   4.404  14.055 -0.1546 -0.7224  0.1237
 8030SOL    HW135726   0.043   4.474  14.002 -0.3456  1.0997  2.6762
 8030SOL    HW235727   0.005   4.344  14.058 -2.2382  1.9359  1.5914
 8031SOL     OW35728   0.452   2.018  17.034 -0.0155 -0.0340  0.1995
 8031SOL    HW135729   0.420   2.090  16.980  2.2300 -0.3210 -1.5042
 8031SOL    HW235730   0.373   1.970  17.058 -1.6930  1.7398 -1.7781
 8032SOL     OW35731   2.719   3.492   5.950 -0.0312 -0.0242 -0.2239
 8032SOL    HW135732   2.731   3.459   6.040  1.5057  1.3535  0.0929
 8032SOL    HW235733   2.636   3.536   5.967  2.5193  3.8247  2.4122
 8033SOL     OW35734   0.484   1.893   3.707 -0.1352  0.2404  0.2800
 8033SOL    HW135735   0.442   1.871   3.624  1.1818  1.6865 -0.7569
 8033SOL    HW235736   0.404   1.895   3.759  0.4121 -1.4260  1.1748
 8034SOL     OW35737   2.906   1.945   4.941  0.3125  0.2134 -0.7191
 8034SOL    HW135738   2.999   1.924   4.949 -0.3724 -1.5109  2.6971
 8034SOL    HW235739   2.885   1.956   4.848  0.4096  0.7141 -0.6809
 8035SOL     OW35740   1.607   2.380   7.531 -0.6479 -0.0075 -0.3971
 8035SOL    HW135741   1.662   2.356   7.456  1.6638  1.4062  0.8367
 8035SOL    HW235742   1.610   2.295   7.574  0.4178  0.9245  1.3696
 8036SOL     OW35743   1.824   3.552   4.057  0.7207 -0.1109  0.1477
 8036SOL    HW135744   1.915   3.570   4.080  0.3274  1.5213  0.4570
 8036SOL    HW235745   1.778   3.532   4.139  0.3046  3.2292  0.7528
 8037SOL     OW35746   3.635   3.685   7.612  0.4421 -0.1040  0.3201
 8037SOL    HW135747   3.605   3.648   7.529  1.7063  1.0388 -0.6602
 8037SOL    HW235748   3.729   3.687   7.594  0.5026  1.3410  0.8055
 8038SOL     OW35749   4.013   3.618   1.585  0.3570 -0.5166 -0.4287
 8038SOL    HW135750   3.988   3.526   1.577  0.9850 -0.6194 -1.2439
 8038SOL    HW235751   4.096   3.613   1.632 -0.9098 -0.1980  1.7867
 8039SOL     OW35752   0.846   2.092  16.140  0.1845 -0.0336 -0.4193
 8039SOL    HW135753   0.823   2.173  16.094 -0.5437  0.5394  0.9651
 8039SOL    HW235754   0.767   2.044  16.117 -0.8791  1.9433 -0.9678
 8040SOL     OW35755   3.531   0.708   6.655  0.5298 -0.1628  0.1908
 8040SOL    HW135756   3.445   0.668   6.671 -0.2537  1.3124 -0.3681
 8040SOL    HW235757   3.504   0.799   6.666  0.1819 -0.2025 -0.3597
 8041SOL     OW35758   0.635   0.012   8.815  0.5769  0.4998  0.3101
 8041SOL    HW135759   0.704   4.700   8.857  0.7471  0.8180  0.4197
 8041SOL    HW235760   0.558   4.711   8.854 -0.2620  2.3250  0.5293
 8042SOL     OW35761   1.519   0.734   6.624  0.2715 -0.1176  0.0419
 8042SOL    HW135762   1.469   0.785   6.687  1.9301  2.5376 -0.8198
 8042SOL    HW235763   1.462   0.738   6.547 -0.2208  0.8316  0.4631
 8043SOL     OW35764   1.942   0.732  16.312  0.5204 -0.4477 -0.4223
 8043SOL    HW135765   1.851   0.701  16.318  0.7070 -0.5766  1.6398
 8043SOL    HW235766   1.980   0.659  16.264  0.6010 -0.3237 -0.5455
 8044SOL     OW35767   4.114   1.223  12.598  0.2433 -0.0478  0.4392
 8044SOL    HW135768   4.121   1.140  12.551  0.2978  0.8491 -1.1698
 8044SOL    HW235769   4.166   1.275  12.536  0.4468 -0.9478 -0.1533
 8045SOL     OW35770   3.063   2.644   6.697  0.1870  0.1005 -0.0047
 8045SOL    HW135771   3.059   2.555   6.662 -1.1669 -0.1605  0.8221
 8045SOL    HW235772   2.985   2.682   6.655 -0.4402 -2.0563 -0.7772
 8046SOL     OW35773   2.026   2.239   3.329  0.7057 -0.6463  0.3111
 8046SOL    HW135774   1.932   2.237   3.342  0.7450  2.0309  0.8579
 8046SOL    HW235775   2.021   2.168   3.264 -0.0097  0.4479 -0.8297
 8047SOL     OW35776   1.305   3.490   8.532 -0.3349  0.2158 -0.1947
 8047SOL    HW135777   1.230   3.483   8.591 -0.4513  0.5335 -0.3054
 8047SOL    HW235778   1.288   3.436   8.455 -0.6284 -0.5210  0.3897
 8048SOL     OW35779   4.494   1.459  10.409  0.2822 -0.7046  0.3047
 8048SOL    HW135780   4.476   1.439  10.317  0.4898 -0.3408  0.1842
 8048SOL    HW235781   4.410   1.477  10.450 -0.6020 -0.2690 -1.6998
 8049SOL     OW35782   2.025   2.831   6.528 -0.4774 -0.3727 -0.0637
 8049SOL    HW135783   2.115   2.853   6.503 -0.7184  0.2177 -0.4254
 8049SOL    HW235784   2.041   2.758   6.587  0.4736  0.1672  0.3514
 8050SOL     OW35785   1.694   1.939   8.103 -0.8036  0.0797 -0.8045
 8050SOL    HW135786   1.654   1.862   8.064 -0.6984 -0.7202  0.6845
 8050SOL    HW235787   1.785   1.919   8.082  0.1449  0.0435  3.3447
 8051SOL     OW35788   2.830   0.204   4.864  0.0144  0.6070  0.3206
 8051SOL    HW135789   2.764   0.272   4.881 -0.8185 -0.2436  0.4928
 8051SOL    HW235790   2.804   0.185   4.774 -2.3843 -0.9877  1.3294
 8052SOL     OW35791   2.059   2.247   6.641  0.9958  0.1900  0.4201
 8052SOL    HW135792   1.988   2.187   6.663 -0.4074  1.3382 -0.9147
 8052SOL    HW235793   2.079   2.280   6.729 -2.9356  3.9362 -0.0208
 8053SOL     OW35794   3.227   2.887   0.618 -0.0896  0.2156  0.3475
 8053SOL    HW135795   3.245   2.957   0.682  0.5710  0.0905  0.2996
 8053SOL    HW235796   3.282   2.818   0.654  1.1040  0.0345 -1.8471
 8054SOL     OW35797   4.596   1.264  16.713 -0.7083 -0.8357 -0.1143
 8054SOL    HW135798   4.689   1.284  16.702 -1.0106  0.7551  0.2035
 8054SOL    HW235799   4.568   1.338  16.659 -1.8792 -0.0220  1.6088
 8055SOL     OW35800   0.689   1.713   1.745  0.1177  0.2107 -0.1621
 8055SOL    HW135801   0.655   1.769   1.816  0.7590  0.0732  0.2496
 8055SOL    HW235802   0.617   1.651   1.734 -1.8426  2.3896  0.3097
 8056SOL     OW35803   0.411   0.571   2.142  0.2838  0.1171 -0.1377
 8056SOL    HW135804   0.371   0.631   2.079  1.6272  1.8533  0.6585
 8056SOL    HW235805   0.488   0.541   2.092  0.0234 -0.0332 -0.4505
 8057SOL     OW35806   0.917   3.044   3.845  0.2694 -1.0388  0.0207
 8057SOL    HW135807   0.911   3.128   3.800 -1.9244  0.6197  3.3950
 8057SOL    HW235808   0.926   3.073   3.936  1.2125 -1.4027  0.0381
 8058SOL     OW35809   2.742   2.641   9.573  0.2543 -0.3527 -0.1596
 8058SOL    HW135810   2.756   2.641   9.479  0.2022 -2.9402 -0.1657
 8058SOL    HW235811   2.803   2.709   9.602  2.2582 -2.9695  1.8189
 8059SOL     OW35812   4.628   1.692  14.366  0.1373  0.3684  0.6020
 8059SOL    HW135813   4.639   1.738  14.450  0.5638  1.6380 -0.1502
 8059SOL    HW235814   4.570   1.758  14.327 -2.0078 -1.6292  0.4235
 8060SOL     OW35815   1.996   1.704  14.702  0.1869 -0.0745  0.4776
 8060SOL    HW135816   1.990   1.659  14.618  0.3360  1.2103 -0.2063
 8060SOL    HW235817   1.920   1.667  14.747  0.6592  0.0534  1.3918
 8061SOL     OW35818   0.920   3.926   9.356 -0.1847 -0.4121 -0.9114
 8061SOL    HW135819   1.007   3.899   9.325  0.1581  2.3315 -2.3284
 8061SOL    HW235820   0.938   4.016   9.382  0.6927 -1.4879  2.1568
 8062SOL     OW35821   3.991   4.089   8.418  0.3468  0.3141 -0.3002
 8062SOL    HW135822   3.962   4.122   8.503 -4.0194 -0.6476 -1.4040
 8062SOL    HW235823   3.908   4.074   8.372 -0.0149 -1.7961  1.0521
 8063SOL     OW35824   2.467   1.177   7.609  0.2590 -0.8602  0.5141
 8063SOL    HW135825   2.531   1.148   7.675  2.1009  0.5464 -0.6751
 8063SOL    HW235826   2.461   1.272   7.618 -0.3647 -0.6545 -2.1167
 8064SOL     OW35827   4.434   1.476   9.902  0.2490 -0.4021  0.1195
 8064SOL    HW135828   4.493   1.531   9.851  0.1587 -0.5540 -0.1564
 8064SOL    HW235829   4.464   1.388   9.878 -0.3240 -0.0631 -1.9136
 8065SOL     OW35830   4.130   2.454   7.446  0.3942 -0.2990 -0.6143
 8065SOL    HW135831   4.100   2.502   7.369 -0.0315  0.6246  0.1302
 8065SOL    HW235832   4.197   2.402   7.401 -0.0486 -2.1080  0.8426
 8066SOL     OW35833   1.242   1.085  12.009 -0.3938 -0.2245 -0.7138
 8066SOL    HW135834   1.244   1.181  12.017  2.2186 -0.2700 -0.7402
 8066SOL    HW235835   1.254   1.067  11.916 -1.1106  1.6793 -1.1918
 8067SOL     OW35836   3.406   4.050   6.798 -0.3651 -0.3003  0.2747
 8067SOL    HW135837   3.354   4.086   6.870  1.3414  0.9226  0.9116
 8067SOL    HW235838   3.482   4.014   6.845  0.0243 -3.2488 -2.6365
 8068SOL     OW35839   1.263   2.850   1.270 -0.6470 -0.0522 -0.4602
 8068SOL    HW135840   1.206   2.780   1.301 -0.3271 -0.4589 -0.7926
 8068SOL    HW235841   1.348   2.808   1.252 -0.7738 -1.4068  2.1164
 8069SOL     OW35842   4.080   0.171   3.236 -0.7236 -0.1448  0.1530
 8069SOL    HW135843   4.170   0.182   3.268 -0.5854 -1.3457  0.1990
 8069SOL    HW235844   4.092   0.145   3.145  0.6461 -2.7015  1.0366
 8070SOL     OW35845   1.304   3.546   6.018  0.2602  0.4499  0.2308
 8070SOL    HW135846   1.318   3.502   6.102 -1.9627 -2.1085 -0.7467
 8070SOL    HW235847   1.252   3.486   5.965  3.6009 -0.1558 -2.3250
 8071SOL     OW35848   1.382   2.739   0.420 -0.0585 -0.0588  0.0445
 8071SOL    HW135849   1.472   2.766   0.404  0.1493  0.4694  2.1665
 8071SOL    HW235850   1.363   2.775   0.506 -0.7173  0.5997 -0.3710
 8072SOL     OW35851   0.003   1.755  11.953 -0.7133 -0.2682  0.2239
 8072SOL    HW135852   0.039   1.747  11.865 -1.0764  0.0274  0.0519
 8072SOL    HW235853   0.001   1.850  11.949 -0.8958 -0.2234  1.2403
 8073SOL     OW35854   0.301   3.007   9.198  0.8360  0.2589 -0.4768
 8073SOL    HW135855   0.343   2.972   9.276  1.3278  2.9059  0.4537
 8073SOL    HW235856   0.314   2.939   9.132  1.9192 -1.3302  1.3779
 8074SOL     OW35857   1.854   1.219   9.232 -0.6129 -0.1943 -0.1069
 8074SOL    HW135858   1.841   1.163   9.156  1.0971  1.0418 -1.3199
 8074SOL    HW235859   1.915   1.161   9.278  1.7219  2.7022  0.4933
 8075SOL     OW35860   1.870   4.718   2.374  0.1176  0.0287  0.1227
 8075SOL    HW135861   1.876   4.693   2.467 -0.9681 -0.3280  0.0975
 8075SOL    HW235862   1.826   0.063   2.383  0.9830  0.2159  2.6373
 8076SOL     OW35863   0.647   4.667   8.136  0.0788 -0.3833  0.7353
 8076SOL    HW135864   0.556   4.637   8.137  0.2704 -0.9590  0.8989
 8076SOL    HW235865   0.684   4.611   8.068 -0.1268  0.9663 -0.5089
 8077SOL     OW35866   0.578   4.021  11.515  0.0150  0.5190 -0.3337
 8077SOL    HW135867   0.644   4.084  11.543 -0.7881 -0.1284  2.9688
 8077SOL    HW235868   0.627   3.939  11.520 -0.8199 -0.0337 -1.2101
 8078SOL     OW35869   2.586   3.340   3.349  0.3195  0.0994 -0.4068
 8078SOL    HW135870   2.667   3.362   3.394 -0.5754  0.3170  1.1232
 8078SOL    HW235871   2.616   3.339   3.259 -1.2102  2.2586 -0.9442
 8079SOL     OW35872   4.615   1.000   5.314 -0.3673  0.6564  0.3979
 8079SOL    HW135873   4.552   1.051   5.366  0.3988  0.8820  1.0969
 8079SOL    HW235874   4.698   1.022   5.355 -1.1704  1.6143  1.5270
 8080SOL     OW35875   3.490   0.451   8.845  0.3296 -0.2390 -0.1621
 8080SOL    HW135876   3.578   0.463   8.881  0.2825  1.0090 -0.4653
 8080SOL    HW235877   3.441   0.531   8.862 -2.4120 -1.6639 -1.3991
 8081SOL     OW35878   3.856   3.237   2.482  0.2506 -0.2473  0.1067
 8081SOL    HW135879   3.910   3.195   2.415 -0.5718 -1.3163  0.1153
 8081SOL    HW235880   3.882   3.327   2.464 -0.5948 -0.0765 -0.2253
 8082SOL     OW35881   0.127   2.747  14.706 -0.3165  0.7418  0.0308
 8082SOL    HW135882   0.083   2.802  14.641 -2.4664 -0.4279  0.4942
 8082SOL    HW235883   0.211   2.730  14.662  0.1445 -2.1689  2.0483
 8083SOL     OW35884   2.105   0.527   4.428  0.5788  0.2181 -0.5129
 8083SOL    HW135885   2.188   0.515   4.382  0.7989  0.4900 -0.1881
 8083SOL    HW235886   2.111   0.451   4.487  2.9712 -0.0974 -1.1543
 8084SOL     OW35887   2.825   2.879   9.699 -0.2507  0.4280  0.0406
 8084SOL    HW135888   2.869   2.935   9.634  0.8847 -0.2323  0.2507
 8084SOL    HW235889   2.864   2.907   9.781 -0.9976 -0.4565  0.6948
 8085SOL     OW35890   3.872   2.847   4.662 -0.2174  0.2823  0.9148
 8085SOL    HW135891   3.864   2.924   4.606 -0.5370 -0.7685 -0.4832
 8085SOL    HW235892   3.891   2.775   4.602  0.7449  0.9417  0.4320
 8086SOL     OW35893   0.432   1.435   9.724  0.2991 -0.1502 -0.1120
 8086SOL    HW135894   0.416   1.503   9.790 -4.2396 -1.1332 -0.2317
 8086SOL    HW235895   0.492   1.373   9.766  1.2278 -0.0822 -1.3436
 8087SOL     OW35896   3.475   3.998   6.306 -0.6236 -0.1393  0.0490
 8087SOL    HW135897   3.526   3.934   6.356 -0.7067 -0.6749 -0.5538
 8087SOL    HW235898   3.387   3.964   6.321 -1.0550  0.6391 -0.7123
 8088SOL     OW35899   2.133   4.602   9.243  0.1431  0.2845 -0.2174
 8088SOL    HW135900   2.182   4.554   9.310  2.0332  0.6576 -1.3576
 8088SOL    HW235901   2.042   4.589   9.270  0.1014 -0.8178 -0.8781
 8089SOL     OW35902   4.627   0.304   7.184 -0.1439 -0.2769  0.1420
 8089SOL    HW135903   4.613   0.372   7.118 -1.7208 -0.1412  0.6166
 8089SOL    HW235904   4.546   0.252   7.183 -0.7211  0.6269  0.0442
 8090SOL     OW35905   1.302   4.283   5.846 -0.2454 -0.5199 -0.4511
 8090SOL    HW135906   1.376   4.238   5.887 -0.8149  0.1896  1.3502
 8090SOL    HW235907   1.252   4.206   5.816  1.6593 -1.8822 -0.1405
 8091SOL     OW35908   0.197   1.702  12.358  0.3320 -0.0431 -0.1770
 8091SOL    HW135909   0.262   1.714  12.288  1.3798  0.0338  0.7989
 8091SOL    HW235910   0.147   1.783  12.365  1.7222  0.6650  1.7338
 8092SOL     OW35911   1.609   3.141   0.215 -0.2476  0.5853  0.3594
 8092SOL    HW135912   1.680   3.152   0.279  0.0225  0.7216  0.0394
 8092SOL    HW235913   1.546   3.081   0.255 -0.0438 -1.2646 -2.0911
 8093SOL     OW35914   1.640   4.631   0.753  0.8175 -0.2129 -0.1866
 8093SOL    HW135915   1.596   4.560   0.706  0.1181  0.4549 -0.5381
 8093SOL    HW235916   1.637   4.703   0.689 -1.9319 -1.2803 -1.2249
 8094SOL     OW35917   3.057   1.948   7.694 -0.6225  0.0318  0.2116
 8094SOL    HW135918   3.030   1.996   7.616 -2.3893 -1.9932 -0.4063
 8094SOL    HW235919   3.137   1.899   7.672 -0.6835  0.8093 -1.6843
 8095SOL     OW35920   2.354   2.962   8.997 -0.8670 -0.1892  0.2988
 8095SOL    HW135921   2.305   2.913   8.931 -1.1875 -2.7025  2.4113
 8095SOL    HW235922   2.441   2.920   8.993  0.8624  3.4659 -0.2779
 8096SOL     OW35923   1.517   1.256  16.589 -0.3323 -0.3523 -0.3275
 8096SOL    HW135924   1.499   1.340  16.632  0.6572 -1.3142  1.9459
 8096SOL    HW235925   1.578   1.225  16.656 -1.8129 -0.4794  0.9830
 8097SOL     OW35926   4.666   2.225   4.573 -0.4386 -0.3709 -0.3357
 8097SOL    HW135927   4.596   2.269   4.524 -0.7541  1.0904  1.4146
 8097SOL    HW235928   4.611   2.194   4.645  2.9016 -0.1702  2.3174
 8098SOL     OW35929   0.243   0.613   8.061  0.0924 -0.0377 -0.2805
 8098SOL    HW135930   0.238   0.557   8.138 -1.9822  0.4981 -0.0100
 8098SOL    HW235931   0.276   0.693   8.102  1.3990 -1.1539  0.8337
 8099SOL     OW35932   2.688   3.113   7.509  0.6074  0.2480 -0.5292
 8099SOL    HW135933   2.763   3.128   7.566  0.7253  1.1741 -0.9213
 8099SOL    HW235934   2.739   3.070   7.440 -0.2768 -0.5803 -0.6715
 8100SOL     OW35935   4.157   3.238   1.189 -0.1601 -0.0462  0.1077
 8100SOL    HW135936   4.156   3.246   1.094  1.0540 -0.1043  0.0825
 8100SOL    HW235937   4.094   3.304   1.216  0.8775  0.6791  0.7868
 8101SOL     OW35938   3.379   3.326   8.157  0.2546 -0.1718  0.4032
 8101SOL    HW135939   3.392   3.231   8.161  0.6448 -0.1291  0.2120
 8101SOL    HW235940   3.379   3.345   8.063  0.2608  2.5920  0.9458
 8102SOL     OW35941   2.980   3.560   4.575 -0.3262  0.5243 -0.0578
 8102SOL    HW135942   2.912   3.494   4.562 -0.3214  0.4706  0.2051
 8102SOL    HW235943   3.035   3.549   4.497 -0.0374 -2.2751  0.5611
 8103SOL     OW35944   4.274   2.895   4.579 -0.1457 -0.1381 -0.1477
 8103SOL    HW135945   4.235   2.936   4.501  1.1182 -0.9113 -1.1866
 8103SOL    HW235946   4.335   2.838   4.531  0.9213  0.3477  0.6242
 8104SOL     OW35947   3.655   4.388   7.664  0.1967 -0.5360  0.3818
 8104SOL    HW135948   3.610   4.337   7.596  1.7935 -0.7068 -0.5530
 8104SOL    HW235949   3.593   4.368   7.734 -0.3686 -0.5627 -0.1294
 8105SOL     OW35950   2.790   3.366   4.553 -0.0313  0.5308  0.5743
 8105SOL    HW135951   2.784   3.372   4.648 -0.0128 -0.5092  0.6366
 8105SOL    HW235952   2.701   3.369   4.518  1.0178  0.0641 -2.1356
 8106SOL     OW35953   3.899   1.540  15.863  0.4597 -0.5561  0.1292
 8106SOL    HW135954   3.966   1.600  15.895 -0.5586  0.0678  1.0618
 8106SOL    HW235955   3.895   1.567  15.771  1.0758 -0.4729  0.1247
 8107SOL     OW35956   2.312   4.141   5.429 -0.4606  0.3063 -0.3400
 8107SOL    HW135957   2.320   4.072   5.363  0.3343  0.7295 -0.6831
 8107SOL    HW235958   2.399   4.180   5.437  0.4612 -1.6977 -0.6610
 8108SOL     OW35959   0.825   3.799  16.068 -0.0958  0.1547  0.5214
 8108SOL    HW135960   0.778   3.716  16.060 -0.8403  0.6921 -0.6704
 8108SOL    HW235961   0.764   3.857  16.113  0.1419  1.4048 -0.7591
 8109SOL     OW35962   2.531   3.410   5.712 -0.1101 -0.1681 -0.2871
 8109SOL    HW135963   2.613   3.364   5.728  0.4046  1.1292  0.7786
 8109SOL    HW235964   2.466   3.340   5.723 -0.5479  0.0268 -1.7066
 8110SOL     OW35965   1.154   4.096   7.840  0.1317  0.4496  0.3012
 8110SOL    HW135966   1.068   4.100   7.798  1.0131  1.9018 -1.4360
 8110SOL    HW235967   1.211   4.072   7.766 -0.2938 -0.3645  0.2367
 8111SOL     OW35968   3.475   3.035   5.625  0.0653 -0.2680 -0.5165
 8111SOL    HW135969   3.526   3.114   5.646  0.0102 -0.2330 -0.5130
 8111SOL    HW235970   3.435   3.052   5.540  1.2804 -0.8315 -1.1882
 8112SOL     OW35971   3.435   0.305  13.091 -0.7372 -0.0633  0.1808
 8112SOL    HW135972   3.422   0.371  13.159  0.4315 -0.6702  0.9983
 8112SOL    HW235973   3.500   0.323  13.023  1.2916  1.9660  2.6591
 8113SOL     OW35974   0.623   3.660   2.231 -0.7885 -0.2896 -0.7295
 8113SOL    HW135975   0.595   3.569   2.242 -0.8340 -0.3828 -1.6581
 8113SOL    HW235976   0.716   3.651   2.252 -1.1854 -1.8425  0.3359
 8114SOL     OW35977   3.098   2.700   1.180 -0.1041 -0.2343  0.5040
 8114SOL    HW135978   3.164   2.710   1.112 -0.0950 -1.3725  0.3498
 8114SOL    HW235979   3.147   2.746   1.249  1.0829 -0.8674  0.0815
 8115SOL     OW35980   2.804   1.341   8.383 -0.3598 -0.1455  0.3448
 8115SOL    HW135981   2.858   1.404   8.336 -1.1216  1.7247  1.9779
 8115SOL    HW235982   2.720   1.352   8.340 -0.5475 -2.5089  0.1321
 8116SOL     OW35983   2.227   1.250   3.424  0.3597  0.5083 -0.4486
 8116SOL    HW135984   2.135   1.231   3.407  0.9362 -1.7727 -0.9237
 8116SOL    HW235985   2.237   1.267   3.518  0.6380 -0.2053 -0.3535
 8117SOL     OW35986   1.620   2.366   2.764  0.4243  0.2148 -0.0448
 8117SOL    HW135987   1.595   2.325   2.682 -1.1103  1.3483 -0.1464
 8117SOL    HW235988   1.669   2.290   2.796 -1.3954 -0.3138  1.5168
 8118SOL     OW35989   0.831   2.617   8.201  0.2439 -0.2490  0.5886
 8118SOL    HW135990   0.839   2.532   8.246 -1.5863  0.7795  2.8577
 8118SOL    HW235991   0.910   2.603   8.148  0.2527  1.6888  0.0991
 8119SOL     OW35992   2.709   3.747  14.415  0.4343 -0.0186  0.0964
 8119SOL    HW135993   2.631   3.766  14.363 -0.0052 -2.0568  0.0421
 8119SOL    HW235994   2.681   3.672  14.467 -1.8279 -0.2375 -1.4308
 8120SOL     OW35995   2.910   0.129   8.211  0.0143 -0.1779  0.2261
 8120SOL    HW135996   2.905   0.146   8.305 -3.1757 -0.0337  0.0270
 8120SOL    HW235997   2.822   0.101   8.184  0.2894 -0.0754 -0.7856
 8121SOL     OW35998   0.285   1.452   6.344 -0.1078 -0.0567  0.5213
 8121SOL    HW135999   0.214   1.505   6.308 -2.3864 -2.3012  1.6846
 8121SOL    HW236000   0.282   1.385   6.275  0.3789 -2.0512  2.4136
 8122SOL     OW36001   3.522   2.235   2.652  0.3745  0.0046  0.0923
 8122SOL    HW136002   3.537   2.175   2.579 -0.8668  0.8946 -0.8933
 8122SOL    HW236003   3.496   2.175   2.723 -3.9504  0.4478 -1.1339
 8123SOL     OW36004   2.822   1.292   2.287 -0.0104  0.1162  0.3979
 8123SOL    HW136005   2.858   1.302   2.199 -1.5340 -1.1246 -0.3693
 8123SOL    HW236006   2.890   1.253   2.341  0.1292 -0.9613 -0.5524
 8124SOL     OW36007   0.758   2.933   5.153  0.0563 -0.3908  0.1757
 8124SOL    HW136008   0.729   2.902   5.067 -0.7610 -1.6088  0.8981
 8124SOL    HW236009   0.669   2.941   5.187 -0.3193 -1.2457 -0.5961
 8125SOL     OW36010   1.648   3.115   3.234  0.0051  0.3756  0.0937
 8125SOL    HW136011   1.647   3.136   3.327 -0.2804 -3.2571  0.9121
 8125SOL    HW236012   1.634   3.205   3.205 -1.0795 -0.4553 -2.0270
 8126SOL     OW36013   1.609   1.377  15.287  0.3198  0.1993 -0.0714
 8126SOL    HW136014   1.677   1.310  15.275  0.2475  0.2506 -0.7667
 8126SOL    HW236015   1.607   1.416  15.200 -1.8218 -0.8925 -0.5040
 8127SOL     OW36016   0.676   1.267   1.956 -0.2381 -0.3484  0.2885
 8127SOL    HW136017   0.628   1.319   2.021  2.5095 -0.7180  2.5955
 8127SOL    HW236018   0.746   1.221   2.003  0.1011 -1.4948 -1.3436
 8128SOL     OW36019   0.705   1.986   9.324 -0.6729  0.1777 -0.0432
 8128SOL    HW136020   0.794   1.957   9.308  0.2950  1.8855  2.1524
 8128SOL    HW236021   0.677   2.034   9.246  1.7526 -0.8412 -1.5110
 8129SOL     OW36022   0.564   3.868   0.099  0.5162  0.6440  0.1597
 8129SOL    HW136023   0.499   3.926   0.140  1.1248  0.9002  0.7513
 8129SOL    HW236024   0.636   3.872   0.161  1.2630 -5.0047 -0.3911
 8130SOL     OW36025   1.757   0.421  15.368 -0.4201  0.0688  0.4860
 8130SOL    HW136026   1.768   0.511  15.337 -0.8040  0.0128  0.1913
 8130SOL    HW236027   1.777   0.425  15.462  0.0085 -0.5983  0.4239
 8131SOL     OW36028   4.437   1.933   6.436 -0.7638  0.5503  0.2006
 8131SOL    HW136029   4.376   1.988   6.484 -1.2769  2.1120 -2.2813
 8131SOL    HW236030   4.507   1.991   6.406 -1.7838  1.5608 -0.2156
 8132SOL     OW36031   2.704   1.295   1.525  0.0935 -0.3316 -0.1603
 8132SOL    HW136032   2.771   1.299   1.593  1.1286 -1.3546 -1.1158
 8132SOL    HW236033   2.681   1.388   1.530 -0.8711 -0.5420 -0.6412
 8133SOL     OW36034   2.333   0.980   0.285  0.0195  0.3694  0.0723
 8133SOL    HW136035   2.357   1.026   0.205  1.7683 -0.2427  0.2400
 8133SOL    HW236036   2.334   1.054   0.346 -1.0539 -0.7615  1.4548
 8134SOL     OW36037   4.116   3.546   1.881  0.4752 -0.1967  0.6129
 8134SOL    HW136038   4.082   3.528   1.969 -0.6991 -3.7308 -0.5900
 8134SOL    HW236039   4.139   3.639   1.883  0.4029 -0.1753  0.4546
 8135SOL     OW36040   2.510   2.664   4.901  0.6474  0.5902  0.4569
 8135SOL    HW136041   2.562   2.584   4.909 -0.4720 -0.0433  1.4079
 8135SOL    HW236042   2.568   2.728   4.943  2.8153 -0.5819 -0.7394
 8136SOL     OW36043   0.071   3.053   4.267  0.6350 -0.3028  0.1721
 8136SOL    HW136044   4.720   3.071   4.292  0.2647 -1.1506 -0.5919
 8136SOL    HW236045   0.115   3.138   4.257 -1.3971  0.8443  0.9190
 8137SOL     OW36046   4.304   2.529   0.081  0.3092  0.2958 -0.0984
 8137SOL    HW136047   4.306   2.621   0.109  2.2851  0.3862 -0.5321
 8137SOL    HW236048   4.283   2.532  17.745  2.5126 -0.3923 -0.6160
 8138SOL     OW36049   4.479   2.538   1.424  0.4165 -0.3604 -0.8062
 8138SOL    HW136050   4.423   2.612   1.400  1.0363 -0.3689 -2.2698
 8138SOL    HW236051   4.460   2.473   1.357 -1.7872 -1.8379  1.2070
 8139SOL     OW36052   2.771   2.237   9.298 -0.3348  0.3186  0.0706
 8139SOL    HW136053   2.867   2.241   9.300 -0.2278 -1.7102 -1.3006
 8139SOL    HW236054   2.757   2.251   9.391  1.0652 -2.1212  0.6634
 8140SOL     OW36055   0.861   2.640   7.282 -0.7059 -0.1122 -0.1829
 8140SOL    HW136056   0.825   2.580   7.218 -1.9541 -0.8367  1.1908
 8140SOL    HW236057   0.932   2.585   7.316  0.6019 -0.3307 -3.2705
 8141SOL     OW36058   4.739   0.414  16.636  0.1282  0.5609 -0.5811
 8141SOL    HW136059   4.716   0.483  16.574 -0.8210  2.5364  1.9828
 8141SOL    HW236060   0.016   0.464  16.716  0.5757 -1.2476  0.4544
 8142SOL     OW36061   4.048   2.107   9.080  0.0350 -0.2813  0.1533
 8142SOL    HW136062   4.126   2.078   9.128  1.4437  0.8412 -1.4874
 8142SOL    HW236063   4.066   2.054   9.003 -1.4630 -0.5014 -0.0471
 8143SOL     OW36064   0.978   2.282   3.121 -0.6407  0.1416  0.7059
 8143SOL    HW136065   1.044   2.225   3.160  0.1267  0.7544  0.2964
 8143SOL    HW236066   1.018   2.368   3.131  1.2017 -0.5511 -0.7193
 8144SOL     OW36067   1.756   3.928   5.140  0.2724  0.4784  0.4230
 8144SOL    HW136068   1.755   3.975   5.224 -0.9248 -0.5972  1.0203
 8144SOL    HW236069   1.830   3.869   5.157 -0.4142 -0.4175  0.3403
 8145SOL     OW36070   1.276   1.045   1.099 -0.0039 -0.1936  0.4037
 8145SOL    HW136071   1.336   1.115   1.076 -2.3218  2.0777  1.2524
 8145SOL    HW236072   1.329   1.010   1.171 -0.4178 -1.7331 -0.0424
 8146SOL     OW36073   1.997   3.036  16.788  0.0640  0.1460 -0.0569
 8146SOL    HW136074   2.070   3.066  16.734  0.1332 -1.1645 -0.6954
 8146SOL    HW236075   1.920   3.046  16.733 -0.3885 -0.0312  0.5403
 8147SOL     OW36076   2.576   3.430   5.370  0.2688  0.3661  0.0859
 8147SOL    HW136077   2.664   3.405   5.400  0.0629  1.1115  1.2904
 8147SOL    HW236078   2.567   3.521   5.398 -2.9997  0.3724 -1.0573
 8148SOL     OW36079   1.965   1.046   7.513  0.3251 -0.2233 -0.0384
 8148SOL    HW136080   1.907   0.975   7.541 -0.7014  0.9726  0.8518
 8148SOL    HW236081   2.010   1.063   7.595 -0.2743 -0.2295  0.2943
 8149SOL     OW36082   1.227   0.990   3.838  0.6579 -0.1449  0.0015
 8149SOL    HW136083   1.309   1.019   3.878 -0.9412  0.1092  3.0649
 8149SOL    HW236084   1.158   1.049   3.868  2.1353  1.3988  0.3652
 8150SOL     OW36085   3.166   3.559  11.726 -0.3473 -0.0954  0.4596
 8150SOL    HW136086   3.225   3.502  11.776 -1.1521 -0.1681  1.3148
 8150SOL    HW236087   3.096   3.573  11.789 -0.2186 -0.8673  0.7694
 8151SOL     OW36088   0.406   1.378   3.409 -0.0661 -0.6990 -0.0909
 8151SOL    HW136089   0.433   1.322   3.336 -2.5495 -0.0904 -1.4841
 8151SOL    HW236090   0.369   1.447   3.354  1.4680 -0.3342 -0.6516
 8152SOL     OW36091   0.881   2.403  16.131  0.5668  0.5075 -0.2560
 8152SOL    HW136092   0.843   2.348  16.199 -1.3366 -0.7645 -2.3602
 8152SOL    HW236093   0.810   2.463  16.108 -0.3760 -0.4246  0.2568
 8153SOL     OW36094   0.157   0.673   3.357 -0.2399  0.2044 -0.1646
 8153SOL    HW136095   0.165   0.608   3.428  1.6013  0.0591 -0.4984
 8153SOL    HW236096   0.070   0.705   3.381  0.2298  0.9904  0.4769
 8154SOL     OW36097   3.180   0.487  11.909  0.1387  0.0530  0.0282
 8154SOL    HW136098   3.232   0.547  11.963 -1.2836  1.4523 -0.1467
 8154SOL    HW236099   3.152   0.549  11.842  1.7896  1.7746  0.8971
 8155SOL     OW36100   0.566   3.394  17.259  0.5930 -0.0952 -0.5776
 8155SOL    HW136101   0.506   3.337  17.211 -1.3657  1.3802  0.0686
 8155SOL    HW236102   0.630   3.401  17.189 -0.2534  1.4716 -1.2144
 8156SOL     OW36103   1.765   4.532   5.859 -0.6484  0.1348 -0.0244
 8156SOL    HW136104   1.753   4.588   5.782 -0.5137 -0.8546 -0.7763
 8156SOL    HW236105   1.830   4.576   5.914 -1.0520  2.2083 -1.2080
 8157SOL     OW36106   2.277   1.920   8.561  0.2782 -0.1833 -0.3138
 8157SOL    HW136107   2.201   1.978   8.558  0.5559  0.0913 -1.9615
 8157SOL    HW236108   2.351   1.971   8.529  0.6989 -0.0549  0.8478
 8158SOL     OW36109   1.060   0.800   0.638 -0.2662 -0.0122  0.3330
 8158SOL    HW136110   1.053   0.893   0.617  0.6099  0.0214  0.1627
 8158SOL    HW236111   1.155   0.787   0.631 -0.0525  2.5994 -1.8168
 8159SOL     OW36112   4.029   3.499  16.973 -0.1280  0.5276  0.3203
 8159SOL    HW136113   4.071   3.476  16.890  0.4595 -0.2015  0.8219
 8159SOL    HW236114   4.053   3.425  17.028  1.6960  1.8257  1.2912
 8160SOL     OW36115   1.721   1.689   1.819 -0.3486 -0.1787 -0.2166
 8160SOL    HW136116   1.753   1.680   1.729 -0.1320 -1.5171 -0.0004
 8160SOL    HW236117   1.628   1.705   1.801  0.1960  1.6838 -1.4817
 8161SOL     OW36118   0.844   2.603   7.732 -0.3478 -0.3603 -0.2257
 8161SOL    HW136119   0.876   2.649   7.810 -0.5678  0.2233 -0.4840
 8161SOL    HW236120   0.872   2.513   7.751  0.8768  0.3072  1.1419
 8162SOL     OW36121   2.075   3.498   4.169 -0.3308  0.1370  0.1498
 8162SOL    HW136122   2.128   3.462   4.098 -1.1828 -0.8529  0.0097
 8162SOL    HW236123   2.099   3.439   4.240  0.6296  0.8694  0.4313
 8163SOL     OW36124   3.629   4.224   4.760 -0.1966 -0.1853  0.1142
 8163SOL    HW136125   3.593   4.278   4.689 -0.3030  1.6450  1.5790
 8163SOL    HW236126   3.717   4.200   4.732 -0.3357  0.0589 -0.5410
 8164SOL     OW36127   2.047   4.739   7.640 -0.3363  0.2342  0.3507
 8164SOL    HW136128   2.106   4.708   7.572  0.4393  1.1891  0.5836
 8164SOL    HW236129   2.073   4.673   7.704  0.7761 -0.3274 -0.7071
 8165SOL     OW36130   2.660   3.485  16.921  0.4383 -0.0017 -0.5450
 8165SOL    HW136131   2.672   3.521  16.833  1.2210  0.3722 -0.2951
 8165SOL    HW236132   2.642   3.570  16.960  1.2717 -0.1437  0.1600
 8166SOL     OW36133   0.590   1.378   4.461  0.4559  0.1895  0.0009
 8166SOL    HW136134   0.567   1.421   4.544  0.9278 -0.3574  0.4111
 8166SOL    HW236135   0.679   1.348   4.475  1.0476  2.1370  0.3955
 8167SOL     OW36136   2.745   1.835   7.934  0.0439 -0.5349  0.2561
 8167SOL    HW136137   2.799   1.878   8.001 -1.3686 -0.5317  1.4020
 8167SOL    HW236138   2.657   1.841   7.970  0.7966 -1.1546  2.2095
 8168SOL     OW36139   0.572   0.396   6.396  0.9239  0.2614 -0.0330
 8168SOL    HW136140   0.574   0.491   6.394  0.8707  0.1975 -2.5570
 8168SOL    HW236141   0.562   0.375   6.303 -0.9990  1.5927 -0.1285
 8169SOL     OW36142   0.439   2.205   7.940 -0.2399  0.2156  0.7709
 8169SOL    HW136143   0.377   2.189   7.868 -0.9436  2.3993  0.8945
 8169SOL    HW236144   0.417   2.297   7.955 -3.1441 -0.1629 -1.1450
 8170SOL     OW36145   0.242   2.283  16.953  0.3541  0.3478  0.3873
 8170SOL    HW136146   0.200   2.348  17.009 -2.8094 -0.8026 -0.6747
 8170SOL    HW236147   0.220   2.318  16.867 -1.2788 -0.8234  0.3300
 8171SOL     OW36148   1.940   4.302  12.477  0.3854 -0.0591  0.4465
 8171SOL    HW136149   1.856   4.348  12.482 -0.7493 -1.9823 -0.5694
 8171SOL    HW236150   1.932   4.258  12.392  2.2503  4.0029 -1.8279
 8172SOL     OW36151   0.715   3.660   9.011 -0.2884  0.0240 -0.2302
 8172SOL    HW136152   0.711   3.751   8.981 -0.7570  0.3875  0.8998
 8172SOL    HW236153   0.808   3.647   8.994 -0.4744  0.0064 -1.2365
 8173SOL     OW36154   3.571   0.238   6.978 -0.1693 -0.2712 -0.3472
 8173SOL    HW136155   3.634   0.199   6.917 -0.3063 -2.6430  1.0410
 8173SOL    HW236156   3.588   0.332   6.978 -1.5229 -0.0200 -0.7040
 8174SOL     OW36157   0.600   0.723   8.637 -0.3907  0.1435 -0.4134
 8174SOL    HW136158   0.638   0.641   8.606  3.0393  2.2655 -1.7952
 8174SOL    HW236159   0.580   0.702   8.728  0.9857 -0.4036 -0.2345
 8175SOL     OW36160   3.331   2.238   1.937  0.2689  0.3586 -0.3037
 8175SOL    HW136161   3.406   2.208   1.885  0.7207  0.1879  0.4300
 8175SOL    HW236162   3.330   2.167   2.003  0.2156  0.0130 -0.6768
 8176SOL     OW36163   0.545   3.093   1.663 -0.1882  0.1518  0.2960
 8176SOL    HW136164   0.612   3.078   1.730 -0.0998 -1.7846 -0.2087
 8176SOL    HW236165   0.529   3.004   1.630  0.7214  0.2013 -0.3015
 8177SOL     OW36166   2.347   3.804   2.332 -0.0435 -0.6437  0.6522
 8177SOL    HW136167   2.268   3.857   2.342  0.9450  1.0746 -0.6440
 8177SOL    HW236168   2.379   3.775   2.417  3.1088 -1.5339 -0.8230
 8178SOL     OW36169   2.057   3.625   6.841 -0.2319  0.0873  0.7541
 8178SOL    HW136170   2.106   3.700   6.873  2.1358 -1.0610 -0.1640
 8178SOL    HW236171   1.983   3.634   6.901  0.9705  0.0345  2.2669
 8179SOL     OW36172   4.513   1.538   6.946 -0.4011 -0.0430 -0.1856
 8179SOL    HW136173   4.602   1.548   6.979 -1.1096 -0.5844  1.9174
 8179SOL    HW236174   4.477   1.549   7.034  0.7450 -2.7557  0.6163
 8180SOL     OW36175   2.616   1.828  16.404 -0.1917 -0.1086 -0.1835
 8180SOL    HW136176   2.669   1.750  16.421  2.5101  1.3223 -2.2438
 8180SOL    HW236177   2.689   1.882  16.374  0.3189 -0.5342  0.2986
 8181SOL     OW36178   2.704   4.294   3.894  0.1650  0.2381  0.2708
 8181SOL    HW136179   2.682   4.213   3.940 -1.7962 -0.2735 -1.5469
 8181SOL    HW236180   2.658   4.280   3.811  0.4056  0.5069  0.0935
 8182SOL     OW36181   3.454   1.310  13.618  0.2012  0.1794  0.4025
 8182SOL    HW136182   3.532   1.360  13.642  0.0585 -0.3776  2.0073
 8182SOL    HW236183   3.470   1.226  13.661  2.0021  0.3750  0.1215
 8183SOL     OW36184   4.009   1.907   9.843 -0.5856  0.0050 -0.0631
 8183SOL    HW136185   3.981   1.912   9.751 -1.6246 -1.1283  0.1969
 8183SOL    HW236186   3.943   1.851   9.884 -0.8996 -1.1237 -2.1101
 8184SOL     OW36187   1.791   1.401   5.252 -0.3003 -0.0403 -0.0193
 8184SOL    HW136188   1.820   1.432   5.167 -0.8099 -1.2324 -0.6345
 8184SOL    HW236189   1.775   1.310   5.225  0.0478 -0.1952  0.2916
 8185SOL     OW36190   1.534   2.648   7.570 -0.1252  0.2557  0.1811
 8185SOL    HW136191   1.542   2.555   7.549  1.4082  0.0313  1.7519
 8185SOL    HW236192   1.541   2.645   7.665  3.1493 -0.7361 -0.0983
 8186SOL     OW36193   2.220   0.218   0.312 -0.0783  0.1096 -0.3029
 8186SOL    HW136194   2.296   0.216   0.371  0.6322 -0.1663 -1.2223
 8186SOL    HW236195   2.173   0.137   0.334 -1.5125  0.8913 -0.5131
 8187SOL     OW36196   4.546   4.263   6.920 -0.7295  0.2444 -0.3724
 8187SOL    HW136197   4.503   4.201   6.861  0.5493 -0.4777 -0.5443
 8187SOL    HW236198   4.491   4.339   6.901  2.5470  2.0420 -2.6317
 8188SOL     OW36199   1.916   3.105   5.518 -0.4826  0.4265  0.0236
 8188SOL    HW136200   1.987   3.049   5.487  1.0285  2.3645 -0.0294
 8188SOL    HW236201   1.896   3.135   5.430 -1.4430  1.2210  0.5060
 8189SOL     OW36202   4.390   2.086  12.349  0.0407 -0.1626 -0.0543
 8189SOL    HW136203   4.329   2.032  12.399  0.0192 -1.5644 -1.5651
 8189SOL    HW236204   4.406   2.149  12.418  0.5347 -0.7308  0.3554
 8190SOL     OW36205   2.266   0.255   4.296  0.2990 -0.3897 -0.4404
 8190SOL    HW136206   2.286   0.338   4.339  0.8406 -1.1295  0.7312
 8190SOL    HW236207   2.309   0.265   4.212  1.1531 -2.5749 -0.2732
 8191SOL     OW36208   4.491   2.509   2.694  0.3104  0.7268 -0.3087
 8191SOL    HW136209   4.491   2.568   2.619  0.0245 -1.2117 -1.8489
 8191SOL    HW236210   4.571   2.457   2.683 -1.2687 -1.4672 -1.6851
 8192SOL     OW36211   3.782   3.270   7.227 -0.2591  0.2515 -0.3579
 8192SOL    HW136212   3.754   3.193   7.177 -1.0741  0.9772 -1.0028
 8192SOL    HW236213   3.783   3.227   7.313  1.1217 -1.8971 -1.4448
 8193SOL     OW36214   1.786   0.230   3.689 -0.2255  0.2922 -0.1334
 8193SOL    HW136215   1.809   0.211   3.598  0.3039  2.0661 -0.3520
 8193SOL    HW236216   1.692   0.211   3.680 -0.4127  2.1036 -2.1197
 8194SOL     OW36217   0.111   1.287   0.403  0.2929 -0.6326  0.2830
 8194SOL    HW136218   0.127   1.227   0.331  1.5586  0.2398 -0.1669
 8194SOL    HW236219   0.037   1.336   0.368 -0.9030 -1.9313  1.0109
 8195SOL     OW36220   3.089   4.438   3.226 -0.5123  0.1392  0.5129
 8195SOL    HW136221   3.075   4.499   3.299 -2.9247 -2.4965  2.2634
 8195SOL    HW236222   3.173   4.466   3.189 -1.4331  1.9717 -0.1895
 8196SOL     OW36223   3.677   4.353   8.135 -0.0242 -0.4342  0.2278
 8196SOL    HW136224   3.740   4.411   8.177 -0.2389  0.2838 -0.4356
 8196SOL    HW236225   3.634   4.312   8.210  0.4829 -1.9687 -0.3188
 8197SOL     OW36226   0.200   1.143  10.187 -0.5869  0.6458  0.5689
 8197SOL    HW136227   0.148   1.196  10.127 -1.5720  0.1065  0.9417
 8197SOL    HW236228   0.281   1.194  10.183 -0.2515  0.3154  3.0531
 8198SOL     OW36229   2.439   0.357   8.794 -0.1555 -0.2252  0.1507
 8198SOL    HW136230   2.356   0.373   8.751  1.3804 -0.3832 -2.8574
 8198SOL    HW236231   2.474   0.284   8.743 -1.7332 -0.4845 -0.5651
 8199SOL     OW36232   2.362   2.868   3.971  0.5466 -0.2324  0.3277
 8199SOL    HW136233   2.403   2.829   4.048 -0.4409  0.9192  1.4426
 8199SOL    HW236234   2.288   2.808   3.960  1.3018 -1.0037 -0.4659
 8200SOL     OW36235   1.652   3.893   8.011 -0.1581 -0.8916 -0.1584
 8200SOL    HW136236   1.606   3.845   8.081  1.4645  1.8739  2.8068
 8200SOL    HW236237   1.607   3.862   7.932 -0.9772 -3.2691  1.2209
 8201SOL     OW36238   1.905   3.213   6.838 -0.3824  0.5718  0.0477
 8201SOL    HW136239   1.883   3.204   6.931  0.7861  0.1390  0.2753
 8201SOL    HW236240   1.980   3.154   6.833 -1.5179 -0.9143  0.5932
 8202SOL     OW36241   3.453   0.763   7.767  0.1531 -0.0966 -0.1268
 8202SOL    HW136242   3.366   0.799   7.750  0.7234  0.5404 -1.6533
 8202SOL    HW236243   3.441   0.668   7.767  2.1642 -0.3538 -0.0275
 8203SOL     OW36244   1.273   3.731  17.723  0.2377 -0.1725 -0.1013
 8203SOL    HW136245   1.354   3.686  17.744 -1.0769 -1.9151  1.2701
 8203SOL    HW236246   1.295   3.779  17.643  1.4143 -1.1654 -0.3685
 8204SOL     OW36247   2.205   2.687  11.534 -0.3660  0.5308  0.4704
 8204SOL    HW136248   2.137   2.704  11.600 -1.0570 -2.6857  0.5842
 8204SOL    HW236249   2.150   2.619  11.494 -0.5744  0.9012  0.1286
 8205SOL     OW36250   4.042   1.322  11.101 -0.3608  0.1822  0.0485
 8205SOL    HW136251   4.046   1.326  11.006  1.0081 -1.5967  0.0374
 8205SOL    HW236252   4.027   1.416  11.114  0.7260  0.8000 -3.1705
 8206SOL     OW36253   3.507   0.268  17.371  0.2674  0.3823 -0.0165
 8206SOL    HW136254   3.536   0.357  17.348  0.0749  0.7834  1.2924
 8206SOL    HW236255   3.413   0.279  17.357  0.7769 -0.3485 -3.8937
 8207SOL     OW36256   1.981   1.681   8.166  0.6852 -0.3211  0.3786
 8207SOL    HW136257   2.072   1.665   8.140  0.5602 -0.6255  0.1152
 8207SOL    HW236258   1.967   1.619   8.238 -0.4049  0.4039  0.7950
 8208SOL     OW36259   1.959   0.854   1.824  0.1116  0.5442  0.3071
 8208SOL    HW136260   1.907   0.917   1.875 -0.3493  0.8954 -0.6017
 8208SOL    HW236261   1.891   0.815   1.769 -1.1767 -0.1308  2.3496
 8209SOL     OW36262   1.838   1.996   6.389 -0.4628 -0.1540 -0.1912
 8209SOL    HW136263   1.851   1.940   6.465  2.8309  0.3633 -0.3658
 8209SOL    HW236264   1.890   1.959   6.317  0.0274  0.3031 -0.0662
 8210SOL     OW36265   3.241   4.273   5.509 -0.2609  0.4298  0.1466
 8210SOL    HW136266   3.305   4.257   5.439  0.0979 -2.3946  1.0778
 8210SOL    HW236267   3.188   4.196   5.490 -2.1740  1.4896  1.2945
 8211SOL     OW36268   1.406   3.270   7.876  0.4305 -0.0061 -0.3045
 8211SOL    HW136269   1.484   3.282   7.822  0.1552  0.3948 -0.6114
 8211SOL    HW236270   1.354   3.210   7.822 -0.5428 -0.0450  0.6702
 8212SOL     OW36271   2.015   4.270   7.230 -0.2862 -0.7386  0.2093
 8212SOL    HW136272   2.009   4.361   7.259 -0.9188 -1.0038  0.9255
 8212SOL    HW236273   2.105   4.261   7.200 -0.6035 -1.2172 -0.5967
 8213SOL     OW36274   1.777   2.649   5.727  0.5897  0.1395 -0.1221
 8213SOL    HW136275   1.746   2.685   5.811  1.9202 -0.6941  0.7266
 8213SOL    HW236276   1.781   2.730   5.676 -0.1583  0.6078  0.5539
 8214SOL     OW36277   1.288   1.251   3.662 -0.1642  0.0473  0.0860
 8214SOL    HW136278   1.321   1.287   3.744  0.5770 -2.4389  0.8843
 8214SOL    HW236279   1.194   1.246   3.682 -0.3777 -2.2557 -1.4538
 8215SOL     OW36280   0.196   2.825  14.970 -0.8979  0.9808  0.2088
 8215SOL    HW136281   0.156   2.791  14.890  2.6123 -0.8964 -0.7138
 8215SOL    HW236282   0.279   2.863  14.944 -0.9847 -0.4776 -2.2458
 8216SOL     OW36283   2.135   1.078   9.581  0.2487  0.5782  0.2141
 8216SOL    HW136284   2.135   1.061   9.675  1.4706  1.2900  0.3435
 8216SOL    HW236285   2.194   1.152   9.570 -0.8085  1.5571  1.2750
 8217SOL     OW36286   3.754   4.574  15.434 -0.3223 -0.0776  0.5403
 8217SOL    HW136287   3.753   4.599  15.527  0.2766  0.9871  0.2573
 8217SOL    HW236288   3.659   4.571  15.422 -0.4254  0.7316  1.1037
 8218SOL     OW36289   0.002   0.648   8.267 -0.2811  0.4858 -0.7741
 8218SOL    HW136290   0.051   0.717   8.223 -1.4122 -0.0059 -2.7741
 8218SOL    HW236291   0.044   0.661   8.352  0.1916 -1.9591 -0.6369
 8219SOL     OW36292   4.221   4.516   9.739  0.5096 -0.4233  0.4025
 8219SOL    HW136293   4.286   4.464   9.693  2.2890  2.2029 -0.0225
 8219SOL    HW236294   4.273   4.549   9.813  0.3176  3.5637 -1.2372
 8220SOL     OW36295   2.051   2.256   8.966 -0.1392 -0.0675  0.1128
 8220SOL    HW136296   2.046   2.235   9.060 -0.0156  1.3364  0.4354
 8220SOL    HW236297   2.041   2.168   8.930  0.1130 -0.5252  1.1407
 8221SOL     OW36298   4.242   1.196   6.786 -0.2575 -0.1533  0.0396
 8221SOL    HW136299   4.156   1.237   6.789 -0.4454 -0.6994  1.9065
 8221SOL    HW236300   4.212   1.118   6.740  0.2063  1.0625 -2.3823
 8222SOL     OW36301   1.101   3.358   7.588  0.7013 -0.0672  0.6208
 8222SOL    HW136302   1.147   3.410   7.522 -1.0761  0.7593  0.0245
 8222SOL    HW236303   1.029   3.327   7.534 -0.0385  2.1017  0.3462
 8223SOL     OW36304   0.666   0.418   6.893 -0.4304  1.0847 -0.0281
 8223SOL    HW136305   0.739   0.470   6.859 -0.4493  1.4803  0.5241
 8223SOL    HW236306   0.715   0.391   6.971 -2.5815 -0.4392  0.7742
 8224SOL     OW36307   3.104   4.162   3.204  0.4245 -0.1163  0.3524
 8224SOL    HW136308   3.041   4.096   3.176  2.8935 -1.4561 -1.9592
 8224SOL    HW236309   3.062   4.246   3.188 -2.3518 -1.9486 -1.8352
 8225SOL     OW36310   3.749   1.675   2.534  0.0359  0.0444 -0.3386
 8225SOL    HW136311   3.699   1.671   2.452 -1.6980  1.8057  0.6299
 8225SOL    HW236312   3.676   1.705   2.589 -0.6996 -1.5186 -0.4578
 8226SOL     OW36313   0.374   0.111   8.210  0.3937  0.1999 -0.0473
 8226SOL    HW136314   0.323   0.164   8.272 -0.1596 -0.3959  0.0004
 8226SOL    HW236315   0.445   0.170   8.186  0.2887 -0.5980 -2.3480
 8227SOL     OW36316   3.646   3.317   0.943 -0.0836  0.2251  0.7688
 8227SOL    HW136317   3.643   3.405   0.904 -1.4838 -1.4156 -2.8589
 8227SOL    HW236318   3.735   3.314   0.978 -0.4324 -0.0770  1.6131
 8228SOL     OW36319   3.489   2.909  11.960  0.2246 -0.2064 -0.0102
 8228SOL    HW136320   3.486   2.833  12.018 -2.1506  1.1276  1.6251
 8228SOL    HW236321   3.419   2.900  11.896  2.2877 -1.1847 -2.1094
 8229SOL     OW36322   2.615   3.455   3.949  0.2961 -0.4488  0.2131
 8229SOL    HW136323   2.684   3.391   3.965 -1.4115 -1.9083  1.6622
 8229SOL    HW236324   2.611   3.499   4.034 -0.5138  0.7334 -0.4410
 8230SOL     OW36325   1.287   3.105  14.330 -0.3736  0.4111 -0.2743
 8230SOL    HW136326   1.245   3.158  14.398  1.1693  0.0268  0.9853
 8230SOL    HW236327   1.279   3.015  14.363 -0.1714  0.2776 -0.5935
 8231SOL     OW36328   3.142   4.216   9.032 -0.0053 -0.2536 -0.2466
 8231SOL    HW136329   3.128   4.122   9.025 -1.4752 -0.2215  2.0532
 8231SOL    HW236330   3.235   4.226   9.014 -0.3774 -0.1486 -2.0782
 8232SOL     OW36331   4.500   0.177   1.999 -0.2635  0.3406 -0.6411
 8232SOL    HW136332   4.534   0.262   2.026  2.0614 -1.0481  0.8749
 8232SOL    HW236333   4.533   0.187   1.910  0.8224  1.6690 -0.0899
 8233SOL     OW36334   4.149   4.501   7.505  0.0375  0.1374  0.0965
 8233SOL    HW136335   4.102   4.581   7.482  0.1584  0.4404  0.9130
 8233SOL    HW236336   4.103   4.471   7.583 -0.1868 -0.9308 -0.4466
 8234SOL     OW36337   4.497   0.549   3.353 -0.1338 -0.1977 -0.3015
 8234SOL    HW136338   4.402   0.542   3.360 -0.0619 -2.2232 -1.1730
 8234SOL    HW236339   4.512   0.457   3.328 -1.7829 -0.4865 -0.2583
 8235SOL     OW36340   3.180   3.571  12.067 -0.5162 -0.5187 -0.2082
 8235SOL    HW136341   3.221   3.527  12.141  0.8057 -0.6011 -0.9863
 8235SOL    HW236342   3.120   3.508  12.027  0.1338 -0.1103 -1.8050
 8236SOL     OW36343   3.597   0.079   2.029  0.2239 -0.6223 -0.1066
 8236SOL    HW136344   3.619   0.172   2.031 -1.0316 -0.2995 -1.2031
 8236SOL    HW236345   3.684   0.041   2.015 -0.2695 -2.4301  1.6522
 8237SOL     OW36346   0.970   2.902  14.850  0.1335 -1.0086  0.3949
 8237SOL    HW136347   1.004   2.851  14.923  1.5653 -1.1444 -0.3558
 8237SOL    HW236348   0.912   2.957  14.902  0.6989  1.5620 -1.6509
 8238SOL     OW36349   4.281   3.795   8.157 -0.4911 -0.0253  0.8716
 8238SOL    HW136350   4.202   3.822   8.110  1.3351  0.0390 -2.1594
 8238SOL    HW236351   4.270   3.831   8.245  0.7264 -1.4491  1.6075
 8239SOL     OW36352   2.142   4.161   0.144  0.5064  0.2407  0.1678
 8239SOL    HW136353   2.141   4.082   0.091 -1.6771 -0.6966  1.5978
 8239SOL    HW236354   2.075   4.216   0.102  1.7704  1.0043 -0.8373
 8240SOL     OW36355   2.418   1.192  13.089 -0.3306 -0.4327  0.4284
 8240SOL    HW136356   2.451   1.106  13.064  1.5096  0.0551  1.1513
 8240SOL    HW236357   2.476   1.217  13.161 -0.8689 -0.4670  0.8745
 8241SOL     OW36358   0.469   1.609   6.913  0.0494  0.1645  0.0956
 8241SOL    HW136359   0.388   1.658   6.928 -0.5726 -1.3477  1.6464
 8241SOL    HW236360   0.432   1.524   6.888 -1.2142  0.7843 -0.1323
 8242SOL     OW36361   1.274   2.498   4.424 -0.0044 -0.0208  0.0658
 8242SOL    HW136362   1.320   2.580   4.439  0.3966 -0.2482  0.0604
 8242SOL    HW236363   1.203   2.526   4.366 -1.2571 -0.6984  1.2527
 8243SOL     OW36364   0.976   2.426   2.637  0.2464  0.2181  0.3542
 8243SOL    HW136365   1.049   2.425   2.699 -0.3290 -0.7613  1.0243
 8243SOL    HW236366   0.897   2.424   2.692 -1.1091 -0.2502 -1.5992
 8244SOL     OW36367   4.593   3.569   2.404 -0.6068 -0.2716 -0.6670
 8244SOL    HW136368   4.535   3.512   2.455 -2.2766  0.9722 -1.2111
 8244SOL    HW236369   4.526   3.611   2.351  0.3817  2.0933 -0.0608
 8245SOL     OW36370   0.973   3.375  16.251  0.1416 -0.2549 -0.2919
 8245SOL    HW136371   1.023   3.434  16.195 -0.6270  0.5681 -0.1057
 8245SOL    HW236372   0.895   3.427  16.267  0.3198  0.1090 -0.5956
 8246SOL     OW36373   3.800   2.116   1.615  0.4495 -0.3834 -0.0487
 8246SOL    HW136374   3.743   2.179   1.659 -0.6964 -1.1945 -0.3616
 8246SOL    HW236375   3.821   2.172   1.540 -1.0110 -0.5345 -0.5790
 8247SOL     OW36376   4.257   3.521   7.657 -0.0954 -0.0328 -0.0909
 8247SOL    HW136377   4.333   3.577   7.671  1.4046 -1.6363 -1.7446
 8247SOL    HW236378   4.225   3.511   7.747 -2.1185  2.0032 -0.5889
 8248SOL     OW36379   0.981   0.640   8.500 -0.1234  0.0062  0.0852
 8248SOL    HW136380   1.074   0.661   8.487  0.5222 -2.5297  0.5583
 8248SOL    HW236381   0.947   0.726   8.477  1.7687  0.8657  0.4794
 8249SOL     OW36382   0.261   2.149   4.830 -0.0100  1.1487  0.4035
 8249SOL    HW136383   0.282   2.057   4.847  1.0463  1.7172  2.1488
 8249SOL    HW236384   0.167   2.154   4.849 -0.1126 -4.5104  1.4794
 8250SOL     OW36385   1.576   2.088   5.161  0.2623  0.0246  0.1736
 8250SOL    HW136386   1.568   2.015   5.099 -1.3165 -0.1139  0.5253
 8250SOL    HW236387   1.562   2.163   5.104 -2.1611  0.5953  1.4797
 8251SOL     OW36388   2.635   1.650   2.363 -0.1549 -0.1719  0.1215
 8251SOL    HW136389   2.730   1.656   2.356 -0.1115  2.7308  2.8426
 8251SOL    HW236390   2.615   1.730   2.412  0.7034  0.9144 -1.3068
 8252SOL     OW36391   3.871   0.339   4.246  0.0254 -0.4154 -0.1388
 8252SOL    HW136392   3.881   0.348   4.152 -0.8566 -0.1477 -0.2048
 8252SOL    HW236393   3.941   0.399   4.271 -2.8260  1.8483  2.5146
 8253SOL     OW36394   4.344   4.181   8.678 -0.4087 -0.1945 -0.0917
 8253SOL    HW136395   4.270   4.153   8.731 -1.4052 -0.7317 -1.7632
 8253SOL    HW236396   4.289   4.207   8.604  1.7487  0.1091 -1.6042
 8254SOL     OW36397   2.307   3.488   2.231 -0.4983 -0.3663 -0.2566
 8254SOL    HW136398   2.392   3.455   2.260 -1.0353 -1.4860  0.0656
 8254SOL    HW236399   2.288   3.554   2.299 -1.5271  0.2620 -1.1600
 8255SOL     OW36400   4.697   3.669   0.482 -0.2567  0.5107 -0.3144
 8255SOL    HW136401   4.649   3.679   0.400  0.2318  2.9649 -0.3049
 8255SOL    HW236402   4.717   3.576   0.488 -1.3706  0.4657  3.0660
 8256SOL     OW36403   3.254   2.149   5.888  0.0302 -0.4150 -0.6423
 8256SOL    HW136404   3.288   2.118   5.973 -1.0705 -0.5511 -0.2475
 8256SOL    HW236405   3.325   2.212   5.877  0.9343 -0.7455  3.1028
 8257SOL     OW36406   2.396   0.156   9.174 -0.2262  0.0103  0.1882
 8257SOL    HW136407   2.382   0.071   9.215  0.6429 -1.2402 -2.0967
 8257SOL    HW236408   2.355   0.213   9.239  3.5187  1.9757  0.8258
 8258SOL     OW36409   2.369   0.395   1.830 -0.5352  0.1376  0.2180
 8258SOL    HW136410   2.310   0.419   1.758 -2.6286  3.1689  2.9524
 8258SOL    HW236411   2.317   0.409   1.909 -2.6051 -0.4436 -1.0264
 8259SOL     OW36412   1.219   4.508   4.897 -0.2560  0.3231  0.1261
 8259SOL    HW136413   1.183   4.551   4.820  1.8704  0.1245 -0.9652
 8259SOL    HW236414   1.160   4.435   4.919  0.6890 -0.1568  1.1055
 8260SOL     OW36415   1.007   3.295   5.701 -0.1658 -0.2071 -0.1045
 8260SOL    HW136416   1.058   3.257   5.772 -2.0087  1.3345  2.0353
 8260SOL    HW236417   1.068   3.281   5.628 -1.2695  0.8108 -1.2327
 8261SOL     OW36418   0.595   1.172  13.403 -0.0364 -0.3844 -0.1114
 8261SOL    HW136419   0.556   1.112  13.339 -1.3231  0.6203 -0.2679
 8261SOL    HW236420   0.686   1.161  13.377 -0.3535 -1.4705 -0.7605
 8262SOL     OW36421   4.221   3.246  14.019  0.2231  0.0376  0.3678
 8262SOL    HW136422   4.275   3.168  14.008  0.9672  0.4989  0.7656
 8262SOL    HW236423   4.159   3.235  13.947  0.7655 -0.3598 -0.0395
 8263SOL     OW36424   3.193   3.895   7.090  0.1611  0.0049 -0.0299
 8263SOL    HW136425   3.197   3.840   7.011 -0.5911 -0.5436  0.3106
 8263SOL    HW236426   3.104   3.930   7.091 -0.8759 -2.6297  0.0954
 8264SOL     OW36427   1.408   4.339   6.619 -0.0850  0.4012  0.2938
 8264SOL    HW136428   1.472   4.336   6.547 -0.0205  0.0651  0.3625
 8264SOL    HW236429   1.330   4.349   6.565  1.0758 -1.5557 -1.7541
 8265SOL     OW36430   4.658   0.699  14.023  0.3070 -0.5307  0.6932
 8265SOL    HW136431   4.738   0.708  14.075  0.8716 -0.2451 -0.2211
 8265SOL    HW236432   4.623   0.616  14.056 -1.1640 -0.3981 -0.5438
 8266SOL     OW36433   1.910   0.533   3.112  0.4886  0.4474  0.0643
 8266SOL    HW136434   1.936   0.600   3.176 -1.2111 -1.1368  2.4251
 8266SOL    HW236435   1.997   0.503   3.088  0.3389 -0.7639  1.0406
 8267SOL     OW36436   0.072   3.286   7.911  0.4697  0.0814 -0.1222
 8267SOL    HW136437   0.143   3.341   7.945 -0.7181  0.9237  0.9914
 8267SOL    HW236438   0.101   3.256   7.825 -1.2939 -2.4184  0.1463
 8268SOL     OW36439   1.482   4.209   5.219 -0.0270  0.1147 -0.1942
 8268SOL    HW136440   1.537   4.245   5.148  1.9818  1.6310  2.1152
 8268SOL    HW236441   1.471   4.282   5.280 -0.4468  0.1148 -0.2697
 8269SOL     OW36442   0.900   3.059   4.515 -0.5871 -0.3983 -0.1064
 8269SOL    HW136443   0.936   3.040   4.602 -0.3105 -1.7545 -0.5043
 8269SOL    HW236444   0.852   2.981   4.487 -0.6464 -0.1499 -0.6974
 8270SOL     OW36445   3.894   3.291   8.077 -0.3486 -0.2218 -0.2848
 8270SOL    HW136446   3.948   3.369   8.081  1.3687 -1.3845 -0.9229
 8270SOL    HW236447   3.954   3.219   8.097 -1.6455 -1.1386  0.3503
 8271SOL     OW36448   4.450   2.047  13.038  0.3078 -0.1051 -0.0300
 8271SOL    HW136449   4.502   2.102  12.979 -0.0771  2.4187  1.9868
 8271SOL    HW236450   4.455   2.097  13.119 -2.2691  1.4812 -0.8370
 8272SOL     OW36451   2.013   1.529   7.494 -0.1315  0.3234 -0.1730
 8272SOL    HW136452   2.074   1.544   7.566 -0.1081 -0.1773 -0.0891
 8272SOL    HW236453   1.958   1.458   7.528 -0.0346  1.8662  3.1269
 8273SOL     OW36454   1.165   4.025   8.962 -0.4668 -0.1140  0.5477
 8273SOL    HW136455   1.149   4.041   8.869  1.9148  0.4517  0.2261
 8273SOL    HW236456   1.160   3.930   8.973  3.0471 -0.3204  0.4262
 8274SOL     OW36457   0.883   1.375   8.362 -0.4128  0.0483 -0.0980
 8274SOL    HW136458   0.869   1.293   8.316  1.2814 -0.9309  1.0981
 8274SOL    HW236459   0.808   1.427   8.333 -1.5804 -1.2215  0.6791
 8275SOL     OW36460   4.000   3.973   1.456  0.3408 -0.1704 -0.0114
 8275SOL    HW136461   3.942   3.941   1.526 -1.9828 -0.4881 -2.0793
 8275SOL    HW236462   4.010   4.064   1.484  0.2447  0.0083 -0.5649
 8276SOL     OW36463   2.463   0.249  11.536  0.2554 -0.1992  0.8208
 8276SOL    HW136464   2.550   0.288  11.544  0.7472 -0.9182 -1.0779
 8276SOL    HW236465   2.477   0.159  11.504  1.9104 -0.5266  2.4646
 8277SOL     OW36466   3.521   2.694  15.821  0.2893 -0.1023 -0.0564
 8277SOL    HW136467   3.526   2.632  15.749  0.7683 -0.4959  0.3183
 8277SOL    HW236468   3.528   2.774  15.769  1.3665  0.4818  0.9936
 8278SOL     OW36469   2.552   4.440   7.680  0.1061 -0.1700  0.2613
 8278SOL    HW136470   2.518   4.508   7.622 -0.2748 -1.0365 -0.5357
 8278SOL    HW236471   2.581   4.489   7.757  1.9396 -0.8538 -0.0049
 8279SOL     OW36472   0.973   1.651   1.016  0.1076 -0.2942  0.0530
 8279SOL    HW136473   1.053   1.697   1.041 -0.6593  0.4759  1.0584
 8279SOL    HW236474   0.913   1.668   1.088 -1.6865 -2.6101 -0.8999
 8280SOL     OW36475   1.771   0.959   8.464 -0.0493 -0.1521  0.1166
 8280SOL    HW136476   1.729   0.897   8.405  0.1122 -1.5525  1.4808
 8280SOL    HW236477   1.826   0.892   8.505 -1.7579 -0.7668  1.4409
 8281SOL     OW36478   2.360   3.722   7.041 -0.0888 -0.0239  0.1120
 8281SOL    HW136479   2.416   3.696   6.968 -2.6193 -1.6051 -1.2513
 8281SOL    HW236480   2.425   3.743   7.108  0.0949  0.1836 -0.1316
 8282SOL     OW36481   2.071   0.112   1.716 -0.3120  0.1803 -0.2090
 8282SOL    HW136482   2.142   0.109   1.653 -0.1865 -2.4280  0.0912
 8282SOL    HW236483   1.993   0.111   1.660 -0.7098 -0.9621  0.3711
 8283SOL     OW36484   4.080   3.041  11.682  0.3825 -0.1934 -0.6121
 8283SOL    HW136485   4.051   3.058  11.771  1.6231  1.0837 -0.4387
 8283SOL    HW236486   4.004   3.036  11.625 -0.5260  0.6176  0.5268
 8284SOL     OW36487   1.729   4.124  16.039 -0.3289 -0.3425  0.1914
 8284SOL    HW136488   1.767   4.134  16.126 -3.3972  0.8807  1.3709
 8284SOL    HW236489   1.735   4.029  16.033 -0.0030 -0.1159 -3.0556
 8285SOL     OW36490   4.561   4.323   0.579 -0.0559  0.4614  0.2073
 8285SOL    HW136491   4.636   4.380   0.594  2.3128 -3.0172  1.5370
 8285SOL    HW236492   4.607   4.240   0.568 -1.8479 -0.4352 -0.5284
 8286SOL     OW36493   3.386   2.711   5.399  0.3861  0.6659 -0.1159
 8286SOL    HW136494   3.328   2.785   5.419 -0.8010 -1.4634  4.3842
 8286SOL    HW236495   3.394   2.716   5.304  0.9611 -0.0236 -0.1040
 8287SOL     OW36496   2.407   3.546   7.418  0.2192  0.6756 -0.0315
 8287SOL    HW136497   2.446   3.487   7.481  2.5367  0.6620 -1.4968
 8287SOL    HW236498   2.468   3.536   7.345  1.0273 -3.9832  1.3407
 8288SOL     OW36499   3.424   1.004   3.116 -0.2594 -0.2667  0.4423
 8288SOL    HW136500   3.396   1.070   3.053  1.4067 -0.5006 -0.5260
 8288SOL    HW236501   3.432   0.924   3.065 -0.6567  0.5297 -0.8687
 8289SOL     OW36502   3.799   1.236  16.091  0.4390  0.1381  0.1042
 8289SOL    HW136503   3.878   1.228  16.145  0.6478  0.3863 -0.1625
 8289SOL    HW236504   3.837   1.246  16.004 -1.3948 -1.9044 -0.9226
 8290SOL     OW36505   4.188   1.127   4.531  0.2732 -0.5103 -0.7561
 8290SOL    HW136506   4.156   1.067   4.464  0.4502  0.6617 -1.8954
 8290SOL    HW236507   4.106   1.137   4.579 -0.1662  1.0074 -1.8377
 8291SOL     OW36508   4.458   3.382   4.668  0.1943  0.0413  0.1735
 8291SOL    HW136509   4.502   3.434   4.736 -0.7535 -0.1071  0.9078
 8291SOL    HW236510   4.366   3.404   4.683  0.4648 -0.9772  3.4833
 8292SOL     OW36511   2.129   2.974   9.638 -0.0662 -0.3216 -0.4521
 8292SOL    HW136512   2.039   2.941   9.634 -0.3566  0.7628 -2.9690
 8292SOL    HW236513   2.173   2.891   9.627  1.8058  0.4196  1.4217
 8293SOL     OW36514   0.437   4.612  17.173 -0.0183 -0.1165 -0.0344
 8293SOL    HW136515   0.428   4.602  17.078  0.5904 -3.5043  0.2579
 8293SOL    HW236516   0.356   4.567  17.196  1.7353 -2.8926  0.7290
 8294SOL     OW36517   4.673   3.884   3.765  0.2603  0.5316  0.2803
 8294SOL    HW136518   4.596   3.939   3.752  0.5070  0.5597 -1.0810
 8294SOL    HW236519   4.737   3.930   3.710  1.8354 -2.4166 -0.3537
 8295SOL     OW36520   2.959   3.183   4.746 -0.6676  0.4993 -0.6881
 8295SOL    HW136521   2.896   3.115   4.723 -0.8760  0.8931 -1.3078
 8295SOL    HW236522   2.904   3.261   4.756 -0.9868  0.1516  0.2399
 8296SOL     OW36523   4.648   2.590   3.539 -0.2902 -0.2719 -0.2125
 8296SOL    HW136524   4.639   2.681   3.509 -1.3542 -0.0389  0.8124
 8296SOL    HW236525   4.724   2.568   3.486  0.8260 -0.0013  1.2550
 8297SOL     OW36526   3.271   2.825   7.598  1.0856  0.0926 -0.5242
 8297SOL    HW136527   3.234   2.888   7.660 -0.3454 -0.7427 -0.5326
 8297SOL    HW236528   3.272   2.741   7.644 -2.9658  0.7710  0.8037
 8298SOL     OW36529   1.187   0.298   1.268 -0.0982  0.4838  0.6002
 8298SOL    HW136530   1.139   0.263   1.343  1.0819 -1.5025  0.4562
 8298SOL    HW236531   1.275   0.321   1.299  0.2263 -1.0098  0.7883
 8299SOL     OW36532   2.036   0.076  14.698 -0.8530  0.0556  0.2364
 8299SOL    HW136533   1.967   0.142  14.689 -1.7748 -1.1250 -1.4482
 8299SOL    HW236534   2.113   0.121  14.661 -2.2881  2.0785 -0.3324
 8300SOL     OW36535   2.596   2.977   5.727  0.0962  0.3460 -0.8479
 8300SOL    HW136536   2.538   3.031   5.781 -0.6503  0.3996 -1.7156
 8300SOL    HW236537   2.528   2.954   5.664 -1.1489 -2.0230  1.3640
 8301SOL     OW36538   2.863   1.974   6.978  0.8990  0.3367 -0.1657
 8301SOL    HW136539   2.800   1.996   7.046  0.2379  0.9719 -0.9773
 8301SOL    HW236540   2.864   1.879   6.974 -0.2195  0.3415 -0.3477
 8302SOL     OW36541   2.351   4.028   4.235  0.3276 -0.2074  0.0378
 8302SOL    HW136542   2.405   4.061   4.307 -0.1386 -0.6509  0.5929
 8302SOL    HW236543   2.325   3.944   4.272  0.1840 -0.4153 -0.5342
 8303SOL     OW36544   0.321   3.991   2.852  0.2236 -0.3856 -0.3202
 8303SOL    HW136545   0.381   3.970   2.781  0.5420  1.4044 -0.5880
 8303SOL    HW236546   0.300   4.077   2.816 -0.6376 -0.2808  0.4313
 8304SOL     OW36547   0.888   1.579   3.631 -0.1363 -0.2951  0.4701
 8304SOL    HW136548   0.848   1.616   3.552  0.3740  0.0619  0.3769
 8304SOL    HW236549   0.814   1.563   3.688 -0.7100  0.1102 -0.1629
 8305SOL     OW36550   3.804   4.617   7.083 -0.1863  0.7772 -0.3641
 8305SOL    HW136551   3.847   4.678   7.024  1.2852 -0.5908 -0.7014
 8305SOL    HW236552   3.732   4.584   7.029 -0.2523  1.0961 -0.4702
 8306SOL     OW36553   0.838   1.191   5.674  0.0342 -0.1142  0.0668
 8306SOL    HW136554   0.770   1.214   5.611 -2.3031 -2.4260  1.7585
 8306SOL    HW236555   0.856   1.275   5.716 -0.0342 -0.3770  0.6078
 8307SOL     OW36556   0.687   2.161  15.887  0.3654 -0.0229 -0.4274
 8307SOL    HW136557   0.666   2.083  15.939  0.1824  1.0963  1.1987
 8307SOL    HW236558   0.604   2.157  15.839  0.1819  1.7078 -0.2596
 8308SOL     OW36559   3.077   4.696   7.280 -0.5294  0.4989  0.1951
 8308SOL    HW136560   3.082   0.047   7.252  1.8244 -0.2622 -1.8789
 8308SOL    HW236561   3.047   4.709   7.370  0.0178  1.3229  0.2614
 8309SOL     OW36562   2.896   2.929   6.095  0.1084 -0.0927 -0.1565
 8309SOL    HW136563   2.890   2.852   6.152 -0.1160  1.6090  2.1241
 8309SOL    HW236564   2.988   2.922   6.070 -0.2528  1.6277 -1.9110
 8310SOL     OW36565   3.524   2.536  16.065  0.9196 -0.0223  0.6883
 8310SOL    HW136566   3.525   2.603  15.997 -0.8896  0.6926  1.3790
 8310SOL    HW236567   3.594   2.572  16.120 -0.4278 -0.4221  2.6898
 8311SOL     OW36568   4.434   0.004  16.019  0.1697 -0.3801 -0.1179
 8311SOL    HW136569   4.447   0.069  16.088 -1.4567 -2.5218  2.1968
 8311SOL    HW236570   4.367   0.046  15.964 -1.8966 -1.6465  1.4236
 8312SOL     OW36571   4.126   0.805   3.777 -0.2061 -0.5959 -0.5679
 8312SOL    HW136572   4.077   0.748   3.718 -0.4728 -1.4256  0.4582
 8312SOL    HW236573   4.213   0.807   3.736  0.3409 -0.9606  0.5765
 8313SOL     OW36574   1.425   2.115   1.299  0.5192 -0.4378 -0.1431
 8313SOL    HW136575   1.461   2.044   1.351 -1.3044 -1.2578 -0.0143
 8313SOL    HW236576   1.415   2.060   1.221 -0.1436 -0.7379  0.1569
 8314SOL     OW36577   4.468   3.779   6.139  0.4923 -0.0511 -0.3491
 8314SOL    HW136578   4.437   3.869   6.154  1.1669  0.2790 -0.9322
 8314SOL    HW236579   4.404   3.764   6.069 -0.0376 -0.0518  0.1322
 8315SOL     OW36580   3.625   2.635  10.842  0.5649  0.1189  0.0078
 8315SOL    HW136581   3.615   2.717  10.794  4.0421  1.0162  0.8211
 8315SOL    HW236582   3.663   2.583  10.771 -1.0154  0.4272 -1.0693
 8316SOL     OW36583   1.518   1.045   3.337 -0.2914  0.1075 -0.0758
 8316SOL    HW136584   1.589   1.051   3.400 -1.0380 -0.8821  0.8588
 8316SOL    HW236585   1.524   1.133   3.298 -0.9008 -0.2591 -1.0102
 8317SOL     OW36586   2.125   2.572  15.403  0.2381  0.4942  0.3478
 8317SOL    HW136587   2.078   2.642  15.358 -1.6739  1.0057  3.0790
 8317SOL    HW236588   2.136   2.616  15.488 -0.8213  2.1709 -0.3774
 8318SOL     OW36589   3.104   4.505   4.765 -0.2338 -0.1579 -0.0246
 8318SOL    HW136590   3.087   4.581   4.821  0.5601  0.5428 -0.7340
 8318SOL    HW236591   3.068   4.543   4.685 -1.3776  1.3720  1.2185
 8319SOL     OW36592   3.254   3.301   6.930  0.0562  0.3493 -0.5712
 8319SOL    HW136593   3.263   3.235   6.861  0.7581 -0.6675  0.5039
 8319SOL    HW236594   3.210   3.369   6.878  3.5509  3.2682  0.3305
 8320SOL     OW36595   3.059   4.690   8.964  0.1437 -0.5713  0.0210
 8320SOL    HW136596   3.024   4.673   8.876 -0.2629 -0.3041  0.1322
 8320SOL    HW236597   3.146   4.725   8.943  0.4837 -0.4347  1.7142
 8321SOL     OW36598   3.635   0.220  10.589  0.2168 -0.1405  0.0360
 8321SOL    HW136599   3.710   0.194  10.535  1.7450  2.0938  1.0892
 8321SOL    HW236600   3.673   0.299  10.629 -0.9160 -0.4681  1.7614
 8322SOL     OW36601   3.439   3.293   6.256  0.3781 -0.0228 -0.2556
 8322SOL    HW136602   3.361   3.245   6.226 -0.3213  0.3526  0.9509
 8322SOL    HW236603   3.463   3.240   6.331  2.9634  2.5088  0.7185
 8323SOL     OW36604   0.866   1.295   2.590  0.4939  0.0309  0.0416
 8323SOL    HW136605   0.809   1.371   2.577 -1.5862 -1.2515  1.9163
 8323SOL    HW236606   0.819   1.219   2.623 -0.3173  1.2553  1.6861
 8324SOL     OW36607   2.728   3.264   7.190  0.0615  0.1985 -0.1347
 8324SOL    HW136608   2.787   3.289   7.118  1.0303  1.8880  1.2465
 8324SOL    HW236609   2.705   3.174   7.169  2.3986 -0.1881 -1.0605
 8325SOL     OW36610   3.194   0.296   9.953  0.4623  0.1138  0.8175
 8325SOL    HW136611   3.202   0.388   9.929  0.3918 -0.0940  0.0105
 8325SOL    HW236612   3.271   0.264   9.906 -0.3518 -3.4681  1.9444
 8326SOL     OW36613   4.630   2.643   3.800  0.0579 -0.1843 -0.0340
 8326SOL    HW136614   4.691   2.709   3.768 -0.2785 -0.0678 -0.4395
 8326SOL    HW236615   4.634   2.591   3.720  0.6272 -0.5932  0.2644
 8327SOL     OW36616   2.870   0.317   1.351 -0.0829  0.5476 -0.4324
 8327SOL    HW136617   2.845   0.374   1.278 -0.6561  1.0312  0.1363
 8327SOL    HW236618   2.804   0.345   1.414 -0.4357  1.0295 -1.0170
 8328SOL     OW36619   0.865   2.717   1.460 -0.0179  0.4187  0.0221
 8328SOL    HW136620   0.771   2.709   1.443 -0.1378 -1.0497  1.4316
 8328SOL    HW236621   0.859   2.774   1.536  0.0609  0.8106 -0.2632
 8329SOL     OW36622   2.108   1.150   7.738 -0.0992  0.5808  0.2925
 8329SOL    HW136623   2.126   1.107   7.821  0.0630 -0.5661 -0.3314
 8329SOL    HW236624   2.092   1.238   7.772 -0.4029 -0.3132  2.4640
 8330SOL     OW36625   1.203   2.363   4.690  0.5009  1.0660 -0.2055
 8330SOL    HW136626   1.233   2.453   4.704  0.2816  1.0848  0.1299
 8330SOL    HW236627   1.251   2.320   4.760 -0.9839  1.1148  0.8548
 8331SOL     OW36628   4.090   1.080   3.912  0.1323  0.1144 -0.3505
 8331SOL    HW136629   4.009   1.100   3.864  1.4801 -0.6353 -2.9231
 8331SOL    HW236630   4.125   1.010   3.857  0.2475  0.3762 -0.6115
 8332SOL     OW36631   1.372   1.842   1.504  0.0664 -0.2459  0.9567
 8332SOL    HW136632   1.333   1.759   1.478 -4.4428  1.8822  0.9395
 8332SOL    HW236633   1.440   1.855   1.438  0.0509 -0.5348  0.8829
 8333SOL     OW36634   4.272   4.669   2.415 -0.0950  0.8061  0.2828
 8333SOL    HW136635   4.213   4.642   2.486  0.6097 -1.3127  0.0443
 8333SOL    HW236636   4.281   4.584   2.372  0.7292  1.8442 -1.5808
 8334SOL     OW36637   1.307   2.670   0.676 -0.0894 -0.4467  0.6349
 8334SOL    HW136638   1.258   2.601   0.721  0.6996 -0.6186  1.2483
 8334SOL    HW236639   1.390   2.626   0.656 -0.3360  0.2498 -1.9267
 8335SOL     OW36640   2.483   1.431   3.809  0.0450 -0.1014  0.4096
 8335SOL    HW136641   2.422   1.455   3.739  1.2854  4.0918  0.7497
 8335SOL    HW236642   2.435   1.449   3.890 -1.4155  0.5494 -0.6027
 8336SOL     OW36643   1.267   0.003   1.578 -0.2728 -0.3627 -0.0695
 8336SOL    HW136644   1.338   0.042   1.527 -1.2796  0.7883 -0.5978
 8336SOL    HW236645   1.198   0.058   1.541 -0.2169 -1.5120 -1.8777
 8337SOL     OW36646   1.793   4.025   8.227  0.1065  0.0110  0.2128
 8337SOL    HW136647   1.852   3.951   8.241 -1.5014 -0.9761  1.8591
 8337SOL    HW236648   1.731   3.986   8.166 -1.3686  1.7300  0.6289
 8338SOL     OW36649   1.954   1.970  13.774  0.5366  0.1287  0.0480
 8338SOL    HW136650   1.994   1.910  13.711 -0.0562  0.9973 -1.1711
 8338SOL    HW236651   2.024   1.982  13.838  0.5910  0.4379 -0.0714
 8339SOL     OW36652   0.529   0.654   6.336  0.3211 -0.3383  0.0538
 8339SOL    HW136653   0.489   0.718   6.395  0.4048 -2.3333  2.3006
 8339SOL    HW236654   0.546   0.704   6.256 -0.7383  0.3538  0.2669
 8340SOL     OW36655   2.878   1.691   2.965 -0.2945 -0.1134  0.1064
 8340SOL    HW136656   2.806   1.730   3.013 -1.5258  0.9880 -2.6336
 8340SOL    HW236657   2.941   1.701   3.037 -1.7416 -1.0624  1.4962
 8341SOL     OW36658   3.014   2.276   5.859 -0.0142  0.5599 -0.5423
 8341SOL    HW136659   3.098   2.234   5.842 -0.1974  0.1535 -0.4274
 8341SOL    HW236660   3.002   2.237   5.946 -2.3324 -0.6143 -1.3872
 8342SOL     OW36661   4.499   1.696   5.682 -0.3651 -0.2321  0.0883
 8342SOL    HW136662   4.421   1.752   5.673  1.1976  1.7566 -1.0232
 8342SOL    HW236663   4.521   1.688   5.589  1.8370 -1.1730  0.7083
 8343SOL     OW36664   3.901   1.855   1.670  0.5404 -0.5584  0.1310
 8343SOL    HW136665   3.930   1.833   1.582 -2.2324  2.8882 -1.6653
 8343SOL    HW236666   3.880   1.948   1.656 -1.3715 -0.8794  0.8202
 8344SOL     OW36667   3.556   3.841   9.837  0.5542 -0.2156 -0.3294
 8344SOL    HW136668   3.469   3.830   9.800  1.5405 -1.8900 -2.1689
 8344SOL    HW236669   3.603   3.905   9.784  0.6038 -1.2027 -1.4722
 8345SOL     OW36670   0.434   0.073  12.409  0.4886  0.4483  0.8040
 8345SOL    HW136671   0.518   0.112  12.433  0.4163  0.7573  0.5515
 8345SOL    HW236672   0.362   0.126  12.443 -1.9929 -1.5293 -1.4327
 8346SOL     OW36673   4.531   4.383   5.817  0.0078 -0.3839 -0.1074
 8346SOL    HW136674   4.469   4.454   5.799 -1.2444 -1.0974  1.4130
 8346SOL    HW236675   4.556   4.375   5.725 -1.0663  4.3532 -0.8116
 8347SOL     OW36676   4.139   0.911   2.233  0.1216  0.5055 -0.2291
 8347SOL    HW136677   4.058   0.943   2.192 -0.0923  1.7209  1.1640
 8347SOL    HW236678   4.119   0.933   2.324  1.0366 -1.0903  0.3610
 8348SOL     OW36679   2.909   1.459   3.270 -0.2116 -0.1503  0.1238
 8348SOL    HW136680   2.838   1.418   3.221 -0.1566  0.1374 -0.1990
 8348SOL    HW236681   2.984   1.452   3.210 -0.5823 -0.8900 -0.2581
 8349SOL     OW36682   4.237   0.306   6.978 -0.0200 -0.5953  0.4114
 8349SOL    HW136683   4.293   0.335   6.906 -1.1042  0.3203 -0.0591
 8349SOL    HW236684   4.219   0.389   7.021  1.4248  0.2612 -0.6186
 8350SOL     OW36685   2.308   2.910  15.241 -0.1732  0.5728  0.2188
 8350SOL    HW136686   2.289   2.841  15.176 -0.8406 -1.3992  2.4936
 8350SOL    HW236687   2.396   2.879  15.265 -0.4215  1.1311  1.8625
 8351SOL     OW36688   0.829   3.940   5.451  0.2007  0.4692  0.4295
 8351SOL    HW136689   0.738   3.968   5.448  0.4647  1.3964  1.2169
 8351SOL    HW236690   0.871   4.024   5.430  0.4671 -0.4599 -2.7939
 8352SOL     OW36691   3.082   1.967  13.221 -0.2710  0.2334 -0.5987
 8352SOL    HW136692   3.042   1.895  13.172  1.4626 -0.8296 -0.4670
 8352SOL    HW236693   3.009   1.992  13.278 -1.6574  0.1731 -2.3622
 8353SOL     OW36694   0.710   4.625   8.407  0.2725 -0.4659  0.1367
 8353SOL    HW136695   0.645   4.629   8.478  2.0594 -3.1366  1.9150
 8353SOL    HW236696   0.673   4.701   8.362 -0.8357 -0.5966  0.8183
 8354SOL     OW36697   0.188   4.600  12.348  0.0094  0.2233 -0.2120
 8354SOL    HW136698   0.266   4.604  12.292  0.0027 -0.1822 -0.2548
 8354SOL    HW236699   0.208   4.520  12.397 -1.4708 -0.2410 -0.3745
 8355SOL     OW36700   2.456   4.570   8.549  0.5290 -0.1402  0.0518
 8355SOL    HW136701   2.551   4.584   8.546  0.2764  1.6062  0.4521
 8355SOL    HW236702   2.425   4.555   8.460 -0.1378 -1.0923  0.4404
 8356SOL     OW36703   1.030   2.373  16.461 -0.3413 -0.0121  0.2163
 8356SOL    HW136704   1.094   2.389  16.392 -0.0364 -0.6911  0.3390
 8356SOL    HW236705   1.018   2.461  16.496 -1.8599 -0.6134  1.1842
 8357SOL     OW36706   3.170   1.263   3.987  0.2287  0.2885  0.1577
 8357SOL    HW136707   3.098   1.284   3.927  1.2198  1.0816 -0.7494
 8357SOL    HW236708   3.241   1.319   3.955  1.9455 -2.4028 -0.7558
 8358SOL     OW36709   4.462   4.302   9.245  0.0979 -0.2522  0.2566
 8358SOL    HW136710   4.501   4.311   9.158  0.9485 -0.2159  0.6412
 8358SOL    HW236711   4.462   4.207   9.251 -2.1618 -0.3103 -0.8626
 8359SOL     OW36712   0.463   4.453  13.970 -0.1310 -0.2401 -0.6840
 8359SOL    HW136713   0.534   4.442  14.033 -0.0539  0.6465 -0.6142
 8359SOL    HW236714   0.484   4.537  13.930  0.6121 -0.2281 -0.2555
 8360SOL     OW36715   1.243   3.791   4.809 -0.1546 -0.4978  0.3260
 8360SOL    HW136716   1.182   3.847   4.763 -0.6116  0.0798  1.6448
 8360SOL    HW236717   1.314   3.855   4.816 -0.4323 -0.1645  0.1030
 8361SOL     OW36718   2.831   1.267   4.665 -0.1419  0.0694 -0.7531
 8361SOL    HW136719   2.912   1.318   4.664 -0.2108  0.1700 -1.4216
 8361SOL    HW236720   2.867   1.180   4.682  0.1927  0.6595  1.4625
 8362SOL     OW36721   1.649   2.155  14.957  0.1493  0.2120 -0.0801
 8362SOL    HW136722   1.667   2.124  15.045  1.3024  0.3272 -0.2843
 8362SOL    HW236723   1.707   2.230  14.948  2.2518 -1.4667 -0.3908
 8363SOL     OW36724   0.176   3.713   6.047 -0.1203 -0.0932 -0.8892
 8363SOL    HW136725   0.266   3.728   6.018  0.8839 -2.5159  0.9588
 8363SOL    HW236726   0.139   3.801   6.038  4.1158  1.7024 -0.8691
 8364SOL     OW36727   0.397   0.009   6.395 -0.7026  0.8097  0.1726
 8364SOL    HW136728   0.429   0.093   6.429 -0.6601  1.1009 -0.5803
 8364SOL    HW236729   0.483   4.707   6.395 -0.2455  1.7377  1.1161
 8365SOL     OW36730   1.677   1.406   1.862 -0.6636 -0.1249 -0.3618
 8365SOL    HW136731   1.722   1.491   1.858 -1.3688  0.3778  1.9826
 8365SOL    HW236732   1.591   1.432   1.895  0.2140  1.4808  0.6744
 8366SOL     OW36733   4.083   1.239   1.106 -0.4532  0.0758 -0.3941
 8366SOL    HW136734   4.172   1.244   1.072 -0.0005  0.9416  0.9219
 8366SOL    HW236735   4.090   1.183   1.183 -2.2361  0.2792 -0.0717
 8367SOL     OW36736   2.574   1.671   4.351  0.4507  0.4151  0.1690
 8367SOL    HW136737   2.609   1.693   4.264  0.3748  2.3204  0.6281
 8367SOL    HW236738   2.656   1.647   4.395  0.0393  0.5784  1.0259
 8368SOL     OW36739   0.691   1.177   5.092  0.4934 -0.3449 -0.2139
 8368SOL    HW136740   0.695   1.258   5.144 -0.2481  0.0934 -0.8363
 8368SOL    HW236741   0.763   1.203   5.035  0.8618 -3.5002 -1.1722
 8369SOL     OW36742   2.528   2.870   6.182 -0.5068 -0.0298  0.2076
 8369SOL    HW136743   2.462   2.811   6.218 -0.6201 -0.7515 -1.1712
 8369SOL    HW236744   2.526   2.841   6.090  1.2854  0.4006  0.0400
 8370SOL     OW36745   0.297   2.260  13.657 -0.7196 -0.6839  0.7386
 8370SOL    HW136746   0.203   2.277  13.646 -0.4186  0.2305 -0.3942
 8370SOL    HW236747   0.308   2.194  13.589 -3.3703 -0.8461  0.4605
 8371SOL     OW36748   3.008   0.575   4.986 -0.0424 -0.2076  0.0307
 8371SOL    HW136749   3.074   0.507   5.003 -1.9015 -2.1849 -0.5949
 8371SOL    HW236750   2.972   0.601   5.070  0.5978  0.3269  0.1400
 8372SOL     OW36751   0.882   1.240  11.776 -0.2285 -0.2751 -0.0412
 8372SOL    HW136752   0.949   1.295  11.735  1.2825 -2.1417 -0.1161
 8372SOL    HW236753   0.881   1.163  11.719 -1.3094  2.2291 -3.3656
 8373SOL     OW36754   3.281   4.014  14.147 -0.2129 -0.4727  0.5391
 8373SOL    HW136755   3.369   4.043  14.168 -0.5703 -0.8003  2.5012
 8373SOL    HW236756   3.280   3.919  14.160 -2.4819 -0.4234  0.8266
 8374SOL     OW36757   1.136   2.920   5.914  0.0225  0.6724  0.7125
 8374SOL    HW136758   1.162   3.012   5.909 -0.7642  0.7523 -2.2985
 8374SOL    HW236759   1.124   2.889   5.824  0.6017 -0.3547  0.9833
 8375SOL     OW36760   4.206   4.372  16.560  0.3228 -0.2044 -0.3797
 8375SOL    HW136761   4.149   4.306  16.600  0.9463 -1.0483 -0.9050
 8375SOL    HW236762   4.268   4.398  16.628  0.9940 -3.8993  0.3671
 8376SOL     OW36763   2.132   1.739   1.866 -0.4314  0.9934 -0.2706
 8376SOL    HW136764   2.152   1.831   1.878  3.3023  0.3031 -1.2717
 8376SOL    HW236765   2.218   1.706   1.840 -0.5144  0.6701 -0.1350
 8377SOL     OW36766   3.947   1.008   1.862 -0.3797 -0.0942 -0.4500
 8377SOL    HW136767   3.860   1.048   1.856 -0.7273 -0.9530 -1.0271
 8377SOL    HW236768   3.963   1.004   1.957 -0.4865 -0.6472 -0.4526
 8378SOL     OW36769   4.063   0.224  13.853 -0.1403 -0.0293  0.2735
 8378SOL    HW136770   3.987   0.166  13.860 -0.3131  0.1099 -0.4147
 8378SOL    HW236771   4.027   0.290  13.794 -0.0560  1.3732  1.7911
 8379SOL     OW36772   1.344   2.390  16.304  0.0342 -0.3934  1.1648
 8379SOL    HW136773   1.268   2.421  16.254  0.9518 -0.2333 -0.1010
 8379SOL    HW236774   1.355   2.303  16.267  3.1924  1.6448 -2.6100
 8380SOL     OW36775   1.743   1.306   4.903  0.0909  0.1163  0.0423
 8380SOL    HW136776   1.770   1.254   4.978 -1.6323 -0.0370  0.5584
 8380SOL    HW236777   1.652   1.323   4.929 -0.0401 -0.1600 -0.2342
 8381SOL     OW36778   0.809   2.855   3.063  0.0038  0.0989  0.0149
 8381SOL    HW136779   0.868   2.802   3.116 -0.3036  0.3036  0.5642
 8381SOL    HW236780   0.870   2.922   3.032  0.0869 -0.2006 -0.4724
 8382SOL     OW36781   3.237   4.058  12.228  0.0270 -0.4456 -0.1634
 8382SOL    HW136782   3.197   3.982  12.186 -1.6603  0.4210 -0.1234
 8382SOL    HW236783   3.258   4.113  12.153  0.5996 -2.2586 -1.3097
 8383SOL     OW36784   4.727   1.134   2.152 -0.5715 -0.5956  0.4046
 8383SOL    HW136785   4.646   1.096   2.186 -0.2220 -0.0334  1.8543
 8383SOL    HW236786   4.699   1.225   2.139  0.2500 -0.5621 -1.0730
 8384SOL     OW36787   0.234   2.101   9.749 -0.2913  0.4942 -0.6532
 8384SOL    HW136788   0.194   2.108   9.836  2.7910  0.1146  0.7820
 8384SOL    HW236789   0.197   2.014   9.730  0.8213  0.0860 -0.9129
 8385SOL     OW36790   2.525   0.391   7.222 -0.2628 -0.1376  0.4697
 8385SOL    HW136791   2.488   0.462   7.274  0.1815  1.1092 -0.9091
 8385SOL    HW236792   2.447   0.341   7.199 -1.1698  2.1669 -1.4380
 8386SOL     OW36793   0.878   3.472   7.994 -0.2888  0.1975 -0.2969
 8386SOL    HW136794   0.966   3.471   7.957 -0.1224 -0.9203  0.1049
 8386SOL    HW236795   0.869   3.566   8.005 -0.4614 -0.0203  1.5767
 8387SOL     OW36796   0.149   0.211   4.918 -0.3852 -0.0061  0.5078
 8387SOL    HW136797   0.071   0.265   4.930 -0.2522  0.1135  0.8480
 8387SOL    HW236798   0.160   0.221   4.823 -1.6830 -1.1651  0.2354
 8388SOL     OW36799   1.139   2.398   5.612 -0.0493 -0.4582 -0.6116
 8388SOL    HW136800   1.064   2.393   5.671  0.9672 -0.4997  0.6739
 8388SOL    HW236801   1.163   2.305   5.605 -1.0448 -0.8358  0.9899
 8389SOL     OW36802   3.958   0.436   9.996  0.3928 -0.4213 -0.4624
 8389SOL    HW136803   3.923   0.486  10.069  2.0235 -2.4437  1.6842
 8389SOL    HW236804   4.028   0.380  10.029 -0.2096  0.1734  1.7749
 8390SOL     OW36805   2.816   0.795   7.574  0.1017 -0.0333 -0.2362
 8390SOL    HW136806   2.845   0.710   7.606  0.9000  0.8949  1.5394
 8390SOL    HW236807   2.820   0.776   7.480  0.9494  2.3600 -0.7063
 8391SOL     OW36808   2.837   2.345   7.666  0.1344 -0.0017  0.0588
 8391SOL    HW136809   2.811   2.258   7.697 -2.5750  0.5845 -0.6072
 8391SOL    HW236810   2.752   2.384   7.647 -1.0169 -1.2255  2.7073
 8392SOL     OW36811   0.228   2.334   8.168  0.3322 -0.2970  0.1299
 8392SOL    HW136812   0.250   2.361   8.079  0.2061  1.6732  0.6978
 8392SOL    HW236813   0.287   2.385   8.222 -0.8959  0.6251  0.6040
 8393SOL     OW36814   3.540   2.004   7.684  0.3033 -0.1100  0.2411
 8393SOL    HW136815   3.536   2.024   7.590  1.3720  2.2581  0.6962
 8393SOL    HW236816   3.559   1.910   7.679 -0.2204 -0.1984 -0.1906
 8394SOL     OW36817   2.682   4.012  14.575 -0.1290  0.1725  0.5953
 8394SOL    HW136818   2.613   3.950  14.598  2.0797 -2.8164 -0.9779
 8394SOL    HW236819   2.632   4.057  14.507 -0.8484  0.8987  1.5960
 8395SOL     OW36820   1.573   2.187  16.740 -0.0048 -0.3989 -0.2603
 8395SOL    HW136821   1.512   2.233  16.682  0.2426  0.3143  0.0446
 8395SOL    HW236822   1.654   2.188  16.690 -0.6627  1.1377 -1.2954
 8396SOL     OW36823   2.572   3.033   7.117  0.2503 -0.3009  0.2043
 8396SOL    HW136824   2.485   2.997   7.101 -0.0501  0.8358 -0.7192
 8396SOL    HW236825   2.614   2.959   7.160  0.1217  1.0977  2.7500
 8397SOL     OW36826   3.364   0.983   6.280  0.8090 -0.7291  0.0461
 8397SOL    HW136827   3.299   0.917   6.305 -1.8807  1.5576 -0.9631
 8397SOL    HW236828   3.329   0.999   6.192 -0.3791  2.2362  1.0531
 8398SOL     OW36829   4.535   3.328   0.974  0.2591  0.2505 -0.5501
 8398SOL    HW136830   4.494   3.311   1.059 -0.4197  1.8725 -0.5416
 8398SOL    HW236831   4.483   3.276   0.913 -1.2753 -0.3815  1.3275
 8399SOL     OW36832   0.929   1.527   6.603  0.3035 -0.1304  0.0793
 8399SOL    HW136833   0.951   1.619   6.592 -1.3772 -0.1696 -3.9769
 8399SOL    HW236834   0.994   1.473   6.559  0.6906  1.6926 -1.5935
 8400SOL     OW36835   0.710   2.905   8.016 -0.3352  0.6808  0.2672
 8400SOL    HW136836   0.742   2.921   7.927 -1.8270 -1.1935 -0.6262
 8400SOL    HW236837   0.780   2.844   8.038 -0.3605  0.7967  0.6578
 8401SOL     OW36838   0.369   3.046   4.505 -0.6017  0.4024 -0.6323
 8401SOL    HW136839   0.367   2.998   4.422 -0.1592 -0.3416 -0.2078
 8401SOL    HW236840   0.451   3.094   4.494  0.9925 -2.1934 -0.1409
 8402SOL     OW36841   0.382   1.105   0.952  0.3904  0.2997  0.0302
 8402SOL    HW136842   0.446   1.034   0.943  0.7513  0.9366 -2.6077
 8402SOL    HW236843   0.396   1.123   1.045 -1.3623  0.7603  0.2029
 8403SOL     OW36844   0.511   1.732   1.980 -0.2802 -0.5696 -0.0552
 8403SOL    HW136845   0.527   1.795   2.050 -0.9694 -0.7966  0.3029
 8403SOL    HW236846   0.415   1.723   1.982 -0.3157  0.0577  1.2635
 8404SOL     OW36847   3.053   0.607   1.366 -0.2287  0.2181  0.1874
 8404SOL    HW136848   3.057   0.656   1.448 -0.5552 -0.2251  0.4666
 8404SOL    HW236849   2.975   0.553   1.379  0.0547  0.0127  1.0562
 8405SOL     OW36850   0.971   3.974  10.525  0.0237  0.0555 -0.6640
 8405SOL    HW136851   0.922   4.053  10.502  0.8066  0.4394 -0.9889
 8405SOL    HW236852   1.061   3.998  10.504  0.9509 -1.9244  0.9637
 8406SOL     OW36853   3.014   0.140   9.382 -0.4482  0.3167 -0.6556
 8406SOL    HW136854   2.986   0.213   9.439  0.4622  0.1707 -0.0249
 8406SOL    HW236855   3.073   0.104   9.448 -0.2949  0.3340 -0.7846
 8407SOL     OW36856   4.562   1.306   4.823 -1.1848 -0.5167  0.0268
 8407SOL    HW136857   4.487   1.359   4.796 -0.1061  0.9987 -0.0094
 8407SOL    HW236858   4.534   1.222   4.860 -0.0477 -1.0142 -0.2698
 8408SOL     OW36859   3.435   2.547   7.128 -0.3355 -0.3384  0.2053
 8408SOL    HW136860   3.375   2.577   7.060  0.3034 -0.2421 -0.3083
 8408SOL    HW236861   3.387   2.472   7.164 -0.2370 -0.2227  0.5759
 8409SOL     OW36862   1.847   2.746   2.360  0.6698 -0.2014 -0.1212
 8409SOL    HW136863   1.824   2.654   2.371 -1.1170  0.1934 -0.5535
 8409SOL    HW236864   1.896   2.730   2.279  0.3481  0.0864 -0.3749
 8410SOL     OW36865   1.245   4.536   5.863  0.3814  0.4689 -0.1948
 8410SOL    HW136866   1.335   4.561   5.880  0.6509 -0.9302  0.4760
 8410SOL    HW236867   1.257   4.441   5.852 -0.1045  0.4908 -0.9264
 8411SOL     OW36868   1.465   1.837   2.241 -0.0657 -0.2076 -0.2343
 8411SOL    HW136869   1.513   1.803   2.316 -1.1508  0.3276  0.7064
 8411SOL    HW236870   1.513   1.789   2.173 -1.7658 -2.2780  0.0277
 8412SOL     OW36871   1.426   1.866  13.686  0.1703 -0.0960  0.1935
 8412SOL    HW136872   1.469   1.948  13.711 -0.7619 -0.8658  4.2761
 8412SOL    HW236873   1.443   1.818  13.766 -1.8171  1.0058  1.2893
 8413SOL     OW36874   1.710   3.060  10.556  0.3936  0.9635 -0.0494
 8413SOL    HW136875   1.765   3.139  10.563  2.1456 -0.3398  0.8092
 8413SOL    HW236876   1.640   3.084  10.497 -0.8331 -3.5163 -0.3983
 8414SOL     OW36877   2.311   1.364   4.291 -0.2213 -0.8164 -0.2000
 8414SOL    HW136878   2.271   1.446   4.320  0.4226 -0.5290 -0.1294
 8414SOL    HW236879   2.309   1.310   4.369  0.3333  1.1475  1.1750
 8415SOL     OW36880   3.784   3.737   4.309 -0.0445 -0.3563  0.0028
 8415SOL    HW136881   3.759   3.655   4.350 -1.8077 -0.0917 -0.5490
 8415SOL    HW236882   3.880   3.736   4.315  0.0140 -1.2009 -1.0097
 8416SOL     OW36883   3.321   4.213   8.419  0.1586 -0.6904 -0.1130
 8416SOL    HW136884   3.283   4.160   8.489  0.6257  0.5063  1.0464
 8416SOL    HW236885   3.297   4.305   8.431  0.3558 -1.0486  3.1657
 8417SOL     OW36886   2.610   3.696   9.175  0.2942 -0.1918 -0.2638
 8417SOL    HW136887   2.614   3.775   9.121 -2.1842 -0.3062 -0.6408
 8417SOL    HW236888   2.676   3.713   9.242 -0.1150 -2.1831  0.6464
 8418SOL     OW36889   0.289   2.886   3.002  0.3871 -0.6146  0.4327
 8418SOL    HW136890   0.279   2.916   3.093  1.4583  0.1033  0.3027
 8418SOL    HW236891   0.371   2.837   3.006  0.2424 -0.8309  0.8364
 8419SOL     OW36892   4.147   3.413  10.904  0.5026  0.3403 -0.3544
 8419SOL    HW136893   4.189   3.358  10.971  0.9562  0.8710 -0.2021
 8419SOL    HW236894   4.107   3.474  10.966 -0.9927  0.0491 -1.0543
 8420SOL     OW36895   0.903   2.713  14.020  0.6453 -0.0762 -0.0250
 8420SOL    HW136896   0.951   2.773  14.077  2.2082 -3.8689  2.6605
 8420SOL    HW236897   0.969   2.662  13.973  0.1937 -1.0365  0.3745
 8421SOL     OW36898   1.513   0.682   4.427  0.6324  0.0433  0.4877
 8421SOL    HW136899   1.543   0.722   4.345 -2.3028  2.4682  0.5985
 8421SOL    HW236900   1.459   0.610   4.396  1.7744 -0.0225 -1.4036
 8422SOL     OW36901   2.944   0.174   9.843 -0.0677  0.6766 -0.2133
 8422SOL    HW136902   2.880   0.228   9.890  1.7547  0.8015  2.1168
 8422SOL    HW236903   3.024   0.215   9.878  0.6253 -0.9285  0.0839
 8423SOL     OW36904   4.644   4.308   4.613  0.1900  0.3797 -0.3041
 8423SOL    HW136905   4.592   4.382   4.580 -0.1177  0.0611 -0.5246
 8423SOL    HW236906   4.666   4.347   4.698 -1.7473  0.4312  0.1725
 8424SOL     OW36907   3.059   3.231   4.327 -0.0241 -0.2545  0.7977
 8424SOL    HW136908   2.987   3.278   4.368 -0.0817 -0.5682  1.0546
 8424SOL    HW236909   3.018   3.163   4.273  0.4621  0.3927 -0.3912
 8425SOL     OW36910   0.773   1.804  12.015 -0.0434 -0.3220  0.2465
 8425SOL    HW136911   0.813   1.748  11.948 -2.2754 -2.9533  1.1456
 8425SOL    HW236912   0.700   1.754  12.052  0.2404 -0.9318 -0.0215
 8426SOL     OW36913   0.686   0.610   7.645 -0.4854  0.1591 -0.2322
 8426SOL    HW136914   0.765   0.561   7.668 -0.6692 -0.6278 -1.2948
 8426SOL    HW236915   0.699   0.617   7.550 -0.4207  1.0539 -0.1606
 8427SOL     OW36916   0.352   4.225   9.772 -0.2901  0.4204  0.5141
 8427SOL    HW136917   0.358   4.181   9.688 -1.2439  0.5783  0.3691
 8427SOL    HW236918   0.268   4.271   9.779  0.7193  2.2029  1.2158
 8428SOL     OW36919   3.637   4.616   5.395 -0.3477 -0.5179 -0.0368
 8428SOL    HW136920   3.542   4.622   5.383 -0.3800  2.4671  1.5993
 8428SOL    HW236921   3.643   4.528   5.358  0.1114 -0.9018  0.9448
 8429SOL     OW36922   2.744   3.629  13.410  0.2982 -0.6139  0.1501
 8429SOL    HW136923   2.830   3.618  13.369 -0.3330 -2.2385 -0.7462
 8429SOL    HW236924   2.697   3.553  13.376  2.1839 -1.3156 -0.8903
 8430SOL     OW36925   0.893   2.987   8.224  0.8300 -0.3002 -0.5928
 8430SOL    HW136926   0.976   2.943   8.243  2.8182  2.7374 -2.1389
 8430SOL    HW236927   0.831   2.940   8.280  0.2666  0.2389 -0.7695
 8431SOL     OW36928   0.512   1.606   0.423 -0.0616 -0.2289  0.4034
 8431SOL    HW136929   0.588   1.625   0.478  0.4086 -1.0103  0.0124
 8431SOL    HW236930   0.459   1.549   0.478  3.1679 -0.8585  2.8453
 8432SOL     OW36931   4.482   2.787   7.612  0.1419 -0.6289  0.3471
 8432SOL    HW136932   4.405   2.844   7.612  0.0947 -0.7063 -0.8962
 8432SOL    HW236933   4.448   2.710   7.567  0.1227  0.3997 -1.4039
 8433SOL     OW36934   0.911   2.180   2.015  0.2848 -0.1935 -0.3808
 8433SOL    HW136935   0.860   2.188   2.095 -0.2171 -0.0154 -0.7158
 8433SOL    HW236936   0.952   2.265   1.998 -0.7266  0.6087  1.1734
 8434SOL     OW36937   0.415   2.760   6.702 -0.5243  0.5628 -0.0434
 8434SOL    HW136938   0.388   2.805   6.622 -1.1596 -0.8018 -0.6076
 8434SOL    HW236939   0.482   2.705   6.661  2.0007  2.2615  1.9097
 8435SOL     OW36940   0.982   4.522  12.742 -0.1445 -0.5596  0.5448
 8435SOL    HW136941   1.077   4.507  12.740 -0.2864 -1.1172 -1.6008
 8435SOL    HW236942   0.955   4.503  12.652  0.5430 -0.4452  0.3093
 8436SOL     OW36943   4.195   1.182   1.879  0.0042  0.8967  0.2229
 8436SOL    HW136944   4.110   1.154   1.846  0.5018 -1.0692  0.6277
 8436SOL    HW236945   4.254   1.119   1.838 -1.5606 -0.1541 -0.4310
 8437SOL     OW36946   2.201   2.927  14.872  0.2713  0.4189 -0.2296
 8437SOL    HW136947   2.170   2.902  14.785  1.3959  1.5281 -0.9509
 8437SOL    HW236948   2.179   2.842  14.910  0.8192  1.1699  1.7550
 8438SOL     OW36949   0.322   4.099   9.528  0.1461 -0.0620 -0.1755
 8438SOL    HW136950   0.342   4.007   9.510  1.3897  0.4701 -1.5430
 8438SOL    HW236951   0.393   4.149   9.488 -0.1446  0.3687 -0.1502
 8439SOL     OW36952   2.247   2.086   3.822 -0.9806  0.0818 -0.5317
 8439SOL    HW136953   2.185   2.126   3.760 -1.0195  0.1591 -0.4432
 8439SOL    HW236954   2.333   2.122   3.798  0.7091 -3.7513 -0.1994
 8440SOL     OW36955   0.295   4.199   6.131  0.1389  0.3617 -0.0373
 8440SOL    HW136956   0.341   4.220   6.049 -0.2569  0.2109 -0.2969
 8440SOL    HW236957   0.303   4.103   6.132  2.2927  0.5459  0.3608
 8441SOL     OW36958   4.034   0.269   7.487  0.5000 -0.0531  0.2228
 8441SOL    HW136959   3.999   0.346   7.531  1.2348 -0.1752  1.0314
 8441SOL    HW236960   4.117   0.301   7.453  0.9070 -0.4945  0.7943
 8442SOL     OW36961   1.942   0.210   5.802  0.4290  0.3582  0.4494
 8442SOL    HW136962   1.961   0.201   5.895  2.9060 -1.3243 -0.2377
 8442SOL    HW236963   1.874   0.143   5.797  2.0330 -1.0336 -2.5188
 8443SOL     OW36964   3.352   1.584   7.011  0.5094  0.1200  0.5396
 8443SOL    HW136965   3.309   1.665   6.983 -0.3218 -0.0011  1.4810
 8443SOL    HW236966   3.297   1.544   7.078 -1.9235 -1.9803 -2.7052
 8444SOL     OW36967   0.346   1.061   5.392 -0.0669  0.7764 -0.4487
 8444SOL    HW136968   0.400   0.986   5.369  0.3665  1.4175 -1.5279
 8444SOL    HW236969   0.350   1.103   5.306  0.0455 -0.9698 -1.2969
 8445SOL     OW36970   4.427   3.030   1.475 -0.2983 -0.0119 -0.0716
 8445SOL    HW136971   4.479   3.008   1.397 -0.0457  0.8743 -0.1519
 8445SOL    HW236972   4.468   2.969   1.537  0.2970 -0.0690 -0.5189
 8446SOL     OW36973   0.735   2.338   3.028  0.2070  0.1666 -0.2210
 8446SOL    HW136974   0.824   2.303   3.039 -0.4289 -1.5993 -0.6863
 8446SOL    HW236975   0.708   2.385   3.106 -1.5450 -0.0582 -0.6963
 8447SOL     OW36976   1.837   3.696   0.355 -0.2044 -0.2276 -0.1224
 8447SOL    HW136977   1.830   3.606   0.324  1.7609 -0.6318  0.6048
 8447SOL    HW236978   1.795   3.691   0.441  1.0428 -0.8534  0.4468
 8448SOL     OW36979   1.404   0.017  14.232  0.0535 -0.4943  0.9993
 8448SOL    HW136980   1.422   0.080  14.161  1.0608 -0.1882  1.5358
 8448SOL    HW236981   1.331   4.714  14.187  0.7296  0.1705 -0.7706
 8449SOL     OW36982   3.807   3.479  11.083  0.1497 -0.1585  0.7088
 8449SOL    HW136983   3.717   3.455  11.060  0.4498 -0.6588  0.0596
 8449SOL    HW236984   3.852   3.494  11.000  1.1773 -1.1604  1.0921
 8450SOL     OW36985   3.943   3.864   3.400  0.7652  0.4565  0.2128
 8450SOL    HW136986   3.961   3.771   3.407  0.8582  0.4222 -0.5129
 8450SOL    HW236987   3.888   3.865   3.322  1.3839 -1.0645 -0.2327
 8451SOL     OW36988   1.966   2.867   1.559 -0.3593 -1.0917  0.1157
 8451SOL    HW136989   2.023   2.943   1.563 -0.3719 -1.0674 -0.2402
 8451SOL    HW236990   2.021   2.794   1.586  3.0703  1.3276 -0.4183
 8452SOL     OW36991   4.196   3.112   4.939  0.5797 -0.2493  0.1346
 8452SOL    HW136992   4.222   3.202   4.959  0.5893  0.0114 -1.0618
 8452SOL    HW236993   4.254   3.089   4.866  0.3130  1.2606 -0.5674
 8453SOL     OW36994   2.677   3.650  13.852  0.3261 -0.5271 -0.5814
 8453SOL    HW136995   2.673   3.649  13.948 -0.6047  2.0127 -0.5763
 8453SOL    HW236996   2.721   3.569  13.827 -0.2801 -0.0853 -3.0740
 8454SOL     OW36997   0.406   2.886  15.854  1.1813  0.0982 -0.0921
 8454SOL    HW136998   0.409   2.982  15.857  2.8205 -0.0666  3.7468
 8454SOL    HW236999   0.314   2.873  15.876  0.9651 -3.9201 -3.4677
 8455SOL     OW37000   4.242   3.873   2.108 -0.0709  0.0605  0.3034
 8455SOL    HW137001   4.172   3.811   2.129  2.4370 -1.8374  3.0984
 8455SOL    HW237002   4.220   3.871   2.015  1.5673  1.8524 -0.1248
 8456SOL     OW37003   1.973   3.678  13.377  0.0039  0.1821 -0.0656
 8456SOL    HW137004   1.998   3.669  13.285  2.0523  1.1623  0.3850
 8456SOL    HW237005   1.882   3.654  13.362  0.0540  0.8455 -1.4348
 8457SOL     OW37006   2.975   2.118   8.862 -0.3724 -0.3402 -0.0793
 8457SOL    HW137007   2.951   2.083   8.948  1.2057 -0.5520  0.2697
 8457SOL    HW237008   2.929   2.201   8.850 -1.5053 -1.3751 -2.9372
 8458SOL     OW37009   3.571   4.400   4.563  1.1514  0.3492 -0.4578
 8458SOL    HW137010   3.528   4.448   4.492 -1.9074  0.5459  1.5170
 8458SOL    HW237011   3.612   4.479   4.600  1.5653 -1.2468  2.5074
 8459SOL     OW37012   3.866   2.077   6.984 -0.5737 -0.4240 -0.1445
 8459SOL    HW137013   3.791   2.070   6.924  0.8595 -0.0776 -1.9959
 8459SOL    HW237014   3.869   1.989   7.021 -0.1720 -1.6543 -3.0576
 8460SOL     OW37015   2.740   2.554   8.929 -0.1534  0.1544 -0.0834
 8460SOL    HW137016   2.768   2.469   8.965 -3.2515 -1.5813 -1.7274
 8460SOL    HW237017   2.805   2.609   8.971 -1.5818  1.8293 -0.0639
 8461SOL     OW37018   3.616   3.588   9.946  0.1590  0.8335 -0.5586
 8461SOL    HW137019   3.612   3.524   9.875  0.2218 -0.3804  0.5421
 8461SOL    HW237020   3.580   3.665   9.902 -1.6764  0.6950  0.7046
 8462SOL     OW37021   1.444   2.704   2.597 -0.0458 -0.0865  0.0142
 8462SOL    HW137022   1.377   2.769   2.615 -0.0524 -0.0124 -0.2834
 8462SOL    HW237023   1.424   2.675   2.508  0.0850  1.6126 -0.5730
 8463SOL     OW37024   0.437   2.214   9.970  0.1141 -0.0139  0.8196
 8463SOL    HW137025   0.343   2.226   9.965  0.3972  1.0890 -2.5388
 8463SOL    HW237026   0.461   2.289  10.025 -1.3344  2.0052 -1.2779
 8464SOL     OW37027   3.829   0.103   4.028  0.5981  0.3004 -0.3072
 8464SOL    HW137028   3.835   0.145   3.942  0.6370  0.9281  0.0025
 8464SOL    HW237029   3.920   0.106   4.057  0.5549 -2.0328  0.0520
 8465SOL     OW37030   4.352   1.582   8.493  0.5021 -0.3999  0.3019
 8465SOL    HW137031   4.295   1.543   8.558 -1.6114 -0.1793 -1.4154
 8465SOL    HW237032   4.351   1.676   8.509 -0.2737 -0.3186 -0.2162
 8466SOL     OW37033   2.716   1.259  12.421  0.0686 -0.5264  0.2386
 8466SOL    HW137034   2.652   1.287  12.355  1.2352 -0.7877 -1.0107
 8466SOL    HW237035   2.769   1.337  12.435 -0.5077 -0.1006  0.0752
 8467SOL     OW37036   0.427   2.994   7.683  0.0817 -0.2018  0.3703
 8467SOL    HW137037   0.386   2.935   7.619 -1.7862  1.1369  0.3481
 8467SOL    HW237038   0.423   3.075   7.633  1.5538 -0.4731 -0.2125
 8468SOL     OW37039   3.468   0.509   9.664 -0.4424  0.6136  0.3126
 8468SOL    HW137040   3.523   0.445   9.709 -1.4740  0.5818  1.5168
 8468SOL    HW237041   3.539   0.526   9.602  0.3686 -1.0992  0.7700
 8469SOL     OW37042   2.497   1.930  13.352 -0.1147  0.4410  0.6107
 8469SOL    HW137043   2.490   1.968  13.265 -2.2971  0.4187  0.7736
 8469SOL    HW237044   2.580   1.885  13.333 -0.9406 -0.5603 -0.5703
 8470SOL     OW37045   4.054   2.225  10.651 -0.3840  0.0199  0.0560
 8470SOL    HW137046   4.119   2.158  10.673  0.1396 -0.1972 -2.1455
 8470SOL    HW237047   4.103   2.296  10.610 -1.0737  0.4112 -0.0886
 8471SOL     OW37048   1.810   2.296   1.543 -0.3755 -0.2504 -0.2932
 8471SOL    HW137049   1.742   2.318   1.480 -0.9516  1.9062  1.1117
 8471SOL    HW237050   1.781   2.368   1.599  1.7589  0.1847  0.2629
 8472SOL     OW37051   3.243   3.606   6.600 -0.0172 -0.1586 -0.0544
 8472SOL    HW137052   3.237   3.536   6.535 -0.4485  0.4186 -0.6280
 8472SOL    HW237053   3.303   3.570   6.666  0.1162  1.6172  0.7970
 8473SOL     OW37054   3.689   2.642   2.512 -0.6130  0.0871 -0.2150
 8473SOL    HW137055   3.601   2.605   2.521  0.1492 -1.0440  2.4881
 8473SOL    HW237056   3.677   2.736   2.527  0.5313  0.3590 -1.0591
 8474SOL     OW37057   4.226   0.946  12.062 -0.0725 -0.9063  0.1848
 8474SOL    HW137058   4.141   0.982  12.086  0.4764  1.5273 -1.5605
 8474SOL    HW237059   4.220   0.859  12.102  0.3591 -0.0245  2.1860
 8475SOL     OW37060   2.353   0.390  17.520 -0.2284 -0.5078  0.3548
 8475SOL    HW137061   2.265   0.383  17.557  0.0931  0.7185  1.3581
 8475SOL    HW237062   2.340   0.344  17.437  2.7963 -0.5922 -0.0731
 8476SOL     OW37063   3.362   4.724   9.220 -0.4355  0.2771 -0.1222
 8476SOL    HW137064   3.382   0.022   9.135  0.9949 -1.7138 -0.6642
 8476SOL    HW237065   3.317   0.057   9.263 -0.6074  0.3074 -0.3539
 8477SOL     OW37066   2.254   0.537   5.896 -0.6758  0.0354 -0.4680
 8477SOL    HW137067   2.238   0.531   5.990  0.1864  1.2218 -0.2584
 8477SOL    HW237068   2.345   0.565   5.897 -0.3041 -1.2257  0.0398
 8478SOL     OW37069   3.378   2.566   8.167 -0.6524  0.1955 -0.3764
 8478SOL    HW137070   3.284   2.556   8.152 -0.7762  0.0048  0.5427
 8478SOL    HW237071   3.384   2.532   8.256 -0.6366 -1.7146 -1.1033
 8479SOL     OW37072   0.236   0.135   1.075 -0.7393 -0.2404  0.0550
 8479SOL    HW137073   0.210   0.227   1.067 -1.2714 -0.6571 -2.9593
 8479SOL    HW237074   0.216   0.107   0.986 -0.2910  1.0377 -0.4497
 8480SOL     OW37075   3.705   4.619  15.701  0.2874 -0.2679  0.2760
 8480SOL    HW137076   3.641   4.547  15.698 -0.0243  0.0867 -1.4316
 8480SOL    HW237077   3.779   4.583  15.750 -0.3611 -1.4300  0.3956
 8481SOL     OW37078   2.732   1.943  12.679 -0.1163  0.0150 -0.0478
 8481SOL    HW137079   2.821   1.919  12.655 -1.0550 -2.1513 -1.3787
 8481SOL    HW237080   2.714   2.029  12.641 -0.7284 -0.0034  0.1896
 8482SOL     OW37081   3.778   0.290   6.466  0.2436  0.5869  0.1151
 8482SOL    HW137082   3.731   0.273   6.384  0.8332  2.5473 -0.6146
 8482SOL    HW237083   3.791   0.203   6.504 -0.0853  2.5480  4.7134
 8483SOL     OW37084   0.297   0.178  14.949  0.1297  0.1634 -0.3449
 8483SOL    HW137085   0.280   0.113  15.016 -0.8555 -0.5595 -1.3077
 8483SOL    HW237086   0.364   0.234  14.988 -0.4521  0.9422 -0.4588
 8484SOL     OW37087   4.690   0.310   5.656 -0.2047  0.1362 -0.0603
 8484SOL    HW137088   0.042   0.336   5.651 -1.0324  2.8349 -1.0064
 8484SOL    HW237089   4.664   0.344   5.741 -0.4703 -2.9180  1.1101
 8485SOL     OW37090   1.457   2.558  10.079 -0.1568  0.0549  0.0322
 8485SOL    HW137091   1.376   2.577  10.126 -1.2892 -1.3538 -1.3629
 8485SOL    HW237092   1.482   2.483  10.132 -1.9483 -1.1421 -0.8256
 8486SOL     OW37093   1.750   1.123  13.983 -0.1084 -0.8015 -0.0894
 8486SOL    HW137094   1.818   1.119  14.050 -2.2516 -4.1078  1.8706
 8486SOL    HW237095   1.672   1.089  14.027 -1.0182 -1.9259 -2.5346
 8487SOL     OW37096   3.950   1.482   3.048 -0.4505 -0.4972 -0.0072
 8487SOL    HW137097   4.017   1.443   2.992 -1.4258 -2.0499 -0.0615
 8487SOL    HW237098   3.974   1.442   3.132 -2.1204  1.2240  1.2955
 8488SOL     OW37099   1.191   4.499   2.385  0.2730 -0.6876 -0.3202
 8488SOL    HW137100   1.208   4.467   2.474  2.0752  1.1893  0.0095
 8488SOL    HW237101   1.101   4.529   2.398 -0.1693 -1.2876 -2.0342
 8489SOL     OW37102   4.018   3.116  11.920 -0.0309 -0.2285  0.0231
 8489SOL    HW137103   4.018   3.101  12.014 -1.0559  1.0977  0.2471
 8489SOL    HW237104   3.990   3.208  11.920 -0.8798 -0.4923  0.5128
 8490SOL     OW37105   2.649   1.186   1.888 -0.2063 -0.4443  0.5026
 8490SOL    HW137106   2.589   1.177   1.813 -0.5161 -0.0794  0.7040
 8490SOL    HW237107   2.590   1.221   1.955  0.8163  0.3713  0.9637
 8491SOL     OW37108   0.933   3.338   5.061  0.1882  0.4514  0.3832
 8491SOL    HW137109   1.017   3.384   5.061  0.4283  0.0044  0.0830
 8491SOL    HW237110   0.890   3.369   5.141  0.1174 -1.4235  1.0621
 8492SOL     OW37111   1.344   0.579   5.161  0.6273  0.1683  0.1533
 8492SOL    HW137112   1.273   0.516   5.167  1.1209 -0.0486  3.3166
 8492SOL    HW237113   1.330   0.598   5.068  3.0878 -2.1835 -0.7096
 8493SOL     OW37114   2.825   3.421  13.759  0.1481  0.1055  0.1288
 8493SOL    HW137115   2.810   3.368  13.680 -1.8533  1.7875 -0.6454
 8493SOL    HW237116   2.843   3.355  13.825 -1.2545 -0.1357  0.2710
 8494SOL     OW37117   4.006   2.151   5.705 -0.8153  0.2761 -0.2309
 8494SOL    HW137118   3.974   2.063   5.684 -1.5037  0.7949 -1.3332
 8494SOL    HW237119   3.964   2.203   5.637 -0.7405 -3.7659 -3.4092
 8495SOL     OW37120   4.366   0.166   7.404  0.4004  0.4001 -0.0304
 8495SOL    HW137121   4.310   0.241   7.384  0.9632  1.4340  2.3070
 8495SOL    HW237122   4.405   0.156   7.317  1.5431 -1.4270  0.6869
 8496SOL     OW37123   1.825   0.006  10.530  0.5997 -0.0843 -0.1152
 8496SOL    HW137124   1.878   4.713  10.458  0.5587  2.3358 -1.2681
 8496SOL    HW237125   1.827   0.100  10.509 -0.7840  0.4407  2.0729
 8497SOL     OW37126   1.234   3.948   3.936  0.1915 -0.4862 -0.6568
 8497SOL    HW137127   1.265   3.860   3.956 -0.3945 -0.2166  1.4893
 8497SOL    HW237128   1.319   3.990   3.920 -0.5070  0.0321 -3.0279
 8498SOL     OW37129   1.981   3.423   2.191  0.0462  0.2721 -0.6166
 8498SOL    HW137130   1.913   3.452   2.130 -0.3516 -1.6337 -1.0766
 8498SOL    HW237131   2.060   3.431   2.138 -0.1764  1.7157 -0.7214
 8499SOL     OW37132   1.441   3.325   6.804 -0.3450  0.0819  0.3105
 8499SOL    HW137133   1.361   3.295   6.761 -0.2681  0.4379 -0.0834
 8499SOL    HW237134   1.504   3.257   6.782 -0.0973  0.5792 -0.5151
 8500SOL     OW37135   4.738   3.325   2.757 -0.0334  0.0399  0.3873
 8500SOL    HW137136   0.081   3.335   2.711 -0.3526 -0.1458 -0.2297
 8500SOL    HW237137   0.026   3.306   2.846  0.6433  0.3035  0.2326
 8501SOL     OW37138   2.466   1.178   4.124  0.1834  0.1042  0.2310
 8501SOL    HW137139   2.440   1.211   4.210  0.3975  2.0609 -0.4508
 8501SOL    HW237140   2.385   1.201   4.078  1.3797 -1.0506 -2.4862
 8502SOL     OW37141   2.621   3.490   8.192  0.7144 -0.0625 -0.2175
 8502SOL    HW137142   2.611   3.413   8.137  0.2698 -0.2159  0.0835
 8502SOL    HW237143   2.586   3.458   8.275 -0.7449 -1.9694 -1.5882
 8503SOL     OW37144   0.535   4.108   9.937  0.1951 -0.3526  0.0221
 8503SOL    HW137145   0.553   4.016   9.916 -2.1456 -0.3081 -2.2814
 8503SOL    HW237146   0.453   4.116   9.887  0.0228 -0.5109  0.2778
 8504SOL     OW37147   4.014   4.631   7.250 -0.0320 -0.1735  0.4200
 8504SOL    HW137148   4.026   4.726   7.242 -0.2111 -0.0794  1.2507
 8504SOL    HW237149   3.934   4.610   7.203 -0.2526 -1.9884  1.5920
 8505SOL     OW37150   2.981   4.170   6.530  0.1616 -0.4239  0.2623
 8505SOL    HW137151   2.927   4.172   6.450  0.8270  1.9007 -0.1065
 8505SOL    HW237152   2.958   4.256   6.563  1.0292  0.3463 -1.1432
 8506SOL     OW37153   1.633   1.592   0.250 -0.1388  0.2095 -0.4627
 8506SOL    HW137154   1.685   1.644   0.189 -0.3999  1.2969  0.2409
 8506SOL    HW237155   1.583   1.541   0.186  0.3726  0.0958 -0.7643
 8507SOL     OW37156   2.151   0.846   3.110  0.0006 -0.0039 -0.5802
 8507SOL    HW137157   2.222   0.879   3.165 -1.7639 -0.8667  2.2011
 8507SOL    HW237158   2.197   0.797   3.042  0.6209 -1.3617  0.8232
 8508SOL     OW37159   2.109   4.486   8.483  0.4881 -0.0304 -0.2977
 8508SOL    HW137160   2.029   4.538   8.494 -0.9967 -2.4612  0.7288
 8508SOL    HW237161   2.142   4.483   8.573  0.5445  1.5346 -0.2757
 8509SOL     OW37162   3.010   4.082   3.716 -0.5528 -0.2374 -0.3206
 8509SOL    HW137163   3.052   4.085   3.802  2.2208  1.1335 -1.7476
 8509SOL    HW237164   3.053   4.152   3.667 -2.0468 -0.3193 -1.7637
 8510SOL     OW37165   1.429   2.664   8.944  0.1270  0.2854  1.0634
 8510SOL    HW137166   1.510   2.637   8.988  0.0228  0.3930  1.3236
 8510SOL    HW237167   1.414   2.749   8.984 -1.8986  0.6061 -0.4032
 8511SOL     OW37168   3.144   1.827   8.991  0.4545  0.1282  0.3065
 8511SOL    HW137169   3.068   1.857   9.040  1.0630  0.3198  1.1315
 8511SOL    HW237170   3.126   1.733   8.987 -0.8695  0.3586  0.9667
 8512SOL     OW37171   0.695   1.558   3.065 -0.3560  0.3825 -0.4510
 8512SOL    HW137172   0.731   1.473   3.038 -0.6283  0.8623 -2.3771
 8512SOL    HW237173   0.619   1.575   3.008  0.0766 -1.7119 -1.6646
 8513SOL     OW37174   3.060   0.319   7.886  0.3352 -0.4162 -0.1325
 8513SOL    HW137175   3.147   0.325   7.925  0.3189  0.6271 -0.2515
 8513SOL    HW237176   3.016   0.380   7.946  0.2887 -2.7239  2.2138
 8514SOL     OW37177   4.552   4.551   7.314 -0.2453  0.2020  0.2310
 8514SOL    HW137178   4.605   4.630   7.328  0.1344  0.1823 -1.1029
 8514SOL    HW237179   4.617   4.481   7.306  0.7743  1.6406 -3.8220
 8515SOL     OW37180   0.399   0.883   6.457  0.1105  0.2700 -0.0365
 8515SOL    HW137181   0.381   0.977   6.456  1.4914  0.5339  0.5307
 8515SOL    HW237182   0.308   0.855   6.473 -0.5146  1.6261 -1.2159
 8516SOL     OW37183   2.738   4.134   3.475 -0.1029 -0.2840 -0.3330
 8516SOL    HW137184   2.817   4.115   3.527  0.5409  0.9438 -0.8596
 8516SOL    HW237185   2.709   4.051   3.437 -2.4318 -0.1319  1.1015
 8517SOL     OW37186   2.087   0.337  16.534 -0.2591  0.2675 -0.0783
 8517SOL    HW137187   2.028   0.412  16.545 -0.5106  0.2038 -0.9698
 8517SOL    HW237188   2.019   0.277  16.560 -0.1717 -0.0357 -0.5420
 8518SOL     OW37189   0.767   0.607   2.160  0.2853  0.0041 -0.0569
 8518SOL    HW137190   0.811   0.541   2.213 -1.2511 -0.3093  0.8459
 8518SOL    HW237191   0.697   0.552   2.125 -0.0970  1.6225 -1.8454
 8519SOL     OW37192   2.701   0.310   1.587 -0.1302  0.5631  0.8323
 8519SOL    HW137193   2.785   0.272   1.610  1.0671  1.6117 -1.8329
 8519SOL    HW237194   2.644   0.243   1.627 -2.3536  1.5913 -0.5782
 8520SOL     OW37195   0.747   0.025   1.062 -1.0197 -0.0325 -0.2476
 8520SOL    HW137196   0.705   0.044   0.979 -3.5425 -1.4338  0.7114
 8520SOL    HW237197   0.788   0.110   1.079 -1.5273  0.0050  0.8126
 8521SOL     OW37198   2.981   1.237   3.794  0.1739 -0.2874 -0.3725
 8521SOL    HW137199   3.000   1.275   3.708  0.8843 -0.3618 -0.2426
 8521SOL    HW237200   2.889   1.263   3.802  0.0059 -0.4420 -1.6807
 8522SOL     OW37201   0.959   1.711   1.786  0.3565  0.1896 -0.5530
 8522SOL    HW137202   0.966   1.791   1.839  0.7536 -1.4514  1.8683
 8522SOL    HW237203   0.863   1.709   1.782  0.2554  1.6381  1.0755
 8523SOL     OW37204   3.457   3.964  15.015 -0.0598  0.1796 -0.1568
 8523SOL    HW137205   3.457   3.888  15.074 -2.0479  0.4107  0.1425
 8523SOL    HW237206   3.369   4.001  15.026 -0.3746 -1.3848  2.6487
 8524SOL     OW37207   0.396   2.674   5.297  0.7833  0.5044  0.4819
 8524SOL    HW137208   0.447   2.736   5.348  0.2522  0.6774  0.7947
 8524SOL    HW237209   0.441   2.667   5.213  2.0652  0.9022  1.1452
 8525SOL     OW37210   2.346   4.374   3.935  0.3342 -0.2333 -0.1425
 8525SOL    HW137211   2.404   4.304   3.904  1.4417  0.7439 -0.3034
 8525SOL    HW237212   2.318   4.341   4.021 -0.1119  0.9734  0.1745
 8526SOL     OW37213   3.097   2.455   4.419 -0.0811  0.0429  0.4094
 8526SOL    HW137214   3.152   2.527   4.390  0.8778 -0.7456  0.2525
 8526SOL    HW237215   3.009   2.492   4.411  0.8711  2.5260  1.6519
 8527SOL     OW37216   2.058   4.389  13.956 -0.4832 -0.5862  0.1831
 8527SOL    HW137217   2.096   4.384  14.043  0.0341 -2.7973 -0.1679
 8527SOL    HW237218   2.128   4.408  13.893  0.1100  1.1853  1.3557
 8528SOL     OW37219   2.009   1.596   5.790 -0.5135 -0.1223 -0.0092
 8528SOL    HW137220   2.000   1.519   5.734 -1.5010 -2.0642  2.8214
 8528SOL    HW237221   2.073   1.643   5.736 -1.6638 -0.2097 -1.4191
 8529SOL     OW37222   1.626   2.797  13.495  0.3729 -0.4326  0.1570
 8529SOL    HW137223   1.673   2.854  13.555  1.8322 -0.8948 -0.5339
 8529SOL    HW237224   1.574   2.750  13.560  2.0931  1.6976  3.0763
 8530SOL     OW37225   0.126   3.189  15.765 -0.7611  0.2569 -0.1437
 8530SOL    HW137226   0.108   3.164  15.674  2.4009  0.8083 -0.9157
 8530SOL    HW237227   0.057   3.253  15.784 -0.1774  1.1789 -1.1824
 8531SOL     OW37228   3.012   4.294   9.515  0.5531  0.2666 -0.0131
 8531SOL    HW137229   2.982   4.311   9.426  2.6234  0.7780 -0.6235
 8531SOL    HW237230   2.963   4.357   9.568  0.1611  0.4427 -0.5855
 8532SOL     OW37231   2.090   0.446   7.276  0.1930  0.2362 -0.1542
 8532SOL    HW137232   2.066   0.517   7.335  1.7314 -1.2097  2.2212
 8532SOL    HW237233   2.122   0.388   7.345  0.2124  0.7312  0.2504
 8533SOL     OW37234   4.416   2.142  13.300  0.0436  0.3274 -0.2380
 8533SOL    HW137235   4.411   2.202  13.374 -1.0548  0.4653 -0.4276
 8533SOL    HW237236   4.352   2.076  13.328 -1.0586  1.3309 -0.4235
 8534SOL     OW37237   1.885   1.920   7.516 -0.7721  0.3458 -0.0630
 8534SOL    HW137238   1.874   1.967   7.599  0.5333 -0.2611  0.4435
 8534SOL    HW237239   1.792   1.904   7.500 -1.0463  2.1065 -0.2453
 8535SOL     OW37240   3.270   0.799   5.326  0.0345  0.5522 -0.3394
 8535SOL    HW137241   3.263   0.868   5.260 -2.5340 -1.7871 -2.5292
 8535SOL    HW237242   3.185   0.807   5.370  0.2786 -2.6503  0.7039
 8536SOL     OW37243   2.600   3.410  15.354 -0.0246 -0.0908 -0.9273
 8536SOL    HW137244   2.508   3.395  15.329 -1.1853  1.1905  2.5107
 8536SOL    HW237245   2.584   3.454  15.438  4.1216  0.5054 -0.4628
 8537SOL     OW37246   4.024   4.631  12.559 -0.3714 -0.0576  0.0900
 8537SOL    HW137247   4.099   4.668  12.607 -2.8770  1.5217  2.7642
 8537SOL    HW237248   4.021   4.542  12.593 -0.9556 -0.1511 -0.2165
 8538SOL     OW37249   1.253   0.266   2.294 -0.2441 -0.3775 -0.8925
 8538SOL    HW137250   1.228   0.198   2.232 -1.5653 -1.4384  0.8136
 8538SOL    HW237251   1.248   0.343   2.239  0.8696  0.1444 -0.2745
 8539SOL     OW37252   3.673   0.023   3.641 -0.2198  1.0839  0.3796
 8539SOL    HW137253   3.625   0.010   3.560 -2.6276  2.1046  1.6518
 8539SOL    HW237254   3.597   0.015   3.699 -0.5865  0.8334 -0.1419
 8540SOL     OW37255   0.403   2.824   2.293 -0.0480 -0.0641  0.6626
 8540SOL    HW137256   0.379   2.899   2.346  2.1806  1.3517 -0.3437
 8540SOL    HW237257   0.366   2.845   2.207 -1.5469 -0.0482  1.3094
 8541SOL     OW37258   0.349   3.651   8.025 -0.1677  0.4174  0.3133
 8541SOL    HW137259   0.320   3.613   7.942 -0.6760 -0.2489  0.7963
 8541SOL    HW237260   0.300   3.734   8.022 -2.4101 -0.9244  0.0369
 8542SOL     OW37261   4.102   1.978   8.836  0.0525 -0.2985 -0.1303
 8542SOL    HW137262   4.077   1.896   8.793  1.6237 -0.5576 -0.5203
 8542SOL    HW237263   4.183   2.006   8.794  1.2455  0.8940  2.9435
 8543SOL     OW37264   3.879   3.288   5.040  0.2153 -0.5163 -0.0094
 8543SOL    HW137265   3.901   3.201   5.008  1.6539  0.5355 -1.8527
 8543SOL    HW237266   3.789   3.269   5.068 -0.0323  0.8932  0.1386
 8544SOL     OW37267   4.218   2.717   8.345  0.8493  0.2439  0.4056
 8544SOL    HW137268   4.282   2.776   8.304  1.0488  0.1131  0.5264
 8544SOL    HW237269   4.239   2.632   8.308  0.7512 -0.0520  1.0305
 8545SOL     OW37270   4.677   0.899   4.669  0.2631 -0.1202 -0.1748
 8545SOL    HW137271   4.602   0.954   4.692  0.7801 -0.0371  1.3303
 8545SOL    HW237272   4.699   0.869   4.757 -1.4432 -1.9723 -0.3874
 8546SOL     OW37273   3.708   2.653   8.382 -0.7826  0.0515 -0.3848
 8546SOL    HW137274   3.703   2.609   8.467 -0.0465  1.6915  0.5253
 8546SOL    HW237275   3.652   2.596   8.330 -2.3773  1.2029  0.0760
 8547SOL     OW37276   1.725   2.953  14.738  0.2780  0.0075 -0.5467
 8547SOL    HW137277   1.788   2.887  14.765 -0.2230  0.3034  1.2930
 8547SOL    HW237278   1.777   3.032  14.722  0.0542  0.1875 -0.3889
 8548SOL     OW37279   4.535   2.758   8.877 -0.3302 -0.3381 -0.2902
 8548SOL    HW137280   4.580   2.674   8.863  0.7916  0.2181  0.0413
 8548SOL    HW237281   4.511   2.758   8.784 -3.6032  1.4457  0.5845
 8549SOL     OW37282   1.096   2.700  17.133 -0.0839 -0.3435 -0.2302
 8549SOL    HW137283   1.049   2.740  17.207  1.0640  0.3616  0.1111
 8549SOL    HW237284   1.161   2.651  17.183  0.1489 -2.1231 -2.2822
 8550SOL     OW37285   2.122   2.864   9.935 -0.0434 -0.0317 -0.2966
 8550SOL    HW137286   2.153   2.954   9.923  0.8082 -0.8551 -4.0400
 8550SOL    HW237287   2.030   2.874   9.958 -0.2876 -2.6164 -0.1606
 8551SOL     OW37288   0.217   3.880   8.042 -0.3989  0.4393  0.0244
 8551SOL    HW137289   0.179   3.886   8.130 -1.2900 -0.4763 -0.3037
 8551SOL    HW237290   0.148   3.931   8.000 -1.5857 -0.4711  0.8629
 8552SOL     OW37291   0.409   2.861   2.739  0.1758  0.3267 -0.1870
 8552SOL    HW137292   0.357   2.847   2.660  0.1276 -0.0489 -0.0910
 8552SOL    HW237293   0.343   2.864   2.808 -0.9216  2.2058 -1.3191
 8553SOL     OW37294   4.114   3.887   6.608 -0.2879 -0.0438 -0.6057
 8553SOL    HW137295   4.019   3.875   6.612  0.1044 -2.3988  1.0327
 8553SOL    HW237296   4.132   3.925   6.694 -0.7721  0.0335 -0.5399
 8554SOL     OW37297   4.018   3.076  10.016  0.0210 -0.1424 -0.3945
 8554SOL    HW137298   4.022   3.078   9.920 -2.7616 -0.7795 -0.5221
 8554SOL    HW237299   3.988   3.166  10.030  0.2588 -0.0083 -0.7424
 8555SOL     OW37300   3.612   1.912   3.181 -0.1957  0.1389 -0.2009
 8555SOL    HW137301   3.646   1.938   3.267  1.1738 -0.2880 -0.6025
 8555SOL    HW237302   3.619   1.817   3.175 -1.6546 -0.2070  3.2520
 8556SOL     OW37303   2.082   2.574   0.247  0.0661  0.5133  0.3574
 8556SOL    HW137304   2.155   2.526   0.287  0.3000  1.5096  1.1115
 8556SOL    HW237305   2.142   2.608   0.181  0.8121  1.2095  1.4072
 8557SOL     OW37306   0.028   2.389   6.100  0.3324  0.0008  0.0441
 8557SOL    HW137307   0.074   2.332   6.162  1.1394 -0.4084 -0.9421
 8557SOL    HW237308   4.698   2.422   6.156 -0.9206 -0.7050 -1.0984
 8558SOL     OW37309   3.552   3.136   9.147 -0.2804 -0.5211 -0.4387
 8558SOL    HW137310   3.535   3.224   9.114 -2.2987 -0.6351  0.3122
 8558SOL    HW237311   3.630   3.110   9.097 -0.4155 -3.2283  0.7474
 8559SOL     OW37312   4.672   2.807  11.262  0.2572  0.1301 -0.4835
 8559SOL    HW137313   4.692   2.714  11.269 -0.7533  0.0407  1.3750
 8559SOL    HW237314   4.724   2.840  11.335 -0.4198  0.0344  0.0468
 8560SOL     OW37315   4.305   2.076   6.643 -0.2013 -0.5073 -0.2819
 8560SOL    HW137316   4.259   1.997   6.672 -0.4570 -0.7661 -1.3740
 8560SOL    HW237317   4.393   2.075   6.681 -0.5120 -2.2785  0.3770
 8561SOL     OW37318   4.672   4.649   6.607 -0.1258 -0.0031  0.4411
 8561SOL    HW137319   0.012   4.669   6.558 -0.3330  1.0014  0.5111
 8561SOL    HW237320   4.686   4.555   6.615  0.1105  0.1763  2.0843
 8562SOL     OW37321   0.138   4.420  15.588 -0.6280  0.0466  0.4131
 8562SOL    HW137322   0.167   4.349  15.532 -1.8829  0.1714 -0.4047
 8562SOL    HW237323   0.042   4.411  15.587 -0.7885  1.8087 -0.7100
 8563SOL     OW37324   3.520   0.364   5.352  0.3138  0.2773  0.8545
 8563SOL    HW137325   3.507   0.376   5.258  1.0367  1.6911  0.9378
 8563SOL    HW237326   3.589   0.428   5.365 -1.0429  1.7563  0.8026
 8564SOL     OW37327   3.048   4.130  14.077  0.3067  0.5755 -0.0082
 8564SOL    HW137328   3.134   4.088  14.079  0.1136  0.1242 -0.9699
 8564SOL    HW237329   3.012   4.099  13.994  0.7525 -2.8962  1.0588
 8565SOL     OW37330   3.790   1.634   9.503 -0.3295 -0.0426 -0.5287
 8565SOL    HW137331   3.829   1.573   9.566  1.0415  1.8035  0.4063
 8565SOL    HW237332   3.865   1.668   9.453  0.9491  0.3965  1.6823
 8566SOL     OW37333   3.112   1.398   8.237  0.0237 -0.4476 -0.0525
 8566SOL    HW137334   3.041   1.457   8.214 -0.8082 -0.5058  2.3204
 8566SOL    HW237335   3.188   1.450   8.209  0.2188  0.1843  1.6358
 8567SOL     OW37336   0.525   0.217   1.194  0.5756 -0.4971 -0.1555
 8567SOL    HW137337   0.499   0.253   1.109 -1.8729 -1.6359  0.1322
 8567SOL    HW237338   0.620   0.229   1.195  0.5615 -0.2043 -1.7827
 8568SOL     OW37339   1.896   2.050  11.728 -0.3315 -0.3954 -0.1239
 8568SOL    HW137340   1.983   2.011  11.720  0.1213  0.7912 -1.0154
 8568SOL    HW237341   1.842   1.982  11.769 -2.1645  3.0882  3.2895
 8569SOL     OW37342   3.727   3.691   1.572 -0.0777 -0.3915  0.7867
 8569SOL    HW137343   3.813   3.647   1.576  0.0408 -0.3614 -1.3756
 8569SOL    HW237344   3.754   3.780   1.593  1.6352 -0.7195 -0.0070
 8570SOL     OW37345   2.819   4.518   4.315  0.2244  0.1738 -0.2832
 8570SOL    HW137346   2.728   4.527   4.346  0.0210  0.7854 -1.0676
 8570SOL    HW237347   2.805   4.538   4.223  0.2966  1.3305 -0.0419
 8571SOL     OW37348   0.264   4.147   1.819  0.5085 -0.8483 -0.4907
 8571SOL    HW137349   0.194   4.082   1.822  0.5013 -0.6614  3.7347
 8571SOL    HW237350   0.212   4.216   1.861  0.7922 -1.7954  1.4151
 8572SOL     OW37351   0.877   2.647   5.730  0.2289  0.1845 -0.1601
 8572SOL    HW137352   0.848   2.561   5.760 -0.0764  0.8576  1.4690
 8572SOL    HW237353   0.904   2.680   5.815 -1.2432  1.0289 -0.0141
 8573SOL     OW37354   4.129   3.005  12.433  0.2457 -0.3264  0.1524
 8573SOL    HW137355   4.140   3.056  12.514  0.7501 -1.2500  0.6675
 8573SOL    HW237356   4.113   2.917  12.468  2.9576 -1.2672 -0.9596
 8574SOL     OW37357   0.421   2.402  15.908 -0.2830  0.1440  0.1197
 8574SOL    HW137358   0.481   2.418  15.835 -1.3951 -2.9508 -1.4761
 8574SOL    HW237359   0.340   2.449  15.887 -1.1588 -1.2006  0.4618
 8575SOL     OW37360   3.428   4.256   6.209 -0.1399  0.1776 -0.3730
 8575SOL    HW137361   3.336   4.263   6.236 -0.4419  0.5334 -1.4926
 8575SOL    HW237362   3.452   4.168   6.238 -1.2444 -0.4392 -1.3078
 8576SOL     OW37363   2.007   1.689   8.796 -0.1738  0.4252 -0.5038
 8576SOL    HW137364   1.976   1.703   8.885  0.0372  0.6703 -0.4706
 8576SOL    HW237365   2.026   1.779   8.771 -2.8504  1.0659 -0.1875
 8577SOL     OW37366   0.303   2.747   1.080  0.5809 -0.1788 -0.5635
 8577SOL    HW137367   0.387   2.758   1.034  0.4822 -1.3746 -1.0404
 8577SOL    HW237368   0.333   2.764   1.169  1.3949  0.1644 -0.8958
 8578SOL     OW37369   1.401   3.423  10.584  0.2639 -0.5481  0.3199
 8578SOL    HW137370   1.412   3.481  10.659  1.9614 -1.7389  1.0006
 8578SOL    HW237371   1.332   3.363  10.611 -1.8201  1.7364  0.0979
 8579SOL     OW37372   2.195   3.582   5.565 -0.3002 -0.0114 -0.4088
 8579SOL    HW137373   2.171   3.510   5.623 -0.8274  0.2860 -0.2598
 8579SOL    HW237374   2.290   3.594   5.568 -0.5234  0.9692  2.3078
 8580SOL     OW37375   2.721   0.093   7.681  0.6956  0.3968 -0.3990
 8580SOL    HW137376   2.646   0.036   7.666  0.4875  0.3735  0.7283
 8580SOL    HW237377   2.715   0.115   7.774 -0.4232 -1.1265 -0.1038
 8581SOL     OW37378   2.578   0.829  17.720  0.6301  0.1936  0.8273
 8581SOL    HW137379   2.512   0.874  17.667 -0.8486 -2.5289  0.3569
 8581SOL    HW237380   2.665   0.842  17.682  0.1212  0.7260 -0.1545
 8582SOL     OW37381   2.052   4.643   4.406 -0.7806  0.1480  0.0683
 8582SOL    HW137382   2.139   4.678   4.389 -1.8693  2.9799  0.3015
 8582SOL    HW237383   2.057   4.649   4.502 -0.9192 -0.4858  0.1146
 8583SOL     OW37384   2.799   3.175   8.657  0.4703  0.3034 -0.0175
 8583SOL    HW137385   2.887   3.192   8.623  0.7061 -2.0187 -0.5740
 8583SOL    HW237386   2.767   3.255   8.700  0.6782 -0.4468  1.5223
 8584SOL     OW37387   1.699   2.472   7.226 -1.1644  0.3539 -0.3829
 8584SOL    HW137388   1.770   2.454   7.165  0.7867  0.5510  1.8379
 8584SOL    HW237389   1.711   2.397   7.284 -1.7044  0.5245 -0.0398
 8585SOL     OW37390   3.575   3.159   8.368  0.1102  1.1049 -0.0123
 8585SOL    HW137391   3.629   3.080   8.364  1.1567  1.7104  2.8509
 8585SOL    HW237392   3.519   3.133   8.294 -0.2033  0.8719  0.3066
 8586SOL     OW37393   1.132   2.339  15.788  0.2401 -0.1959  0.4629
 8586SOL    HW137394   1.051   2.300  15.820 -0.4653  2.7183  2.1714
 8586SOL    HW237395   1.089   2.370  15.709 -1.0924  0.2566  1.3763
 8587SOL     OW37396   0.922   1.082   6.143 -0.2604  0.0573  0.5708
 8587SOL    HW137397   0.840   1.132   6.144 -0.0579  0.3790  1.2260
 8587SOL    HW237398   0.916   1.057   6.051  1.0236 -1.0309  0.7954
 8588SOL     OW37399   0.158   2.690   6.851 -0.1222 -0.0126  0.2934
 8588SOL    HW137400   0.249   2.691   6.820 -0.4964 -1.0667 -0.8620
 8588SOL    HW237401   0.108   2.738   6.785  0.7302  1.9257  1.0675
 8589SOL     OW37402   2.159   4.724  11.919 -0.7294  0.1437  0.3579
 8589SOL    HW137403   2.141   0.033  11.999 -1.5190  0.8662 -0.2556
 8589SOL    HW237404   2.207   0.052  11.871 -1.8661  0.2065 -0.7009
 8590SOL     OW37405   1.525   2.892   2.951  0.0281 -0.0223  0.6445
 8590SOL    HW137406   1.496   2.930   2.869  0.2287  0.4345  0.7866
 8590SOL    HW237407   1.606   2.854   2.917 -0.7152 -1.7162  0.7441
 8591SOL     OW37408   4.708   3.687   3.464 -0.2096  0.1642 -0.2575
 8591SOL    HW137409   4.615   3.674   3.443 -0.0595  5.1053 -3.7539
 8591SOL    HW237410   4.719   3.778   3.437  0.6608  0.2742  0.4650
 8592SOL     OW37411   3.410   4.125   5.304 -0.2917 -0.1967 -0.1899
 8592SOL    HW137412   3.395   4.097   5.394 -0.8923 -0.5404 -0.4011
 8592SOL    HW237413   3.442   4.046   5.260  1.9810  0.3705  0.4200
 8593SOL     OW37414   3.998   3.081   5.270 -0.3050 -0.1983 -0.3692
 8593SOL    HW137415   4.013   3.019   5.198  0.3944  0.7867 -1.0743
 8593SOL    HW237416   3.941   3.143   5.226 -1.7606 -0.2061  1.5027
 8594SOL     OW37417   4.083   0.025   4.816 -0.7384  0.2947 -0.2323
 8594SOL    HW137418   4.133   0.096   4.775  0.5098 -0.1943  0.4259
 8594SOL    HW237419   4.102   0.042   4.909 -0.9094 -1.3807  0.0927
 8595SOL     OW37420   0.488   4.399   6.294 -0.3766 -0.0457 -0.2265
 8595SOL    HW137421   0.549   4.325   6.289  0.9624  1.2980 -3.3921
 8595SOL    HW237422   0.531   4.440   6.368 -0.1353 -0.8652  0.0929
 8596SOL     OW37423   4.684   0.805   1.695  0.0534 -0.2200  0.2641
 8596SOL    HW137424   4.665   0.862   1.621  0.9725  1.1686  1.1089
 8596SOL    HW237425   4.595   0.770   1.704  0.1129 -0.5535 -0.4399
 8597SOL     OW37426   1.402   2.168   3.238  0.2168 -0.2830 -0.2750
 8597SOL    HW137427   1.445   2.090   3.275 -1.1607 -0.3347  1.2185
 8597SOL    HW237428   1.310   2.140   3.237  0.5545 -1.4494  0.2750
 8598SOL     OW37429   0.224   1.751   6.910  0.2660  0.4093  0.1992
 8598SOL    HW137430   0.181   1.715   6.833 -1.9907  0.7925  1.2998
 8598SOL    HW237431   0.272   1.827   6.874 -2.2557  0.9188 -2.1463
 8599SOL     OW37432   0.543   0.547  10.399 -0.2450 -0.5094  0.2439
 8599SOL    HW137433   0.628   0.551  10.443  0.0523  0.7596 -0.4452
 8599SOL    HW237434   0.565   0.491  10.324 -0.4097  2.3871 -1.9701
 8600SOL     OW37435   2.456   1.071   9.177  0.5397 -0.2552  0.1077
 8600SOL    HW137436   2.467   0.985   9.138 -1.6307 -0.5661  0.2185
 8600SOL    HW237437   2.480   1.041   9.264  0.7893  0.6043  0.3329
 8601SOL     OW37438   4.569   2.059  10.642 -0.3260  0.1374 -0.6710
 8601SOL    HW137439   4.606   2.102  10.565  3.4080  3.9433  3.2898
 8601SOL    HW237440   4.633   2.088  10.707 -0.5305 -1.3713  0.2095
 8602SOL     OW37441   0.663   0.133  17.594 -0.6858 -0.1319 -0.0772
 8602SOL    HW137442   0.752   0.137  17.559 -0.3782  1.3617  0.8711
 8602SOL    HW237443   0.643   0.040  17.583 -1.1871 -0.1817  1.3760
 8603SOL     OW37444   2.675   1.106  13.295 -0.1767 -0.3227 -0.2097
 8603SOL    HW137445   2.657   1.111  13.389 -2.9789  1.6510 -0.8435
 8603SOL    HW237446   2.711   1.192  13.274 -0.5200 -0.7272 -2.5300
 8604SOL     OW37447   2.216   4.060  12.352  0.2392  0.0953 -0.4192
 8604SOL    HW137448   2.177   4.141  12.385 -0.3439  0.4115 -1.9091
 8604SOL    HW237449   2.155   4.020  12.290 -0.7747  1.0967 -0.0636
 8605SOL     OW37450   2.670   3.531   4.222 -0.4878 -0.0848 -0.2260
 8605SOL    HW137451   2.667   3.612   4.273 -0.4893 -0.8054  0.9224
 8605SOL    HW237452   2.763   3.509   4.220 -0.2688  0.8656 -0.5405
 8606SOL     OW37453   0.653   4.604  10.090  0.0457  0.6840  0.7861
 8606SOL    HW137454   0.597   4.557  10.029  0.7280  1.1573 -0.2063
 8606SOL    HW237455   0.711   4.536  10.126  0.8356 -1.4167 -4.3602
 8607SOL     OW37456   0.586   0.805   7.836 -0.0647  0.2159  0.0594
 8607SOL    HW137457   0.617   0.722   7.799 -1.9918 -0.1304 -0.7772
 8607SOL    HW237458   0.585   0.785   7.929 -1.0186  0.6421  0.1349
 8608SOL     OW37459   1.296   2.936   0.632  0.1252  0.0670  0.0126
 8608SOL    HW137460   1.276   2.852   0.672 -3.8413  0.1912 -1.6823
 8608SOL    HW237461   1.233   2.984   0.686 -0.9146  0.4225 -1.5225
 8609SOL     OW37462   3.165   1.752  16.982 -0.0010 -0.0092  0.0189
 8609SOL    HW137463   3.169   1.809  16.905  0.8940 -3.2636 -2.3433
 8609SOL    HW237464   3.241   1.779  17.034 -0.0382  0.0804  0.0271
 8610SOL     OW37465   2.033   1.078   6.861 -0.4129 -0.3621  0.3455
 8610SOL    HW137466   1.938   1.076   6.855 -0.3761  1.7317 -0.8362
 8610SOL    HW237467   2.067   1.028   6.787  0.3592 -0.4948  0.7906
 8611SOL     OW37468   0.263   3.476   2.073 -0.1651 -0.3767 -0.2469
 8611SOL    HW137469   0.274   3.554   2.020 -1.3768  0.6409  0.9760
 8611SOL    HW237470   0.225   3.508   2.155  1.4653 -0.8090  0.6725
 8612SOL     OW37471   4.001   2.516   7.215  0.5799  0.4811 -0.0713
 8612SOL    HW137472   3.930   2.580   7.207  0.7582  0.7903  0.8106
 8612SOL    HW237473   3.956   2.438   7.182 -1.2957  1.0180  1.2320
 8613SOL     OW37474   2.291   2.268   4.690  0.1652 -0.0477 -0.0263
 8613SOL    HW137475   2.308   2.294   4.780  1.0276 -0.2274 -0.1319
 8613SOL    HW237476   2.370   2.303   4.648  0.2252 -0.3980 -0.2067
 8614SOL     OW37477   4.228   4.437   6.333 -0.2092  0.0776  0.1332
 8614SOL    HW137478   4.161   4.409   6.270 -1.3969  1.4097  0.7960
 8614SOL    HW237479   4.307   4.424   6.282 -0.1116  1.7209 -0.1274
 8615SOL     OW37480   4.681   0.784   8.993  0.0085 -0.5204  0.5577
 8615SOL    HW137481   4.654   0.715   8.933  1.0591 -1.2624  0.9318
 8615SOL    HW237482   4.696   0.748   9.081  1.5911  0.3540  0.6379
 8616SOL     OW37483   4.542   2.056   7.662  0.9410 -0.3308 -0.6238
 8616SOL    HW137484   4.488   2.129   7.690  2.2348  0.1589  0.5898
 8616SOL    HW237485   4.626   2.102   7.660  0.5413  0.2678 -3.4122
 8617SOL     OW37486   0.533   3.659   8.781 -0.1686 -0.2634  0.3977
 8617SOL    HW137487   0.570   3.608   8.708 -0.0875  0.7058 -0.2494
 8617SOL    HW237488   0.602   3.650   8.846  0.7795 -3.1120 -1.0049
 8618SOL     OW37489   4.301   0.733  11.865 -0.1912 -0.5239 -0.2243
 8618SOL    HW137490   4.319   0.811  11.918 -0.2050 -0.4856 -0.2763
 8618SOL    HW237491   4.208   0.721  11.881 -0.4885  2.0205  0.0264
 8619SOL     OW37492   3.009   2.508   7.820 -0.3682  0.0915  0.0823
 8619SOL    HW137493   2.960   2.538   7.897  1.4974 -0.0828  1.3585
 8619SOL    HW237494   2.949   2.451   7.774 -1.4659  0.1750  1.4150
 8620SOL     OW37495   3.562   4.235   3.002 -0.2382 -0.4848 -0.4771
 8620SOL    HW137496   3.468   4.229   2.986 -0.1956 -0.2218 -0.8401
 8620SOL    HW237497   3.588   4.148   3.030  0.6008 -0.5084 -1.3432
 8621SOL     OW37498   2.425   0.415   7.660 -0.0472  0.4221  0.0216
 8621SOL    HW137499   2.452   0.506   7.666  1.6830 -0.1183  0.4788
 8621SOL    HW237500   2.415   0.401   7.754 -0.4258 -0.2570 -0.1175
 8622SOL     OW37501   2.763   3.874   8.583 -0.1536  0.2025  1.0239
 8622SOL    HW137502   2.677   3.892   8.543 -0.3712  0.0588  1.4250
 8622SOL    HW237503   2.743   3.787   8.618  0.2141 -0.5566 -0.6285
 8623SOL     OW37504   0.790   0.007   3.434 -0.1098 -0.5229  0.0354
 8623SOL    HW137505   0.793   0.103   3.435 -1.5721 -0.4818  0.0364
 8623SOL    HW237506   0.786   4.723   3.342 -1.1498 -2.4084  0.5669
 8624SOL     OW37507   1.066   1.719   5.182 -0.4012 -0.5136  0.4417
 8624SOL    HW137508   1.012   1.643   5.160 -0.4829 -0.3625  0.1278
 8624SOL    HW237509   1.117   1.694   5.259 -0.6177 -0.5652  0.5659
 8625SOL     OW37510   0.193   0.311  14.250 -0.6495 -0.7031  0.2053
 8625SOL    HW137511   0.252   0.334  14.322 -0.2741  0.5105 -0.4819
 8625SOL    HW237512   0.220   0.224  14.220  1.6847  0.1905 -0.3302
 8626SOL     OW37513   0.512   2.525   4.358 -0.4892  0.2489  0.1947
 8626SOL    HW137514   0.433   2.559   4.400 -0.3594  0.7687  0.0207
 8626SOL    HW237515   0.477   2.535   4.269 -0.5333  0.4389  0.2326
 8627SOL     OW37516   1.474   0.660   7.662  0.3600  0.5413 -0.0985
 8627SOL    HW137517   1.444   0.751   7.663 -1.0934  0.0600  0.4799
 8627SOL    HW237518   1.457   0.638   7.754 -1.3774 -3.5814 -1.4029
 8628SOL     OW37519   3.871   2.771   8.898  1.1698  0.1041 -0.2164
 8628SOL    HW137520   3.931   2.740   8.829  0.8898 -0.8169 -0.0463
 8628SOL    HW237521   3.934   2.819   8.950  0.8454 -1.8504  1.9640
 8629SOL     OW37522   0.509   3.528   9.301  0.1053  0.5705  0.0052
 8629SOL    HW137523   0.421   3.492   9.307 -0.0489  0.9546  0.0058
 8629SOL    HW237524   0.549   3.528   9.388  3.2086  0.0773 -1.4140
 8630SOL     OW37525   1.922   1.020  14.680  0.6103 -0.1954 -0.2055
 8630SOL    HW137526   2.000   0.966  14.692 -0.9061 -1.9394  1.9286
 8630SOL    HW237527   1.957   1.106  14.656 -1.6664  0.6828 -0.3906
 8631SOL     OW37528   0.015   0.281   7.678  0.2333  0.8684 -0.0274
 8631SOL    HW137529   4.663   0.264   7.700  0.6842  0.4793  1.5464
 8631SOL    HW237530   0.030   0.348   7.745  2.6032  0.2386  0.0507
 8632SOL     OW37531   3.159   3.512   5.743  0.2172  0.1413  0.0859
 8632SOL    HW137532   3.106   3.578   5.788 -2.0700 -0.6113 -1.5188
 8632SOL    HW237533   3.130   3.428   5.779 -0.0596  0.5545  0.8506
 8633SOL     OW37534   2.409   0.136   0.503  0.8004 -0.0561  0.0734
 8633SOL    HW137535   2.488   0.104   0.460 -0.5523 -2.2872 -0.7877
 8633SOL    HW237536   2.352   0.062   0.483 -0.4024  1.5545 -2.5656
 8634SOL     OW37537   3.122   1.684   5.059  0.4753 -0.1449  0.1545
 8634SOL    HW137538   3.188   1.624   5.024  1.0239  1.6011 -1.7924
 8634SOL    HW237539   3.175   1.764   5.059 -1.9412  1.4488 -4.4290
 8635SOL     OW37540   4.477   1.914  11.493  0.4006 -0.2882  0.1244
 8635SOL    HW137541   4.470   1.819  11.480  0.8446 -0.5551  1.8161
 8635SOL    HW237542   4.571   1.925  11.481  0.1704  2.2830  0.6968
 8636SOL     OW37543   0.064   1.304   2.781 -0.1136  0.0435  0.1654
 8636SOL    HW137544   0.000   1.262   2.839 -0.9763  0.5780 -0.4017
 8636SOL    HW237545   0.094   1.228   2.731  1.5549 -0.2555  1.5872
 8637SOL     OW37546   1.916   3.004   2.442  0.6849  0.3398 -0.0204
 8637SOL    HW137547   1.904   2.914   2.411 -2.0077  0.9427 -0.7715
 8637SOL    HW237548   2.009   3.018   2.426  0.2375  0.6886 -2.4041
 8638SOL     OW37549   1.712   4.683   3.350  0.2464  0.8158  0.4790
 8638SOL    HW137550   1.720   4.603   3.299 -1.6094  1.1692 -0.3539
 8638SOL    HW237551   1.634   4.663   3.401  1.5278 -1.6827  1.4293
 8639SOL     OW37552   2.394   1.249   5.409  0.6527 -0.2928 -0.7463
 8639SOL    HW137553   2.467   1.277   5.465 -0.0593  1.8512 -0.8607
 8639SOL    HW237554   2.317   1.273   5.461  2.7542  2.4562  1.1205
 8640SOL     OW37555   0.208   1.979   5.188  0.2257  0.0112 -0.3486
 8640SOL    HW137556   0.196   2.054   5.246 -0.1531  0.0882 -0.5320
 8640SOL    HW237557   0.132   1.988   5.130 -0.8793 -1.5321  0.8753
 8641SOL     OW37558   0.482   0.234   6.185  0.3083 -0.4361  0.0714
 8641SOL    HW137559   0.476   0.240   6.090  1.6724  0.6556  0.0485
 8641SOL    HW237560   0.447   0.154   6.223 -1.5954 -1.4232 -3.7542
 8642SOL     OW37561   0.498   1.907   2.789 -0.3934  0.1207 -0.2772
 8642SOL    HW137562   0.549   1.976   2.831 -0.5244  0.5421 -0.8274
 8642SOL    HW237563   0.563   1.839   2.773 -0.0294  0.4047 -0.0110
 8643SOL     OW37564   1.540   4.698   2.774 -0.7245 -0.3147 -0.0650
 8643SOL    HW137565   1.625   0.002   2.768  0.3120 -2.1071  1.0919
 8643SOL    HW237566   1.504   4.739   2.852  2.3553  1.3922  0.4680
 8644SOL     OW37567   4.441   2.443   1.674  0.2693 -0.3790  0.3944
 8644SOL    HW137568   4.460   2.485   1.590 -0.7546 -2.7855 -1.0285
 8644SOL    HW237569   4.348   2.444   1.693  0.5926  4.2602  1.8063
 8645SOL     OW37570   0.039   3.693   3.091 -0.2131 -0.0242 -0.6477
 8645SOL    HW137571   4.686   3.677   3.102  0.1010  0.1248  2.1170
 8645SOL    HW237572   0.053   3.672   2.998 -0.1014 -0.3715 -0.5529
 8646SOL     OW37573   1.143   2.670  17.606 -0.3080  0.6913 -0.2751
 8646SOL    HW137574   1.192   2.725  17.544 -1.9863  1.1413 -1.2080
 8646SOL    HW237575   1.121   2.603  17.541 -0.0838 -0.1007  0.4751
 8647SOL     OW37576   0.511   2.796  13.397 -0.3635  0.6517  0.1141
 8647SOL    HW137577   0.437   2.842  13.435  0.8368  1.6205  1.2574
 8647SOL    HW237578   0.512   2.826  13.306  0.4008  0.0863 -0.0684
 8648SOL     OW37579   3.582   4.493  16.301 -0.1816  0.2829 -0.4725
 8648SOL    HW137580   3.617   4.510  16.388 -0.1074 -2.4496  0.0168
 8648SOL    HW237581   3.487   4.480  16.308  0.1377 -1.7003 -0.0679
 8649SOL     OW37582   1.317   0.399  15.638  0.0620  0.1987  0.2893
 8649SOL    HW137583   1.400   0.361  15.607 -0.4562  0.8940 -1.9693
 8649SOL    HW237584   1.345   0.482  15.678 -1.4886  1.3442 -1.0184
 8650SOL     OW37585   2.763   4.203   9.164 -0.4866 -0.4476  0.3548
 8650SOL    HW137586   2.830   4.272   9.167  0.1510 -0.9453 -1.8518
 8650SOL    HW237587   2.788   4.160   9.245 -0.2002  0.2782  0.6549
 8651SOL     OW37588   1.297   1.650   2.416  0.0253 -0.0430 -0.3197
 8651SOL    HW137589   1.239   1.726   2.418  0.3888  0.2835 -1.7058
 8651SOL    HW237590   1.334   1.643   2.328  0.0425 -0.5268 -0.2778
 8652SOL     OW37591   1.310   0.161   3.139 -0.4204  0.6317  0.1771
 8652SOL    HW137592   1.402   0.144   3.118 -0.1427  0.9165  1.1770
 8652SOL    HW237593   1.282   0.216   3.065 -0.0537 -1.4022 -1.4743
 8653SOL     OW37594   2.511   3.953  12.833  0.7196 -0.3491  0.1808
 8653SOL    HW137595   2.602   3.960  12.860  0.6681 -0.6239  0.4322
 8653SOL    HW237596   2.483   3.978  12.922  1.3767 -1.5891  0.7362
 8654SOL     OW37597   2.658   3.223   1.609  0.3522  0.4596 -0.2184
 8654SOL    HW137598   2.592   3.217   1.540  0.4935  1.3356 -0.4312
 8654SOL    HW237599   2.674   3.130   1.624  2.4025  0.8645  0.0939
 8655SOL     OW37600   2.472   1.301   3.302 -0.0669 -0.0661  0.2284
 8655SOL    HW137601   2.403   1.289   3.367 -0.3105 -0.6002 -0.1225
 8655SOL    HW237602   2.503   1.210   3.296  1.5091  0.3335  2.5357
 8656SOL     OW37603   0.376   0.803   8.820 -0.3114 -0.0327  0.1722
 8656SOL    HW137604   0.460   0.764   8.845 -1.6525 -0.3169  4.2267
 8656SOL    HW237605   0.313   0.732   8.801 -0.6469 -0.1388  1.6918
 8657SOL     OW37606   4.445   1.410   8.833  1.0858  0.1384  0.0338
 8657SOL    HW137607   4.527   1.363   8.850  1.4151  0.3931 -0.8604
 8657SOL    HW237608   4.475   1.501   8.825 -2.4646  1.1067 -1.8353
 8658SOL     OW37609   0.130   4.162   8.614  0.0351  0.1925  0.2310
 8658SOL    HW137610   0.074   4.205   8.549  1.0577 -0.2278 -0.9397
 8658SOL    HW237611   0.082   4.080   8.625  3.9820 -1.6781  3.4860
 8659SOL     OW37612   3.545   2.114   6.421 -0.6681  0.1930  0.1009
 8659SOL    HW137613   3.577   2.097   6.332 -2.4697 -2.3306 -0.0599
 8659SOL    HW237614   3.560   2.208   6.429 -0.0869  0.3861 -3.3035
 8660SOL     OW37615   2.902   1.477   7.751  0.4813  0.4727  1.1101
 8660SOL    HW137616   2.824   1.513   7.709 -0.0002 -1.1693  0.6103
 8660SOL    HW237617   2.962   1.552   7.741  2.1587 -0.9017  0.9075
 8661SOL     OW37618   2.088   2.551  11.948  0.4326  0.0143 -0.1265
 8661SOL    HW137619   2.054   2.524  12.033  0.0595 -1.2301 -0.6664
 8661SOL    HW237620   2.126   2.471  11.910  0.7081  0.5983 -1.0911
 8662SOL     OW37621   1.215   3.398   2.217 -0.4420 -0.4425  0.4994
 8662SOL    HW137622   1.220   3.381   2.123  3.8695 -0.6238  0.7390
 8662SOL    HW237623   1.173   3.484   2.213  0.3365  0.0276  2.1710
 8663SOL     OW37624   4.407   4.494   9.444  0.1652  0.2640 -0.3761
 8663SOL    HW137625   4.408   4.431   9.372 -2.8441  1.3150 -1.3224
 8663SOL    HW237626   4.415   4.441   9.523 -0.7201  1.0766  0.2494
 8664SOL     OW37627   2.653   2.404   4.385 -0.6245  0.1744 -0.4045
 8664SOL    HW137628   2.615   2.418   4.298 -0.8491  0.1750 -0.3065
 8664SOL    HW237629   2.725   2.345   4.363 -1.4246 -0.9835  0.1511
 8665SOL     OW37630   0.269   4.256   8.844 -0.0460 -0.1570 -0.7008
 8665SOL    HW137631   0.209   4.225   8.776  1.6264 -3.1329 -0.8522
 8665SOL    HW237632   0.283   4.347   8.819 -1.4017  0.3184  0.3198
 8666SOL     OW37633   3.495   4.383   1.216  0.3855 -0.1013 -0.5404
 8666SOL    HW137634   3.566   4.342   1.168  1.8290  2.1410 -0.3183
 8666SOL    HW237635   3.495   4.328   1.295  1.8871  0.7662  0.0534
 8667SOL     OW37636   1.021   0.732   1.415 -0.6333  0.3309  0.1848
 8667SOL    HW137637   0.934   0.770   1.420  0.4402  3.0549 -1.8054
 8667SOL    HW237638   1.073   0.800   1.371 -1.0340  1.5612  1.6062
 8668SOL     OW37639   2.084   0.904   4.130  0.0414  0.0375  0.0019
 8668SOL    HW137640   2.153   0.839   4.124 -1.0303 -1.0087 -1.0330
 8668SOL    HW237641   2.060   0.903   4.037 -2.5685  0.5859  0.6609
 8669SOL     OW37642   4.399   2.943   2.846 -0.5395 -0.1045 -0.4373
 8669SOL    HW137643   4.485   2.982   2.833  0.0627 -0.5861  2.1973
 8669SOL    HW237644   4.424   2.887   2.919 -1.1670 -1.2404 -1.0852
 8670SOL     OW37645   2.956   4.705   7.550  0.5567  0.7165 -1.0510
 8670SOL    HW137646   3.011   0.003   7.619 -0.0930  0.8241 -0.5885
 8670SOL    HW237647   2.869   4.726   7.583  0.9453  1.0707 -0.2354
 8671SOL     OW37648   3.350   3.216   7.863  0.3015  0.2691  0.0226
 8671SOL    HW137649   3.423   3.155   7.875  0.1848  0.2396  0.5897
 8671SOL    HW237650   3.403   3.282   7.819  1.0695 -0.8533 -0.7302
 8672SOL     OW37651   0.009   1.566   1.682  0.3782  0.5769  0.0488
 8672SOL    HW137652   0.078   1.562   1.748  1.3467 -0.8093 -1.0619
 8672SOL    HW237653   4.670   1.542   1.732 -0.1787 -0.6910 -1.4248
 8673SOL     OW37654   3.941   2.808   7.670 -0.0103  0.3208  0.3324
 8673SOL    HW137655   3.876   2.876   7.689 -3.2399 -3.2301  1.8363
 8673SOL    HW237656   3.884   2.732   7.660  0.8606  0.0562 -2.6282
 8674SOL     OW37657   2.930   3.756  12.722  0.0810 -0.0875 -0.3299
 8674SOL    HW137658   3.013   3.741  12.766 -0.1162  0.6113  0.2868
 8674SOL    HW237659   2.875   3.802  12.785 -0.5054 -1.1388 -0.0796
 8675SOL     OW37660   3.078   3.738  12.382 -0.2483 -0.5021 -0.3844
 8675SOL    HW137661   3.102   3.804  12.317 -0.1518  1.6613  1.8086
 8675SOL    HW237662   2.995   3.765  12.421 -0.1043 -1.3373  0.4989
 8676SOL     OW37663   1.226   2.871   8.005 -0.7936 -0.0940 -0.3169
 8676SOL    HW137664   1.246   2.963   8.016 -0.3298 -0.2097 -0.2093
 8676SOL    HW237665   1.183   2.859   8.089  2.3185  2.9927  1.6686
 8677SOL     OW37666   3.886   0.321   8.765  0.0985 -0.2455  0.7161
 8677SOL    HW137667   3.975   0.306   8.732  1.0149 -0.4388  3.3307
 8677SOL    HW237668   3.914   0.311   8.856  2.1827 -1.7086 -0.0806
 8678SOL     OW37669   1.142   3.452   7.862 -0.4067 -0.6204  0.4624
 8678SOL    HW137670   1.220   3.396   7.860  0.0375  0.0229 -0.2583
 8678SOL    HW237671   1.111   3.449   7.771  0.8106  2.8941 -0.0637
 8679SOL     OW37672   1.459   1.150   8.683 -0.0109 -0.0356 -0.1342
 8679SOL    HW137673   1.522   1.098   8.733 -0.8292 -0.1266  0.8088
 8679SOL    HW237674   1.376   1.113   8.713 -0.3687  0.2597 -0.7648
 8680SOL     OW37675   0.917   2.377   3.486  0.0740 -0.5376 -0.2656
 8680SOL    HW137676   1.001   2.357   3.444 -0.1074  3.0841 -2.3346
 8680SOL    HW237677   0.892   2.290   3.517 -0.3587  0.0442  1.0417
 8681SOL     OW37678   4.015   4.198   9.362  0.5388 -0.2412  0.1029
 8681SOL    HW137679   4.081   4.240   9.307 -0.1172  0.3730 -0.2172
 8681SOL    HW237680   3.976   4.137   9.299  0.3938  1.7189 -1.7178
 8682SOL     OW37681   2.779   0.559   1.497  0.0712 -0.0334 -0.2978
 8682SOL    HW137682   2.809   0.636   1.545  1.5331  0.0332 -1.3243
 8682SOL    HW237683   2.742   0.511   1.571 -1.1199  0.0449 -0.8368
 8683SOL     OW37684   3.431   0.521  13.268  0.0281  0.4431  0.3793
 8683SOL    HW137685   3.526   0.533  13.269  0.0380  0.5482 -1.8972
 8683SOL    HW237686   3.405   0.614  13.269  1.1594  0.7455  1.1028
 8684SOL     OW37687   0.050   1.765   1.330  0.0579  0.0512  0.2182
 8684SOL    HW137688   0.046   1.814   1.248 -0.2425 -0.0788  0.1529
 8684SOL    HW237689   0.143   1.743   1.330 -0.3547 -1.6850  0.2548
 8685SOL     OW37690   0.714   1.367   9.056 -0.1605 -0.8876  0.9466
 8685SOL    HW137691   0.693   1.393   9.146 -1.0568 -0.2654  0.5664
 8685SOL    HW237692   0.647   1.414   9.007  1.2172  2.5096  2.2895
 8686SOL     OW37693   0.602   3.511   5.901  0.3093 -0.0261  0.9158
 8686SOL    HW137694   0.580   3.518   5.808 -2.7502  1.1890  1.7283
 8686SOL    HW237695   0.517   3.490   5.939 -0.4750  1.7827  0.1777
 8687SOL     OW37696   1.752   2.854   3.192 -0.7785 -0.1276  0.4098
 8687SOL    HW137697   1.714   2.941   3.204  1.0222  0.7941 -0.4024
 8687SOL    HW237698   1.819   2.867   3.124  0.0093 -1.3061  0.9642
 8688SOL     OW37699   1.641   3.678  10.200 -0.1393  0.4239  0.6366
 8688SOL    HW137700   1.728   3.660  10.234  0.6932 -1.6312 -2.4966
 8688SOL    HW237701   1.642   3.772  10.186  1.3508 -0.0115 -2.1772
 8689SOL     OW37702   2.362   1.362   9.357  0.5250  0.0928  0.2493
 8689SOL    HW137703   2.410   1.295   9.308 -1.0428 -0.6822 -0.2265
 8689SOL    HW237704   2.326   1.315   9.432  0.4439 -2.4117 -1.3323
 8690SOL     OW37705   4.105   2.636   1.226  0.3576  0.8302 -0.3727
 8690SOL    HW137706   4.155   2.642   1.307 -2.5089 -0.2269  1.5058
 8690SOL    HW237707   4.139   2.556   1.184 -0.8544  0.1613 -0.0961
 8691SOL     OW37708   1.004   4.688   5.609 -0.3742  0.1664  0.3227
 8691SOL    HW137709   1.032   4.733   5.689  1.0541 -0.6960  0.3077
 8691SOL    HW237710   0.959   0.024   5.572 -0.7868 -0.0520  0.3764
 8692SOL     OW37711   0.372   4.133  15.617  0.3054  0.6740 -0.1286
 8692SOL    HW137712   0.336   4.133  15.705 -1.6437  0.0608 -0.9248
 8692SOL    HW237713   0.304   4.169  15.561  1.1171 -0.1074 -1.6311
 8693SOL     OW37714   3.126   0.921  15.129 -0.5075  0.4840  0.7517
 8693SOL    HW137715   3.036   0.914  15.163 -1.9263 -1.1277 -3.3777
 8693SOL    HW237716   3.114   0.974  15.050 -1.4305  0.3964  0.8227
 8694SOL     OW37717   3.224   0.836  11.488  1.0121  0.0437 -0.0736
 8694SOL    HW137718   3.255   0.781  11.416 -0.0069 -0.5637 -0.0444
 8694SOL    HW237719   3.247   0.924  11.457 -0.1536  0.7992  1.2282
 8695SOL     OW37720   4.249   1.615   4.107 -0.6846  0.1393  0.2703
 8695SOL    HW137721   4.168   1.665   4.093 -0.5268 -0.2482 -2.1146
 8695SOL    HW237722   4.220   1.529   4.076 -0.6152 -0.0218  0.6564
 8696SOL     OW37723   2.027   2.868   6.940  0.7090  0.1398 -0.1277
 8696SOL    HW137724   2.109   2.861   6.989  1.4056 -0.5829 -1.3729
 8696SOL    HW237725   1.949   2.871   6.995  0.9197  2.7360  0.0506
 8697SOL     OW37726   4.643   4.474   3.247 -0.4668 -0.1699 -0.1122
 8697SOL    HW137727   4.707   4.545   3.251 -0.5952 -0.0140 -0.9901
 8697SOL    HW237728   4.701   4.398   3.244  0.4223  0.4999  0.0188
 8698SOL     OW37729   4.321   3.189   0.810  0.0628 -0.4112 -0.7093
 8698SOL    HW137730   4.241   3.187   0.862  0.6478  1.3286  0.2507
 8698SOL    HW237731   4.288   3.240   0.735 -2.0725  1.9208  1.8028
 8699SOL     OW37732   2.941   1.077  17.705 -0.3119  0.2220 -0.0379
 8699SOL    HW137733   2.897   1.012  17.650 -0.1264  0.0360  0.0332
 8699SOL    HW237734   2.942   1.029   0.030 -0.3264  0.2242 -0.0364
 8700SOL     OW37735   2.623   3.255   8.057 -0.2167  0.4868 -0.0161
 8700SOL    HW137736   2.575   3.173   8.057  0.5018  0.0596 -2.2412
 8700SOL    HW237737   2.626   3.275   7.964 -0.1140 -0.4402 -0.2115
 8701SOL     OW37738   3.696   1.628   3.086 -0.4537 -0.1966  0.0811
 8701SOL    HW137739   3.784   1.594   3.072  0.1134  1.4377 -0.3592
 8701SOL    HW237740   3.684   1.628   3.181  1.0868 -0.7945  0.2721
 8702SOL     OW37741   0.471   3.650   6.827  0.0680  0.3889 -0.6319
 8702SOL    HW137742   0.532   3.577   6.828  0.4818  0.7285 -0.9146
 8702SOL    HW237743   0.435   3.642   6.915  1.1541 -0.2224 -0.2410
 8703SOL     OW37744   1.290   1.900   8.927  0.2075  1.1003  0.4217
 8703SOL    HW137745   1.330   1.864   8.848  3.9909 -2.6835  4.0495
 8703SOL    HW237746   1.201   1.871   8.909  0.0096  0.6981  2.0775
 8704SOL     OW37747   1.072   3.582   5.789  0.3706 -0.1567 -0.4578
 8704SOL    HW137748   1.008   3.614   5.724 -0.4513 -1.2992 -0.2084
 8704SOL    HW237749   1.040   3.497   5.819 -0.0575  0.0396 -0.3507
 8705SOL     OW37750   2.275   0.700   6.425 -0.5314  0.4093 -0.2528
 8705SOL    HW137751   2.212   0.701   6.496 -0.6031  2.8631 -0.3331
 8705SOL    HW237752   2.352   0.749   6.453 -0.0992  0.0658 -0.8240
 8706SOL     OW37753   1.244   2.515   2.095 -0.3055 -0.5447 -0.1626
 8706SOL    HW137754   1.219   2.480   2.009 -1.0937  0.1551 -0.2160
 8706SOL    HW237755   1.318   2.460   2.121 -1.5642 -1.5892  1.2076
 8707SOL     OW37756   0.414   2.493   7.686 -0.4940 -0.4833  0.1737
 8707SOL    HW137757   0.363   2.574   7.694 -0.7714 -0.7212  0.7793
 8707SOL    HW237758   0.504   2.524   7.684 -0.3362 -0.9356  0.3459
 8708SOL     OW37759   4.000   2.261   4.625 -0.0375  0.1022  0.4185
 8708SOL    HW137760   4.015   2.219   4.710 -0.7832  0.7600  0.8751
 8708SOL    HW237761   4.076   2.233   4.574 -0.6326  0.9079 -0.8911
 8709SOL     OW37762   2.016   2.365   7.627  0.7422  0.3627  0.3119
 8709SOL    HW137763   1.977   2.452   7.621  1.6116  0.8845  2.2261
 8709SOL    HW237764   2.039   2.354   7.534 -0.4250 -0.2116  0.0922
 8710SOL     OW37765   3.955   3.149   6.955  0.4677  0.5254  0.0484
 8710SOL    HW137766   3.933   3.181   7.043 -0.2956  1.4162 -0.4719
 8710SOL    HW237767   3.973   3.056   6.971  0.2282 -0.0378 -2.9243
 8711SOL     OW37768   3.570   0.560   6.357 -0.4945  0.3873  0.4784
 8711SOL    HW137769   3.501   0.500   6.385 -1.6765  2.7225  2.6071
 8711SOL    HW237770   3.623   0.567   6.436 -0.2439 -0.4688  0.3862
 8712SOL     OW37771   1.905   1.415   4.590 -0.0745 -0.0181 -0.1377
 8712SOL    HW137772   1.844   1.482   4.620  0.9358  1.7736 -2.1074
 8712SOL    HW237773   1.856   1.333   4.593  2.6617 -1.6398  0.7861
 8713SOL     OW37774   0.685   3.891   8.597  0.1271 -0.3234  0.6518
 8713SOL    HW137775   0.728   3.822   8.547  1.8672  0.9213  0.4460
 8713SOL    HW237776   0.737   3.967   8.571 -0.2632 -0.7713 -1.4087
 8714SOL     OW37777   2.472   0.499   5.280 -0.2262 -0.0989  0.6351
 8714SOL    HW137778   2.469   0.572   5.342  1.3468  0.0447  0.5401
 8714SOL    HW237779   2.434   0.545   5.204 -0.6179 -0.2589  0.7352
 8715SOL     OW37780   3.665   2.501   8.617  0.3050  0.6736  0.0860
 8715SOL    HW137781   3.582   2.457   8.598  0.2931  0.9883 -0.5725
 8715SOL    HW237782   3.688   2.456   8.698  0.3481 -0.7742 -0.7420
 8716SOL     OW37783   0.504   3.123   2.632  0.5022 -0.4857 -0.7502
 8716SOL    HW137784   0.537   3.064   2.700 -1.8326  0.3222  1.0908
 8716SOL    HW237785   0.534   3.206   2.668 -0.6226 -0.3794 -0.0306
 8717SOL     OW37786   0.654   4.103   0.427 -0.1051  1.2040 -0.2876
 8717SOL    HW137787   0.666   4.023   0.376 -1.2176  0.8083  0.0822
 8717SOL    HW237788   0.671   4.077   0.517  4.2128  1.5264 -0.9748
 8718SOL     OW37789   1.088   3.003   0.102 -0.2546 -0.1231  0.2711
 8718SOL    HW137790   1.179   2.991   0.130  0.2234  0.1512 -1.1800
 8718SOL    HW237791   1.051   2.945   0.169  1.2581  1.0927  2.1802
 8719SOL     OW37792   4.348   1.004   8.187 -0.0765  0.7455  0.0262
 8719SOL    HW137793   4.339   1.081   8.131 -0.9704  0.6839  0.0835
 8719SOL    HW237794   4.269   0.952   8.174  0.3777  0.8745 -3.3777
 8720SOL     OW37795   1.799   2.494   1.716 -0.0033  0.3287  0.1607
 8720SOL    HW137796   1.858   2.442   1.770  0.1185 -0.1076 -0.3940
 8720SOL    HW237797   1.735   2.537   1.773 -1.2864 -1.8639  0.3839
 8721SOL     OW37798   2.568   1.058   6.997 -0.6194 -0.3697  0.3856
 8721SOL    HW137799   2.474   1.059   7.016 -0.6767  0.7466  0.0364
 8721SOL    HW237800   2.573   1.135   6.941 -1.9944  1.6234  3.0367
 8722SOL     OW37801   3.325   1.234   2.260  0.0353 -0.6822  0.2539
 8722SOL    HW137802   3.284   1.303   2.208  2.1441  0.5197  0.1761
 8722SOL    HW237803   3.249   1.184   2.290 -0.0425 -0.9981 -0.4919
 8723SOL     OW37804   2.326   1.665   5.049 -0.0887  0.1278 -0.1660
 8723SOL    HW137805   2.391   1.631   4.988 -0.5338 -0.8037 -0.1119
 8723SOL    HW237806   2.309   1.590   5.106  1.0776  1.9715  2.6249
 8724SOL     OW37807   0.691   1.492  16.020  0.8010  0.3263  0.0852
 8724SOL    HW137808   0.736   1.468  16.101 -0.7036  0.0475  0.8196
 8724SOL    HW237809   0.683   1.587  16.021  1.0063  0.3382  0.6120
 8725SOL     OW37810   4.296   0.876   7.192 -0.7055 -0.0767  0.3791
 8725SOL    HW137811   4.250   0.797   7.219  0.8411 -0.7439  1.0470
 8725SOL    HW237812   4.253   0.943   7.245  0.6263 -0.1195  1.5016
 8726SOL     OW37813   2.775   1.369   5.263 -0.3086 -0.6079 -0.2511
 8726SOL    HW137814   2.779   1.359   5.168 -0.1592  0.4484 -0.3593
 8726SOL    HW237815   2.864   1.404   5.271 -0.9569  1.2767 -1.2838
 8727SOL     OW37816   3.365   2.933   4.176 -0.5010  0.0348  0.2365
 8727SOL    HW137817   3.319   2.928   4.259  2.5076  0.4074  1.9334
 8727SOL    HW237818   3.444   2.884   4.201 -0.8049 -0.4697  0.2144
 8728SOL     OW37819   3.585   0.568   3.138 -0.3208 -0.0095 -0.0324
 8728SOL    HW137820   3.518   0.617   3.185  0.6183  0.8508  0.4205
 8728SOL    HW237821   3.559   0.578   3.046  0.1925 -1.2892 -0.3176
 8729SOL     OW37822   2.349   0.926   2.726 -0.0506 -0.2438 -0.4919
 8729SOL    HW137823   2.385   0.897   2.642  0.3028 -1.1603 -0.0331
 8729SOL    HW237824   2.256   0.934   2.705  0.0871  3.8661  0.6263
 8730SOL     OW37825   4.020   0.703   3.985  0.2946  0.0676  0.4542
 8730SOL    HW137826   3.933   0.714   3.947  0.3879  1.0724  0.5237
 8730SOL    HW237827   4.068   0.749   3.916 -0.2154 -3.9998 -2.5988
 8731SOL     OW37828   2.400   4.281   8.579  0.6377 -0.1941  0.0273
 8731SOL    HW137829   2.485   4.251   8.610  0.4774 -1.4070 -0.7365
 8731SOL    HW237830   2.418   4.359   8.526  0.7916 -0.2992 -0.0751
 8732SOL     OW37831   3.151   1.983  11.107 -0.0466  0.0200 -0.0545
 8732SOL    HW137832   3.225   1.925  11.088 -0.0779 -0.1753  0.4219
 8732SOL    HW237833   3.131   2.018  11.020  2.2221  0.9240 -0.2103
 8733SOL     OW37834   2.932   2.216   7.406 -0.0994  0.2806 -0.4654
 8733SOL    HW137835   2.947   2.302   7.445 -1.7157 -0.1520  1.1154
 8733SOL    HW237836   2.846   2.188   7.436  0.2190 -0.9364 -0.7041
 8734SOL     OW37837   3.703   3.564  15.394  0.6120 -0.4474  0.4969
 8734SOL    HW137838   3.687   3.656  15.371  0.7141 -0.5525  0.0149
 8734SOL    HW237839   3.711   3.521  15.309  0.4421  1.0108 -0.2708
 8735SOL     OW37840   2.523   3.057   9.475 -0.1632 -0.1021  0.7796
 8735SOL    HW137841   2.429   3.070   9.464 -0.4173 -1.0524  1.9373
 8735SOL    HW237842   2.535   3.046   9.569 -0.6662  1.3847  1.0132
 8736SOL     OW37843   1.967   2.931   3.714 -0.3135 -0.6909 -0.2013
 8736SOL    HW137844   1.971   3.025   3.731  0.8932 -0.6892 -0.5375
 8736SOL    HW237845   1.886   2.928   3.662 -0.0030 -2.3007 -0.5747
 8737SOL     OW37846   4.027   1.053   0.757 -0.4988  0.1650  0.1119
 8737SOL    HW137847   3.995   1.134   0.717 -1.7064 -0.6134 -0.4982
 8737SOL    HW237848   3.960   1.041   0.823 -1.2008  3.9112  0.0804
 8738SOL     OW37849   3.051   1.260  12.617  0.3139  0.3050 -0.8831
 8738SOL    HW137850   2.995   1.301  12.551  1.0619  1.2994 -0.8874
 8738SOL    HW237851   3.070   1.176  12.574 -0.2518  0.6102 -1.7333
 8739SOL     OW37852   0.522   4.255  17.645 -0.5322  0.0242 -0.2514
 8739SOL    HW137853   0.605   4.238  17.689 -1.7327  0.4434  2.1265
 8739SOL    HW237854   0.542   4.208  17.564 -0.3976  1.2306 -0.9186
 8740SOL     OW37855   0.489   4.738   3.776 -0.4125 -0.5138  0.1923
 8740SOL    HW137856   0.545   4.666   3.748 -0.1203  0.4182 -1.6094
 8740SOL    HW237857   0.517   0.068   3.718 -2.3070  1.1355  1.2772
 8741SOL     OW37858   1.439   1.828   1.220 -0.2213  0.0271 -0.1117
 8741SOL    HW137859   1.485   1.763   1.166 -0.3732  0.4997 -0.8155
 8741SOL    HW237860   1.362   1.781   1.253  0.1374  0.1913  0.9568
 8742SOL     OW37861   4.184   1.206  14.512 -0.1611 -0.2572 -0.0299
 8742SOL    HW137862   4.277   1.207  14.531 -0.3746  0.5961  0.9433
 8742SOL    HW237863   4.184   1.132  14.451  0.9449 -0.0307 -0.2995
 8743SOL     OW37864   2.131   3.943   5.259 -0.4309  0.4333 -0.1496
 8743SOL    HW137865   2.084   3.962   5.340 -3.3126  2.4740 -2.3023
 8743SOL    HW237866   2.216   3.910   5.288 -1.0777  1.4481  2.9008
 8744SOL     OW37867   2.195   2.628   8.899 -0.7682 -0.0647 -0.2978
 8744SOL    HW137868   2.177   2.678   8.978  0.2390 -0.1465 -0.0111
 8744SOL    HW237869   2.227   2.548   8.941 -0.2342  0.9582  1.2383
 8745SOL     OW37870   1.152   2.885  16.110 -0.2062  0.4658 -0.2770
 8745SOL    HW137871   1.157   2.818  16.042 -0.1178 -0.0641  0.2521
 8745SOL    HW237872   1.204   2.958  16.077  1.9447 -1.4952 -1.1979
 8746SOL     OW37873   3.764   2.402   3.158  0.4293  0.4446 -0.5227
 8746SOL    HW137874   3.821   2.422   3.231  0.0696 -0.2872 -0.0437
 8746SOL    HW237875   3.804   2.452   3.086  0.8808  0.9277  0.0618
 8747SOL     OW37876   2.675   0.395   3.846  0.4026 -0.4789  0.3030
 8747SOL    HW137877   2.679   0.410   3.940  0.3834  0.3795  0.1726
 8747SOL    HW237878   2.631   0.477   3.820 -3.2168 -2.1193  1.2075
 8748SOL     OW37879   0.081   4.665   8.770  0.1349  0.6177 -0.0863
 8748SOL    HW137880   0.065   4.673   8.864 -2.8637  2.6685 -0.7692
 8748SOL    HW237881   0.052   0.010   8.738 -0.8017  0.3032 -0.0842
 8749SOL     OW37882   0.161   2.341   5.509 -0.1980 -0.6143 -1.2293
 8749SOL    HW137883   0.141   2.300   5.593  0.9196 -0.0432 -0.6924
 8749SOL    HW237884   0.256   2.337   5.511 -0.1924  0.9573  1.5133
 8750SOL     OW37885   3.850   1.199   2.375 -0.2510 -0.6089  0.3355
 8750SOL    HW137886   3.914   1.174   2.442 -0.1147 -0.3702  0.2942
 8750SOL    HW237887   3.791   1.123   2.374 -0.7690 -0.2216  1.4781
 8751SOL     OW37888   4.344   4.603   7.175 -0.8796 -0.3318  0.0419
 8751SOL    HW137889   4.272   4.624   7.234  1.1550  2.7803  1.4087
 8751SOL    HW237890   4.419   4.582   7.230 -2.2332 -2.5338  1.0476
 8752SOL     OW37891   0.063   1.826  14.573 -0.2317  0.3216  0.0542
 8752SOL    HW137892   0.134   1.777  14.532  2.0943  2.7256  1.1641
 8752SOL    HW237893   0.080   1.915  14.540  0.6506  0.5614  1.1501
 8753SOL     OW37894   3.212   3.570  13.883 -0.2442 -0.0221 -0.4632
 8753SOL    HW137895   3.146   3.540  13.946 -0.2113  1.2696  0.1906
 8753SOL    HW237896   3.161   3.588  13.804  0.5764  1.2108 -0.7056
 8754SOL     OW37897   1.046   0.182   2.814  0.2479  0.4926 -0.1500
 8754SOL    HW137898   1.022   0.204   2.904  1.1087  1.6561 -0.2007
 8754SOL    HW237899   1.126   0.234   2.803 -0.8040  2.2191  0.2427
 8755SOL     OW37900   3.895   3.501   2.486 -0.5106 -0.6443  0.3865
 8755SOL    HW137901   3.933   3.563   2.549 -2.1865 -0.3369  1.1151
 8755SOL    HW237902   3.838   3.565   2.442  3.4490  3.2622  0.9668
 8756SOL     OW37903   2.667   1.014   1.184 -0.4780  0.4210  0.4799
 8756SOL    HW137904   2.747   0.960   1.181 -0.7225 -0.0067  1.6616
 8756SOL    HW237905   2.615   0.949   1.137  1.4647  0.2919 -1.5521
 8757SOL     OW37906   2.572   1.542   1.509 -0.2941 -0.4471 -0.0808
 8757SOL    HW137907   2.602   1.612   1.568  1.0973  0.2882 -1.6643
 8757SOL    HW237908   2.602   1.573   1.424 -2.9744  0.0135 -0.8249
 8758SOL     OW37909   2.163   3.869   4.445 -0.1942 -0.3635  0.2679
 8758SOL    HW137910   2.198   3.937   4.503 -1.6403 -0.7687  1.6111
 8758SOL    HW237911   2.071   3.894   4.442 -0.7322 -2.5536 -1.5770
 8759SOL     OW37912   0.996   2.445   6.767  0.5309  0.5314 -0.4758
 8759SOL    HW137913   1.063   2.512   6.753  1.5567 -1.2871 -4.4019
 8759SOL    HW237914   1.048   2.370   6.741  0.4429  0.2185  0.2586
 8760SOL     OW37915   2.067   3.796  17.097 -0.0567  0.3136  0.3596
 8760SOL    HW137916   2.154   3.812  17.060 -0.1438  0.7121  0.3371
 8760SOL    HW237917   2.084   3.714  17.143 -0.0219 -1.6552 -3.1067
 8761SOL     OW37918   3.448   0.641  12.962  0.8187  0.2945  0.6484
 8761SOL    HW137919   3.510   0.713  12.975 -0.2285  1.1187  1.1142
 8761SOL    HW237920   3.369   0.690  12.984  0.4034  0.1430 -0.4755
 8762SOL     OW37921   3.552   2.329   4.611 -0.3256  0.0826  0.8566
 8762SOL    HW137922   3.463   2.364   4.620 -0.0260  0.6767  1.5688
 8762SOL    HW237923   3.602   2.407   4.632  1.5247 -1.0241  0.5738
 8763SOL     OW37924   0.367   1.087   4.073  0.6640  0.1115 -0.3639
 8763SOL    HW137925   0.431   1.132   4.019  2.0192  0.5432  1.6035
 8763SOL    HW237926   0.405   1.096   4.160 -1.4011  0.4248  0.5132
 8764SOL     OW37927   3.962   4.628  14.626  0.5760 -0.4643 -0.2933
 8764SOL    HW137928   3.921   4.715  14.634  2.5625  0.5003 -0.6394
 8764SOL    HW237929   4.038   4.645  14.682  1.3439 -0.3519 -1.3634
 8765SOL     OW37930   1.345   0.014   8.692  0.5138  0.8364  0.2679
 8765SOL    HW137931   1.311   0.078   8.629  0.4681  0.7346  0.1897
 8765SOL    HW237932   1.316   0.039   8.780  1.5950 -1.8417  1.3522
 8766SOL     OW37933   3.558   3.002   7.889 -0.1225  0.0754 -0.2072
 8766SOL    HW137934   3.512   2.920   7.906  1.5138 -0.5137  1.4654
 8766SOL    HW237935   3.594   3.027   7.974 -1.8295  3.1634 -0.3984
 8767SOL     OW37936   1.748   0.716   2.511 -0.3202  0.4012 -0.4727
 8767SOL    HW137937   1.676   0.694   2.453 -0.2767  1.2416 -0.8493
 8767SOL    HW237938   1.754   0.807   2.480 -3.1559  0.6540 -0.3034
 8768SOL     OW37939   2.255   2.356  15.680  0.2772  0.5783  0.5291
 8768SOL    HW137940   2.201   2.352  15.601 -0.9081  0.4266  1.3379
 8768SOL    HW237941   2.263   2.451  15.689  0.2142  0.6390 -0.0273
 8769SOL     OW37942   4.720   0.506   9.878 -0.0602  0.6032 -0.2981
 8769SOL    HW137943   0.037   0.583   9.887 -1.2216  1.0232  3.3470
 8769SOL    HW237944   0.053   0.444   9.875 -1.3437 -1.0336  2.7610
 8770SOL     OW37945   1.352   1.707   5.895 -0.4371 -0.0123  0.8560
 8770SOL    HW137946   1.376   1.796   5.923  1.4927 -0.3269  0.2235
 8770SOL    HW237947   1.315   1.729   5.809 -0.9093  1.6543  1.4756
 8771SOL     OW37948   3.610   2.891   6.698 -0.1193  0.3947  0.6655
 8771SOL    HW137949   3.671   2.849   6.758 -0.7326 -1.5614 -0.0761
 8771SOL    HW237950   3.665   2.924   6.627 -3.2177 -0.5631 -2.1703
 8772SOL     OW37951   1.359   2.428  13.156  0.6993  0.3228 -0.4497
 8772SOL    HW137952   1.377   2.490  13.227 -0.9431  0.3909 -0.1010
 8772SOL    HW237953   1.270   2.457  13.133 -0.0217  0.0357  1.9854
 8773SOL     OW37954   1.785   2.525   3.403  0.2994  0.4871 -0.5568
 8773SOL    HW137955   1.778   2.469   3.481 -3.6901 -0.1048 -1.3038
 8773SOL    HW237956   1.691   2.513   3.388 -0.0098 -0.0211  1.7239
 8774SOL     OW37957   4.222   0.020   7.969  0.3636  0.6855  0.2333
 8774SOL    HW137958   4.182   0.079   7.904  0.8405  0.3748 -0.3502
 8774SOL    HW237959   4.170   4.682   7.950  0.6758  0.3709  0.6729
 8775SOL     OW37960   3.610   4.366   5.301  0.7450 -0.0164 -0.3465
 8775SOL    HW137961   3.556   4.317   5.362 -0.0350  1.2238 -0.0270
 8775SOL    HW237962   3.602   4.315   5.220 -0.1046  0.5345 -0.6183
 8776SOL     OW37963   2.217   0.458   3.076  0.0433  0.1423 -0.1637
 8776SOL    HW137964   2.307   0.474   3.106 -0.8617  2.5584  1.2243
 8776SOL    HW237965   2.237   0.436   2.985 -1.7227  1.2416 -0.8087
 8777SOL     OW37966   0.793   0.003   3.163  0.3830  0.0742 -0.3709
 8777SOL    HW137967   0.817   4.660   3.123 -0.0573  0.2319 -0.9613
 8777SOL    HW237968   0.839   0.065   3.106  1.9440  1.3067  2.1933
 8778SOL     OW37969   2.894   1.532   8.157  0.0102  0.1163  0.1934
 8778SOL    HW137970   2.825   1.571   8.210 -1.7104  0.9642 -2.7115
 8778SOL    HW237971   2.939   1.598   8.104 -1.5122  0.9086 -0.1034
 8779SOL     OW37972   2.503   1.534   9.695 -0.2198 -0.0020  0.0874
 8779SOL    HW137973   2.464   1.601   9.751 -2.2921  1.1045 -2.7081
 8779SOL    HW237974   2.554   1.480   9.757  0.5758  1.2906  0.5549
 8780SOL     OW37975   0.754   0.530   3.860  0.2297  0.3383 -0.5231
 8780SOL    HW137976   0.666   0.494   3.869  0.2469 -0.0294 -1.9140
 8780SOL    HW237977   0.725   0.621   3.865  1.4161  0.7068 -0.1941
 8781SOL     OW37978   2.418   1.461   7.649  0.1268 -0.4738 -0.1577
 8781SOL    HW137979   2.483   1.493   7.711 -1.1524  2.5632 -0.4212
 8781SOL    HW237980   2.334   1.492   7.683 -0.0035  0.2813 -1.1583
 8782SOL     OW37981   0.748   4.007   6.547 -0.1132  0.3984  0.0613
 8782SOL    HW137982   0.740   3.933   6.488 -0.8732 -0.2002  0.9045
 8782SOL    HW237983   0.757   3.958   6.629  0.1847 -1.6881 -1.2451
 8783SOL     OW37984   4.627   1.543  10.644  0.3438  0.5529  0.5145
 8783SOL    HW137985   4.570   1.620  10.639  0.0519  0.5722  4.3116
 8783SOL    HW237986   4.624   1.508  10.555  2.8461  0.1004  0.6063
 8784SOL     OW37987   2.015   2.993   8.654  0.3916 -0.1624  0.0583
 8784SOL    HW137988   2.074   3.061   8.689  1.3951 -0.2341 -1.5044
 8784SOL    HW237989   1.932   3.038   8.671  0.6943  0.9494 -1.4069
 8785SOL     OW37990   1.537   3.827   5.974  0.1855 -0.0732 -0.4326
 8785SOL    HW137991   1.599   3.800   5.906  0.2187  0.7722 -0.7370
 8785SOL    HW237992   1.599   3.821   6.048 -1.6168 -0.9790  1.0015
 8786SOL     OW37993   1.229   0.142   5.096 -0.0365  0.4584 -0.1862
 8786SOL    HW137994   1.293   0.079   5.130  0.7338  0.1460 -2.2126
 8786SOL    HW237995   1.293   0.212   5.094 -1.5343  1.8116 -0.4562
 8787SOL     OW37996   4.396   0.165   7.141 -0.2190  0.1027  0.8093
 8787SOL    HW137997   4.347   0.232   7.094 -1.9320 -1.2456  0.6346
 8787SOL    HW237998   4.370   0.089   7.088 -1.4656 -0.3171  2.0005
 8788SOL     OW37999   1.386   2.335   7.892  0.1425 -0.0131  0.0053
 8788SOL    HW138000   1.458   2.282   7.926  2.1723  0.8091 -3.0274
 8788SOL    HW238001   1.314   2.272   7.894 -0.2241  0.5507  3.3629
 8789SOL     OW38002   1.462   4.008   3.421  0.1600  0.8122  0.0028
 8789SOL    HW138003   1.458   3.933   3.362 -1.7008  1.3760 -0.5627
 8789SOL    HW238004   1.370   4.030   3.410  0.2161  0.3579 -1.3937
 8790SOL     OW38005   3.626   1.355   5.769  0.0197 -0.1225  0.1720
 8790SOL    HW138006   3.657   1.391   5.852 -0.7406  0.6973  0.1021
 8790SOL    HW238007   3.700   1.369   5.709  0.5641  0.0488  0.8817
 8791SOL     OW38008   1.378   0.097   2.571 -0.3060  0.3747 -0.0153
 8791SOL    HW138009   1.377   0.174   2.628  3.6577  2.2280 -2.4677
 8791SOL    HW238010   1.419   0.034   2.630  1.4084  0.8316 -0.6930
 8792SOL     OW38011   1.575   2.732  14.566  0.3904  0.2100 -0.5491
 8792SOL    HW138012   1.556   2.748  14.473  2.3228 -1.0420 -1.1484
 8792SOL    HW238013   1.623   2.810  14.593 -1.8514  1.6642 -0.7916
 8793SOL     OW38014   0.369   3.505   4.641 -0.0466  0.2769  0.4919
 8793SOL    HW138015   0.371   3.453   4.560 -2.5713  1.3125 -0.2465
 8793SOL    HW238016   0.324   3.436   4.689 -0.1872 -0.9043 -1.3352
 8794SOL     OW38017   2.789   3.710   1.688  0.6233 -0.2347 -0.0771
 8794SOL    HW138018   2.781   3.636   1.629  0.0585 -0.2698  0.0437
 8794SOL    HW238019   2.714   3.764   1.664  0.3529 -1.1038 -1.1939
 8795SOL     OW38020   4.020   4.323   9.718  0.1409  0.0070 -0.5659
 8795SOL    HW138021   4.095   4.382   9.729  1.7218 -1.8769 -1.5117
 8795SOL    HW238022   3.967   4.340   9.797  0.5969 -0.2223 -0.2148
 8796SOL     OW38023   1.863   4.460   5.426  0.2968  0.1004 -0.5802
 8796SOL    HW138024   1.948   4.447   5.384 -0.0228  1.3713 -1.6171
 8796SOL    HW238025   1.882   4.533   5.484  3.5335  0.4095 -2.0244
 8797SOL     OW38026   2.446   3.420   5.129  0.0547 -0.0262 -0.1304
 8797SOL    HW138027   2.426   3.513   5.137  0.9637  0.0337  1.2756
 8797SOL    HW238028   2.503   3.415   5.205 -0.3961  1.1923  0.2848
 8798SOL     OW38029   1.976   3.537   8.648  0.4439  0.4921 -0.8796
 8798SOL    HW138030   1.952   3.629   8.638  0.5978  0.3974 -2.1258
 8798SOL    HW238031   1.901   3.507   8.699  2.1242 -2.0294  0.1333
 8799SOL     OW38032   4.170   1.191  11.901  0.1469  0.6712  0.0342
 8799SOL    HW138033   4.213   1.106  11.909 -0.6644  0.4307  1.9107
 8799SOL    HW238034   4.223   1.218  11.826  0.8552 -2.5867 -0.6741
 8800SOL     OW38035   1.471   3.861   3.174 -0.3060  0.1550 -0.8632
 8800SOL    HW138036   1.555   3.908   3.170  0.7202 -1.8408 -2.7605
 8800SOL    HW238037   1.419   3.919   3.118 -0.6140  0.6714 -0.0431
 8801SOL     OW38038   2.804   0.348  17.072  0.0585  0.2421 -0.0646
 8801SOL    HW138039   2.713   0.360  17.046 -0.7526  0.4910  2.8420
 8801SOL    HW238040   2.804   0.257  17.100  0.7251  1.1539  2.9446
 8802SOL     OW38041   4.719   1.247   8.844 -0.2287  0.4789  0.0978
 8802SOL    HW138042   4.729   1.258   8.749 -0.2796  1.4105  0.2035
 8802SOL    HW238043   0.003   1.155   8.851 -0.8872  0.5442  3.0656
 8803SOL     OW38044   2.683   4.100   1.846  0.3022  0.1606  0.0638
 8803SOL    HW138045   2.640   4.075   1.928 -1.1255  0.1529 -0.6981
 8803SOL    HW238046   2.608   4.089   1.787  1.0452  1.0918 -1.0533
 8804SOL     OW38047   2.521   1.369  17.602 -0.1034 -0.1478 -0.1467
 8804SOL    HW138048   2.431   1.358  17.569  0.3055 -1.3597 -0.8697
 8804SOL    HW238049   2.506   1.400  17.691  0.2293  0.6957 -0.3915
 8805SOL     OW38050   0.220   3.557   8.884 -0.0937 -0.4340  0.0432
 8805SOL    HW138051   0.198   3.516   8.967 -1.1698 -0.4473 -0.2469
 8805SOL    HW238052   0.298   3.607   8.906 -1.0138  1.1023 -0.2307
 8806SOL     OW38053   4.582   3.825   7.056 -0.5949  0.3474  0.1325
 8806SOL    HW138054   4.569   3.917   7.081  0.8746  0.6271 -0.1549
 8806SOL    HW238055   4.593   3.788   7.143 -0.4568  0.7360  0.2810
 8807SOL     OW38056   1.668   2.862   6.503 -0.3407 -0.0745  0.1718
 8807SOL    HW138057   1.623   2.945   6.485 -1.1877 -0.9821 -1.8126
 8807SOL    HW238058   1.668   2.877   6.597 -0.7074  0.6003  0.0643
 8808SOL     OW38059   2.523   4.097   8.113 -0.5008 -0.0349 -0.8177
 8808SOL    HW138060   2.575   4.033   8.064 -1.9879 -1.8069 -0.1048
 8808SOL    HW238061   2.552   4.075   8.202 -1.0301 -1.7220 -1.0615
 8809SOL     OW38062   0.568   0.168  14.764 -0.1808  0.0264 -0.4090
 8809SOL    HW138063   0.492   0.111  14.765  0.2825 -0.5955 -0.4439
 8809SOL    HW238064   0.633   0.100  14.746  0.2128  0.2137  0.3179
 8810SOL     OW38065   4.032   2.225   7.581  0.1569  0.0498  0.2310
 8810SOL    HW138066   4.089   2.198   7.653 -0.8224 -1.1981  0.5380
 8810SOL    HW238067   4.067   2.305   7.542 -2.5592  1.3687  0.4613
 8811SOL     OW38068   1.210   3.191  13.608  0.3162  0.4693 -0.2116
 8811SOL    HW138069   1.267   3.140  13.550  1.4107  1.3049  0.1259
 8811SOL    HW238070   1.264   3.225  13.680  0.7023 -0.7757  0.0810
 8812SOL     OW38071   2.040   3.765   4.148 -0.5719 -0.4795 -0.1570
 8812SOL    HW138072   2.060   3.672   4.158  0.7518 -0.1180  0.4743
 8812SOL    HW238073   2.081   3.807   4.224 -0.7243 -1.9277  0.7114
 8813SOL     OW38074   2.881   2.709   8.541  0.5675 -0.7032 -0.1217
 8813SOL    HW138075   2.911   2.642   8.602  3.6083 -0.5290 -1.4481
 8813SOL    HW238076   2.894   2.785   8.598  1.7012 -1.8331  1.1285
 8814SOL     OW38077   0.638   2.670  11.895  0.8108  0.3723  0.3006
 8814SOL    HW138078   0.699   2.642  11.827  1.6695 -3.2605  2.5351
 8814SOL    HW238079   0.699   2.685  11.967  2.0542 -1.7982 -0.3045
 8815SOL     OW38080   1.251   2.536   1.059 -0.5312 -0.0973 -0.1544
 8815SOL    HW138081   1.324   2.483   1.089 -0.0872  1.3789  1.3882
 8815SOL    HW238082   1.291   2.622   1.074  0.6569 -0.5062 -1.0379
 8816SOL     OW38083   0.433   0.725   3.051  0.0705  0.4886  0.1344
 8816SOL    HW138084   0.354   0.678   3.025  2.4483 -2.1727 -2.2490
 8816SOL    HW238085   0.398   0.792   3.111 -0.5261 -0.1126  0.4620
 8817SOL     OW38086   1.327   2.534  11.249  0.0388 -0.3680 -0.3177
 8817SOL    HW138087   1.414   2.517  11.286 -0.3291  1.1260  1.2088
 8817SOL    HW238088   1.343   2.501  11.161  1.7080  0.3379 -0.2910
 8818SOL     OW38089   0.123   2.072   3.614  0.0336 -0.3199  0.2681
 8818SOL    HW138090   0.167   2.127   3.549 -1.8177  0.7563 -0.0821
 8818SOL    HW238091   0.199   2.024   3.646 -0.1404 -2.4332 -2.5232
 8819SOL     OW38092   1.957   3.782  13.633  0.2153  0.0364  0.3462
 8819SOL    HW138093   1.945   3.757  13.541  1.5078 -0.8526  0.4083
 8819SOL    HW238094   2.035   3.837  13.631  1.2581 -1.4674 -0.7718
 8820SOL     OW38095   2.050   3.168   6.080  0.2658  0.2189  0.0047
 8820SOL    HW138096   1.957   3.185   6.065  0.7412  0.5739 -2.4636
 8820SOL    HW238097   2.062   3.212   6.165  1.0346 -0.8832  0.4729
 8821SOL     OW38098   3.768   1.271   8.357  0.2280  0.1807  0.3027
 8821SOL    HW138099   3.829   1.345   8.366 -1.4046  1.8621 -2.4981
 8821SOL    HW238100   3.814   1.219   8.291  2.3761 -0.3099  2.1821
 8822SOL     OW38101   2.858   4.640  13.431  0.1148  0.0958 -0.3090
 8822SOL    HW138102   2.918   4.672  13.499 -0.2239  1.4935 -0.6865
 8822SOL    HW238103   2.775   4.657  13.476 -1.0823 -0.5516 -2.2832
 8823SOL     OW38104   1.059   4.602   3.471  0.4187  0.4583 -0.0980
 8823SOL    HW138105   0.998   4.550   3.418  0.5303  0.8805 -0.6320
 8823SOL    HW238106   1.028   4.689   3.446  0.1085 -0.2841 -2.3428
 8824SOL     OW38107   2.006   3.163   9.851  0.1419  0.6835 -0.4551
 8824SOL    HW138108   2.064   3.148   9.776  1.5177  0.2094  0.7109
 8824SOL    HW238109   1.926   3.193   9.808 -0.2223 -1.2571 -1.1569
 8825SOL     OW38110   3.110   4.348   5.950 -0.0821  0.1411 -0.1048
 8825SOL    HW138111   3.124   4.276   6.011  0.2843  1.2468  1.1217
 8825SOL    HW238112   3.134   4.308   5.867 -1.6835  0.0620 -0.5412
 8826SOL     OW38113   0.383   0.454  17.648  0.1963 -0.5305  0.0078
 8826SOL    HW138114   0.451   0.457  17.582  0.5330  1.3563  0.4617
 8826SOL    HW238115   0.386   0.359  17.662 -0.0295 -0.4385  0.6798
 8827SOL     OW38116   4.323   3.939  12.143  0.0798  0.1025 -0.0479
 8827SOL    HW138117   4.288   3.856  12.109  1.1052 -0.4368  0.2070
 8827SOL    HW238118   4.353   3.905  12.227 -0.5274  1.7192  0.8067
 8828SOL     OW38119   0.382   3.421  15.965 -0.1056 -0.4912 -0.1488
 8828SOL    HW138120   0.326   3.498  15.977  0.0828 -0.6514  1.6981
 8828SOL    HW238121   0.453   3.443  16.024  0.0737  1.6977 -1.1729
 8829SOL     OW38122   0.762   1.237   3.487 -0.1537  0.3488  0.0211
 8829SOL    HW138123   0.831   1.289   3.446  0.4097 -0.4582 -0.0485
 8829SOL    HW238124   0.733   1.171   3.424 -1.5992 -1.1056  2.1899
 8830SOL     OW38125   0.590   2.844   8.940  0.2665  0.2415  0.3889
 8830SOL    HW138126   0.531   2.795   8.998 -0.2213  1.6324  1.0611
 8830SOL    HW238127   0.623   2.772   8.886  0.4969  0.2540  0.5143
 8831SOL     OW38128   0.195   4.133  11.233  0.4350  0.1759  0.6858
 8831SOL    HW138129   0.173   4.221  11.263  0.5758  0.0156  1.2679
 8831SOL    HW238130   0.290   4.137  11.246  0.4347 -2.0416  1.5412
 8832SOL     OW38131   1.604   1.141   7.772 -0.0984  0.3662  0.2688
 8832SOL    HW138132   1.596   1.236   7.780  0.5543  0.5120 -0.7415
 8832SOL    HW238133   1.563   1.124   7.687 -1.7643  0.1606  1.1173
 8833SOL     OW38134   4.658   2.436   9.389  0.1683 -0.3656 -0.3326
 8833SOL    HW138135   4.625   2.358   9.434  1.0663  0.2769  1.4410
 8833SOL    HW238136   4.599   2.503   9.425 -0.5118 -1.9657  1.5626
 8834SOL     OW38137   2.571   0.150  10.121  0.1908 -0.4159  0.6115
 8834SOL    HW138138   2.499   0.099  10.156 -0.7763  0.1603 -0.5036
 8834SOL    HW238139   2.543   0.149  10.029  2.5232 -2.3669 -0.0876
 8835SOL     OW38140   3.962   0.800   0.918 -0.1797  0.0809 -0.0021
 8835SOL    HW138141   3.888   0.860   0.931  0.0673 -0.1390  2.3551
 8835SOL    HW238142   3.969   0.807   0.823  1.1740  0.0483  0.0847
 8836SOL     OW38143   1.885   4.356   6.448  0.1452 -0.4891  0.6128
 8836SOL    HW138144   1.853   4.273   6.484 -0.1507 -0.4025  0.5469
 8836SOL    HW238145   1.961   4.333   6.394  0.0490 -2.3940  1.2652
 8837SOL     OW38146   0.303   3.959   5.692  0.1764 -0.4110  0.1284
 8837SOL    HW138147   0.358   4.037   5.695  0.5456 -0.6667 -0.0160
 8837SOL    HW238148   0.230   3.986   5.748  0.7680  2.0463 -0.2983
 8838SOL     OW38149   3.121   1.013   9.135 -0.1236 -0.1602  0.2585
 8838SOL    HW138150   3.071   1.075   9.082  2.0620  2.3894  1.1951
 8838SOL    HW238151   3.128   1.052   9.222 -0.6813 -0.4392  0.4234
 8839SOL     OW38152   0.303   0.858   3.977 -0.9928 -0.1930  0.1761
 8839SOL    HW138153   0.389   0.829   4.007 -1.4198  0.7770  2.3333
 8839SOL    HW238154   0.309   0.953   3.986  1.1482 -0.0515 -2.5247
 8840SOL     OW38155   0.599   0.074   0.837 -0.2211 -0.1926 -0.0389
 8840SOL    HW138156   0.538   0.001   0.837 -0.8977  0.3825 -0.8067
 8840SOL    HW238157   0.534   0.145   0.836 -0.6411 -0.5600  1.0923
 8841SOL     OW38158   3.656   2.902   4.946 -0.0670 -0.5555  0.5472
 8841SOL    HW138159   3.726   2.948   4.900 -1.6975 -1.0011 -2.3970
 8841SOL    HW238160   3.645   2.967   5.015  0.6253  2.6418 -2.3500
 8842SOL     OW38161   1.878   2.767  15.655  0.2338 -0.0300 -0.1886
 8842SOL    HW138162   1.787   2.741  15.672  0.6855 -0.3092  1.8625
 8842SOL    HW238163   1.925   2.768  15.739  1.0133 -1.1518 -0.6007
 8843SOL     OW38164   4.179   3.581   7.920 -0.1020 -0.4699  0.4412
 8843SOL    HW138165   4.248   3.524   7.955 -0.3667 -1.1092 -0.0732
 8843SOL    HW238166   4.106   3.564   7.979  0.0333 -1.0637  0.4387
 8844SOL     OW38167   2.118   2.793   9.097  0.6220  0.1734  0.0482
 8844SOL    HW138168   2.105   2.856   9.168  0.5045  0.3602 -0.1387
 8844SOL    HW238169   2.057   2.824   9.031  0.3336  1.8058  1.0814
 8845SOL     OW38170   0.221   0.360   3.938  0.8150 -0.2314  0.4065
 8845SOL    HW138171   0.177   0.443   3.953  0.6499 -0.4106  0.9038
 8845SOL    HW238172   0.190   0.322   4.020 -0.3059 -2.0942 -0.8757
 8846SOL     OW38173   2.505   2.752   9.621 -0.1540  0.2091  0.1053
 8846SOL    HW138174   2.529   2.767   9.712  1.5763  1.8684 -0.6047
 8846SOL    HW238175   2.576   2.691   9.601  1.7495  2.6423 -0.6092
 8847SOL     OW38176   3.356   2.471  10.500 -0.1950 -0.1937  0.2278
 8847SOL    HW138177   3.292   2.465  10.571  0.9360  3.2119  1.5245
 8847SOL    HW238178   3.306   2.444  10.423  0.5202 -0.4421 -0.1523
 8848SOL     OW38179   2.806   1.102   5.527  0.5312  0.0224  0.1875
 8848SOL    HW138180   2.834   1.116   5.617  0.9216  0.0278  0.0660
 8848SOL    HW238181   2.870   1.161   5.488 -2.0965  2.2723 -0.6845
 8849SOL     OW38182   3.995   4.511   5.602  0.6643  0.6507  0.2946
 8849SOL    HW138183   4.034   4.544   5.683 -0.1866 -1.5969  1.6380
 8849SOL    HW238184   3.909   4.552   5.612  1.2565  2.1589 -0.7648
 8850SOL     OW38185   2.165   2.138   8.073 -0.3514 -0.8311 -0.1478
 8850SOL    HW138186   2.080   2.181   8.062  1.0607  2.1920  0.5797
 8850SOL    HW238187   2.153   2.087   8.152  2.6302 -1.4057 -0.0709
 8851SOL     OW38188   2.084   3.587   3.735  0.5671 -0.2186  0.4245
 8851SOL    HW138189   2.136   3.507   3.729  1.6043  0.5712 -1.0822
 8851SOL    HW238190   2.077   3.603   3.641  1.0138  0.0954  0.4434
 8852SOL     OW38191   1.904   3.082   6.524  0.1361  0.0918  0.3859
 8852SOL    HW138192   1.899   2.986   6.525 -0.0908  0.1283  2.5202
 8852SOL    HW238193   1.910   3.103   6.617  3.2929  3.0078 -0.4917
 8853SOL     OW38194   1.784   4.316   6.166 -0.3341 -0.3076 -0.1401
 8853SOL    HW138195   1.713   4.283   6.111  0.3831 -0.5964 -0.8926
 8853SOL    HW238196   1.753   4.403   6.191  0.7074 -0.0396  0.2404
 8854SOL     OW38197   2.888   4.433   6.818  1.0888 -0.1628  0.0780
 8854SOL    HW138198   2.940   4.367   6.864  0.0278 -1.1757 -0.2002
 8854SOL    HW238199   2.903   4.506   6.878 -1.0618 -1.0494  1.6894
 8855SOL     OW38200   3.827   3.728   2.327 -0.2039 -0.3505 -0.2193
 8855SOL    HW138201   3.777   3.802   2.363  2.7251  0.9279  1.2381
 8855SOL    HW238202   3.780   3.706   2.246  1.2049  0.2464 -1.1975
 8856SOL     OW38203   1.040   3.575   1.096  0.2455  0.2980  0.3101
 8856SOL    HW138204   1.121   3.560   1.047 -0.7460  1.9989 -1.8513
 8856SOL    HW238205   1.048   3.667   1.121  0.0681  0.0295  1.3504
 8857SOL     OW38206   2.441   2.836   7.480 -0.1414 -0.3209 -0.1374
 8857SOL    HW138207   2.520   2.793   7.447  0.2009 -0.6660  1.1259
 8857SOL    HW238208   2.478   2.875   7.559  2.3586 -0.3304 -1.2906
 8858SOL     OW38209   4.710   0.950   7.817  0.2485  0.5171  0.0628
 8858SOL    HW138210   4.705   0.938   7.722  1.6874 -0.0073  0.0633
 8858SOL    HW238211   4.619   0.975   7.832  0.5023  1.3970  0.1580
 8859SOL     OW38212   1.864   3.972   5.940 -0.3131 -0.1924 -0.1383
 8859SOL    HW138213   1.886   3.965   6.032  1.3457 -3.2719 -0.7561
 8859SOL    HW238214   1.856   4.066   5.930 -1.3915 -0.0683  2.1218
 8860SOL     OW38215   2.256   3.752   1.264  0.0356 -0.0169  0.4360
 8860SOL    HW138216   2.208   3.671   1.249 -0.8038  0.6529 -0.4942
 8860SOL    HW238217   2.190   3.821   1.268 -0.5538 -0.5882  0.6366
 8861SOL     OW38218   0.772   3.747  13.691  0.0815 -0.0990 -0.1358
 8861SOL    HW138219   0.687   3.702  13.689 -0.8900  1.7261  0.1782
 8861SOL    HW238220   0.775   3.776  13.782 -0.0586 -0.1292 -0.1205
 8862SOL     OW38221   3.027   0.537   4.523  0.0597  0.4991 -0.0062
 8862SOL    HW138222   2.993   0.575   4.604 -0.9944 -0.3670 -0.0283
 8862SOL    HW238223   2.945   0.527   4.473 -1.0534 -0.6091  2.0460
 8863SOL     OW38224   0.265   2.410   6.684  0.2145 -0.3966  0.4382
 8863SOL    HW138225   0.233   2.450   6.603 -0.6969 -0.9895  0.5048
 8863SOL    HW238226   0.357   2.433   6.679  0.2908 -0.9756 -0.7131
 8864SOL     OW38227   4.210   1.559   4.970 -0.1170  0.1423  0.2695
 8864SOL    HW138228   4.191   1.502   5.044 -0.1921 -1.1676 -0.7530
 8864SOL    HW238229   4.266   1.628   5.006 -1.8806  1.6053  0.1876
 8865SOL     OW38230   4.572   4.316   8.695 -0.4771 -0.3268  0.3319
 8865SOL    HW138231   4.502   4.259   8.664  0.1552 -0.0388 -1.5859
 8865SOL    HW238232   4.530   4.401   8.681 -0.6827 -0.1550  1.9882
 8866SOL     OW38233   2.713   2.322  15.107 -0.3896  0.0864 -0.2447
 8866SOL    HW138234   2.694   2.235  15.142 -0.0007 -0.1597 -0.6321
 8866SOL    HW238235   2.703   2.309  15.012 -0.4659  1.1401 -0.3730
 8867SOL     OW38236   1.392   0.746  13.524 -0.0471  0.2025 -0.0022
 8867SOL    HW138237   1.395   0.792  13.609  2.8950 -1.0153  0.5308
 8867SOL    HW238238   1.452   0.799  13.472 -2.8285  1.4242 -1.9528
 8868SOL     OW38239   2.286   4.324   0.639  0.5078 -0.4590 -0.0451
 8868SOL    HW138240   2.268   4.262   0.710  0.2886  0.7361  0.9307
 8868SOL    HW238241   2.247   4.278   0.565  1.3780 -0.0753 -0.7476
 8869SOL     OW38242   1.006   0.449   2.071 -0.0118  0.4057  0.2203
 8869SOL    HW138243   1.086   0.485   2.109  0.4499 -0.8415  0.4110
 8869SOL    HW238244   0.992   0.377   2.133  4.4614 -0.2613  0.4167
 8870SOL     OW38245   0.861   1.464  17.423  0.3172 -0.3518  0.9505
 8870SOL    HW138246   0.866   1.443  17.329  1.5474  0.5219  0.8164
 8870SOL    HW238247   0.870   1.374  17.454 -0.1794 -0.7293  0.0038
 8871SOL     OW38248   3.292   2.677  10.316 -0.4922 -0.2015 -0.4421
 8871SOL    HW138249   3.319   2.593  10.278  0.5667  1.0249 -2.3573
 8871SOL    HW238250   3.365   2.691  10.377 -0.2938 -0.0685 -0.7128
 8872SOL     OW38251   1.199   2.964   3.275  0.1142 -0.5069  0.3378
 8872SOL    HW138252   1.275   2.993   3.224 -1.4714 -0.7033 -2.1388
 8872SOL    HW238253   1.237   3.004   3.353 -1.0966  0.1971  0.5750
 8873SOL     OW38254   3.485   3.419  16.685  0.0409  0.2912 -0.5182
 8873SOL    HW138255   3.470   3.504  16.725 -0.2289 -0.7816  1.6579
 8873SOL    HW238256   3.436   3.421  16.603 -0.7745 -4.1073 -0.1280
 8874SOL     OW38257   1.842   0.135   1.970  0.7937  0.1173  0.1306
 8874SOL    HW138258   1.873   0.048   1.997  1.4574  0.5908  0.8974
 8874SOL    HW238259   1.749   0.115   1.966  0.1620  2.4882  2.3951
 8875SOL     OW38260   3.031   0.015   4.191  0.6351  0.1874  0.3754
 8875SOL    HW138261   2.977   0.075   4.140  0.7071  0.4523  0.6148
 8875SOL    HW238262   3.003   4.673   4.150  0.6203  0.7092 -0.6809
 8876SOL     OW38263   2.849   3.447   2.302 -0.3625  0.5009 -0.0213
 8876SOL    HW138264   2.886   3.361   2.284 -0.7237  0.1735  0.8073
 8876SOL    HW238265   2.796   3.454   2.223  0.9417  3.4393 -0.6500
 8877SOL     OW38266   4.307   0.467   8.175  0.6569 -0.1338 -0.3875
 8877SOL    HW138267   4.262   0.534   8.227  1.7334  0.5160 -0.3016
 8877SOL    HW238268   4.397   0.500   8.173  0.7690 -0.3804  0.4772
 8878SOL     OW38269   0.638   4.021   1.142 -0.3464  0.3036  0.4951
 8878SOL    HW138270   0.627   4.091   1.077  2.1841  1.0936  0.8914
 8878SOL    HW238271   0.578   3.958   1.104  0.5611 -0.3406  0.1403
 8879SOL     OW38272   0.044   0.288   8.406 -0.3493 -0.7036 -0.3049
 8879SOL    HW138273   4.711   0.345   8.431  1.3685  0.8723  1.1259
 8879SOL    HW238274   0.015   0.245   8.326  0.6537  1.3188 -1.7410
 8880SOL     OW38275   3.774   2.081   4.454 -0.0967  0.4111  0.4779
 8880SOL    HW138276   3.795   1.987   4.453 -2.1553 -0.0075 -2.5898
 8880SOL    HW238277   3.855   2.131   4.465 -0.8809  2.0573 -1.1222
 8881SOL     OW38278   3.425   2.752   7.390 -0.5875  0.5247 -0.2159
 8881SOL    HW138279   3.478   2.677   7.415  1.2230  1.9060  0.1466
 8881SOL    HW238280   3.345   2.741   7.441 -0.6709  0.0772 -0.4469
 8882SOL     OW38281   3.971   2.582   8.255 -0.1230  0.2341  0.0460
 8882SOL    HW138282   3.890   2.601   8.304  1.5066  0.2657  2.7187
 8882SOL    HW238283   4.033   2.642   8.296  1.1528 -0.8952 -0.2361
 8883SOL     OW38284   3.223   1.184   9.316 -0.0165  0.0829  0.2974
 8883SOL    HW138285   3.184   1.264   9.352 -2.5704 -0.9443 -0.1834
 8883SOL    HW238286   3.253   1.144   9.397  0.2700 -1.3045 -0.4843
 8884SOL     OW38287   3.042   1.893   5.836 -0.0722 -0.2124 -0.4022
 8884SOL    HW138288   3.089   1.971   5.868 -0.9231  0.9231 -1.9212
 8884SOL    HW238289   2.995   1.862   5.914 -0.7455  1.2839 -0.2091
 8885SOL     OW38290   2.584   2.412   4.099  0.3436  0.5077 -0.1827
 8885SOL    HW138291   2.506   2.456   4.067 -0.6934 -1.6328 -0.5799
 8885SOL    HW238292   2.597   2.346   4.030 -0.1317  1.1239 -0.8516
 8886SOL     OW38293   1.372   2.105   8.408  0.0750  0.1703  0.2257
 8886SOL    HW138294   1.287   2.095   8.450  0.4384 -3.6304  0.1257
 8886SOL    HW238295   1.372   2.041   8.337 -2.8813  3.8483 -3.0347
 8887SOL     OW38296   3.258   1.800   7.624  0.0786  0.7057  0.2339
 8887SOL    HW138297   3.337   1.782   7.675  0.6704 -2.3210 -1.7358
 8887SOL    HW238298   3.239   1.708   7.606  2.2198  0.2908  0.0687
 8888SOL     OW38299   4.238   2.653   6.651  0.5734 -0.4975  0.0568
 8888SOL    HW138300   4.145   2.640   6.672  0.9469 -1.4296  1.1409
 8888SOL    HW238301   4.287   2.595   6.710 -1.5614 -0.1982  2.1500
 8889SOL     OW38302   2.239   4.121   8.407  0.1575 -0.1102  0.6956
 8889SOL    HW138303   2.283   4.187   8.460 -1.4434  0.0956  1.7594
 8889SOL    HW238304   2.266   4.130   8.316 -0.3139 -1.5498  0.4059
 8890SOL     OW38305   0.267   1.096  16.700 -0.1187 -0.0244 -0.1268
 8890SOL    HW138306   0.327   1.053  16.639  0.5978  2.4098 -1.1109
 8890SOL    HW238307   0.270   1.037  16.776  0.6456  0.9188  0.5745
 8891SOL     OW38308   0.882   1.441  15.722 -0.6881 -0.4700 -0.0393
 8891SOL    HW138309   0.798   1.414  15.758 -0.7688  0.3776  0.3952
 8891SOL    HW238310   0.857   1.417  15.632 -1.1051  2.8860 -0.8260
 8892SOL     OW38311   4.180   1.020   4.174  0.3994 -0.3448 -0.0977
 8892SOL    HW138312   4.167   1.025   4.079  0.9167 -3.3911 -0.3163
 8892SOL    HW238313   4.214   1.106   4.198 -2.9977 -0.1086  3.8539
 8893SOL     OW38314   2.052   1.002   6.029  0.3168  0.4785  0.1588
 8893SOL    HW138315   2.116   0.942   6.067  0.5915  1.2380  0.8788
 8893SOL    HW238316   1.972   0.963   6.066  1.8510 -1.2860  1.6164
 8894SOL     OW38317   4.166   0.328   8.593 -0.7783  0.3458 -0.0510
 8894SOL    HW138318   4.219   0.317   8.515  0.0202 -0.5155  0.6153
 8894SOL    HW238319   4.192   0.249   8.642  3.2204  0.6625 -1.6869
 8895SOL     OW38320   0.679   3.154   8.159  0.1124  0.1919  0.8840
 8895SOL    HW138321   0.650   3.167   8.249 -0.0954 -1.7401  1.0906
 8895SOL    HW238322   0.727   3.072   8.170  0.5415  0.3128 -0.0400
 8896SOL     OW38323   3.952   1.821  16.362  0.1541  0.5761 -0.1646
 8896SOL    HW138324   3.889   1.827  16.433  1.1244  0.4759  0.6923
 8896SOL    HW238325   3.900   1.776  16.295 -0.7083  1.3736 -0.0168
 8897SOL     OW38326   4.333   0.900  11.628 -0.2262  0.2294 -0.4219
 8897SOL    HW138327   4.379   0.962  11.685 -0.1610  0.9449 -1.2532
 8897SOL    HW238328   4.311   0.831  11.690  3.1359 -1.6305 -1.2890
 8898SOL     OW38329   4.579   1.492   9.387  0.8244 -0.6460  0.2578
 8898SOL    HW138330   4.485   1.506   9.388  0.8350 -0.5732  0.2800
 8898SOL    HW238331   4.604   1.543   9.310 -1.9360 -0.3018 -0.3896
 8899SOL     OW38332   0.916   4.449   7.404  0.1015 -0.1650  0.2744
 8899SOL    HW138333   0.872   4.479   7.324 -0.0019 -0.2345  0.3050
 8899SOL    HW238334   0.852   4.380   7.422 -0.0619 -0.0714  0.0607
 8900SOL     OW38335   3.742   2.983   1.678 -0.0657  0.6322 -0.0922
 8900SOL    HW138336   3.820   2.940   1.714 -0.1109 -0.6111 -1.4810
 8900SOL    HW238337   3.689   2.905   1.665  0.6050  0.3071 -0.8312
 8901SOL     OW38338   2.136   4.536   2.562  0.2499  0.3315  0.1253
 8901SOL    HW138339   2.202   4.568   2.501 -0.3941  1.3572 -0.0396
 8901SOL    HW238340   2.148   4.442   2.566 -0.3559  0.2487  0.0316
 8902SOL     OW38341   4.573   3.476   4.238  0.0614  1.0339 -0.2352
 8902SOL    HW138342   4.561   3.439   4.326  1.2542 -0.7926 -0.8480
 8902SOL    HW238343   4.665   3.497   4.253  0.0986  1.4660 -1.0785
 8903SOL     OW38344   0.790   3.299   9.477  0.3421 -0.4540 -0.0913
 8903SOL    HW138345   0.703   3.338   9.466  0.2811  0.0890  2.2492
 8903SOL    HW238346   0.828   3.362   9.539  0.2694 -0.4095 -0.0915
 8904SOL     OW38347   0.523   2.358   6.255 -0.0786 -0.5160 -0.6264
 8904SOL    HW138348   0.523   2.264   6.274 -3.8257  0.1810  2.7634
 8904SOL    HW238349   0.523   2.351   6.159  0.8294 -0.3085 -0.6370
 8905SOL     OW38350   3.330   0.065   5.585  0.1080 -0.2850  0.0966
 8905SOL    HW138351   3.358   0.151   5.615  2.9067 -0.6338 -1.5208
 8905SOL    HW238352   3.286   0.038   5.666  0.2766 -1.1255 -0.0916
 8906SOL     OW38353   0.946   1.165   2.348  0.0517 -0.2075  0.6701
 8906SOL    HW138354   1.040   1.184   2.352 -0.1476  0.8602  0.1799
 8906SOL    HW238355   0.932   1.215   2.429  0.3292  0.3595  0.3704
 8907SOL     OW38356   1.550   2.890   4.437 -0.3829  0.0922  0.0250
 8907SOL    HW138357   1.478   2.929   4.387 -0.5075 -0.9513 -0.6123
 8907SOL    HW238358   1.604   2.869   4.361  0.5444 -0.2807  0.7857
 8908SOL     OW38359   3.659   0.193   5.509  1.3204 -0.0588 -0.2958
 8908SOL    HW138360   3.644   0.137   5.433 -2.0905  0.0988  0.2635
 8908SOL    HW238361   3.587   0.254   5.497  1.0847  0.0784  1.7562
 8909SOL     OW38362   3.092   0.069  11.283  0.1208  0.3873  0.4835
 8909SOL    HW138363   3.139   0.071  11.367  0.4355  0.0293  0.3168
 8909SOL    HW238364   3.157   0.014  11.240 -2.5757 -2.8956  0.5861
 8910SOL     OW38365   3.103   3.974   4.037 -0.4873  0.0776 -0.3758
 8910SOL    HW138366   3.189   3.933   4.030 -0.5630 -0.6237  2.9210
 8910SOL    HW238367   3.105   4.014   4.124 -1.1908  0.4317 -0.5162
 8911SOL     OW38368   4.653   2.148   5.430 -0.0870  0.1547 -0.4289
 8911SOL    HW138369   4.722   2.197   5.385  0.4807  0.6000  0.9186
 8911SOL    HW238370   4.598   2.219   5.462  1.9748  0.6709  2.0247
 8912SOL     OW38371   0.316   2.215  16.073  0.3777 -0.4687  0.0614
 8912SOL    HW138372   0.381   2.148  16.096  0.0179 -0.9004 -0.1922
 8912SOL    HW238373   0.361   2.282  16.022 -0.5425  0.9720  1.1482
 8913SOL     OW38374   0.489   2.209   2.345  0.1031 -0.2681  0.5886
 8913SOL    HW138375   0.421   2.194   2.410 -2.0405 -0.8623 -1.7964
 8913SOL    HW238376   0.435   2.237   2.271  1.4338  0.8272  0.0396
 8914SOL     OW38377   0.542   4.334   0.206 -0.6166 -0.5566 -0.0236
 8914SOL    HW138378   0.598   4.274   0.256 -0.7858 -1.9454 -1.5050
 8914SOL    HW238379   0.539   4.293   0.120 -0.8198  0.3924 -0.4563
 8915SOL     OW38380   0.285   2.786   7.175 -0.4107  0.5219 -0.1535
 8915SOL    HW138381   0.366   2.796   7.224 -0.0154  2.8089 -1.2814
 8915SOL    HW238382   0.298   2.847   7.103 -0.6904  2.0822  1.1395
 8916SOL     OW38383   0.298   2.925  16.961 -0.2837 -0.3379  0.7698
 8916SOL    HW138384   0.378   2.920  17.013  0.5744 -2.1072 -0.7696
 8916SOL    HW238385   0.225   2.897  17.016 -1.6020 -0.9017 -1.2633
 8917SOL     OW38386   3.786   2.119   9.071  0.0998  0.7163  0.8425
 8917SOL    HW138387   3.740   2.046   9.030  1.2322 -0.1118  1.0564
 8917SOL    HW238388   3.877   2.093   9.083 -0.0711 -0.5789 -0.6828
 8918SOL     OW38389   0.007   3.212  16.201 -0.0305 -0.2572 -0.4285
 8918SOL    HW138390   4.716   3.274  16.267  1.2041 -0.9327  0.7522
 8918SOL    HW238391   0.099   3.231  16.186 -1.2335  4.3626 -2.0580
 8919SOL     OW38392   0.855   0.009   5.256 -0.2617  0.3213 -0.2860
 8919SOL    HW138393   0.893   0.016   5.344 -0.3730 -2.5057 -0.0310
 8919SOL    HW238394   0.893   0.086   5.215  0.5454 -0.8213 -1.6506
 8920SOL     OW38395   3.114   2.963   8.567  0.2194  0.1706  0.6469
 8920SOL    HW138396   3.183   3.029   8.567  1.8005 -1.4696 -1.0919
 8920SOL    HW238397   3.065   2.981   8.647  4.1161  3.2428  2.2992
 8921SOL     OW38398   1.565   0.991   4.470  0.5346 -0.1533  0.5023
 8921SOL    HW138399   1.579   0.901   4.441 -1.4199 -0.3497  0.2020
 8921SOL    HW238400   1.472   0.998   4.448  0.6605 -1.7118 -0.4783
 8922SOL     OW38401   0.088   0.374   8.837  0.2266  0.6150  0.3086
 8922SOL    HW138402   0.111   0.367   8.930 -0.3730  1.9554  0.5521
 8922SOL    HW238403   4.733   0.379   8.844  0.2562  0.5310  0.7410
 8923SOL     OW38404   3.902   4.066   4.995 -0.3077  0.0982 -0.4580
 8923SOL    HW138405   3.955   4.048   4.918 -0.0716 -0.4441 -0.1727
 8923SOL    HW238406   3.932   4.155   5.013 -0.1680 -0.2661  1.1299
 8924SOL     OW38407   1.718   0.745   8.289  0.1839  0.3723 -0.0720
 8924SOL    HW138408   1.692   0.682   8.356  0.3658 -1.5321 -1.8329
 8924SOL    HW238409   1.652   0.721   8.224 -0.1093 -0.3868  0.5136
 8925SOL     OW38410   3.211   2.582  12.755  0.5173 -0.4339  0.3610
 8925SOL    HW138411   3.154   2.575  12.832  0.6821  0.7268  0.5828
 8925SOL    HW238412   3.286   2.528  12.782 -0.4356 -1.4028  1.0853
 8926SOL     OW38413   1.417   3.918  14.964  0.6240 -0.1287  0.5713
 8926SOL    HW138414   1.429   3.944  15.055 -0.6315 -1.0811  1.0198
 8926SOL    HW238415   1.366   3.985  14.918 -1.2211 -0.3365  2.3334
 8927SOL     OW38416   0.646   2.515   9.617 -0.5666  0.3127  0.1410
 8927SOL    HW138417   0.694   2.433   9.606  1.4860  1.7178 -1.3535
 8927SOL    HW238418   0.633   2.545   9.527  0.5792  0.2738 -0.0361
 8928SOL     OW38419   2.741   0.851   4.324  0.2396  0.3557 -0.1570
 8928SOL    HW138420   2.671   0.871   4.387 -0.8958 -0.0139 -1.3116
 8928SOL    HW238421   2.709   0.898   4.247 -1.0767 -2.4843 -1.3651
 8929SOL     OW38422   4.635   1.590   4.405  0.0608 -0.1541 -0.2416
 8929SOL    HW138423   4.669   1.642   4.333  0.3449  0.9556  0.7052
 8929SOL    HW238424   4.629   1.651   4.478  3.0378 -0.4309  0.2157
 8930SOL     OW38425   2.673   1.175   7.266 -0.1242 -0.1449  0.0522
 8930SOL    HW138426   2.688   1.248   7.326 -0.5814 -0.2225  0.2575
 8930SOL    HW238427   2.589   1.195   7.226 -0.5279 -0.1408  0.9040
 8931SOL     OW38428   3.008   2.225   1.465  0.4885  0.9256 -0.7125
 8931SOL    HW138429   2.970   2.138   1.462 -1.2436  1.7377 -2.2940
 8931SOL    HW238430   3.078   2.197   1.524 -0.2310  1.2599  0.3052
 8932SOL     OW38431   3.617   1.726   5.387 -0.3689  0.2864  0.8771
 8932SOL    HW138432   3.643   1.737   5.478  0.4996 -0.0550  0.6788
 8932SOL    HW238433   3.656   1.640   5.369 -0.2190  1.0286 -2.3723
 8933SOL     OW38434   2.784   2.627   5.880 -0.4310 -0.1434  0.3921
 8933SOL    HW138435   2.758   2.562   5.945  0.4967  0.1757  1.0872
 8933SOL    HW238436   2.725   2.698   5.905 -1.1920  0.3564 -2.8327
 8934SOL     OW38437   3.788   2.713   7.286  0.6264 -0.1236 -0.0035
 8934SOL    HW138438   3.713   2.755   7.243  2.0554  1.9205 -0.4746
 8934SOL    HW238439   3.748   2.636   7.324 -0.9404  0.9345  0.4975
 8935SOL     OW38440   3.048   3.492   6.818  0.0463  0.1880 -0.0045
 8935SOL    HW138441   3.014   3.505   6.729 -0.8027  1.1305  0.4672
 8935SOL    HW238442   3.068   3.583   6.839  2.0481  0.3971 -2.7515
 8936SOL     OW38443   2.004   1.378   4.201  0.1345  0.1507 -0.1767
 8936SOL    HW138444   2.060   1.335   4.137  2.0157  1.2402  0.7455
 8936SOL    HW238445   2.016   1.325   4.280  0.4486  0.2136 -0.1819
 8937SOL     OW38446   0.621   2.498  16.065 -0.3978 -0.6092 -0.0407
 8937SOL    HW138447   0.602   2.587  16.036  0.2185 -0.2664  0.5848
 8937SOL    HW238448   0.541   2.453  16.039 -1.7882  0.8191  1.7152
 8938SOL     OW38449   2.297   1.991   6.269  0.4140  0.2147  0.4316
 8938SOL    HW138450   2.345   2.027   6.195  0.4351  0.6200  0.6418
 8938SOL    HW238451   2.205   2.014   6.256  1.2557  2.4534 -1.5430
 8939SOL     OW38452   1.023   2.596   2.285 -0.4988  0.3723  0.0395
 8939SOL    HW138453   1.082   2.586   2.210  2.6737  0.6512  2.5016
 8939SOL    HW238454   1.007   2.505   2.309 -2.5607  1.4794  2.8281
 8940SOL     OW38455   2.189   3.590   6.286  0.2770  0.1273 -0.1479
 8940SOL    HW138456   2.230   3.504   6.296  1.0874  0.3897 -1.3071
 8940SOL    HW238457   2.102   3.561   6.255  0.6290 -0.0954 -0.9249
 8941SOL     OW38458   1.759   0.757  13.030  0.0430 -0.4758 -0.4493
 8941SOL    HW138459   1.674   0.739  12.990 -0.1514  0.3579 -0.4243
 8941SOL    HW238460   1.810   0.759  12.948  0.8359 -0.8347  0.0322
 8942SOL     OW38461   2.841   0.542   1.142 -0.0719 -0.3665  0.1887
 8942SOL    HW138462   2.783   0.534   1.066 -0.9943  2.6277  0.5869
 8942SOL    HW238463   2.928   0.538   1.104  1.2143  3.2119  2.8840
 8943SOL     OW38464   4.392   4.547  14.817  0.7994 -0.0088 -0.1204
 8943SOL    HW138465   4.405   4.611  14.747 -0.4652 -0.1178 -0.4570
 8943SOL    HW238466   4.352   4.600  14.886 -0.2541 -0.8168 -0.1193
 8944SOL     OW38467   0.376   4.488   7.525  0.5521 -0.4909 -0.7018
 8944SOL    HW138468   0.427   4.494   7.606 -2.0797 -0.5575  0.9661
 8944SOL    HW238469   0.285   4.484   7.555 -0.1884  0.3493 -2.8244
 8945SOL     OW38470   4.058   0.624  10.713 -0.0060 -0.0114  0.0443
 8945SOL    HW138471   4.033   0.715  10.693  1.1101  0.4113  0.5673
 8945SOL    HW238472   4.089   0.626  10.804 -1.9799  1.9020  0.6818
 8946SOL     OW38473   2.514   0.452   5.677  0.0755 -0.5208  0.1972
 8946SOL    HW138474   2.522   0.368   5.631  1.2198 -1.4128  2.0310
 8946SOL    HW238475   2.595   0.458   5.728  0.1831 -1.3679  0.1213
 8947SOL     OW38476   1.761   2.235   3.242  0.6462 -0.0264 -0.1685
 8947SOL    HW138477   1.714   2.307   3.200 -0.0351  0.1959  0.9508
 8947SOL    HW238478   1.821   2.215   3.171 -0.0883 -0.7007 -0.6090
 8948SOL     OW38479   2.846   0.813   1.228 -0.1543 -0.4815 -0.0599
 8948SOL    HW138480   2.867   0.721   1.212  0.7216 -0.4790  1.0979
 8948SOL    HW238481   2.769   0.798   1.282 -0.1693  1.1945  0.3965
 8949SOL     OW38482   3.207   1.988  12.703 -0.5576  0.3522 -0.5680
 8949SOL    HW138483   3.162   2.069  12.680  0.1391  1.0263  0.4843
 8949SOL    HW238484   3.285   1.974  12.649  0.3892  0.3120  0.8014
 8950SOL     OW38485   1.645   1.656   8.846  0.2724 -0.1282 -0.2988
 8950SOL    HW138486   1.643   1.610   8.930 -0.9130 -0.8614 -0.7348
 8950SOL    HW238487   1.739   1.672   8.832  0.7272 -1.6083  1.1195
 8951SOL     OW38488   3.878   3.664  16.790 -0.2452 -0.0572 -0.2343
 8951SOL    HW138489   3.886   3.758  16.809 -0.1232  0.0783 -0.9690
 8951SOL    HW238490   3.931   3.624  16.858 -0.8578 -1.9116 -0.8451
 8952SOL     OW38491   0.073   3.404   7.599 -0.2989  0.3960  0.2374
 8952SOL    HW138492   4.733   3.437   7.557  0.9397  2.3478 -0.5477
 8952SOL    HW238493   0.119   3.367   7.524 -0.5281  0.7326 -0.0737
 8953SOL     OW38494   1.007   0.436   0.775  0.2449 -0.2103 -0.0087
 8953SOL    HW138495   1.027   0.349   0.741  0.4261 -0.9471  1.9755
 8953SOL    HW238496   0.913   0.439   0.795  0.7062  0.2596  2.1167
 8954SOL     OW38497   4.253   1.597   5.460  0.1977 -0.3020  0.1917
 8954SOL    HW138498   4.182   1.533   5.464 -0.4635  0.4750  0.8299
 8954SOL    HW238499   4.306   1.555   5.528  1.4605  1.0605  0.0424
 8955SOL     OW38500   4.496   4.606   9.047 -0.1151 -0.2087  0.2762
 8955SOL    HW138501   4.453   4.526   9.018 -0.4583  0.6381 -1.5546
 8955SOL    HW238502   4.585   4.583   9.073 -0.1215 -0.3003  0.2162
 8956SOL     OW38503   4.493   3.117   7.538 -0.2980  0.3803 -0.6467
 8956SOL    HW138504   4.560   3.181   7.516  0.5417  0.1696  1.3406
 8956SOL    HW238505   4.520   3.086   7.625  2.4553  2.5346 -0.7655
 8957SOL     OW38506   1.499   4.109   4.899 -0.6966 -0.9729  0.0742
 8957SOL    HW138507   1.480   4.202   4.892 -0.9597 -0.9813  0.7146
 8957SOL    HW238508   1.448   4.062   4.964  0.0867 -0.4073  1.1046
 8958SOL     OW38509   0.895   3.681   5.596 -0.0303 -0.1657 -0.1313
 8958SOL    HW138510   0.924   3.745   5.531 -0.0001  0.6467  0.6770
 8958SOL    HW238511   0.815   3.645   5.558 -0.2123 -1.0661  1.0856
 8959SOL     OW38512   0.673   2.497   9.067 -0.0672 -0.5820 -0.3770
 8959SOL    HW138513   0.680   2.462   9.156 -1.3949  0.9056  0.3039
 8959SOL    HW238514   0.766   2.495   9.045 -0.1609 -1.4707 -0.6964
 8960SOL     OW38515   3.172   4.525   4.443 -0.2716 -0.4940 -0.1442
 8960SOL    HW138516   3.093   4.570   4.472  0.2555  0.3807 -0.0782
 8960SOL    HW238517   3.125   4.447   4.413 -1.3266 -0.6246  1.8237
 8961SOL     OW38518   1.150   4.177   2.754  0.4587  0.0236 -0.2700
 8961SOL    HW138519   1.056   4.192   2.743  0.5553 -0.3140 -1.5124
 8961SOL    HW238520   1.161   4.090   2.718  1.3177  0.2877 -0.6455
 8962SOL     OW38521   3.170   2.443   3.892 -0.5928  0.3467 -0.0246
 8962SOL    HW138522   3.155   2.349   3.902 -2.2730  0.5816 -0.2254
 8962SOL    HW238523   3.217   2.449   3.809  0.7677  0.4895  0.7532
 8963SOL     OW38524   0.233   3.554   7.779 -0.0329 -0.1068 -0.5116
 8963SOL    HW138525   0.171   3.483   7.767 -1.1411  0.7938 -0.0838
 8963SOL    HW238526   0.259   3.557   7.687 -0.5773 -0.9231 -0.6957
 8964SOL     OW38527   4.036   2.199   6.428  0.8243  0.1371 -0.5891
 8964SOL    HW138528   4.131   2.195   6.436  1.0103  0.9676 -2.4355
 8964SOL    HW238529   4.021   2.223   6.337  2.1708 -0.8029 -1.0671
 8965SOL     OW38530   3.677   0.193   9.072 -0.4263  0.0281 -0.1195
 8965SOL    HW138531   3.699   0.268   9.016 -1.2631  1.5689  1.6060
 8965SOL    HW238532   3.740   0.206   9.144  0.9496 -1.3458 -1.0826
 8966SOL     OW38533   2.828   1.291   7.966  0.5139  1.1418 -0.0906
 8966SOL    HW138534   2.888   1.324   7.899 -0.6713  2.0916 -0.6919
 8966SOL    HW238535   2.810   1.372   8.016 -0.2475 -0.4209  2.1826
 8967SOL     OW38536   1.210   3.107  11.552 -0.1577 -0.2746 -0.3003
 8967SOL    HW138537   1.297   3.101  11.511  0.2113 -0.9045  0.5785
 8967SOL    HW238538   1.238   3.127  11.641 -0.2169 -0.1952 -0.2998
 8968SOL     OW38539   4.109   4.336  17.296 -0.3508  0.0859  0.5216
 8968SOL    HW138540   4.172   4.311  17.363  3.2535  2.4474 -1.9864
 8968SOL    HW238541   4.064   4.410  17.337  1.1052  1.2313  0.0560
 8969SOL     OW38542   2.386   2.880   8.262 -0.2456 -0.1381  0.6590
 8969SOL    HW138543   2.395   2.952   8.200 -1.1114 -0.0165  0.6713
 8969SOL    HW238544   2.364   2.927   8.342  0.9036 -1.1407  1.5580
 8970SOL     OW38545   4.479   0.013   9.452  0.0940 -0.6628 -1.0516
 8970SOL    HW138546   4.460   4.660   9.465  0.2256 -0.6773 -0.9712
 8970SOL    HW238547   4.490   0.045   9.542 -0.2097 -2.0803 -0.5112
 8971SOL     OW38548   4.131   4.547  15.093  0.1498  0.2676 -0.1561
 8971SOL    HW138549   4.037   4.563  15.096  0.0823 -0.0183 -0.7562
 8971SOL    HW238550   4.166   4.616  15.038  1.0837 -0.1129 -0.0385
 8972SOL     OW38551   2.304   4.505   6.612  0.5396 -0.2399  0.1500
 8972SOL    HW138552   2.361   4.582   6.605 -0.1569  0.2876  0.3105
 8972SOL    HW238553   2.307   4.475   6.521 -0.3884  2.6034 -0.8040
 8973SOL     OW38554   4.445   2.795   3.115  0.3640 -0.8885 -0.5312
 8973SOL    HW138555   4.351   2.779   3.109  0.3527 -0.7463 -0.7361
 8973SOL    HW238556   4.474   2.715   3.071  1.2130 -0.8867  0.0261
 8974SOL     OW38557   4.118   1.370   5.921 -0.0206  0.0038  0.4160
 8974SOL    HW138558   4.147   1.359   6.012  0.2850  1.2010  0.4663
 8974SOL    HW238559   4.065   1.449   5.928 -1.1708 -0.5013 -2.5270
 8975SOL     OW38560   1.518   0.873   7.886  0.1817 -0.2038  0.1414
 8975SOL    HW138561   1.558   0.958   7.867  1.0423 -1.0633 -1.8754
 8975SOL    HW238562   1.452   0.880   7.817 -2.4353 -0.2249  2.6700
 8976SOL     OW38563   1.701   4.244   5.065  0.5328  0.0893 -0.0831
 8976SOL    HW138564   1.757   4.176   5.103  1.5760  0.0570 -1.7125
 8976SOL    HW238565   1.655   4.204   4.992  2.6554  1.5396 -2.2034
 8977SOL     OW38566   3.283   3.179   4.437  0.3326 -0.6468  0.0789
 8977SOL    HW138567   3.263   3.219   4.521  1.1997 -0.7344  0.3287
 8977SOL    HW238568   3.201   3.195   4.389 -0.0734 -0.0568  0.9820
 8978SOL     OW38569   4.150   2.721   7.138  0.2625 -0.1540 -0.0817
 8978SOL    HW138570   4.239   2.728   7.172 -0.8508  0.5899  2.6888
 8978SOL    HW238571   4.104   2.668   7.203  0.5462  2.6354  2.3976
 8979SOL     OW38572   4.365   1.053   9.580 -0.1414 -0.4608 -0.0930
 8979SOL    HW138573   4.340   0.961   9.577 -0.0374 -0.4764 -0.4731
 8979SOL    HW238574   4.278   1.089   9.595  0.1964  0.7870 -1.0537
 8980SOL     OW38575   2.307   0.278   5.293 -0.2883 -0.2399  0.2483
 8980SOL    HW138576   2.371   0.347   5.281 -1.7598  1.1406  0.2995
 8980SOL    HW238577   2.233   0.309   5.240  0.2112  1.4032  0.5330
 8981SOL     OW38578   4.129   3.460   2.345  0.1326  0.1350  0.3244
 8981SOL    HW138579   4.134   3.366   2.331  3.0262  0.6653 -2.1520
 8981SOL    HW238580   4.055   3.465   2.405  0.0373  0.3656  0.1871
 8982SOL     OW38581   1.033   1.015   5.602 -0.2534 -0.1734 -0.3833
 8982SOL    HW138582   0.977   1.085   5.636  1.2513 -0.4452  2.5838
 8982SOL    HW238583   1.117   1.060   5.609  0.9072 -2.1012 -2.0809
 8983SOL     OW38584   1.048   1.564  15.893 -0.1457  0.0406  0.1800
 8983SOL    HW138585   1.026   1.655  15.915 -2.5255 -0.9617  1.9253
 8983SOL    HW238586   0.974   1.532  15.842 -0.0834  0.7331 -0.3479
 8984SOL     OW38587   0.608   3.162   4.379  0.0821  0.6388  0.0269
 8984SOL    HW138588   0.690   3.175   4.428  0.3687  1.3839 -0.6487
 8984SOL    HW238589   0.637   3.118   4.300  1.1767 -0.2331  0.9174
 8985SOL     OW38590   2.533   2.527  12.142 -0.2936  0.6521 -0.2284
 8985SOL    HW138591   2.613   2.565  12.106  1.4430 -1.1252  1.6750
 8985SOL    HW238592   2.475   2.602  12.153 -1.1883 -0.2587  1.2494
 8986SOL     OW38593   3.872   2.321   2.148 -0.1608  0.4449 -0.1872
 8986SOL    HW138594   3.945   2.280   2.193 -1.0537  0.5242  1.3334
 8986SOL    HW238595   3.911   2.402   2.115 -0.4984  1.3802  1.7491
 8987SOL     OW38596   1.982   2.900  15.449 -0.0638  0.9244  0.4338
 8987SOL    HW138597   1.973   2.850  15.368  1.9435  1.4631 -0.1121
 8987SOL    HW238598   1.972   2.835  15.519 -2.5300  3.2048  2.1911
 8988SOL     OW38599   0.381   4.567   5.233  0.1072 -0.3107  0.1077
 8988SOL    HW138600   0.335   4.632   5.287 -1.3753 -0.9847 -0.3543
 8988SOL    HW238601   0.385   4.495   5.296  0.3621  0.7452  1.3192
 8989SOL     OW38602   2.124   1.906  11.706 -0.4737  0.1257  0.1291
 8989SOL    HW138603   2.132   1.827  11.760 -0.9366  0.4248  0.6253
 8989SOL    HW238604   2.213   1.906  11.670 -0.5120 -0.6501  0.0285
 8990SOL     OW38605   3.991   3.341  10.171 -0.3248  0.3174  0.0964
 8990SOL    HW138606   3.902   3.352  10.136 -1.0423 -0.8505  1.5320
 8990SOL    HW238607   3.974   3.291  10.251  2.1208 -0.6784 -0.0244
 8991SOL     OW38608   0.905   3.113   4.101 -0.0633 -0.6305 -0.0099
 8991SOL    HW138609   0.833   3.176   4.092 -1.2231 -2.2542 -2.0864
 8991SOL    HW238610   0.856   3.039   4.136  1.3110 -0.4962  2.1898
 8992SOL     OW38611   2.117   3.594   5.318 -0.8209  0.2256 -0.3981
 8992SOL    HW138612   2.163   3.623   5.397 -0.7773 -0.6032 -0.1201
 8992SOL    HW238613   2.029   3.588   5.357 -0.6490  0.0468 -0.0323
 8993SOL     OW38614   2.103   1.496   1.474  0.1433 -0.4878 -0.0251
 8993SOL    HW138615   2.174   1.559   1.490  1.1002 -1.0140 -2.2272
 8993SOL    HW238616   2.145   1.412   1.458  1.5609 -0.4857  3.4907
 8994SOL     OW38617   1.274   3.822   5.478  0.3538 -0.1529  0.5891
 8994SOL    HW138618   1.341   3.890   5.473  1.2035 -1.1024 -0.8474
 8994SOL    HW238619   1.286   3.790   5.567 -2.0657  0.0459  1.0086
 8995SOL     OW38620   0.938   1.320   4.273 -0.1797 -0.1014 -0.1232
 8995SOL    HW138621   0.904   1.374   4.202  2.7229  2.4133  0.3737
 8995SOL    HW238622   0.930   1.379   4.348  0.8997  0.6189 -0.5663
 8996SOL     OW38623   3.564   1.065  16.870  0.6149 -0.3980 -0.4988
 8996SOL    HW138624   3.603   0.997  16.925  2.3117  0.6313 -0.4244
 8996SOL    HW238625   3.527   1.008  16.803 -0.0866 -0.7444  0.1820
 8997SOL     OW38626   3.948   2.545  16.371 -0.0446 -0.0723  0.0395
 8997SOL    HW138627   3.919   2.529  16.461  0.5625  0.2488  0.2957
 8997SOL    HW238628   3.863   2.554  16.329 -0.2310  0.2336  0.4744
 8998SOL     OW38629   1.492   2.510   2.357  0.1878 -0.5046 -0.0949
 8998SOL    HW138630   1.459   2.447   2.293  1.9196 -1.1496 -0.3760
 8998SOL    HW238631   1.418   2.570   2.361  0.8645  0.3158  0.0102
 8999SOL     OW38632   3.656   3.882   8.735  0.1009 -0.0629 -0.5316
 8999SOL    HW138633   3.675   3.856   8.645  1.0526  1.7341 -0.8586
 8999SOL    HW238634   3.563   3.903   8.731  0.3643  0.7138 -2.5992
 9000SOL     OW38635   0.801   2.306  15.570  0.1288 -0.2640 -0.4939
 9000SOL    HW138636   0.756   2.389  15.553 -0.4298 -0.4699 -0.0396
 9000SOL    HW238637   0.847   2.324  15.652  0.6564 -1.4796 -0.5284
 9001SOL     OW38638   4.022   0.125   7.109 -0.1207 -0.5306  0.3608
 9001SOL    HW138639   4.035   0.075   7.029 -0.3618  0.2954 -0.1997
 9001SOL    HW238640   4.079   0.202   7.100  0.0257 -0.6975 -0.1175
 9002SOL     OW38641   1.870   1.708   9.020  0.0710 -0.1530 -0.6004
 9002SOL    HW138642   1.838   1.785   9.068 -2.4834 -2.6139  1.6249
 9002SOL    HW238643   1.868   1.634   9.080  1.0879 -0.9876 -1.6067
 9003SOL     OW38644   0.921   3.798   4.145 -0.4970  0.4654 -0.1564
 9003SOL    HW138645   0.976   3.803   4.223 -1.0485 -0.3657  0.2841
 9003SOL    HW238646   0.973   3.731   4.102 -0.8129  1.2808 -1.8108
 9004SOL     OW38647   4.161   2.039  14.866 -0.2103  0.5814 -0.1036
 9004SOL    HW138648   4.213   2.101  14.815 -0.0096  0.1501 -0.4283
 9004SOL    HW238649   4.083   2.094  14.864  0.3856  1.4218 -0.0779
 9005SOL     OW38650   4.215   0.062   8.917  0.2492 -1.0023  0.2625
 9005SOL    HW138651   4.290   0.099   8.964 -0.8704  3.2939 -1.3558
 9005SOL    HW238652   4.162   0.043   8.995  0.5792 -0.2093  0.6845
 9006SOL     OW38653   3.249   3.543  12.353 -0.0900  0.7114 -0.0947
 9006SOL    HW138654   3.219   3.487  12.424  1.8185 -0.3130 -0.0885
 9006SOL    HW238655   3.190   3.617  12.372 -1.3162 -1.1253  3.3194
 9007SOL     OW38656   3.251   0.989   8.725  0.8069 -0.0772  0.0757
 9007SOL    HW138657   3.302   1.011   8.803  1.6854 -0.0778 -0.4960
 9007SOL    HW238658   3.278   1.057   8.663  0.5001 -0.1039 -0.0903
 9008SOL     OW38659   4.441   0.285  15.017  0.5603 -0.0807 -0.2196
 9008SOL    HW138660   4.511   0.224  14.995  0.4534 -0.6685  1.0684
 9008SOL    HW238661   4.394   0.245  15.090  0.7292  1.5457  0.7979
 9009SOL     OW38662   3.627   1.395  17.720 -0.2691  0.5556 -0.4662
 9009SOL    HW138663   3.668   1.313  17.748 -2.7121 -0.7310 -0.6190
 9009SOL    HW238664   3.630   1.393  17.624 -0.2761  0.9176 -0.4730
 9010SOL     OW38665   0.351   2.388  12.766  0.0080  0.3811  0.1505
 9010SOL    HW138666   0.340   2.459  12.828 -1.6842 -0.7379  1.1324
 9010SOL    HW238667   0.409   2.435  12.707 -0.9529 -0.1872 -1.2512
 9011SOL     OW38668   4.671   3.824   0.697 -0.4266  0.3165 -0.2925
 9011SOL    HW138669   4.685   3.771   0.618  2.3503 -0.8215  0.9447
 9011SOL    HW238670   4.646   3.751   0.754  0.7925 -0.5056 -0.8147
 9012SOL     OW38671   0.526   2.488   3.694  0.0643 -0.5945  0.8632
 9012SOL    HW138672   0.450   2.520   3.742  0.5467 -0.0115  1.2472
 9012SOL    HW238673   0.506   2.396   3.678  0.8717 -0.2448 -2.1339
 9013SOL     OW38674   3.564   0.299  14.509 -0.5997  0.2903  0.0795
 9013SOL    HW138675   3.519   0.268  14.431  0.3501  0.3625 -0.4974
 9013SOL    HW238676   3.650   0.332  14.484 -0.0404 -1.1079  0.1445
 9014SOL     OW38677   4.562   2.766   0.128  0.5765  0.1902 -0.2289
 9014SOL    HW138678   4.482   2.778   0.179  1.7062 -2.1200  2.0663
 9014SOL    HW238679   4.596   2.684   0.163 -2.2822 -1.0633 -0.3390
 9015SOL     OW38680   3.905   4.659   3.078 -0.8096 -0.2322  0.4340
 9015SOL    HW138681   3.887   4.643   3.170 -0.9371  2.8407  0.9418
 9015SOL    HW238682   3.888   4.572   3.041  1.0789 -0.1560 -0.6095
 9016SOL     OW38683   3.178   0.531   5.209 -0.9469 -0.2420 -0.3744
 9016SOL    HW138684   3.142   0.488   5.287  3.2193 -1.8526  0.6824
 9016SOL    HW238685   3.188   0.616   5.253  1.3586 -1.0542  0.6932
 9017SOL     OW38686   2.547   3.399   4.456  0.1268  0.1782  0.0686
 9017SOL    HW138687   2.590   3.438   4.380  0.8615  2.5042  1.6739
 9017SOL    HW238688   2.454   3.396   4.432 -0.4697  1.4034  2.2309
 9018SOL     OW38689   0.646   2.830   2.525 -0.0829 -0.3689 -0.0963
 9018SOL    HW138690   0.599   2.747   2.519  2.5463 -1.8495  0.0324
 9018SOL    HW238691   0.694   2.833   2.607 -1.4656 -0.4452  0.7115
 9019SOL     OW38692   4.316   2.942  17.623 -0.4395  0.5633 -0.4934
 9019SOL    HW138693   4.365   3.015  17.660  0.0296  0.8724 -1.7480
 9019SOL    HW238694   4.377   2.872  17.648 -0.5198  0.9916  0.9101
 9020SOL     OW38695   4.000   2.783  13.618  0.0794 -0.6178  0.5172
 9020SOL    HW138696   3.926   2.796  13.560 -1.0776 -1.8090  1.7327
 9020SOL    HW238697   4.031   2.874  13.620 -1.2645 -0.1454 -0.4586
 9021SOL     OW38698   0.710   3.007   1.853  0.2907 -0.1171  0.3775
 9021SOL    HW138699   0.668   2.936   1.902  0.8624 -2.4252 -2.4495
 9021SOL    HW238700   0.737   3.059   1.929 -0.4390  0.4549  0.2470
 9022SOL     OW38701   1.091   4.668  16.749 -0.3488  0.1218  0.7860
 9022SOL    HW138702   1.065   4.600  16.687  1.5158 -0.9389  1.1507
 9022SOL    HW238703   1.182   4.643  16.766 -0.5094  0.2528  1.8257
 9023SOL     OW38704   4.077   1.383   9.152  1.0324 -0.0116  0.4022
 9023SOL    HW138705   4.124   1.463   9.173 -1.5985  1.8027 -0.6376
 9023SOL    HW238706   4.150   1.334   9.114  0.6328 -2.1141  2.3030
 9024SOL     OW38707   3.394   4.657   8.532 -0.9416  0.4281  0.0262
 9024SOL    HW138708   3.479   4.652   8.577 -0.8309  0.9480 -0.1264
 9024SOL    HW238709   3.407   4.737   8.482  1.1904  1.1237  1.6619
 9025SOL     OW38710   1.514   3.386   0.213 -1.0964  0.1055 -0.3775
 9025SOL    HW138711   1.543   3.295   0.220  0.3761  0.6826  0.8185
 9025SOL    HW238712   1.474   3.398   0.299  0.3504  1.8247  0.0685
 9026SOL     OW38713   4.460   1.667   4.648  0.1644  0.5351 -0.0142
 9026SOL    HW138714   4.414   1.679   4.565  1.6841  0.7782 -0.8414
 9026SOL    HW238715   4.448   1.572   4.656  0.7721  0.3285 -1.5220
 9027SOL     OW38716   1.561   0.036   6.816 -0.2196  0.0349  0.1906
 9027SOL    HW138717   1.605   0.013   6.898 -0.0778  2.3632  0.7609
 9027SOL    HW238718   1.546   4.690   6.776  1.4786 -0.2624  0.1866
 9028SOL     OW38719   3.264   3.793   6.156  0.0133 -0.2801 -0.4826
 9028SOL    HW138720   3.357   3.785   6.139  0.4879  0.4429  1.8491
 9028SOL    HW238721   3.258   3.797   6.251  0.5528  0.7004 -0.4956
 9029SOL     OW38722   2.846   0.710  11.290 -0.3732 -0.8572 -0.6805
 9029SOL    HW138723   2.775   0.764  11.254  1.3884 -0.2895 -3.3239
 9029SOL    HW238724   2.811   0.629  11.327 -0.0391 -1.6096 -1.9869
 9030SOL     OW38725   0.668   2.634   8.768 -0.2947  0.5650 -0.2010
 9030SOL    HW138726   0.686   2.554   8.818 -1.2332 -1.0906 -2.5241
 9030SOL    HW238727   0.615   2.601   8.696  2.1183 -1.3374 -1.1229
 9031SOL     OW38728   3.736   0.725   8.407  0.3532  0.2762 -0.1482
 9031SOL    HW138729   3.774   0.797   8.458  0.1929 -0.4319  0.9724
 9031SOL    HW238730   3.765   0.745   8.319  3.2053  1.7193  1.1314
 9032SOL     OW38731   2.176   2.746   3.208  0.6098 -0.2018  0.1263
 9032SOL    HW138732   2.136   2.813   3.153 -0.5141 -1.2356 -0.3138
 9032SOL    HW238733   2.104   2.714   3.264 -0.9633  2.7929 -0.1952
 9033SOL     OW38734   4.577   1.589   7.247 -0.3111  0.2953  0.4140
 9033SOL    HW138735   4.608   1.620   7.332 -1.4270 -1.9587  1.6085
 9033SOL    HW238736   4.640   1.517   7.245 -0.8468 -0.1655  0.4799
 9034SOL     OW38737   0.581   0.937   2.103 -0.0582 -0.1350  0.4327
 9034SOL    HW138738   0.626   0.874   2.159  5.0907  3.5905  0.5468
 9034SOL    HW238739   0.579   1.023   2.146 -1.4980 -0.6576  1.3911
 9035SOL     OW38740   3.064   2.369   6.624  0.3839  0.3646  0.5194
 9035SOL    HW138741   3.035   2.360   6.715  1.2632  1.1019  0.8724
 9035SOL    HW238742   2.995   2.316   6.586  0.2091 -0.0429  1.3962
 9036SOL     OW38743   4.092   4.564   2.737 -0.3437  0.3160  0.2217
 9036SOL    HW138744   4.053   4.571   2.650  0.5424 -0.6250 -0.2465
 9036SOL    HW238745   4.031   4.500   2.774 -0.3504  0.0311 -0.2805
 9037SOL     OW38746   0.778   0.426   9.304  0.0582  0.1495  0.4642
 9037SOL    HW138747   0.715   0.433   9.376 -1.4939 -1.5650 -0.7243
 9037SOL    HW238748   0.862   0.423   9.350 -0.4643 -2.1932  1.2938
 9038SOL     OW38749   2.589   4.344   6.709  0.0753  0.4928 -0.3047
 9038SOL    HW138750   2.603   4.278   6.777  0.1469 -0.0105 -0.8073
 9038SOL    HW238751   2.499   4.331   6.679  0.0578 -1.7590  0.7329
 9039SOL     OW38752   2.806   4.738   8.593 -0.0435 -0.0477  0.1783
 9039SOL    HW138753   2.844   0.046   8.667 -0.5326 -1.1132  1.1155
 9039SOL    HW238754   2.799   4.650   8.629  1.4513  0.3725  1.4873
 9040SOL     OW38755   1.999   0.315  13.848  0.1797 -0.0525 -0.3041
 9040SOL    HW138756   1.903   0.308  13.848  0.1269  0.5269  2.6552
 9040SOL    HW238757   2.000   0.401  13.889 -0.5761 -0.1593 -0.0413
 9041SOL     OW38758   1.090   1.197   3.915 -0.3078  0.3722 -1.1078
 9041SOL    HW138759   1.048   1.263   3.861  0.5471  1.8833  0.0431
 9041SOL    HW238760   1.016   1.163   3.964 -0.5148 -1.7074 -2.8818
 9042SOL     OW38761   0.506   4.550   2.087 -0.1574  0.6980  0.0516
 9042SOL    HW138762   0.563   4.487   2.132 -0.5289  0.2262 -0.1399
 9042SOL    HW238763   0.420   4.528   2.122 -0.5776 -0.0801 -1.4779
 9043SOL     OW38764   1.167   2.663   0.130 -0.1266 -0.0081 -0.5424
 9043SOL    HW138765   1.084   2.687   0.171 -0.4324 -0.1122 -1.1135
 9043SOL    HW238766   1.139   2.668   0.039 -1.4731  0.1970 -0.1130
 9044SOL     OW38767   4.043   3.831   8.414 -0.4020 -0.1663  0.1759
 9044SOL    HW138768   4.078   3.920   8.406  0.1753 -0.3873  0.2524
 9044SOL    HW238769   4.008   3.830   8.325 -1.0882 -3.0997  0.5002
 9045SOL     OW38770   1.777   2.293   6.016 -0.1131  0.3936  0.3208
 9045SOL    HW138771   1.683   2.313   6.009 -0.0036  0.4415 -1.0286
 9045SOL    HW238772   1.810   2.342   5.941  2.4566 -0.6956  0.7546
 9046SOL     OW38773   2.316   2.730   6.827  0.3081  0.1303  0.4036
 9046SOL    HW138774   2.235   2.698   6.787  0.7060  1.6002 -1.5350
 9046SOL    HW238775   2.349   2.784   6.755 -0.6272 -0.0875 -0.1866
 9047SOL     OW38776   4.553   1.363   3.130 -0.5066  0.0930 -0.1548
 9047SOL    HW138777   4.580   1.439   3.079  1.7649 -0.1669  0.6662
 9047SOL    HW238778   4.600   1.379   3.212 -1.8453  0.3518  0.5746
 9048SOL     OW38779   1.816   2.198  16.603  0.4081 -0.4182  0.7590
 9048SOL    HW138780   1.774   2.237  16.527  3.6315 -0.1408 -0.8955
 9048SOL    HW238781   1.896   2.249  16.614 -0.7176  0.8741  2.9066
 9049SOL     OW38782   1.555   0.298   7.887  0.3383 -0.2783  0.1008
 9049SOL    HW138783   1.532   0.209   7.915  0.2991 -0.7025 -1.2777
 9049SOL    HW238784   1.641   0.288   7.846  0.2949 -0.0375 -0.0454
 9050SOL     OW38785   1.782   0.968   2.382 -0.1705  0.1069  0.3223
 9050SOL    HW138786   1.734   1.041   2.343 -1.3879 -2.1302 -2.4613
 9050SOL    HW238787   1.865   1.014   2.396 -1.1135  1.1637  2.3160
 9051SOL     OW38788   2.098   2.886   7.665  0.4223 -0.1214  0.0197
 9051SOL    HW138789   2.120   2.812   7.608  0.0344 -0.0339 -0.2432
 9051SOL    HW238790   2.182   2.888   7.712 -0.6685  0.4822  1.9268
 9052SOL     OW38791   0.175   3.321   7.347  0.0677  0.5367 -0.2565
 9052SOL    HW138792   0.095   3.271   7.330 -0.9458  1.7446  0.9116
 9052SOL    HW238793   0.195   3.356   7.260  4.0495 -2.2046 -0.4505
 9053SOL     OW38794   0.030   3.774  11.016 -0.2236  0.4411 -0.0070
 9053SOL    HW138795   4.725   3.858  11.027 -1.3780  0.1982 -3.0030
 9053SOL    HW238796   0.007   3.714  11.087  1.5684 -0.8358 -0.5048
 9054SOL     OW38797   1.124   1.885  14.474  0.2652  0.2899  0.0139
 9054SOL    HW138798   1.192   1.840  14.424  1.7764  2.1791  0.3620
 9054SOL    HW238799   1.191   1.929  14.526 -0.0035  1.1639 -0.3681
 9055SOL     OW38800   3.747   1.138   0.049 -0.2174  0.1679 -0.4712
 9055SOL    HW138801   3.695   1.058   0.059  1.2290 -0.8052 -0.7470
 9055SOL    HW238802   3.833   1.098   0.047 -0.1508  0.3197 -0.6975
 9056SOL     OW38803   0.141   3.870   7.009 -0.1551 -0.2610  0.6051
 9056SOL    HW138804   0.183   3.813   7.073  0.8189 -0.0021  0.1968
 9056SOL    HW238805   0.048   3.848   7.019 -0.4609  0.0999 -1.4074
 9057SOL     OW38806   0.016   1.425  10.994 -0.1966  0.2365  0.7599
 9057SOL    HW138807   0.045   1.388  10.910 -2.2098 -0.9082  0.5626
 9057SOL    HW238808   0.089   1.405  11.051 -0.2877 -0.1428  0.7437
 9058SOL     OW38809   0.774   3.869   6.777 -0.4074  0.4282 -0.1950
 9058SOL    HW138810   0.733   3.865   6.863  0.5900  0.5335  0.2811
 9058SOL    HW238811   0.849   3.929   6.784  0.5268 -0.8771  1.0930
 9059SOL     OW38812   4.274   1.638   3.413 -0.0951 -0.4911  0.2210
 9059SOL    HW138813   4.306   1.558   3.372 -0.3271 -2.1313  3.2176
 9059SOL    HW238814   4.208   1.667   3.350  0.8475  0.6370 -0.2449
 9060SOL     OW38815   4.453   2.209   3.854  0.3749 -0.2282 -0.2589
 9060SOL    HW138816   4.422   2.217   3.764 -0.8781  2.8547  0.4500
 9060SOL    HW238817   4.547   2.201   3.838  0.5504 -0.7580  1.0609
 9061SOL     OW38818   3.206   0.508   9.579 -0.1247 -0.0529  0.0206
 9061SOL    HW138819   3.302   0.506   9.577 -0.1056  2.6048 -1.6694
 9061SOL    HW238820   3.193   0.599   9.603 -0.5318  0.7539 -3.1935
 9062SOL     OW38821   3.152   3.979   1.779 -0.3331 -0.1788  0.2176
 9062SOL    HW138822   3.067   4.016   1.755  0.3060  0.4567 -1.0954
 9062SOL    HW238823   3.123   3.900   1.824 -1.7629 -0.0908 -0.5663
 9063SOL     OW38824   3.062   3.299   5.920  0.0876 -0.0082  0.3381
 9063SOL    HW138825   3.120   3.276   5.992 -0.5225 -0.3525  0.7191
 9063SOL    HW238826   2.975   3.272   5.949 -0.3481  1.1927  0.1118
 9064SOL     OW38827   0.429   1.966   5.655 -0.2071 -0.2504 -0.2872
 9064SOL    HW138828   0.339   1.998   5.660 -0.3122 -1.0521  2.8515
 9064SOL    HW238829   0.454   2.001   5.570 -1.3274 -0.1050 -0.5556
 9065SOL     OW38830   3.598   4.010  11.924 -0.5784 -0.4841  0.2667
 9065SOL    HW138831   3.512   4.045  11.944 -0.3319  0.1451  0.2380
 9065SOL    HW238832   3.610   4.080  11.860 -0.6422 -0.8351 -0.1254
 9066SOL     OW38833   1.830   2.433   8.248  0.2230 -0.1784 -0.6696
 9066SOL    HW138834   1.752   2.449   8.195  0.5503  1.5239 -0.6370
 9066SOL    HW238835   1.797   2.418   8.336 -1.2343 -0.2353 -1.2256
 9067SOL     OW38836   2.389   4.276   0.178  0.3762 -0.2864 -0.2633
 9067SOL    HW138837   2.302   4.239   0.193  0.3043 -1.0543 -2.6024
 9067SOL    HW238838   2.378   4.336   0.105 -0.6572 -0.3009 -0.1239
 9068SOL     OW38839   3.848   4.066  12.871  0.3265  0.8181 -0.0882
 9068SOL    HW138840   3.764   4.023  12.856  0.2850  0.5750  0.8304
 9068SOL    HW238841   3.815   4.145  12.915 -0.7222  0.3770 -0.0702
 9069SOL     OW38842   4.173   0.189   7.749 -0.3839 -0.4075 -0.4369
 9069SOL    HW138843   4.124   0.122   7.701 -1.1283 -1.2148  1.4565
 9069SOL    HW238844   4.160   0.272   7.702 -0.8326 -0.3058 -0.1339
 9070SOL     OW38845   2.081   1.282   9.030  0.2522 -0.7076  0.4680
 9070SOL    HW138846   2.112   1.234   9.107 -0.3607 -1.1398  0.4425
 9070SOL    HW238847   2.152   1.258   8.971 -0.1721  0.0732 -0.3614
 9071SOL     OW38848   3.033   1.362   3.040  0.3468  0.3576 -0.2895
 9071SOL    HW138849   2.994   1.277   3.018 -0.1358  0.5111 -0.0310
 9071SOL    HW238850   2.972   1.424   2.999  2.7339  1.6432 -1.8429
 9072SOL     OW38851   3.377   2.253  13.607 -0.0069  0.2957  0.3866
 9072SOL    HW138852   3.399   2.326  13.549  3.3144 -1.0187  0.0023
 9072SOL    HW238853   3.344   2.193  13.541  2.1591  0.8720 -1.2342
 9073SOL     OW38854   0.062   3.111   3.968  0.5223  0.2297 -0.1833
 9073SOL    HW138855   4.708   3.116   3.981  0.3531 -1.1856 -0.9133
 9073SOL    HW238856   0.097   3.109   4.057  2.0212 -1.4523 -0.7933
 9074SOL     OW38857   1.685   0.158   2.493 -0.0379 -0.3823 -0.4348
 9074SOL    HW138858   1.676   0.253   2.487 -0.8525 -0.3957  0.7059
 9074SOL    HW238859   1.725   0.137   2.577 -0.2229  1.9055  0.2189
 9075SOL     OW38860   1.028   1.369   7.420 -0.0049  0.0215  0.8022
 9075SOL    HW138861   0.934   1.376   7.438 -0.2568 -1.8605  0.2071
 9075SOL    HW238862   1.021   1.317   7.340 -0.4827  2.4708 -0.7698
 9076SOL     OW38863   2.965   2.520   1.824 -0.5074  0.0669  0.2174
 9076SOL    HW138864   2.907   2.587   1.861  1.5319  0.6498  2.3413
 9076SOL    HW238865   2.982   2.472   1.905  1.2539 -1.6562 -1.1828
 9077SOL     OW38866   4.490   0.907  15.459 -0.2242  0.4819  0.0007
 9077SOL    HW138867   4.541   0.837  15.500 -2.6231 -2.3546 -1.8687
 9077SOL    HW238868   4.452   0.853  15.390  0.1808  0.6980 -0.3890
 9078SOL     OW38869   3.891   1.156   9.123  0.0458  0.0151 -0.0647
 9078SOL    HW138870   3.942   1.236   9.139  1.2442 -0.6398 -0.6619
 9078SOL    HW238871   3.922   1.129   9.037 -0.1424  0.3326 -0.2317
 9079SOL     OW38872   4.408   3.676   3.412  0.0150  0.3079 -0.3513
 9079SOL    HW138873   4.353   3.755   3.414  0.7360  0.8182 -0.6621
 9079SOL    HW238874   4.355   3.628   3.476 -1.8505 -0.2436 -2.3247
 9080SOL     OW38875   2.361   0.159   8.547 -0.0415 -0.0820 -0.0314
 9080SOL    HW138876   2.282   0.108   8.526  0.2120 -1.1528  1.6768
 9080SOL    HW238877   2.345   0.253   8.541  0.2231 -0.0958 -0.9246
 9081SOL     OW38878   3.725   4.159   1.643  0.0129 -0.2545  0.1591
 9081SOL    HW138879   3.709   4.252   1.632  0.6869 -0.2593 -0.9115
 9081SOL    HW238880   3.694   4.123   1.560  2.3391 -2.8458  0.3763
 9082SOL     OW38881   0.255   4.078   6.605 -0.3549 -0.5649  0.1625
 9082SOL    HW138882   0.216   3.995   6.575 -1.4393 -0.3660  1.0020
 9082SOL    HW238883   0.263   4.075   6.700 -1.5461 -1.7429  0.2427
 9083SOL     OW38884   0.063   0.883   8.097 -0.9472  0.1371 -0.2300
 9083SOL    HW138885   0.001   0.955   8.110  2.2688  2.7986  0.3642
 9083SOL    HW238886   0.075   0.881   8.002  2.1488  0.3670  0.1829
 9084SOL     OW38887   2.457   0.658   1.593  0.3359 -0.4527 -0.1884
 9084SOL    HW138888   2.507   0.601   1.650  3.0331  1.0889 -1.0114
 9084SOL    HW238889   2.397   0.712   1.645  1.1121  0.1761  0.0437
 9085SOL     OW38890   2.592   0.486   3.415  0.5816  0.4996 -0.2493
 9085SOL    HW138891   2.602   0.495   3.320  1.7195  2.2122  0.0235
 9085SOL    HW238892   2.513   0.432   3.421 -0.5821  2.4563  2.1213
 9086SOL     OW38893   0.653   0.937   5.481 -0.5348 -0.0834 -0.4715
 9086SOL    HW138894   0.632   0.895   5.564 -1.5757  0.0084 -0.6901
 9086SOL    HW238895   0.715   0.875   5.444  0.1351  0.6961 -0.6707
 9087SOL     OW38896   3.614   4.068   1.408 -0.3410  0.1279 -0.2952
 9087SOL    HW138897   3.540   4.125   1.430 -1.1083 -1.7221  1.8872
 9087SOL    HW238898   3.575   3.981   1.402  2.6147 -1.0374 -2.2441
 9088SOL     OW38899   3.584   0.490   6.893 -0.3364 -0.2401 -0.6552
 9088SOL    HW138900   3.521   0.552   6.930  1.1150 -0.3670  2.0291
 9088SOL    HW238901   3.595   0.528   6.805 -0.7912 -2.9807 -1.9041
 9089SOL     OW38902   1.141   2.203   7.935 -0.0825 -0.6207  0.2619
 9089SOL    HW138903   1.137   2.167   8.024 -0.3316  0.3324  0.6367
 9089SOL    HW238904   1.081   2.152   7.882 -2.2844  1.5304  0.6758
 9090SOL     OW38905   1.262   2.270   6.515  0.0092  0.4114  0.6710
 9090SOL    HW138906   1.266   2.308   6.603 -0.5734  3.2555 -0.4991
 9090SOL    HW238907   1.339   2.318   6.484 -1.1926  1.3417 -0.9011
 9091SOL     OW38908   0.371   0.463   5.254 -0.2406 -0.4875  0.1673
 9091SOL    HW138909   0.416   0.515   5.320  1.1478  0.4537 -1.5063
 9091SOL    HW238910   0.293   0.429   5.298 -3.0277  1.5508 -3.1982
 9092SOL     OW38911   2.018   3.303  16.411 -0.3950 -0.3421 -0.1405
 9092SOL    HW138912   2.100   3.267  16.444  0.7204  1.3802 -1.0428
 9092SOL    HW238913   1.963   3.303  16.490  0.6186 -1.6166  0.5569
 9093SOL     OW38914   4.422   2.994  15.571 -0.3530 -0.1266 -0.0739
 9093SOL    HW138915   4.331   2.971  15.588 -0.3170 -0.9889 -1.0346
 9093SOL    HW238916   4.407   3.067  15.510  0.3317 -1.1879 -1.5172
 9094SOL     OW38917   4.395   0.412   6.721  0.3575  0.3878 -0.1834
 9094SOL    HW138918   4.450   0.358   6.665 -0.6324  0.6018 -1.3751
 9094SOL    HW238919   4.351   0.470   6.658 -0.6201 -1.9418 -1.6307
 9095SOL     OW38920   0.665   0.169   6.746  0.0811  0.6981 -0.1196
 9095SOL    HW138921   0.667   0.106   6.819  2.8456  0.0534 -0.7762
 9095SOL    HW238922   0.697   0.248   6.790  0.0581  0.9901 -0.6371
 9096SOL     OW38923   3.154   3.928   4.588  0.0996 -0.0615  0.3522
 9096SOL    HW138924   3.124   4.016   4.610 -0.3307 -0.1413  0.0981
 9096SOL    HW238925   3.080   3.888   4.542 -1.3235  1.2400  1.5240
 9097SOL     OW38926   2.886   4.521   2.035  0.4404 -0.5897  0.0667
 9097SOL    HW138927   2.861   4.567   1.956  0.1878 -0.5719  0.1593
 9097SOL    HW238928   2.806   4.534   2.085 -0.4014 -1.2688 -1.1280
 9098SOL     OW38929   3.296   4.013  10.438  0.1526 -0.0491 -0.1356
 9098SOL    HW138930   3.346   3.997  10.518 -0.7410 -4.0781 -0.3960
 9098SOL    HW238931   3.248   4.090  10.468 -0.5490 -0.4557 -0.2083
 9099SOL     OW38932   4.339   0.762   1.373  0.4873  0.7359 -0.3005
 9099SOL    HW138933   4.277   0.721   1.313  0.6483  1.3102 -0.8547
 9099SOL    HW238934   4.333   0.707   1.452  1.2092  1.0275 -0.0380
 9100SOL     OW38935   0.300   3.307  13.521  0.1370  0.4785  0.0095
 9100SOL    HW138936   0.357   3.379  13.548 -1.3393  1.9542 -0.7897
 9100SOL    HW238937   0.350   3.228  13.542 -0.5411  0.1559  0.4123
 9101SOL     OW38938   4.708   2.059  13.410 -0.3922  0.6539 -0.2310
 9101SOL    HW138939   0.046   2.008  13.430 -1.3601 -1.8473 -2.8201
 9101SOL    HW238940   4.715   2.127  13.477 -3.0465 -0.0650  0.7835
 9102SOL     OW38941   2.165   0.116  12.996 -0.1969 -0.0697 -0.0728
 9102SOL    HW138942   2.164   0.149  13.086  1.1199 -0.7395  0.1827
 9102SOL    HW238943   2.075   0.085  12.988 -0.6962  1.3623 -0.1250
 9103SOL     OW38944   3.117   0.029  17.365  0.4094 -0.2514 -0.1188
 9103SOL    HW138945   3.171   0.050  17.441  1.0261 -1.4996 -0.2257
 9103SOL    HW238946   3.043   0.007  17.421 -0.7863  0.5996 -1.3692
 9104SOL     OW38947   2.217   0.616   9.312 -0.1154 -0.2166  0.0678
 9104SOL    HW138948   2.292   0.641   9.366 -0.4175  2.1030 -0.6018
 9104SOL    HW238949   2.261   0.554   9.255  0.5475 -0.3890  0.7601
 9105SOL     OW38950   3.623   1.721  15.232 -0.4646  0.3909 -0.2318
 9105SOL    HW138951   3.540   1.769  15.224  0.3539  1.8311 -0.1891
 9105SOL    HW238952   3.687   1.791  15.219  0.5487 -0.1855  1.5975
 9106SOL     OW38953   0.274   4.675   6.077  0.0926  0.2215  0.1729
 9106SOL    HW138954   0.248   4.610   6.142 -1.1773 -0.5161 -1.0583
 9106SOL    HW238955   0.360   4.645   6.049 -0.9455 -1.4178 -1.2768
 9107SOL     OW38956   2.489   2.164   6.424 -0.1307 -0.0850 -0.0517
 9107SOL    HW138957   2.423   2.116   6.373 -0.8114  1.7417 -0.9160
 9107SOL    HW238958   2.561   2.161   6.361  1.5127  3.0946  1.7116
 9108SOL     OW38959   3.796   1.735   3.519  0.5433 -0.6032 -0.3825
 9108SOL    HW138960   3.823   1.770   3.604 -0.2878  0.3766 -0.5215
 9108SOL    HW238961   3.747   1.813   3.493 -1.5085 -1.5833  0.5587
 9109SOL     OW38962   0.791   4.175   8.043  0.3524 -0.0924 -0.4587
 9109SOL    HW138963   0.776   4.248   8.104 -0.4374 -0.7444  0.1252
 9109SOL    HW238964   0.843   4.221   7.977  0.5474 -1.0172 -0.9480
 9110SOL     OW38965   1.049   2.167   1.161  0.0012 -0.1468  0.3115
 9110SOL    HW138966   1.097   2.095   1.202  0.2812  0.7055  1.5132
 9110SOL    HW238967   1.051   2.142   1.069  3.8586 -0.2825  0.4064
 9111SOL     OW38968   4.538   3.332  12.458 -0.4924  0.2055 -1.1461
 9111SOL    HW138969   4.585   3.341  12.541 -2.8457 -0.7949  0.2723
 9111SOL    HW238970   4.586   3.256  12.424  1.5830  0.0772  2.0527
 9112SOL     OW38971   2.322   4.707   4.365  0.1357  0.0198 -0.2688
 9112SOL    HW138972   2.331   0.062   4.352  1.3712 -0.0266  0.1944
 9112SOL    HW238973   2.414   4.680   4.358 -0.1555 -1.3130  1.2377
 9113SOL     OW38974   2.203   4.253   8.763  0.0894  0.0690  0.1948
 9113SOL    HW138975   2.252   4.253   8.681  1.2567 -0.8519  0.8854
 9113SOL    HW238976   2.113   4.259   8.731  1.0322 -0.6500 -2.6388
 9114SOL     OW38977   1.591   0.722   6.067 -0.3364 -0.1021  0.0121
 9114SOL    HW138978   1.509   0.736   6.020 -0.6315 -1.5517  0.0713
 9114SOL    HW238979   1.562   0.673   6.144  1.9816 -0.3198  0.7451
 9115SOL     OW38980   3.386   2.746   6.640 -0.4200 -0.5561 -0.5763
 9115SOL    HW138981   3.458   2.809   6.635 -1.1509  0.3218  0.1678
 9115SOL    HW238982   3.434   2.676   6.685  0.1365 -0.0971 -0.4559
 9116SOL     OW38983   1.441   3.652  14.845 -0.0695 -0.4164 -0.2634
 9116SOL    HW138984   1.450   3.583  14.911  0.6837 -1.0954 -1.0809
 9116SOL    HW238985   1.433   3.734  14.892  0.9350 -1.0776  1.0534
 9117SOL     OW38986   1.133   0.265   8.868 -0.2638 -0.7351  0.1897
 9117SOL    HW138987   1.074   0.196   8.840 -0.7264  0.2378 -1.2170
 9117SOL    HW238988   1.116   0.265   8.963 -3.2894 -0.4000 -0.3631
 9118SOL     OW38989   2.710   0.385   2.660 -0.3075 -0.8132  0.2674
 9118SOL    HW138990   2.767   0.380   2.736  0.8958 -0.5780 -0.6145
 9118SOL    HW238991   2.626   0.354   2.694 -1.1813  0.9436 -0.2890
 9119SOL     OW38992   1.086   3.120   6.265 -0.1126 -0.6394  0.1660
 9119SOL    HW138993   1.080   3.109   6.360  0.0724  2.1899  0.4933
 9119SOL    HW238994   1.027   3.054   6.230 -0.7441 -0.3128  0.6283
 9120SOL     OW38995   1.031   1.960   5.452  0.0122  0.0782 -0.3020
 9120SOL    HW138996   1.068   1.873   5.441  1.5401  0.7090 -0.2162
 9120SOL    HW238997   1.005   1.985   5.363 -1.6183  1.1639  0.4622
 9121SOL     OW38998   4.476   1.786   6.189  0.6830 -0.7534  0.3227
 9121SOL    HW138999   4.421   1.815   6.262  0.6673  0.1489 -0.0404
 9121SOL    HW239000   4.428   1.837   6.124 -1.2227 -0.6499  1.8029
 9122SOL     OW39001   2.150   2.301   4.037 -0.5299  0.2123 -0.2594
 9122SOL    HW139002   2.130   2.271   3.949 -2.0411  1.6901 -0.4100
 9122SOL    HW239003   2.160   2.222   4.090  1.4096  1.2815  0.9904
 9123SOL     OW39004   2.293   2.544   4.014  0.4452 -0.0833  0.2136
 9123SOL    HW139005   2.257   2.457   4.024 -3.5784  1.4554 -0.7956
 9123SOL    HW239006   2.240   2.588   4.081  0.5645  0.3786  0.0086
 9124SOL     OW39007   2.174   0.368   8.723  0.0887  0.1841  0.5870
 9124SOL    HW139008   2.111   0.427   8.765  0.5753  1.8978 -1.1316
 9124SOL    HW239009   2.122   0.287   8.723 -1.3261  1.0841  2.2589
 9125SOL     OW39010   3.482   0.653   5.410 -0.2297 -0.2996  0.3060
 9125SOL    HW139011   3.440   0.575   5.446  1.7551 -2.0102 -1.0790
 9125SOL    HW239012   3.408   0.702   5.376  0.3563 -1.1584 -2.2778
 9126SOL     OW39013   0.701   1.999  16.412  0.4120 -0.0194  0.5984
 9126SOL    HW139014   0.734   2.088  16.399 -0.7364  0.6130  1.9931
 9126SOL    HW239015   0.632   2.007  16.347 -0.7028  1.7084  1.9759
 9127SOL     OW39016   4.425   2.670   5.391 -0.5679  0.4814  0.5613
 9127SOL    HW139017   4.386   2.582   5.394 -0.0766  0.2750  0.8554
 9127SOL    HW239018   4.350   2.729   5.397 -0.9815  0.0009  0.2142
 9128SOL     OW39019   1.072   1.249  12.329  0.3415  0.0106 -0.3390
 9128SOL    HW139020   1.099   1.184  12.265 -1.8094  1.6776 -2.9480
 9128SOL    HW239021   1.034   1.207  12.407 -0.3879 -0.0538 -0.7287
 9129SOL     OW39022   0.679   0.088   6.403 -0.0285 -0.3744 -0.1776
 9129SOL    HW139023   0.654   0.171   6.363 -0.4620 -0.8565 -0.9116
 9129SOL    HW239024   0.772   0.096   6.424 -0.0328  0.9737 -0.6456
 9130SOL     OW39025   1.540   2.916   5.556 -0.0576 -0.4412  0.5032
 9130SOL    HW139026   1.596   2.920   5.478  0.5734 -0.0846  0.9743
 9130SOL    HW239027   1.598   2.938   5.630 -1.0824  1.6705  0.6772
 9131SOL     OW39028   4.306   1.990  14.136 -0.3021 -0.4485  0.4596
 9131SOL    HW139029   4.274   2.080  14.147  1.7972  0.1844  1.4802
 9131SOL    HW239030   4.248   1.926  14.176  0.6283 -1.1633  0.6734
 9132SOL     OW39031   3.770   0.187   7.236  0.2353  0.0218  0.5316
 9132SOL    HW139032   3.853   0.178   7.190  0.2923  0.1999  0.5971
 9132SOL    HW239033   3.702   0.180   7.169 -0.3125 -0.1054  1.0969
 9133SOL     OW39034   1.927   4.560   3.937  0.2488 -0.9200  0.0348
 9133SOL    HW139035   1.875   4.487   3.971 -0.3843 -0.9686 -1.0328
 9133SOL    HW239036   2.007   4.554   3.989  1.6759  0.1369 -2.0237
 9134SOL     OW39037   4.333   0.298   8.373 -0.5664 -0.2902 -0.3301
 9134SOL    HW139038   4.331   0.364   8.304  0.0943 -0.4746 -0.5219
 9134SOL    HW239039   4.290   0.226   8.326 -1.3846 -0.7127  1.0601
 9135SOL     OW39040   3.690   1.896   7.376  0.2660  0.0804 -0.0752
 9135SOL    HW139041   3.715   1.951   7.449 -1.0533  1.1090 -0.3803
 9135SOL    HW239042   3.704   1.811   7.417 -0.3804 -0.3921 -0.8098
 9136SOL     OW39043   1.404   1.430   7.342  0.1675 -0.0153  0.4804
 9136SOL    HW139044   1.437   1.351   7.386  0.6437 -0.7119 -1.1059
 9136SOL    HW239045   1.410   1.405   7.249 -1.0513 -2.0570  0.9675
 9137SOL     OW39046   0.076   2.960   7.364 -0.6961 -0.2527  0.6275
 9137SOL    HW139047   0.105   3.006   7.443  0.4781  0.1920 -0.0590
 9137SOL    HW239048   0.049   2.881   7.411  1.0773 -3.1178 -3.1702
 9138SOL     OW39049   1.448   2.853   7.388 -0.4731  0.0302  0.1309
 9138SOL    HW139050   1.481   2.791   7.453 -1.1558 -2.0199 -1.4879
 9138SOL    HW239051   1.433   2.936   7.433 -1.1556  0.4043 -0.7827
 9139SOL     OW39052   3.391   0.963   2.781  0.0377 -0.3582 -0.2389
 9139SOL    HW139053   3.355   1.033   2.835  1.7029  2.1464 -2.3792
 9139SOL    HW239054   3.477   1.003   2.773 -0.5116  0.7056 -0.8545
 9140SOL     OW39055   2.514   4.006  14.921 -0.0207  0.4607  0.5083
 9140SOL    HW139056   2.512   3.911  14.912  1.2246  0.4346  0.4689
 9140SOL    HW239057   2.460   4.020  14.998  0.1558  1.3933  0.4690
 9141SOL     OW39058   3.566   0.100  14.737 -0.1357 -0.6954  0.7090
 9141SOL    HW139059   3.589   0.163  14.668  1.4309 -1.1116  0.8520
 9141SOL    HW239060   3.626   0.132  14.804 -0.2097  1.6756 -0.3533
 9142SOL     OW39061   1.174   1.765  12.343  0.0975  0.3359  0.4947
 9142SOL    HW139062   1.153   1.671  12.351 -2.8810  0.9769  0.3708
 9142SOL    HW239063   1.258   1.779  12.385 -0.7818 -0.8778  2.7058
 9143SOL     OW39064   2.931   1.024  14.434  0.0103 -0.0588 -0.3999
 9143SOL    HW139065   2.843   1.020  14.398 -0.0843  0.5259 -0.2299
 9143SOL    HW239066   2.971   1.084  14.370  0.0048 -0.7688 -1.0661
 9144SOL     OW39067   0.257   0.569   4.145 -0.6649  0.1054 -0.0436
 9144SOL    HW139068   0.240   0.609   4.060  1.6247 -0.8489 -0.9346
 9144SOL    HW239069   0.341   0.606   4.171  0.5814 -2.0077 -1.0718
 9145SOL     OW39070   4.067   1.278  17.682  0.0809 -0.0699 -0.3867
 9145SOL    HW139071   4.010   1.207  17.712  3.0380 -1.0979  2.7370
 9145SOL    HW239072   4.150   1.244  17.715  1.2500  0.3772 -2.9509
 9146SOL     OW39073   0.450   0.321   0.847 -0.2781 -0.5517 -0.1970
 9146SOL    HW139074   0.365   0.325   0.892 -0.7002 -0.1930 -1.0364
 9146SOL    HW239075   0.415   0.340   0.760  2.1467  1.2159 -0.7774
 9147SOL     OW39076   0.605   3.041   6.598 -0.6696  0.1352 -0.5140
 9147SOL    HW139077   0.544   3.058   6.669 -1.5080 -1.9258 -0.7399
 9147SOL    HW239078   0.568   3.078   6.518  0.8546 -0.8566 -1.6935
 9148SOL     OW39079   2.257   0.428   2.812 -0.3553  0.5849 -0.3316
 9148SOL    HW139080   2.227   0.468   2.730 -1.8713 -2.4623 -1.2727
 9148SOL    HW239081   2.332   0.374   2.785 -1.2578 -0.7194 -0.2555
 9149SOL     OW39082   0.054   0.975   0.859 -0.1650 -1.3153 -0.0683
 9149SOL    HW139083   0.052   0.880   0.861  0.6360 -1.3765 -2.5866
 9149SOL    HW239084   0.067   0.991   0.765 -0.5287 -1.5046 -0.1496
 9150SOL     OW39085   3.951   1.138   7.074  0.8214  0.1846 -0.5697
 9150SOL    HW139086   3.931   1.121   6.982  0.3915  2.3919 -0.8756
 9150SOL    HW239087   4.011   1.209   7.052 -0.6988  1.1072 -1.7528
 9151SOL     OW39088   0.273   3.630   6.367 -0.0126  0.2292 -0.3930
 9151SOL    HW139089   0.324   3.700   6.326 -1.7436  1.7732  0.0874
 9151SOL    HW239090   0.309   3.545   6.342 -1.7263 -0.3813 -0.7930
 9152SOL     OW39091   1.304   3.735   8.271 -0.7334 -0.1478  0.1124
 9152SOL    HW139092   1.343   3.656   8.232 -0.8314  0.2868 -0.8640
 9152SOL    HW239093   1.377   3.781   8.312 -1.9142  1.5789  0.2365
 9153SOL     OW39094   4.531   2.330   0.567  0.3926  0.2217  0.1886
 9153SOL    HW139095   4.617   2.308   0.602 -0.0910 -0.1043  1.1894
 9153SOL    HW239096   4.531   2.292   0.480  0.6040  0.3258  0.1418
 9154SOL     OW39097   2.845   1.671   9.977  0.9483 -0.2085 -0.6861
 9154SOL    HW139098   2.751   1.672   9.994  0.7113 -2.0101 -1.9458
 9154SOL    HW239099   2.866   1.579   9.967  1.2813 -0.1252 -0.7581
 9155SOL     OW39100   3.438   3.988  12.390 -0.5033  0.1427 -0.0757
 9155SOL    HW139101   3.490   4.065  12.413 -0.9632 -0.1317  1.8888
 9155SOL    HW239102   3.372   4.028  12.334  0.2085 -0.7106 -1.5419
 9156SOL     OW39103   2.314   3.704  15.502 -1.2369  0.2075  0.1396
 9156SOL    HW139104   2.226   3.734  15.528 -0.4885  1.6840  0.9886
 9156SOL    HW239105   2.298   3.610  15.500  1.1257 -0.1550 -1.4688
 9157SOL     OW39106   3.431   4.174  16.816 -0.6970 -0.3496  0.3996
 9157SOL    HW139107   3.369   4.244  16.795 -0.0632  0.4533  1.2241
 9157SOL    HW239108   3.442   4.176  16.911 -0.9106  2.3783  0.3658
 9158SOL     OW39109   0.171   0.197   4.149  0.1405  0.9185  0.3345
 9158SOL    HW139110   0.078   0.184   4.133  0.2503 -1.3169  1.5996
 9158SOL    HW239111   0.184   0.147   4.229  3.5777 -0.1136 -0.8565
 9159SOL     OW39112   3.069   2.730   3.687 -0.2091  0.2217  0.1014
 9159SOL    HW139113   2.993   2.779   3.655 -0.0977 -1.0851 -2.1269
 9159SOL    HW239114   3.134   2.800   3.698 -2.2004  2.5512 -3.0023
 9160SOL     OW39115   1.832   1.732   1.547  0.8371  0.4633  0.4146
 9160SOL    HW139116   1.864   1.822   1.554  2.2794  0.0796 -1.2376
 9160SOL    HW239117   1.918   1.699   1.520 -0.5259 -0.9945 -2.2344
 9161SOL     OW39118   0.172   0.820  12.885  0.2875  0.1219  0.2578
 9161SOL    HW139119   0.102   0.834  12.822  0.2507 -0.7705  0.1033
 9161SOL    HW239120   0.215   0.742  12.849  0.3329  0.7544 -1.0248
 9162SOL     OW39121   4.508   1.381  10.921  0.0616 -0.0319 -0.1066
 9162SOL    HW139122   4.596   1.403  10.951  0.4310 -1.8698  0.1424
 9162SOL    HW239123   4.448   1.434  10.974  1.3555  0.4122  0.8907
 9163SOL     OW39124   0.007   0.615  16.825  0.2849 -0.1238  0.4620
 9163SOL    HW139125   4.690   0.638  16.899 -1.1416 -2.5074  0.1149
 9163SOL    HW239126   0.097   0.628  16.856  1.7990 -0.4188 -3.7352
 9164SOL     OW39127   4.403   3.517   8.138 -0.1423 -0.3857  0.1652
 9164SOL    HW139128   4.346   3.594   8.133 -0.4472 -0.7509 -1.7240
 9164SOL    HW239129   4.409   3.499   8.232  0.4611 -0.7583  0.0570
 9165SOL     OW39130   2.971   0.709   7.814  0.1276  0.3115 -0.2357
 9165SOL    HW139131   2.946   0.727   7.905 -2.1281 -0.1148 -0.7771
 9165SOL    HW239132   2.907   0.642   7.792 -1.5590  1.8947 -0.1566
 9166SOL     OW39133   1.360   3.432  11.408  0.3237 -0.2722  0.3544
 9166SOL    HW139134   1.306   3.472  11.476 -1.1444 -2.2741  0.3526
 9166SOL    HW239135   1.433   3.494  11.407  0.3698 -0.3309  0.1488
 9167SOL     OW39136   4.678   3.601   8.195 -0.1457  0.2947  0.4262
 9167SOL    HW139137   0.012   3.541   8.184  1.8366  2.6757  0.7166
 9167SOL    HW239138   4.641   3.604   8.107 -0.4570  0.3050  0.5580
 9168SOL     OW39139   1.315   0.895   7.731  0.1506  0.9742 -0.9782
 9168SOL    HW139140   1.236   0.841   7.723 -0.0631  0.9408  1.3385
 9168SOL    HW239141   1.276   0.981   7.747 -0.0280  0.5269  0.9535
 9169SOL     OW39142   0.242   2.338   7.066  0.0503 -0.2116  0.2587
 9169SOL    HW139143   0.197   2.421   7.086 -1.6043 -1.2476  0.8118
 9169SOL    HW239144   0.271   2.319   7.156  1.7694  0.5273 -0.1440
 9170SOL     OW39145   4.221   3.035   4.360  0.6222 -0.4582 -0.1524
 9170SOL    HW139146   4.129   3.012   4.365  0.0675  1.5217 -1.2581
 9170SOL    HW239147   4.238   2.989   4.278 -1.9703 -0.6103 -0.5901
 9171SOL     OW39148   4.338   4.210   0.733 -0.3084 -0.3253  0.1424
 9171SOL    HW139149   4.383   4.131   0.764  3.3257  1.5292 -0.3256
 9171SOL    HW239150   4.412   4.249   0.685  0.3729 -2.0494 -0.2006
 9172SOL     OW39151   4.427   4.079   5.742  0.3232 -0.0380 -0.1216
 9172SOL    HW139152   4.383   4.017   5.685  0.2638 -1.4479  1.4544
 9172SOL    HW239153   4.451   4.146   5.678  0.0872 -1.2760 -1.5089
 9173SOL     OW39154   2.579   3.280  14.387  0.0441 -0.5174 -0.1826
 9173SOL    HW139155   2.667   3.244  14.400  0.7374  0.1756 -3.2077
 9173SOL    HW239156   2.586   3.330  14.306  3.3157  0.5037  0.7248
 9174SOL     OW39157   2.258   3.864  16.740  1.0153  0.0516 -0.3870
 9174SOL    HW139158   2.284   3.774  16.759  2.0181  0.5134  0.4716
 9174SOL    HW239159   2.162   3.861  16.734  1.0877 -1.3188 -0.9503
 9175SOL     OW39160   3.844   4.000   3.151 -0.0172  0.1266  0.3754
 9175SOL    HW139161   3.830   4.095   3.149  0.1803  0.1584  0.5200
 9175SOL    HW239162   3.761   3.973   3.112 -0.7078  0.4396  1.6224
 9176SOL     OW39163   0.489   3.316  13.762 -0.1496 -0.0648 -0.3240
 9176SOL    HW139164   0.470   3.278  13.848 -0.6887 -0.3638 -0.5786
 9176SOL    HW239165   0.537   3.242  13.726 -1.1023 -0.6731 -0.3453
 9177SOL     OW39166   4.338   0.358   9.191  0.2082  0.2080  0.4661
 9177SOL    HW139167   4.377   0.367   9.278 -0.4422  1.9838  0.5735
 9177SOL    HW239168   4.361   0.269   9.165  0.3097  0.6785 -1.0555
 9178SOL     OW39169   0.375   0.202   1.769  0.1765  0.8992  0.1140
 9178SOL    HW139170   0.359   0.231   1.859  0.8954  1.9129 -0.0912
 9178SOL    HW239171   0.324   0.122   1.755 -0.2142  1.1596  0.0518
 9179SOL     OW39172   0.149   3.851   4.059  0.5266 -0.4176 -0.4034
 9179SOL    HW139173   0.097   3.783   4.017 -2.3661  0.9422  0.9967
 9179SOL    HW239174   0.230   3.807   4.083 -1.7338 -3.8664  0.9680
 9180SOL     OW39175   3.300   3.109  16.986 -0.1566 -0.4068  0.5119
 9180SOL    HW139176   3.332   3.126  16.897  2.0417 -3.2131  0.7720
 9180SOL    HW239177   3.280   3.017  16.974 -0.2132 -0.2432 -0.6311
 9181SOL     OW39178   3.480   4.230   7.488 -0.0038  0.1589  0.5082
 9181SOL    HW139179   3.421   4.284   7.435  1.2314  0.3025 -0.7096
 9181SOL    HW239180   3.438   4.145   7.473 -2.7276  1.7880 -1.2639
 9182SOL     OW39181   2.965   3.968   0.123 -0.0520 -0.1253 -0.2856
 9182SOL    HW139182   2.938   3.926   0.205 -1.2210  0.8161 -0.1931
 9182SOL    HW239183   2.933   4.057   0.136  0.3286 -0.0061 -0.1868
 9183SOL     OW39184   1.156   0.708   1.950  0.5911 -0.0690 -0.8690
 9183SOL    HW139185   1.144   0.614   1.967 -2.0001  0.5957  1.0917
 9183SOL    HW239186   1.220   0.707   1.879 -0.9747  1.0463 -2.2929
 9184SOL     OW39187   0.545   1.797   8.549  0.3460  0.4656 -0.4214
 9184SOL    HW139188   0.590   1.743   8.615  0.0926 -2.5520 -2.6775
 9184SOL    HW239189   0.591   1.879   8.567  2.0504 -0.1683 -1.8994
 9185SOL     OW39190   1.529   3.969  14.224  0.2619 -0.0514  0.2011
 9185SOL    HW139191   1.567   4.045  14.269 -0.9785 -1.7155  4.1300
 9185SOL    HW239192   1.601   3.958  14.162 -0.2579  0.0497 -0.4202
 9186SOL     OW39193   1.298   1.811   6.331  0.1313 -0.0806  0.1599
 9186SOL    HW139194   1.323   1.903   6.336 -0.5168 -0.0611  2.8388
 9186SOL    HW239195   1.202   1.816   6.323 -0.0755  0.0596  2.7620
 9187SOL     OW39196   3.840   1.258  12.700  0.2815 -0.2044 -0.4854
 9187SOL    HW139197   3.933   1.270  12.682  0.2030 -0.8500 -1.3023
 9187SOL    HW239198   3.819   1.206  12.623  3.7582 -0.2606 -1.3806
 9188SOL     OW39199   2.405   2.026   4.950  0.2319  0.1526  0.1026
 9188SOL    HW139200   2.451   2.108   4.932  0.7223 -0.3654 -1.0468
 9188SOL    HW239201   2.463   1.975   4.893 -0.1922  2.3591 -2.2801
 9189SOL     OW39202   3.972   0.857  10.572  0.1389  0.1873  0.3614
 9189SOL    HW139203   4.047   0.885  10.625  1.0281 -0.5084 -0.5440
 9189SOL    HW239204   3.931   0.943  10.571 -1.5760 -0.6794 -1.9100
 9190SOL     OW39205   2.329   1.837   3.922 -0.5221  0.6837 -0.3182
 9190SOL    HW139206   2.298   1.808   4.008  0.3480  0.0306 -0.2338
 9190SOL    HW239207   2.306   1.929   3.909 -2.4511  0.0058 -1.7479
 9191SOL     OW39208   0.736   3.174   2.093  0.3180  0.0623 -0.3474
 9191SOL    HW139209   0.764   3.224   2.170  0.0322 -2.1883  1.2082
 9191SOL    HW239210   0.685   3.099   2.126 -1.1884  1.7690  1.2526
 9192SOL     OW39211   0.780   4.529   1.275 -0.1073  0.3842  0.2590
 9192SOL    HW139212   0.773   4.624   1.281  0.5505  0.4083  0.6005
 9192SOL    HW239213   0.736   4.514   1.192  0.9834 -0.9242 -0.0841
 9193SOL     OW39214   0.144   4.092   3.912  0.0807 -0.2818  0.7030
 9193SOL    HW139215   0.138   4.007   3.956  1.2403 -0.4381  0.5670
 9193SOL    HW239216   0.113   4.066   3.826 -0.7085 -0.1337  0.9418
 9194SOL     OW39217   1.789   3.096  16.994  0.0876 -0.0125 -0.3422
 9194SOL    HW139218   1.760   3.039  17.065  1.8023 -0.7011 -0.2057
 9194SOL    HW239219   1.822   3.027  16.936  0.3432  0.9699 -1.3808
 9195SOL     OW39220   3.950   2.685   6.711  0.0529  0.1529  0.2352
 9195SOL    HW139221   3.942   2.622   6.783  0.0263  0.3960  0.4441
 9195SOL    HW239222   3.912   2.764   6.749 -1.8829 -1.2856  1.2435
 9196SOL     OW39223   0.494   2.370   8.919  0.2204  0.1214 -0.1504
 9196SOL    HW139224   0.425   2.426   8.882  1.3648  1.7644  0.2196
 9196SOL    HW239225   0.534   2.429   8.982 -0.7726  1.3373 -0.6417
 9197SOL     OW39226   2.348   4.704  12.185 -0.7740 -0.2574 -0.1570
 9197SOL    HW139227   2.397   0.022  12.244  0.2893  0.9525 -2.2523
 9197SOL    HW239228   2.274   0.018  12.157  0.2886  1.5285  0.4646
 9198SOL     OW39229   3.867   1.368   1.721 -0.2440  0.0726 -0.0258
 9198SOL    HW139230   3.927   1.382   1.647 -1.4168 -1.1675 -1.2265
 9198SOL    HW239231   3.858   1.459   1.747  0.8394  0.4494 -0.9483
 9199SOL     OW39232   3.026   3.412  15.295 -0.6623 -0.4094 -0.1298
 9199SOL    HW139233   3.007   3.362  15.215 -0.0838 -1.5875  0.4699
 9199SOL    HW239234   2.970   3.486  15.273  1.0420  0.9576  0.2140
 9200SOL     OW39235   4.040   3.397   8.670 -0.1327 -1.0562 -0.6568
 9200SOL    HW139236   3.946   3.417   8.672  0.1480  0.2839 -0.4635
 9200SOL    HW239237   4.080   3.484   8.666  1.3967 -1.7088  0.6726
 9201SOL     OW39238   3.110   3.792   3.115 -0.3133  0.5553 -0.6006
 9201SOL    HW139239   3.183   3.784   3.176  2.2448 -1.1746 -3.8874
 9201SOL    HW239240   3.145   3.759   3.032 -0.2181 -0.5564 -0.1251
 9202SOL     OW39241   4.388   2.641   7.292 -0.5108  0.2581 -0.0658
 9202SOL    HW139242   4.436   2.593   7.224 -1.4132 -0.2056 -0.3759
 9202SOL    HW239243   4.439   2.723   7.293 -0.5274  0.2761 -0.9665
 9203SOL     OW39244   1.318   0.304   9.306 -0.6017  0.1802 -0.2950
 9203SOL    HW139245   1.411   0.286   9.288  0.0122  0.6435  2.4344
 9203SOL    HW239246   1.286   0.222   9.344 -2.1795 -0.5823 -3.3032
 9204SOL     OW39247   1.555   0.105   3.052 -0.6177 -0.0549  0.1321
 9204SOL    HW139248   1.539   0.020   3.094  0.8782  0.6323  2.1338
 9204SOL    HW239249   1.650   0.118   3.056 -0.5783 -1.0115  2.2294
 9205SOL     OW39250   3.510   2.827   6.019 -0.8037  0.0277 -0.1002
 9205SOL    HW139251   3.554   2.770   5.957  0.3220 -0.2004  0.9234
 9205SOL    HW239252   3.476   2.900   5.966 -1.2456  0.3000  0.5526
 9206SOL     OW39253   0.091   3.413  10.494  0.1354  0.3368  0.1123
 9206SOL    HW139254   0.051   3.488  10.539 -1.8322 -1.1125  0.7745
 9206SOL    HW239255   0.013   3.364  10.469  1.4829 -2.2408  0.9972
 9207SOL     OW39256   2.541   3.020  15.060 -0.0719  0.2914 -0.2383
 9207SOL    HW139257   2.542   2.955  14.990 -1.7930 -1.3725  1.2805
 9207SOL    HW239258   2.567   2.968  15.136 -1.9219 -0.1870  0.0658
 9208SOL     OW39259   2.582   2.280   5.586 -0.0201  0.7163 -0.2500
 9208SOL    HW139260   2.634   2.241   5.516 -1.7044 -2.2927  0.1752
 9208SOL    HW239261   2.651   2.341   5.612  1.4639 -0.7007 -0.8101
 9209SOL     OW39262   3.383   1.881   3.435  0.0666 -0.6775  0.3417
 9209SOL    HW139263   3.362   1.803   3.384  3.0812 -1.7676  0.7652
 9209SOL    HW239264   3.338   1.945   3.380  3.2144  0.3617 -1.0562
 9210SOL     OW39265   3.797   0.313   4.862  0.7884 -0.2530 -0.0884
 9210SOL    HW139266   3.736   0.239   4.853 -1.1592  1.2231  0.9388
 9210SOL    HW239267   3.766   0.356   4.942  0.3940 -0.5383 -0.0870
 9211SOL     OW39268   2.179   2.165   5.656  0.1004 -0.2873 -0.1846
 9211SOL    HW139269   2.132   2.140   5.735 -1.4347  0.9286 -0.7189
 9211SOL    HW239270   2.114   2.149   5.588  0.0704  0.1432 -0.2557
 9212SOL     OW39271   2.867   4.553  16.186  0.6748 -0.0888 -0.5177
 9212SOL    HW139272   2.876   4.514  16.273  0.6295  0.3277 -0.3257
 9212SOL    HW239273   2.959   4.549  16.160  0.7504  1.2347 -0.4852
 9213SOL     OW39274   0.447   4.424   3.751 -0.0329 -0.0813  0.1064
 9213SOL    HW139275   0.382   4.495   3.756  0.5918  0.5911 -1.3645
 9213SOL    HW239276   0.511   4.453   3.687  2.1076 -1.7212  1.5179
 9214SOL     OW39277   1.598   3.631   2.534  0.0757 -0.4832 -0.4071
 9214SOL    HW139278   1.650   3.560   2.497 -0.1993 -0.5870 -0.5950
 9214SOL    HW239279   1.559   3.586   2.609 -2.3515 -0.4595 -1.6433
 9215SOL     OW39280   1.712   0.791   2.954  0.5096 -0.2280  0.4511
 9215SOL    HW139281   1.652   0.766   2.884 -0.7910  1.0916  1.0779
 9215SOL    HW239282   1.663   0.759   3.030 -0.6620 -2.0426 -1.0565
 9216SOL     OW39283   1.481   3.249   4.370  0.3096  0.2884  0.5475
 9216SOL    HW139284   1.561   3.297   4.349  0.6765 -0.4709  0.1854
 9216SOL    HW239285   1.509   3.210   4.452 -2.8341 -1.3727  0.8537
 9217SOL     OW39286   3.399   4.346   9.020  0.3020  0.2659  0.4535
 9217SOL    HW139287   3.389   4.433   8.981  1.0454 -0.8589 -2.2280
 9217SOL    HW239288   3.449   4.373   9.097 -1.4852  0.8607  1.4079
 9218SOL     OW39289   0.894   0.336   2.607  0.1332  0.1972 -0.3653
 9218SOL    HW139290   0.880   0.243   2.587 -1.1514  0.2212  0.4874
 9218SOL    HW239291   0.989   0.338   2.595  0.0227  2.6906 -0.8931
 9219SOL     OW39292   4.024   1.459   7.991  0.3101  0.1974 -0.1178
 9219SOL    HW139293   4.077   1.492   8.063 -0.6572 -3.1905  2.1645
 9219SOL    HW239294   4.041   1.516   7.917 -0.6522  0.6556  0.0105
 9220SOL     OW39295   1.124   2.806   7.442 -0.0625  0.0121  0.3196
 9220SOL    HW139296   1.197   2.831   7.385 -1.5077 -1.2808 -2.0657
 9220SOL    HW239297   1.140   2.713   7.454 -0.2003 -0.3000 -1.9321
 9221SOL     OW39298   2.989   1.912   9.995 -0.0393 -0.4105 -0.2767
 9221SOL    HW139299   2.945   1.831   9.969 -2.2287  0.7049 -0.0308
 9221SOL    HW239300   3.083   1.910   9.978 -0.1513 -1.1669 -0.7958
 9222SOL     OW39301   0.401   3.445   8.522  0.0969  0.2765  0.6737
 9222SOL    HW139302   0.463   3.391   8.572 -0.7219 -1.0032  0.2893
 9222SOL    HW239303   0.335   3.378   8.509 -0.3956  0.9347 -0.2308
 9223SOL     OW39304   3.823   0.716   8.137 -0.0638  0.2136  0.0265
 9223SOL    HW139305   3.779   0.768   8.069 -2.2296 -1.4088  0.2007
 9223SOL    HW239306   3.825   0.632   8.092 -0.0233 -0.8514  2.0512
 9224SOL     OW39307   3.267   1.582   3.846 -0.0027 -0.3363 -0.7079
 9224SOL    HW139308   3.247   1.615   3.758  1.5337  0.8597 -0.6113
 9224SOL    HW239309   3.310   1.499   3.823 -0.4638 -0.6752 -0.3316
 9225SOL     OW39310   2.050   4.443   1.715 -0.4431 -0.0260 -0.2932
 9225SOL    HW139311   2.110   4.472   1.783  0.7060  0.0646 -1.3494
 9225SOL    HW239312   1.978   4.503   1.733  0.5113  0.6758  1.1501
 9226SOL     OW39313   0.711   4.243   7.394 -0.0102 -0.4260  0.1586
 9226SOL    HW139314   0.621   4.276   7.385  0.6109  0.8801 -1.2782
 9226SOL    HW239315   0.697   4.183   7.467 -0.1816 -0.0320  0.4505
 9227SOL     OW39316   3.039   4.388   5.224 -0.4497 -0.0418 -0.0262
 9227SOL    HW139317   3.133   4.381   5.205  0.0637  0.6126  2.3661
 9227SOL    HW239318   3.005   4.338   5.149  2.4437 -1.3436 -0.4865
 9228SOL     OW39319   4.176   3.065   7.856 -0.1737 -0.1521 -0.6982
 9228SOL    HW139320   4.134   3.149   7.875 -0.8541 -0.6638  0.0367
 9228SOL    HW239321   4.255   3.080   7.909 -1.5176  1.5930  0.8097
 9229SOL     OW39322   1.404   2.706   5.663 -0.4024 -0.2712  0.0679
 9229SOL    HW139323   1.465   2.730   5.593 -0.4554  0.4214  0.2572
 9229SOL    HW239324   1.422   2.765   5.736 -0.3027  1.3791 -1.2840
 9230SOL     OW39325   4.631   1.768   7.462 -0.0320  0.3827  0.5923
 9230SOL    HW139326   4.679   1.732   7.537  0.2632  1.0195  0.7139
 9230SOL    HW239327   4.542   1.765   7.498 -0.8186 -0.7463 -1.4904
 9231SOL     OW39328   2.433   1.008  16.245 -0.0736  0.6181  0.0141
 9231SOL    HW139329   2.400   1.068  16.178  0.1436 -1.0640 -1.5827
 9231SOL    HW239330   2.372   1.032  16.316 -1.1195  1.7856 -1.2839
 9232SOL     OW39331   2.767   2.379  14.772  0.2924 -0.5375  0.1029
 9232SOL    HW139332   2.842   2.398  14.828  0.7502 -1.5463 -0.1676
 9232SOL    HW239333   2.817   2.325  14.712 -1.1529 -1.4650 -0.2750
 9233SOL     OW39334   2.793   4.580   1.195  0.2059  0.1168  0.0459
 9233SOL    HW139335   2.873   4.624   1.164 -0.3478  0.4666 -0.8955
 9233SOL    HW239336   2.744   4.586   1.113  1.7691 -1.8466 -1.0587
 9234SOL     OW39337   3.036   1.390  17.556  0.5346 -0.7844 -0.0377
 9234SOL    HW139338   3.111   1.338  17.583 -0.2954 -1.2823  1.3609
 9234SOL    HW239339   2.960   1.353  17.601  0.5790 -1.2223 -0.3308
 9235SOL     OW39340   2.932   0.351   2.866 -0.1000  0.1497  0.1472
 9235SOL    HW139341   2.992   0.316   2.799  1.2103 -1.0067  1.9251
 9235SOL    HW239342   2.993   0.347   2.939 -1.0936 -2.5568  0.8396
 9236SOL     OW39343   1.900   1.629   4.310 -0.4534  0.1796  0.1126
 9236SOL    HW139344   1.963   1.563   4.283  0.3664  1.0269 -0.0316
 9236SOL    HW239345   1.818   1.580   4.323  0.0494 -0.9028 -0.8550
 9237SOL     OW39346   2.838   3.329   6.903 -0.5787  0.1968  0.6274
 9237SOL    HW139347   2.911   3.391   6.902 -0.3035 -0.1026  1.4775
 9237SOL    HW239348   2.871   3.248   6.866 -1.0647  1.4939 -2.6340
 9238SOL     OW39349   2.931   2.655   3.922  0.1693  0.8636  0.2795
 9238SOL    HW139350   2.991   2.693   3.857  0.2134 -0.9305 -0.7314
 9238SOL    HW239351   2.863   2.609   3.874  0.8359 -0.9675  1.0967
 9239SOL     OW39352   2.662   0.345   7.574  0.2912 -0.2125 -0.4508
 9239SOL    HW139353   2.654   0.250   7.573  2.3397 -0.3639 -1.2743
 9239SOL    HW239354   2.569   0.358   7.594  0.0044 -1.0500 -1.2379
 9240SOL     OW39355   2.713   1.361   5.723  0.1496 -0.7746 -0.1349
 9240SOL    HW139356   2.780   1.429   5.720 -0.4335 -0.2541 -1.3355
 9240SOL    HW239357   2.674   1.364   5.635 -1.5939 -1.2366  0.6060
 9241SOL     OW39358   3.265   1.121   0.963 -0.8863  0.3853  0.3170
 9241SOL    HW139359   3.264   1.168   0.880 -0.2133 -1.3463 -0.6716
 9241SOL    HW239360   3.170   1.119   0.974 -0.9278  0.5733 -0.0050
 9242SOL     OW39361   1.118   0.492   5.008  0.2916  0.2955 -0.0896
 9242SOL    HW139362   1.042   0.537   5.045 -0.0884  1.0132 -1.7353
 9242SOL    HW239363   1.129   0.526   4.919  0.9416 -1.5241 -0.6986
 9243SOL     OW39364   0.653   4.148   9.159 -0.3838 -0.0860  0.1904
 9243SOL    HW139365   0.630   4.172   9.069 -0.6661 -1.1593 -0.0262
 9243SOL    HW239366   0.740   4.112   9.143  0.5244  1.6264  1.3489
 9244SOL     OW39367   4.654   2.496  12.079  0.0458  0.1722 -0.5052
 9244SOL    HW139368   4.691   2.427  12.134  0.1461  0.8767  0.3139
 9244SOL    HW239369   4.566   2.463  12.063  1.5073 -2.8324 -2.3436
 9245SOL     OW39370   3.137   0.305   4.420  0.1728 -0.0532  0.2907
 9245SOL    HW139371   3.090   0.247   4.480 -0.8592  0.6384  0.1597
 9245SOL    HW239372   3.096   0.388   4.443 -1.2229 -0.4013 -0.8755
 9246SOL     OW39373   2.983   4.317   4.438  0.3261  0.2680  0.1797
 9246SOL    HW139374   2.965   4.353   4.525 -0.8347  4.2611 -1.7161
 9246SOL    HW239375   2.911   4.367   4.401 -0.1386  0.3485  1.1961
 9247SOL     OW39376   3.889   2.082  17.661 -0.4142  0.3071 -0.3385
 9247SOL    HW139377   3.801   2.084  17.700 -0.4415  3.4110 -0.5076
 9247SOL    HW239378   3.871   2.150  17.595 -1.0390  1.5836  1.1426
 9248SOL     OW39379   3.544   4.725   2.306  0.0862 -0.8867 -0.2565
 9248SOL    HW139380   3.586   0.010   2.224  1.9094  2.7060  1.7505
 9248SOL    HW239381   3.621   4.721   2.363  0.6279  0.2326 -0.9038
 9249SOL     OW39382   1.920   3.899   7.075 -0.2017  0.0139 -0.2620
 9249SOL    HW139383   1.868   3.979   7.081 -1.5298 -0.9711  1.2572
 9249SOL    HW239384   2.008   3.937   7.071 -0.4647  0.8226  1.4271
 9250SOL     OW39385   0.240   2.932  17.726  0.6257  0.3562  0.0747
 9250SOL    HW139386   0.319   2.892   0.005 -1.6737 -2.6770  1.7199
 9250SOL    HW239387   0.208   2.975   0.048 -1.4474  1.7737 -1.5296
 9251SOL     OW39388   3.784   3.825   7.066 -0.2809  0.1471  0.1605
 9251SOL    HW139389   3.845   3.835   7.139  0.8774 -1.0368 -0.6549
 9251SOL    HW239390   3.828   3.761   7.011  0.8388  1.6424 -0.6711
 9252SOL     OW39391   4.129   3.800  16.191 -0.1368  0.0175  1.5563
 9252SOL    HW139392   4.169   3.887  16.185 -2.4930  1.1621  2.3891
 9252SOL    HW239393   4.050   3.826  16.239 -0.9549  0.6511 -0.1199
 9253SOL     OW39394   3.624   3.434  13.856  0.4978  0.7353 -0.3617
 9253SOL    HW139395   3.626   3.344  13.822  0.5274  0.2179  1.0270
 9253SOL    HW239396   3.715   3.456  13.835  1.0111 -1.5079 -0.5923
 9254SOL     OW39397   3.185   1.691   4.490 -0.1531  0.0029 -0.3472
 9254SOL    HW139398   3.213   1.616   4.542 -1.6181  0.2742  0.8741
 9254SOL    HW239399   3.131   1.751   4.543 -1.1942 -0.0915 -1.3019
 9255SOL     OW39400   4.533   0.356   6.487 -0.0615 -0.1073 -0.3112
 9255SOL    HW139401   4.625   0.382   6.491 -0.3753  0.9993 -0.2345
 9255SOL    HW239402   4.495   0.424   6.431  1.5612  1.5591  0.6094
 9256SOL     OW39403   0.341   1.489  15.394 -0.2422  0.5607 -0.4332
 9256SOL    HW139404   0.300   1.528  15.318 -1.6697  0.1012  0.1088
 9256SOL    HW239405   0.270   1.444  15.440 -3.2311  2.4691 -3.2961
 9257SOL     OW39406   1.771   1.157  15.232  0.4781 -0.7696 -0.6248
 9257SOL    HW139407   1.774   1.123  15.142  1.4880  1.8708 -1.6144
 9257SOL    HW239408   1.863   1.149  15.255  0.1761  0.0601  0.8661
 9258SOL     OW39409   2.596   4.607   4.569  0.0013 -0.6956  0.1438
 9258SOL    HW139410   2.659   4.548   4.609  2.5136  0.9766 -1.3236
 9258SOL    HW239411   2.549   4.653   4.639 -1.0521 -0.8587 -0.4538
 9259SOL     OW39412   0.525   3.583  13.678 -0.3750 -0.5411 -0.4582
 9259SOL    HW139413   0.490   3.520  13.741 -0.3477 -1.3146 -1.2146
 9259SOL    HW239414   0.445   3.629  13.653  0.2709  0.7638 -0.1327
 9260SOL     OW39415   2.302   1.096  14.810  0.1218  0.6102  0.0830
 9260SOL    HW139416   2.394   1.085  14.833 -0.2044 -0.6445  0.8089
 9260SOL    HW239417   2.265   1.142  14.886  0.1754  1.3291 -0.3322
 9261SOL     OW39418   0.203   3.463   8.140 -0.0851 -0.0158 -0.1241
 9261SOL    HW139419   0.274   3.400   8.149  1.0287  1.0327 -1.5775
 9261SOL    HW239420   0.253   3.536   8.105 -1.9697  0.3455 -2.1382
 9262SOL     OW39421   3.760   2.387   1.719  0.3768 -0.0316  0.0118
 9262SOL    HW139422   3.854   2.391   1.737  0.4937  0.9098 -0.8371
 9262SOL    HW239423   3.720   2.386   1.806  1.7027  0.3072  0.6335
 9263SOL     OW39424   3.941   3.661   7.599 -0.2351  0.5804  0.6111
 9263SOL    HW139425   4.025   3.702   7.576  0.5802 -0.9777  0.8190
 9263SOL    HW239426   3.975   3.572   7.610 -0.5304  0.2018 -1.6064
 9264SOL     OW39427   2.492   4.050   2.041  0.0131 -0.0906  0.5438
 9264SOL    HW139428   2.441   3.969   2.032 -1.0396  0.4802  1.4104
 9264SOL    HW239429   2.508   4.045   2.136 -0.8103 -0.1502  0.6835
 9265SOL     OW39430   2.871   0.958  15.555  0.3736  0.2751  0.0249
 9265SOL    HW139431   2.927   1.027  15.519  0.8176  0.2617  0.6972
 9265SOL    HW239432   2.909   0.884  15.508 -0.4856  0.5772 -1.1497
 9266SOL     OW39433   1.747   2.774   1.668  0.7474  0.2899  0.0256
 9266SOL    HW139434   1.773   2.721   1.743 -2.4244 -1.5810 -0.2142
 9266SOL    HW239435   1.823   2.809   1.621 -0.3066  0.2220 -1.7370
 9267SOL     OW39436   4.730   0.432   7.426 -0.1648  0.1774  0.1409
 9267SOL    HW139437   4.710   0.363   7.363  0.3328 -0.3237  0.5286
 9267SOL    HW239438   0.009   0.371   7.497 -0.7897 -0.8643 -0.5824
 9268SOL     OW39439   1.001   4.489   8.259  0.1486 -0.0149 -0.1399
 9268SOL    HW139440   1.053   4.421   8.301  0.4421  0.4929  0.3360
 9268SOL    HW239441   1.053   4.526   8.188 -1.2532  2.1483 -0.0573
 9269SOL     OW39442   4.697   3.081  16.653  0.5406 -0.5406  0.1385
 9269SOL    HW139443   0.042   3.116  16.628  0.8612 -1.3267  0.1395
 9269SOL    HW239444   4.659   3.079  16.565  0.5257  3.7939  0.0365
 9270SOL     OW39445   2.429   3.877   5.340 -0.9720  0.7081  0.3466
 9270SOL    HW139446   2.500   3.897   5.279  0.1385 -1.8585  0.8077
 9270SOL    HW239447   2.475   3.859   5.422 -0.1691 -0.7423 -0.4272
 9271SOL     OW39448   1.824   2.227  10.882 -0.6242  0.1341  0.0047
 9271SOL    HW139449   1.909   2.185  10.892 -1.5253 -1.6999 -0.0942
 9271SOL    HW239450   1.782   2.219  10.967  1.4625  0.4174  1.0486
 9272SOL     OW39451   1.366   0.081   1.833 -0.1488 -0.0132  0.2022
 9272SOL    HW139452   1.310   0.043   1.765  1.4331 -1.3941 -0.3081
 9272SOL    HW239453   1.367   0.010   1.898  2.1851  0.9589  1.1929
 9273SOL     OW39454   3.525   4.285   5.961  0.0230 -0.7667 -0.6097
 9273SOL    HW139455   3.443   4.276   5.912 -0.6330  3.5119 -0.2437
 9273SOL    HW239456   3.492   4.255   6.046  0.1723 -1.1845 -0.6973
 9274SOL     OW39457   3.246   4.475   8.401 -0.1958 -0.4699  0.0380
 9274SOL    HW139458   3.269   4.524   8.322  0.5349 -0.8848 -0.0073
 9274SOL    HW239459   3.291   4.532   8.463 -0.7945 -0.0272  0.0662
 9275SOL     OW39460   0.909   1.063   1.703 -0.1783  0.1119 -0.4223
 9275SOL    HW139461   0.843   1.068   1.634 -0.4613 -1.5316 -0.2695
 9275SOL    HW239462   0.849   1.034   1.772  2.1296  2.2504  2.4763
 9276SOL     OW39463   4.101   0.089   5.282 -0.2083  0.0850 -0.0402
 9276SOL    HW139464   4.067   0.030   5.216  0.0744  1.4255 -1.3872
 9276SOL    HW239465   4.042   0.066   5.354 -0.7235  0.0918 -0.4629
 9277SOL     OW39466   3.907   0.037   8.695 -0.4170  0.1132  0.0478
 9277SOL    HW139467   3.896   0.004   8.784 -0.9825 -0.7429 -0.3383
 9277SOL    HW239468   3.886   0.129   8.711 -1.0079  0.1999 -1.2551
 9278SOL     OW39469   2.742   4.667  17.589 -0.1512  0.0858 -1.0890
 9278SOL    HW139470   2.818   4.617  17.559 -0.6736 -2.8616  2.4352
 9278SOL    HW239471   2.773   0.013  17.560 -0.7092  0.2652 -1.1621
 9279SOL     OW39472   2.157   1.990   1.938  0.4155  0.1186 -0.6620
 9279SOL    HW139473   2.188   2.010   2.026 -0.1640  1.1688 -0.6919
 9279SOL    HW239474   2.132   2.076   1.902  2.2145  1.3813  1.1632
 9280SOL     OW39475   0.550   2.536   8.547  0.0384 -0.2141 -0.1941
 9280SOL    HW139476   0.542   2.441   8.540  1.1235 -0.3711  0.7927
 9280SOL    HW239477   0.471   2.570   8.505  1.0297  0.5148 -1.4804
 9281SOL     OW39478   3.728   0.483   8.951  0.1528 -0.6333 -0.0422
 9281SOL    HW139479   3.791   0.524   8.893  1.2658  0.6838  2.1108
 9281SOL    HW239480   3.786   0.465   9.024 -1.0247  2.2671  1.6073
 9282SOL     OW39481   0.425   1.314   7.276  0.3154  0.1365 -1.0057
 9282SOL    HW139482   0.503   1.263   7.297  0.1163 -0.9922 -2.9538
 9282SOL    HW239483   0.369   1.254   7.226  0.6615 -0.0169 -1.2099
 9283SOL     OW39484   0.431   1.135   9.148  0.0737  0.2135  0.2491
 9283SOL    HW139485   0.399   1.189   9.076  1.2808 -0.8995 -1.1349
 9283SOL    HW239486   0.414   1.186   9.227  2.9375  0.8925  0.4229
 9284SOL     OW39487   4.337   2.203  16.164  0.1097 -0.3467 -0.0996
 9284SOL    HW139488   4.314   2.233  16.076  1.7006  1.8750  0.2531
 9284SOL    HW239489   4.308   2.278  16.216  2.2395  0.8515 -0.6487
 9285SOL     OW39490   0.467   2.680   0.051 -0.2091  0.3005 -0.0501
 9285SOL    HW139491   0.534   2.673  17.740 -2.4548  0.5029 -2.2386
 9285SOL    HW239492   0.469   2.776   0.050 -0.0543  0.3699  4.2493
 9286SOL     OW39493   3.654   2.442   8.211  0.5301 -0.3999  0.2531
 9286SOL    HW139494   3.712   2.457   8.137  0.7371  1.0843  0.7166
 9286SOL    HW239495   3.563   2.460   8.188  0.3516 -3.1757 -1.1914
 9287SOL     OW39496   0.005   2.742   7.497  0.0183 -0.5898  0.0187
 9287SOL    HW139497   4.658   2.756   7.534 -0.2341 -1.1201 -0.3623
 9287SOL    HW239498   4.739   2.655   7.457 -0.0797  0.3205 -1.9478
 9288SOL     OW39499   3.234   0.152   7.510 -0.1969 -0.1440 -0.0392
 9288SOL    HW139500   3.167   0.162   7.578  0.3330 -0.0581  0.4748
 9288SOL    HW239501   3.304   0.200   7.556 -2.0493  1.3831  1.1888
 9289SOL     OW39502   3.355   4.235   8.016  0.4118 -0.0105 -0.1283
 9289SOL    HW139503   3.433   4.247   7.961  1.1212  0.4635  0.9719
 9289SOL    HW239504   3.296   4.295   7.972  1.0042  1.0102  0.4640
 9290SOL     OW39505   4.151   0.736   4.195 -0.4694  0.2254 -0.6232
 9290SOL    HW139506   4.154   0.831   4.203 -3.3407  0.1123  1.4285
 9290SOL    HW239507   4.097   0.727   4.117  0.4450 -3.7896 -0.7945
 9291SOL     OW39508   0.775   4.333   9.835 -0.1977  0.0675  0.0394
 9291SOL    HW139509   0.826   4.366   9.909  0.9528 -1.4770 -0.0803
 9291SOL    HW239510   0.766   4.241   9.861  0.1665 -0.5216 -1.9827
 9292SOL     OW39511   0.256   2.898   1.662  0.2773 -0.3219 -0.5674
 9292SOL    HW139512   0.180   2.850   1.629  0.9191 -1.3153 -0.6127
 9292SOL    HW239513   0.302   2.829   1.709  2.2063  1.5336  0.2616
 9293SOL     OW39514   3.295   0.009   3.489  0.0290  0.2495 -0.1147
 9293SOL    HW139515   3.381   4.739   3.449  0.1150  1.5577 -0.2630
 9293SOL    HW239516   3.300   4.712   3.577  1.0688  1.3781  0.2972
 9294SOL     OW39517   1.248   2.862  13.372  0.5759 -0.1589  0.0806
 9294SOL    HW139518   1.284   2.920  13.439  0.6375  0.4453 -0.4713
 9294SOL    HW239519   1.182   2.821  13.427  0.6728 -0.3436  0.0571
 9295SOL     OW39520   2.016   3.805   7.463  0.1128 -0.6739 -0.8337
 9295SOL    HW139521   2.056   3.794   7.377  0.4731 -0.9804 -0.6261
 9295SOL    HW239522   1.985   3.895   7.467  2.1310 -0.0166 -0.1875
 9296SOL     OW39523   4.717   2.537   8.578  0.4681 -0.3182 -0.1225
 9296SOL    HW139524   0.041   2.585   8.525 -1.2858 -0.5341 -2.4646
 9296SOL    HW239525   4.660   2.521   8.503 -1.6009  0.6545  1.2497
 9297SOL     OW39526   0.133   2.828   8.206 -0.2596 -0.2368  0.6988
 9297SOL    HW139527   0.188   2.768   8.257  1.6768  0.5896 -0.4214
 9297SOL    HW239528   0.125   2.907   8.259  0.9016 -1.1413  2.1925
 9298SOL     OW39529   1.750   3.108   8.324  0.5773 -0.4934  0.2829
 9298SOL    HW139530   1.711   3.135   8.240  1.6503  0.3747  0.0598
 9298SOL    HW239531   1.770   3.018   8.297 -0.4748 -0.5349 -0.3486
 9299SOL     OW39532   4.290   4.224   2.868 -0.5266  0.4132 -0.0249
 9299SOL    HW139533   4.299   4.243   2.775  3.9832  0.2973  0.3752
 9299SOL    HW239534   4.203   4.186   2.867  0.0120 -0.8588  0.6594
 9300SOL     OW39535   2.019   3.833   5.037 -0.0685 -0.1519  0.0478
 9300SOL    HW139536   2.029   3.886   4.958  2.0455  1.5068  1.4129
 9300SOL    HW239537   2.075   3.869   5.107  0.6467 -0.7437 -0.2226
 9301SOL     OW39538   1.714   0.802   4.840  0.0548 -0.8559  0.2571
 9301SOL    HW139539   1.720   0.876   4.779  0.8730  0.9800  2.5431
 9301SOL    HW239540   1.703   0.725   4.784 -1.9217  0.9902 -1.9173
 9302SOL     OW39541   0.617   4.187   1.367 -0.0083  0.7359 -0.7841
 9302SOL    HW139542   0.620   4.144   1.281  0.1879  1.9959 -1.4146
 9302SOL    HW239543   0.648   4.115   1.421 -0.4172  0.2602 -1.1803
 9303SOL     OW39544   1.060   4.119   3.655  0.2510  0.0764  0.1305
 9303SOL    HW139545   1.015   4.075   3.727 -1.2258 -0.9106 -1.4143
 9303SOL    HW239546   1.060   4.210   3.685 -2.9762  0.5876 -1.4117
 9304SOL     OW39547   3.331   2.023   1.563  0.0227 -0.6016  0.2137
 9304SOL    HW139548   3.366   2.111   1.546 -2.0742  0.0707 -0.6440
 9304SOL    HW239549   3.378   1.998   1.642 -0.4534  0.4898  0.8401
 9305SOL     OW39550   1.317   4.472   0.811  0.1709  0.2349 -0.6164
 9305SOL    HW139551   1.372   4.442   0.884 -0.1779 -0.1094 -0.4970
 9305SOL    HW239552   1.368   4.441   0.736  1.3113 -0.5276  0.4738
 9306SOL     OW39553   1.551   2.816   1.476  0.7356  0.1554 -0.2319
 9306SOL    HW139554   1.493   2.788   1.547  3.3905  1.2013  2.3469
 9306SOL    HW239555   1.631   2.815   1.528  1.0957  0.3703 -0.7803
 9307SOL     OW39556   2.541   1.635  17.214 -0.5364  0.5307  0.8930
 9307SOL    HW139557   2.569   1.631  17.305 -1.0982 -2.9769  0.9127
 9307SOL    HW239558   2.463   1.691  17.213 -0.7973  0.1635  0.5280
 9308SOL     OW39559   0.732   2.504   3.309  0.8453 -0.0722 -0.4615
 9308SOL    HW139560   0.807   2.479   3.364  0.5939 -1.3025 -0.6653
 9308SOL    HW239561   0.676   2.427   3.322  1.2777 -0.5207 -1.2887
 9309SOL     OW39562   3.868   1.220  13.383  0.2571  0.3258 -0.5722
 9309SOL    HW139563   3.956   1.243  13.354 -0.3468 -0.0975 -2.7016
 9309SOL    HW239564   3.817   1.219  13.302  0.6440 -1.2637 -0.8072
 9310SOL     OW39565   1.476   1.857   8.712 -0.1874 -0.5739 -0.3039
 9310SOL    HW139566   1.522   1.940   8.724  1.0773 -0.9700 -2.4965
 9310SOL    HW239567   1.540   1.790   8.736  0.3796  0.1034  0.0926
 9311SOL     OW39568   2.827   2.028  16.587 -0.0894  0.2658  0.0016
 9311SOL    HW139569   2.910   2.053  16.627  0.5642  2.9280 -2.9631
 9311SOL    HW239570   2.761   2.031  16.656  1.3420 -2.3340  1.4776
 9312SOL     OW39571   0.782   3.938  12.584  0.3088 -0.4385  0.2114
 9312SOL    HW139572   0.759   3.846  12.587  1.3433 -0.7163 -0.1530
 9312SOL    HW239573   0.793   3.949  12.679  0.6861 -1.5419  0.2878
 9313SOL     OW39574   3.883   4.497   8.234 -0.1482  0.0425  0.0828
 9313SOL    HW139575   3.962   4.481   8.286 -1.8368 -0.6218  2.4478
 9313SOL    HW239576   3.870   4.591   8.246 -2.4760 -0.1972 -0.5874
 9314SOL     OW39577   2.364   4.432   3.448 -0.4598  0.0982 -0.1900
 9314SOL    HW139578   2.327   4.355   3.491 -0.7960 -1.0923 -2.5964
 9314SOL    HW239579   2.432   4.454   3.511  0.1659 -2.9349  0.1799
 9315SOL     OW39580   2.641   1.910   3.976 -0.4662 -0.5063 -0.0271
 9315SOL    HW139581   2.558   1.924   3.930 -0.4333  1.4962  0.5453
 9315SOL    HW239582   2.675   1.993   3.944 -0.2598  0.4735  2.7692
 9316SOL     OW39583   2.302   1.833   2.996  0.2858  0.4178 -0.3161
 9316SOL    HW139584   2.371   1.816   2.932 -0.0559 -1.1800 -0.2806
 9316SOL    HW239585   2.279   1.745   3.027  0.9092  0.1371 -0.6314
 9317SOL     OW39586   0.032   1.732   3.253  0.4445 -0.2773  0.1877
 9317SOL    HW139587   4.733   1.800   3.308  0.3976 -2.0520  2.3312
 9317SOL    HW239588   4.734   1.658   3.300 -1.2334 -1.0390 -2.3643
 9318SOL     OW39589   1.959   1.995   8.895  0.3899 -0.4951  0.0456
 9318SOL    HW139590   1.915   1.962   8.973 -0.2752  0.3653  0.0257
 9318SOL    HW239591   1.888   2.028   8.839  1.5223  0.8633 -0.5819
 9319SOL     OW39592   2.885   1.382  10.040 -0.2696  0.0108 -0.0132
 9319SOL    HW139593   2.845   1.340  10.116  1.1746  2.0432  1.9013
 9319SOL    HW239594   2.928   1.306  10.001  0.4087  0.1352  0.4820
 9320SOL     OW39595   1.597   2.312   1.366  0.5341 -0.3073 -0.1777
 9320SOL    HW139596   1.641   2.337   1.285  1.0857  0.9315  0.5109
 9320SOL    HW239597   1.526   2.256   1.333 -0.5961  1.4877 -0.7865
 9321SOL     OW39598   2.924   3.641   5.827 -0.1772 -0.4723  0.4570
 9321SOL    HW139599   2.856   3.590   5.873  0.2338  1.0277  2.7378
 9321SOL    HW239600   2.880   3.668   5.747 -3.4466  0.9633  2.7183
 9322SOL     OW39601   2.184   0.917  14.653  0.5180 -0.6823  0.3858
 9322SOL    HW139602   2.231   0.986  14.700 -0.4534  1.0134 -1.1541
 9322SOL    HW239603   2.252   0.849  14.655  0.1659 -1.0889 -1.6618
 9323SOL     OW39604   0.639   4.246  10.161  0.5134 -0.4119 -0.0924
 9323SOL    HW139605   0.680   4.161  10.145 -1.4639 -0.6462 -4.0105
 9323SOL    HW239606   0.590   4.257  10.079  0.2586 -0.7552  0.0101
 9324SOL     OW39607   1.199   0.740   4.535 -0.3717  0.7224  0.4967
 9324SOL    HW139608   1.160   0.692   4.461  1.8097  0.5546 -0.5349
 9324SOL    HW239609   1.281   0.771   4.498 -2.1343 -0.3007 -4.2490
 9325SOL     OW39610   1.693   0.275   5.006 -0.2100 -0.0932 -0.5452
 9325SOL    HW139611   1.778   0.245   4.974 -0.8080 -1.2046 -1.1034
 9325SOL    HW239612   1.656   0.194   5.039 -0.4177 -0.2010 -1.0486
 9326SOL     OW39613   1.349   0.672   6.916 -0.2658  0.5204  0.4540
 9326SOL    HW139614   1.382   0.760   6.937  0.7136  0.2595 -0.0365
 9326SOL    HW239615   1.360   0.626   6.999 -1.2084 -2.3644 -1.0359
 9327SOL     OW39616   4.663   0.202   4.092  0.3541 -0.8178  0.0885
 9327SOL    HW139617   4.619   0.152   4.022  1.8771 -1.1420 -0.6548
 9327SOL    HW239618   4.597   0.238   4.151 -0.5160 -0.0002 -1.3846
 9328SOL     OW39619   4.412   3.636   5.550  0.1922  0.1274  0.4426
 9328SOL    HW139620   4.427   3.706   5.486  2.9148 -0.8632  0.0088
 9328SOL    HW239621   4.458   3.559   5.518  0.7697  0.5658  0.2134
 9329SOL     OW39622   4.152   3.968  14.375 -0.0651  0.7439 -0.3869
 9329SOL    HW139623   4.076   4.017  14.407 -1.7566 -2.2388  0.2282
 9329SOL    HW239624   4.119   3.881  14.399 -1.9643  1.5803  0.0885
 9330SOL     OW39625   1.634   1.513   4.355  0.4966 -0.7726 -0.7001
 9330SOL    HW139626   1.642   1.436   4.299 -3.4744 -1.0944 -0.8189
 9330SOL    HW239627   1.611   1.478   4.442  0.5921  0.7947 -0.0384
 9331SOL     OW39628   3.800   0.311   5.174 -0.5689  0.2239 -0.2507
 9331SOL    HW139629   3.870   0.358   5.129 -0.5520 -0.8808 -1.3738
 9331SOL    HW239630   3.810   0.341   5.264  0.9704 -1.5150  0.1339
 9332SOL     OW39631   4.173   2.706  12.117  0.5745  0.1254  0.2482
 9332SOL    HW139632   4.097   2.748  12.078 -0.4616 -2.2864 -0.3175
 9332SOL    HW239633   4.243   2.768  12.095 -0.8211  1.9626  0.9613
 9333SOL     OW39634   3.371   1.305   8.049 -0.7448 -0.5109 -0.0797
 9333SOL    HW139635   3.360   1.387   8.097  2.4366 -1.0573  1.5936
 9333SOL    HW239636   3.304   1.328   7.984 -0.9257  0.2541  0.3794
 9334SOL     OW39637   4.380   0.222   0.234 -0.5232 -0.3798 -0.3077
 9334SOL    HW139638   4.348   0.287   0.296  3.6899  0.6319  0.8035
 9334SOL    HW239639   4.330   0.149   0.271  1.5849 -1.4287  0.4880
 9335SOL     OW39640   4.560   1.598   1.429 -0.0014  0.0467 -0.3656
 9335SOL    HW139641   4.627   1.665   1.443  0.3674 -0.3991 -0.0124
 9335SOL    HW239642   4.542   1.575   1.521  3.9537  0.0670  0.4160
 9336SOL     OW39643   4.220   1.191   3.661 -0.2367  0.2534 -0.1710
 9336SOL    HW139644   4.303   1.158   3.696 -0.8264 -1.7520 -0.6658
 9336SOL    HW239645   4.251   1.281   3.664  0.6848 -0.0972  0.8351
 9337SOL     OW39646   2.948   1.581   3.851 -0.2153  0.0757 -0.0813
 9337SOL    HW139647   2.876   1.523   3.825 -0.1214 -0.2280  0.3222
 9337SOL    HW239648   3.021   1.519   3.855  0.3246  0.9326  3.5760
 9338SOL     OW39649   1.408   2.162   2.939 -0.7074 -0.0475  0.2803
 9338SOL    HW139650   1.427   2.164   3.032  2.2608 -1.2156 -0.2976
 9338SOL    HW239651   1.496   2.165   2.901 -0.8549  1.5055  0.0615
 9339SOL     OW39652   3.913   0.761   5.634 -0.0993  0.0871  0.0016
 9339SOL    HW139653   3.896   0.668   5.649 -3.0004  0.6929  0.5067
 9339SOL    HW239654   3.902   0.788   5.725  0.0066 -1.7679  0.5775
 9340SOL     OW39655   1.212   3.575  13.380 -0.2039 -0.3065  0.6024
 9340SOL    HW139656   1.249   3.490  13.354  2.2702  0.3811  1.8155
 9340SOL    HW239657   1.117   3.569  13.377 -0.4384  3.3357  0.4204
 9341SOL     OW39658   0.928   3.041  11.155 -0.0205 -0.0495 -0.3380
 9341SOL    HW139659   1.014   3.031  11.198  1.0053  0.7712 -2.2035
 9341SOL    HW239660   0.891   2.957  11.182  0.2756  0.2191  0.9275
 9342SOL     OW39661   2.091   4.273   4.531  0.2023  0.0200 -0.6237
 9342SOL    HW139662   2.004   4.277   4.571  1.9123  0.8424  3.0524
 9342SOL    HW239663   2.142   4.219   4.590  1.0737  0.9074 -0.5677
 9343SOL     OW39664   1.056   1.298   1.630 -0.3025  0.1185 -0.0707
 9343SOL    HW139665   1.058   1.207   1.659 -0.9195 -0.0673 -0.6075
 9343SOL    HW239666   0.980   1.322   1.682 -0.9173 -0.9441 -0.4831
 9344SOL     OW39667   3.675   1.065   5.879  0.4808 -0.2509  0.0490
 9344SOL    HW139668   3.662   1.069   5.974  3.5753 -0.6433  0.4906
 9344SOL    HW239669   3.680   0.970   5.868 -3.7865 -0.5782  0.7645
 9345SOL     OW39670   0.058   3.220   9.843  0.3027  0.0006  0.3351
 9345SOL    HW139671   0.051   3.126   9.823 -0.4756  0.0006  0.6074
 9345SOL    HW239672   0.144   3.228   9.803  0.1911  1.1124  0.3151
 9346SOL     OW39673   2.485   2.282   4.930 -0.1049  0.0050  0.0829
 9346SOL    HW139674   2.546   2.351   4.956 -0.2676  0.8076 -1.6182
 9346SOL    HW239675   2.539   2.255   4.857 -0.6495  1.2658 -0.7972
 9347SOL     OW39676   4.371   1.763   7.534 -0.1323 -0.6822 -0.0696
 9347SOL    HW139677   4.301   1.825   7.554  0.3231  0.1080 -0.9167
 9347SOL    HW239678   4.379   1.716   7.617  0.4380 -1.1611 -0.3955
 9348SOL     OW39679   4.492   4.240   5.512 -0.3359 -0.4789 -0.1038
 9348SOL    HW139680   4.548   4.166   5.489  0.6543  0.6380 -1.2812
 9348SOL    HW239681   4.415   4.202   5.469  0.0252 -1.6731  0.2979
 9349SOL     OW39682   3.727   0.922  15.174  0.1724  0.3667 -0.1645
 9349SOL    HW139683   3.685   0.861  15.234  0.9373  0.6179  0.6247
 9349SOL    HW239684   3.665   0.994  15.160 -0.0277  0.1192 -0.5408
 9350SOL     OW39685   3.095   3.125   7.619  0.1945 -0.3612 -0.0966
 9350SOL    HW139686   3.137   3.209   7.641  0.1937 -0.1377 -0.9519
 9350SOL    HW239687   3.100   3.075   7.700  0.9224  1.2939  0.8759
 9351SOL     OW39688   1.223   3.605   2.483  0.7424 -0.0791  0.1081
 9351SOL    HW139689   1.297   3.664   2.497  1.6255 -1.2509  0.2720
 9351SOL    HW239690   1.259   3.528   2.527 -0.6315  0.4599  2.1904
 9352SOL     OW39691   0.745   4.192   5.996  0.1816 -0.2218  1.0836
 9352SOL    HW139692   0.818   4.208   5.937 -2.0398 -0.6930 -1.8154
 9352SOL    HW239693   0.713   4.108   5.962  2.8431 -0.5353 -0.6815
 9353SOL     OW39694   0.347   4.180  12.960  0.3882  0.4953  0.2366
 9353SOL    HW139695   0.374   4.152  13.047 -0.3095 -1.0707 -0.0458
 9353SOL    HW239696   0.432   4.188  12.915  1.4938 -0.5454  2.1247
 9354SOL     OW39697   3.462   3.443   6.672  0.6730 -0.0606 -0.2553
 9354SOL    HW139698   3.428   3.356   6.652  2.9948 -1.5486  2.1244
 9354SOL    HW239699   3.510   3.434   6.755  1.9822  0.0641 -1.0078
 9355SOL     OW39700   4.099   1.346   2.301  0.0122 -0.1895 -0.0308
 9355SOL    HW139701   4.019   1.298   2.319  0.1903  0.4608  2.3877
 9355SOL    HW239702   4.074   1.430   2.339  1.9211  0.0380  0.7119
 9356SOL     OW39703   2.408   2.395   3.441  0.1580 -0.5123 -0.7434
 9356SOL    HW139704   2.349   2.443   3.498  0.1484 -0.5607 -0.7133
 9356SOL    HW239705   2.343   2.385   3.372 -0.3629  0.4798 -0.3981
 9357SOL     OW39706   4.059   1.390   5.553  0.1256 -0.0381  0.4009
 9357SOL    HW139707   4.080   1.347   5.635 -1.8796  1.5198  1.7254
 9357SOL    HW239708   3.976   1.351   5.524  0.0231 -1.2790  2.4095
 9358SOL     OW39709   2.166   1.475   4.720  0.7818 -0.6351  0.3923
 9358SOL    HW139710   2.154   1.570   4.725 -0.1018 -0.8163  1.7888
 9358SOL    HW239711   2.130   1.460   4.632 -0.1100  1.7716  0.3485
 9359SOL     OW39712   2.218   2.656  15.661 -0.6899  0.0233  0.3000
 9359SOL    HW139713   2.171   2.692  15.735  0.3643  1.9334  0.0643
 9359SOL    HW239714   2.264   2.731  15.622  2.4804 -2.2938 -0.4018
 9360SOL     OW39715   3.489   1.013   4.785 -0.5511  0.1311  0.0312
 9360SOL    HW139716   3.484   0.942   4.848 -2.4936 -0.2027 -0.4993
 9360SOL    HW239717   3.506   1.089   4.840  0.7845 -1.8828  2.3537
 9361SOL     OW39718   1.482   3.536   1.961 -0.0149 -0.6166  0.0866
 9361SOL    HW139719   1.481   3.544   1.866 -1.0001  0.3619  0.1794
 9361SOL    HW239720   1.399   3.490   1.979 -0.2352 -0.4345 -0.4650
 9362SOL     OW39721   1.328   3.115   2.076 -0.4874  0.2322  0.0698
 9362SOL    HW139722   1.405   3.163   2.043 -0.4710  0.0979 -0.0868
 9362SOL    HW239723   1.270   3.116   1.999 -0.3015  2.8198 -0.0428
 9363SOL     OW39724   0.598   1.096   7.905  0.3253  0.6312 -0.2816
 9363SOL    HW139725   0.653   1.019   7.920 -0.9487 -0.2236 -0.0350
 9363SOL    HW239726   0.516   1.049   7.914  1.5388 -0.9819  2.1459
 9364SOL     OW39727   1.468   4.013  11.735 -0.3217 -0.0270 -0.3378
 9364SOL    HW139728   1.543   4.020  11.793 -0.6134 -0.8484  0.1316
 9364SOL    HW239729   1.402   3.991  11.800 -0.3202 -0.2758 -0.4175
 9365SOL     OW39730   0.069   4.039   4.441  0.7340 -0.0787 -0.0247
 9365SOL    HW139731   0.027   3.964   4.398  1.7236 -0.3464 -0.5332
 9365SOL    HW239732   0.155   4.054   4.402  0.6361  2.0475  0.6275
 9366SOL     OW39733   1.476   2.356  12.781  0.6565  0.1798  0.2259
 9366SOL    HW139734   1.521   2.434  12.813  1.9412 -0.8893  1.0236
 9366SOL    HW239735   1.468   2.299  12.857 -3.1409 -0.3161 -0.5414
 9367SOL     OW39736   3.074   4.342   7.251  0.1802 -0.0033 -0.7518
 9367SOL    HW139737   3.130   4.390   7.311  0.6206  0.7396 -1.7524
 9367SOL    HW239738   3.065   4.262   7.302  0.1968 -0.0521 -0.8255
 9368SOL     OW39739   2.549   3.447   3.699  0.3915  0.0759 -0.2018
 9368SOL    HW139740   2.598   3.524   3.672 -1.1085  0.6237 -1.3737
 9368SOL    HW239741   2.553   3.450   3.794  4.7379  0.9971 -0.4497
 9369SOL     OW39742   2.267   0.425   8.468  0.5513 -0.2383  0.1142
 9369SOL    HW139743   2.191   0.453   8.518 -0.6253 -0.4397 -1.5283
 9369SOL    HW239744   2.332   0.495   8.475 -1.2747  1.5976 -1.1391
 9370SOL     OW39745   2.102   1.735   5.578 -0.0523  0.3479  0.2672
 9370SOL    HW139746   2.165   1.806   5.571  0.8301 -0.4472  0.2133
 9370SOL    HW239747   2.033   1.757   5.514  0.5005 -0.9268 -0.7750
 9371SOL     OW39748   0.950   3.112   1.619 -0.1941  0.3196 -0.3582
 9371SOL    HW139749   0.938   3.204   1.593  1.5775  0.2543 -1.3497
 9371SOL    HW239750   1.044   3.096   1.613 -0.6599 -3.7082  3.1741
 9372SOL     OW39751   2.073   0.910   8.252 -0.0537  0.3688 -0.2666
 9372SOL    HW139752   2.160   0.886   8.285 -0.1043 -0.6319 -0.8727
 9372SOL    HW239753   2.036   0.938   8.336  1.0626 -1.1056  0.7090
 9373SOL     OW39754   1.967   0.155   6.715 -0.0777  0.4059 -0.3949
 9373SOL    HW139755   1.994   0.070   6.682  1.4058 -0.1680  2.3707
 9373SOL    HW239756   1.930   0.132   6.800  0.1261  0.4549 -0.2936
 9374SOL     OW39757   2.117   0.938   4.704 -0.1182 -0.6263  0.3791
 9374SOL    HW139758   2.032   0.979   4.715 -0.4028 -0.8468 -0.9905
 9374SOL    HW239759   2.171   0.993   4.762 -2.1225 -0.2862  1.9287
 9375SOL     OW39760   2.323   0.079   0.046 -0.2475  0.1149 -0.3750
 9375SOL    HW139761   2.304   0.106   0.136 -0.3707 -1.0057 -0.0642
 9375SOL    HW239762   2.397   0.131   0.015 -1.8814  1.5819 -1.9014
 9376SOL     OW39763   0.495   1.023   4.983  0.2093  0.5004  0.6657
 9376SOL    HW139764   0.422   1.060   5.033 -0.1281 -0.5261  0.9262
 9376SOL    HW239765   0.563   1.086   5.008  1.3056  0.6162 -2.6335
 9377SOL     OW39766   1.303   2.615   8.549 -0.6631  0.1890 -0.4526
 9377SOL    HW139767   1.312   2.701   8.590  1.4022 -1.1129  1.7938
 9377SOL    HW239768   1.342   2.632   8.463 -0.0455  1.0483 -0.0008
 9378SOL     OW39769   0.835   1.719   5.696  0.4259  0.2225 -0.5027
 9378SOL    HW139770   0.743   1.721   5.723  1.3082  0.6912  2.5417
 9378SOL    HW239771   0.833   1.770   5.616 -0.1296 -1.6759 -1.6876
 9379SOL     OW39772   2.760   0.189  13.820  0.4407 -0.7128 -0.0302
 9379SOL    HW139773   2.826   0.200  13.888  0.0345  2.2848 -0.1482
 9379SOL    HW239774   2.694   0.137  13.867 -0.5738  0.4090 -0.2146
 9380SOL     OW39775   1.782   0.821  17.718  0.2483  0.2716 -0.2769
 9380SOL    HW139776   1.712   0.884  17.701 -1.3807 -0.7718  2.6174
 9380SOL    HW239777   1.741   0.738  17.742  0.6306  1.2714  3.9687
 9381SOL     OW39778   3.536   1.087  15.008  0.1203 -0.3903 -0.1971
 9381SOL    HW139779   3.462   1.098  15.068  0.7711  0.0957  0.5271
 9381SOL    HW239780   3.500   1.119  14.926  1.2116  1.7805  0.1699
 9382SOL     OW39781   2.889   0.214   4.026  0.4170  0.2790  0.3120
 9382SOL    HW139782   2.966   0.255   4.064  0.9549  0.8684 -1.4143
 9382SOL    HW239783   2.825   0.285   4.026 -1.3725 -1.3160 -1.3322
 9383SOL     OW39784   3.251   4.045   4.947  0.2412 -0.0912 -0.1470
 9383SOL    HW139785   3.230   4.134   4.976  0.0458 -0.2879  0.3064
 9383SOL    HW239786   3.231   4.051   4.853  0.4256 -1.4525 -0.2656
 9384SOL     OW39787   0.452   1.524   4.665  0.5576  0.1104 -0.0331
 9384SOL    HW139788   0.465   1.601   4.720 -1.9173  0.5974 -0.1536
 9384SOL    HW239789   0.361   1.524   4.635  0.0457 -1.9517  1.4879
 9385SOL     OW39790   0.629   2.082  15.499  0.1676 -0.1575 -0.0029
 9385SOL    HW139791   0.617   2.102  15.406 -0.7791 -1.4823 -0.1679
 9385SOL    HW239792   0.675   2.162  15.525  0.9157 -0.5328 -0.1883
 9386SOL     OW39793   0.946   1.764   1.482 -0.5298  0.9629 -0.2484
 9386SOL    HW139794   0.882   1.834   1.492 -1.9935 -0.4314  0.0107
 9386SOL    HW239795   0.948   1.732   1.572  0.0738  1.3314 -0.1279
 9387SOL     OW39796   0.653   2.121  15.182  0.0342  0.7109  0.3388
 9387SOL    HW139797   0.689   2.032  15.182 -0.0776  0.6627 -1.8828
 9387SOL    HW239798   0.666   2.143  15.090 -1.0853  2.9895  0.7165
 9388SOL     OW39799   1.081   0.171   4.005 -0.3122 -0.3707  0.5833
 9388SOL    HW139800   1.161   0.222   4.017  0.4717 -0.7844 -3.0799
 9388SOL    HW239801   1.124   0.097   3.963  2.0647  2.4805 -1.9878
 9389SOL     OW39802   0.454   0.671   5.827 -0.6896 -0.1175 -0.6257
 9389SOL    HW139803   0.360   0.670   5.811 -0.8461 -1.0389  0.3740
 9389SOL    HW239804   0.455   0.618   5.906 -0.7103  1.3661  0.3847
 9390SOL     OW39805   2.391   1.227   7.174  0.0103 -0.0352 -0.2383
 9390SOL    HW139806   2.336   1.164   7.128  1.5765 -1.3327 -0.3597
 9390SOL    HW239807   2.361   1.198   7.260  2.5405  0.0693  0.6777
 9391SOL     OW39808   2.827   0.824  17.630  0.0723  0.3355 -0.4165
 9391SOL    HW139809   2.902   0.785  17.674  0.7142 -0.5570 -2.3207
 9391SOL    HW239810   2.816   0.789  17.542  2.6870 -0.5588 -0.3848
 9392SOL     OW39811   4.642   2.981   4.638  0.2358  0.3340  0.1706
 9392SOL    HW139812   4.661   2.943   4.724 -1.9099  1.8101  1.2998
 9392SOL    HW239813   4.714   3.042   4.620  1.8437 -1.3365  0.8897
 9393SOL     OW39814   0.410   3.348   4.357  0.2731 -0.6591 -0.1257
 9393SOL    HW139815   0.473   3.280   4.380 -1.7242 -2.2007  0.8031
 9393SOL    HW239816   0.353   3.298   4.299 -0.9883  0.7611 -0.1230
 9394SOL     OW39817   2.482   4.184   6.316 -0.3740  0.6612  0.2801
 9394SOL    HW139818   2.521   4.177   6.228 -1.1410 -0.8599  0.0619
 9394SOL    HW239819   2.532   4.129   6.377  2.1353  2.8155  0.1801
 9395SOL     OW39820   0.613   1.358   3.660 -0.2486 -0.7038  0.2494
 9395SOL    HW139821   0.668   1.303   3.604 -1.1181  0.0220 -1.2939
 9395SOL    HW239822   0.571   1.406   3.589 -0.6971  1.3213  1.8863
 9396SOL     OW39823   2.148   3.518   7.370 -0.0098  0.5484 -0.0379
 9396SOL    HW139824   2.139   3.603   7.326 -2.9970 -0.0538 -0.5975
 9396SOL    HW239825   2.237   3.514   7.405  1.1612 -0.4535 -3.0836
 9397SOL     OW39826   1.381   2.374   8.348  0.0844  0.5043 -0.2050
 9397SOL    HW139827   1.381   2.278   8.340 -0.2774  0.4422  0.6214
 9397SOL    HW239828   1.311   2.388   8.412 -0.4921  2.3072 -1.2318
 9398SOL     OW39829   0.395   0.895   3.274 -0.6113  0.0629 -0.6027
 9398SOL    HW139830   0.331   0.965   3.262 -1.5315 -0.5110  0.9870
 9398SOL    HW239831   0.456   0.929   3.339 -0.7377 -3.8888  1.6017
 9399SOL     OW39832   1.389   2.044   3.910  0.6753  0.6181 -0.2019
 9399SOL    HW139833   1.382   2.127   3.957  0.7748  1.6567 -2.0277
 9399SOL    HW239834   1.299   2.010   3.913  0.9602 -0.1520 -0.3755
 9400SOL     OW39835   4.571   4.040   1.630 -0.2936  0.2323  0.6293
 9400SOL    HW139836   4.537   4.053   1.542  1.6337 -0.2119 -0.1976
 9400SOL    HW239837   4.606   4.127   1.650 -0.2782  0.6552 -1.2191
 9401SOL     OW39838   0.178   2.631   6.008  0.4026 -0.7788 -0.2735
 9401SOL    HW139839   0.098   2.579   6.011  0.1303 -0.1832  2.2725
 9401SOL    HW239840   0.156   2.702   6.068  0.8394 -1.8801  1.1904
 9402SOL     OW39841   2.125   0.138   3.531  0.4114 -0.7754  0.2847
 9402SOL    HW139842   2.178   0.066   3.497  2.5422  1.2332 -0.6279
 9402SOL    HW239843   2.046   0.133   3.476  1.8015 -2.3154 -1.5731
 9403SOL     OW39844   0.869   2.106   3.649  0.1476  0.0736 -0.3390
 9403SOL    HW139845   0.841   2.024   3.690 -1.7499  2.2710  2.6911
 9403SOL    HW239846   0.932   2.140   3.713 -0.3497  0.4749 -0.0667
 9404SOL     OW39847   1.143   1.626   3.670 -0.5588 -0.2968 -0.1698
 9404SOL    HW139848   1.048   1.615   3.664 -0.4696 -0.7021 -0.9001
 9404SOL    HW239849   1.161   1.590   3.757 -0.2680  0.6448  0.1537
 9405SOL     OW39850   0.783   3.989  10.221  0.2908  0.2623  0.3764
 9405SOL    HW139851   0.695   3.951  10.228  0.6360 -1.2189 -3.2130
 9405SOL    HW239852   0.823   3.914  10.264 -0.1693 -1.4990 -2.2286
 9406SOL     OW39853   4.209   0.328  13.408 -0.1169  0.0248  0.0526
 9406SOL    HW139854   4.147   0.355  13.340  0.3798  0.5151 -0.2061
 9406SOL    HW239855   4.280   0.312  13.346  1.5835  1.8143  1.5362
 9407SOL     OW39856   2.545   4.163   9.009 -0.4898  0.0164  0.2219
 9407SOL    HW139857   2.620   4.177   9.066 -1.2563 -0.4299  1.3335
 9407SOL    HW239858   2.535   4.255   8.985 -2.7886 -0.1264  0.6001
 9408SOL     OW39859   1.627   0.420   2.455  0.1154 -0.6011  0.4498
 9408SOL    HW139860   1.655   0.417   2.363  0.9491  2.8059  0.5986
 9408SOL    HW239861   1.622   0.515   2.466 -1.2599 -0.7405  0.9515
 9409SOL     OW39862   4.653   0.258   5.169  0.0207 -0.7623 -0.1259
 9409SOL    HW139863   4.681   0.178   5.213 -0.1497 -0.9913 -0.4297
 9409SOL    HW239864   4.580   0.224   5.117  0.7871 -0.0231 -1.6766
 9410SOL     OW39865   3.314   4.444   7.417  0.1904 -0.2673 -0.6119
 9410SOL    HW139866   3.334   4.484   7.502 -0.0807 -1.1677 -0.1240
 9410SOL    HW239867   3.337   4.516   7.359 -0.8672 -0.7019 -1.5797
 9411SOL     OW39868   1.555   4.435  14.020 -0.5808  0.4678 -0.2208
 9411SOL    HW139869   1.479   4.427  14.078  0.0041 -0.1883  0.4543
 9411SOL    HW239870   1.549   4.528  13.996 -1.1755  0.5186  0.1242
 9412SOL     OW39871   1.509   3.612   5.188  0.2409  0.5266  0.1919
 9412SOL    HW139872   1.458   3.545   5.233 -1.0715  0.6652 -1.0707
 9412SOL    HW239873   1.470   3.695   5.216  0.5274  0.5308  0.5776
 9413SOL     OW39874   1.245   3.425   1.671  0.4709  0.5900 -0.3268
 9413SOL    HW139875   1.194   3.480   1.612  1.2137  1.5984 -0.0242
 9413SOL    HW239876   1.326   3.475   1.660  0.8609  0.0799  0.2674
 9414SOL     OW39877   4.519   3.485   3.714  0.2593 -0.5195  0.4403
 9414SOL    HW139878   4.483   3.497   3.801  2.6653  1.4215  1.1754
 9414SOL    HW239879   4.613   3.497   3.728  0.1928  1.2935 -0.6609
 9415SOL     OW39880   3.608   0.342   0.615  0.4244  0.0087  0.4827
 9415SOL    HW139881   3.513   0.335   0.627  0.5387  0.8184  1.8215
 9415SOL    HW239882   3.629   0.337   0.708 -0.7734  0.3728  0.7785
 9416SOL     OW39883   3.075   1.354   3.571  0.2119 -0.2949  0.5158
 9416SOL    HW139884   3.092   1.346   3.477  3.7242 -1.2126  1.2256
 9416SOL    HW239885   3.089   1.448   3.583 -0.8047  0.0668 -1.0977
 9417SOL     OW39886   3.027   3.983   7.635 -0.1765  0.4385 -0.0648
 9417SOL    HW139887   3.007   4.003   7.544 -1.8901  0.7897  0.3723
 9417SOL    HW239888   3.078   3.903   7.627 -1.2926 -0.2003 -0.9029
 9418SOL     OW39889   2.899   0.746   2.382  0.1662 -0.9524 -0.0034
 9418SOL    HW139890   2.867   0.695   2.308  1.7442  1.2774 -2.2509
 9418SOL    HW239891   2.959   0.685   2.424  1.3239  1.6838  2.1714
 9419SOL     OW39892   3.741   3.360   9.271 -0.5253  0.1490  0.1512
 9419SOL    HW139893   3.739   3.455   9.262  1.4981  0.0837 -0.8949
 9419SOL    HW239894   3.679   3.343   9.201  1.6824  1.5349 -2.1186
 9420SOL     OW39895   4.561   1.071  14.272  0.3214 -0.5947 -0.1231
 9420SOL    HW139896   4.599   1.106  14.192 -0.6090  0.3506 -0.1569
 9420SOL    HW239897   4.613   0.995  14.299  1.3615 -0.5174 -1.9360
 9421SOL     OW39898   4.701   2.733  15.327  0.1086  0.2384 -0.0595
 9421SOL    HW139899   4.740   2.749  15.413  0.6664  2.2548 -0.6848
 9421SOL    HW239900   0.041   2.724  15.275 -0.7565  0.9849 -1.5203
 9422SOL     OW39901   4.262   3.926   1.598 -0.1408  0.0195  0.0055
 9422SOL    HW139902   4.308   3.946   1.517  1.4028 -0.3855  0.7830
 9422SOL    HW239903   4.327   3.875   1.646 -1.4031 -0.7606  0.8778
 9423SOL     OW39904   3.488   4.628   5.778 -0.2905  0.2613 -0.3449
 9423SOL    HW139905   3.408   4.681   5.769 -1.6488 -1.5412  1.0869
 9423SOL    HW239906   3.463   4.586   5.860  0.9574  2.2822  1.0879
 9424SOL     OW39907   0.516   4.415   4.782  0.3650 -0.1952 -0.1207
 9424SOL    HW139908   0.499   4.506   4.805  1.8335 -0.2561  1.1582
 9424SOL    HW239909   0.545   4.420   4.691  0.4353  0.4307 -0.0653
 9425SOL     OW39910   4.054   1.432   0.210  0.4360 -0.0639 -0.3220
 9425SOL    HW139911   4.014   1.411   0.126  0.8016  2.3083 -1.0900
 9425SOL    HW239912   3.997   1.382   0.268 -0.6065 -0.0912 -1.3758
 9426SOL     OW39913   4.422   1.819   4.072  0.3894 -0.4788  0.6688
 9426SOL    HW139914   4.370   1.742   4.095  0.1336 -1.2628 -2.6176
 9426SOL    HW239915   4.480   1.827   4.148 -0.6534 -1.2044  1.5372
 9427SOL     OW39916   4.038   1.777   9.384  0.4050  0.1522  1.1356
 9427SOL    HW139917   4.073   1.866   9.390 -0.8536  0.7216  0.0402
 9427SOL    HW239918   4.100   1.731   9.440  0.2162 -1.5915 -0.0819
 9428SOL     OW39919   1.533   3.830   6.780 -0.2594 -0.0090 -0.2208
 9428SOL    HW139920   1.541   3.738   6.807 -0.4483 -0.1873 -0.7860
 9428SOL    HW239921   1.445   3.841   6.746 -1.3600 -2.9437  1.6033
 9429SOL     OW39922   4.409   4.571   6.571  0.8635  0.0870 -0.4455
 9429SOL    HW139923   4.492   4.615   6.594  0.7389 -0.8785  1.8516
 9429SOL    HW239924   4.449   4.502   6.519 -0.3591 -1.4305  0.6448
 9430SOL     OW39925   2.740   2.142   8.033  0.5423 -0.3462  0.3182
 9430SOL    HW139926   2.748   2.209   8.101  2.3204  0.3883 -0.5923
 9430SOL    HW239927   2.676   2.083   8.072 -0.2270  0.8128  0.8096
 9431SOL     OW39928   2.963   1.685   6.983  0.0718 -0.3073 -0.3814
 9431SOL    HW139929   2.989   1.656   7.071 -0.4432 -1.1075 -0.4916
 9431SOL    HW239930   2.938   1.601   6.943 -1.8731  0.1025 -0.0439
 9432SOL     OW39931   4.729   3.244  10.127 -0.0529  0.7024  0.2492
 9432SOL    HW139932   0.025   3.240  10.038 -0.3147  1.9045  0.0898
 9432SOL    HW239933   0.002   3.151  10.145  0.8082  0.3138 -2.2814
 9433SOL     OW39934   0.303   3.024   2.468 -0.6469 -0.5583  0.9462
 9433SOL    HW139935   0.320   3.097   2.408 -0.2866 -0.8668  0.6690
 9433SOL    HW239936   0.382   3.023   2.521  0.0394  0.9282 -0.0564
 9434SOL     OW39937   2.324   2.387   5.829 -0.0383 -0.2011 -0.8141
 9434SOL    HW139938   2.414   2.419   5.839 -1.0063  2.2176  0.2020
 9434SOL    HW239939   2.327   2.363   5.736 -0.4944  0.0562 -0.8937
 9435SOL     OW39940   3.408   2.086   7.349 -0.1337  0.4918  0.2622
 9435SOL    HW139941   3.386   2.150   7.281  2.1534  0.0556 -0.8839
 9435SOL    HW239942   3.359   2.008   7.322 -2.6654  1.1402  2.9315
 9436SOL     OW39943   0.436   4.159   8.496  0.3308 -0.1547 -0.4093
 9436SOL    HW139944   0.435   4.065   8.480 -1.7793 -0.3774  0.9403
 9436SOL    HW239945   0.345   4.177   8.521  0.1470 -0.3705 -0.9255
 9437SOL     OW39946   1.332   4.121  15.161  0.2463  0.0580 -0.3921
 9437SOL    HW139947   1.241   4.121  15.131  0.5668 -0.2224 -1.3695
 9437SOL    HW239948   1.321   4.143  15.254 -0.7981 -0.9617 -0.2791
 9438SOL     OW39949   2.759   4.547   4.047  0.6564 -0.3679 -0.2393
 9438SOL    HW139950   2.803   4.602   3.983 -2.3798  2.2860 -0.0551
 9438SOL    HW239951   2.713   4.484   3.993  0.5844  1.0312 -1.8050
 9439SOL     OW39952   2.674   3.025  16.605  0.4528  0.4734  0.1087
 9439SOL    HW139953   2.735   3.039  16.533 -0.8599 -1.0336 -1.2986
 9439SOL    HW239954   2.647   2.934  16.594  3.6086 -0.4748  0.3529
 9440SOL     OW39955   4.729   2.374   3.286  0.5785 -0.0175  0.3400
 9440SOL    HW139956   0.065   2.324   3.313  0.1523 -1.5220 -1.2452
 9440SOL    HW239957   4.676   2.366   3.366 -0.4855 -2.1224 -0.5806
 9441SOL     OW39958   3.003   4.318   8.368  0.0347  0.7268 -0.1068
 9441SOL    HW139959   3.082   4.350   8.411  0.6733  0.1237 -0.8256
 9441SOL    HW239960   3.008   4.373   8.291 -1.5179 -0.0950 -0.8036
 9442SOL     OW39961   1.519   0.537   3.348 -0.5213  0.0390 -0.4357
 9442SOL    HW139962   1.527   0.630   3.371 -0.2549 -0.0757 -0.0545
 9442SOL    HW239963   1.437   0.511   3.391 -0.4273 -0.3183 -0.4756
 9443SOL     OW39964   3.750   0.385   7.712  0.8288  0.7011 -0.8951
 9443SOL    HW139965   3.783   0.316   7.769  0.8396  1.2042 -0.2954
 9443SOL    HW239966   3.738   0.338   7.629  0.5321  2.2033 -1.6954
 9444SOL     OW39967   0.052   0.373   2.469 -0.2631 -0.5977 -0.7578
 9444SOL    HW139968   0.140   0.408   2.454  0.6302 -3.2624 -1.8671
 9444SOL    HW239969   0.016   0.387   2.382 -2.7284  2.5614  0.7780
 9445SOL     OW39970   3.897   0.565  15.311  0.0716 -0.3593  0.3578
 9445SOL    HW139971   3.924   0.657  15.303  1.1608 -0.6717  0.4543
 9445SOL    HW239972   3.850   0.564  15.394  0.2854 -1.2380  0.4645
 9446SOL     OW39973   3.229   1.317  12.385  0.0017  0.0855 -0.2686
 9446SOL    HW139974   3.239   1.375  12.461 -1.0302 -0.6404  0.4185
 9446SOL    HW239975   3.136   1.339  12.377 -0.5897 -1.7361  1.5033
 9447SOL     OW39976   3.317   3.025   9.101  0.3143  0.2497 -0.0572
 9447SOL    HW139977   3.258   3.100   9.112 -0.4864 -0.2887 -0.7503
 9447SOL    HW239978   3.399   3.047   9.146  0.5916 -2.8351  0.9503
 9448SOL     OW39979   4.193   1.453   1.863  0.5816  0.9183 -0.2571
 9448SOL    HW139980   4.108   1.476   1.827  0.2181 -1.4245 -0.8546
 9448SOL    HW239981   4.181   1.359   1.868 -1.3741  1.3563  3.6876
 9449SOL     OW39982   0.418   2.999  16.728 -0.6125 -0.3020  0.4609
 9449SOL    HW139983   0.385   2.968  16.813 -0.2148  0.5207  0.9174
 9449SOL    HW239984   0.351   3.064  16.707 -0.3559  0.1953  1.1767
 9450SOL     OW39985   4.512   0.012   8.653 -0.0895  0.2645  0.3232
 9450SOL    HW139986   4.491   0.069   8.726  1.1469 -0.0283  0.9192
 9450SOL    HW239987   4.598   0.047   8.630 -0.8078  2.4322  0.9472
 9451SOL     OW39988   1.470   1.329   4.654  0.5968  0.3618 -0.6291
 9451SOL    HW139989   1.415   1.367   4.586  0.3582 -0.8283 -1.0946
 9451SOL    HW239990   1.404   1.317   4.722  0.7129 -1.4922 -0.8276
 9452SOL     OW39991   1.545   3.775   2.827  0.1753  0.3901  0.5027
 9452SOL    HW139992   1.599   3.854   2.827 -0.0058  0.5161  0.2983
 9452SOL    HW239993   1.497   3.788   2.909 -1.2908 -4.7073  0.4328
 9453SOL     OW39994   1.857   2.292   7.836 -0.0107 -0.0295  0.4324
 9453SOL    HW139995   1.912   2.296   7.758  2.1816  1.0399  2.0263
 9453SOL    HW239996   1.908   2.347   7.897 -1.8036  2.8298 -0.6527
 9454SOL     OW39997   0.204   3.975  10.738  0.7379 -0.1307  0.3335
 9454SOL    HW139998   0.170   3.970  10.827 -1.6319 -1.9422 -0.6700
 9454SOL    HW239999   0.294   4.006  10.748  1.2697 -2.1548  1.7342
 9455SOL     OW40000   1.649   1.225   4.275 -0.0365  0.1051  0.0800
 9455SOL    HW140001   1.620   1.134   4.286 -1.4709  0.5184 -0.3750
 9455SOL    HW240002   1.685   1.247   4.361 -0.6271  0.5700  0.2038
 9456SOL     OW40003   2.458   1.953   1.353 -0.1572  0.1439 -0.9572
 9456SOL    HW140004   2.395   1.938   1.282 -1.3736  0.5562  0.0233
 9456SOL    HW240005   2.524   2.003   1.305  1.0545 -0.3332  0.2167
 9457SOL     OW40006   2.217   0.367  14.668  0.2118  0.1054 -0.0313
 9457SOL    HW140007   2.277   0.440  14.684 -0.5140  0.7038 -0.0454
 9457SOL    HW240008   2.269   0.287  14.663  2.5939  1.5965  0.7475
 9458SOL     OW40009   0.135   3.372   2.331 -0.0039  0.0061 -0.0104
 9458SOL    HW140010   0.045   3.363   2.299 -0.5549  1.2990  1.1455
 9458SOL    HW240011   0.129   3.448   2.389 -0.1213  0.0778 -0.1165
 9459SOL     OW40012   2.201   2.883  11.338 -0.0233  0.1871  0.4099
 9459SOL    HW140013   2.285   2.915  11.372  0.4550 -2.0226  1.3373
 9459SOL    HW240014   2.185   2.828  11.415 -1.8327  0.7549  0.4337
 9460SOL     OW40015   3.957   2.365  10.846  0.5668 -0.1336  0.3976
 9460SOL    HW140016   3.997   2.305  10.784 -0.7211 -0.4408 -0.1298
 9460SOL    HW240017   4.002   2.447  10.828 -0.1570 -0.1275 -1.3678
 9461SOL     OW40018   0.038   3.107   3.213  0.1143  0.1438  0.4225
 9461SOL    HW140019   0.005   3.018   3.226 -2.3515  0.8331 -1.0713
 9461SOL    HW240020   4.692   3.137   3.185 -0.0217 -1.4701 -0.9217
 9462SOL     OW40021   3.423   1.775   8.854  0.5556 -0.3155  0.2019
 9462SOL    HW140022   3.408   1.698   8.799 -1.2591  0.0728  0.1519
 9462SOL    HW240023   3.337   1.792   8.892 -0.6301 -1.8440 -1.7820
 9463SOL     OW40024   4.105   1.071   1.365  0.0061 -0.4532  0.7701
 9463SOL    HW140025   4.184   1.095   1.414  0.0437 -1.1740  1.0610
 9463SOL    HW240026   4.045   1.054   1.438 -1.9314  0.7335 -0.5392
 9464SOL     OW40027   1.042   4.526   1.396  0.0299 -0.0881 -0.1378
 9464SOL    HW140028   1.103   4.577   1.343 -0.0713  1.0713  0.8474
 9464SOL    HW240029   0.969   4.517   1.335 -1.1076  1.5074  0.9952
 9465SOL     OW40030   3.600   3.357   4.858  0.4756 -0.0765  0.8436
 9465SOL    HW140031   3.543   3.402   4.919  1.5709  4.0540 -1.2230
 9465SOL    HW240032   3.625   3.282   4.914  0.1673 -0.2210  0.7856
 9466SOL     OW40033   1.913   2.571   1.480  0.0933 -0.1716  0.2495
 9466SOL    HW140034   1.997   2.598   1.516 -0.1380  2.4570 -1.1709
 9466SOL    HW240035   1.858   2.561   1.558 -0.2939 -0.1640 -0.0201
 9467SOL     OW40036   1.435   0.852   4.159  0.0356 -0.3378 -0.1265
 9467SOL    HW140037   1.509   0.861   4.100  0.5404  1.0837  0.7274
 9467SOL    HW240038   1.404   0.768   4.125  0.6306 -1.0056  0.9791
 9468SOL     OW40039   4.276   1.651   1.113  0.1684  0.1941 -0.1091
 9468SOL    HW140040   4.371   1.646   1.112  0.2328  1.4986 -0.4202
 9468SOL    HW240041   4.266   1.711   1.040 -0.6940 -1.3494 -1.2638
 9469SOL     OW40042   3.212   3.741   3.557  0.4046  0.6031 -0.3158
 9469SOL    HW140043   3.272   3.798   3.605  0.4860  0.9124 -0.7963
 9469SOL    HW240044   3.232   3.666   3.613  1.6321  1.3580  0.2619
 9470SOL     OW40045   1.882   0.443  17.441 -0.0104 -0.3801 -0.1066
 9470SOL    HW140046   1.968   0.404  17.460  0.5148  0.1267 -1.4755
 9470SOL    HW240047   1.903   0.536  17.440  3.2251 -1.1060 -1.6963
 9471SOL     OW40048   0.601   2.032   4.953 -0.0183  0.2877  1.0403
 9471SOL    HW140049   0.545   2.110   4.951  0.5143  0.6092 -0.8525
 9471SOL    HW240050   0.686   2.066   4.925 -1.3765  1.1905 -1.9775
 9472SOL     OW40051   3.466   2.452   3.031 -0.3582 -1.0949  0.5066
 9472SOL    HW140052   3.529   2.439   2.960  1.0590  2.1736  1.1626
 9472SOL    HW240053   3.400   2.504   2.986 -0.1180 -0.4614  0.8795
 9473SOL     OW40054   0.868   0.079   7.934 -0.0126 -0.5691 -0.8523
 9473SOL    HW140055   0.817   0.100   8.012  2.0118  0.4852  0.1910
 9473SOL    HW240056   0.812   0.011   7.898  1.0009 -0.4557 -2.6552
 9474SOL     OW40057   3.018   3.923   5.769 -0.1412  0.4497  0.4523
 9474SOL    HW140058   2.966   3.867   5.711  2.2249 -2.4793  1.1677
 9474SOL    HW240059   3.098   3.873   5.756 -0.6131 -0.6274  1.6624
 9475SOL     OW40060   0.979   2.285   0.820  0.1659 -0.3804  0.1846
 9475SOL    HW140061   0.939   2.203   0.850  1.5693 -0.3098  2.2622
 9475SOL    HW240062   0.961   2.346   0.891  0.5795 -0.0758  0.0222
 9476SOL     OW40063   3.220   0.997   7.907 -0.0461 -0.1826 -0.0050
 9476SOL    HW140064   3.145   0.981   7.963  0.0560  0.5851  0.3460
 9476SOL    HW240065   3.192   0.947   7.831 -1.0293 -0.2403  0.3994
 9477SOL     OW40066   3.769   1.316   7.289  0.0092  0.2887  0.0235
 9477SOL    HW140067   3.757   1.221   7.296  2.4571 -0.1024 -0.9768
 9477SOL    HW240068   3.807   1.329   7.202  1.8415 -0.6245  0.6716
 9478SOL     OW40069   3.871   4.371  13.696  0.0707  0.4755  0.4532
 9478SOL    HW140070   3.936   4.301  13.702  2.7371  2.8603 -0.5114
 9478SOL    HW240071   3.830   4.339  13.616  1.4640 -0.4837  0.1205
 9479SOL     OW40072   1.400   4.665  10.489  0.2002 -0.0601  0.0464
 9479SOL    HW140073   1.476   4.670  10.546 -0.6226 -0.9715  1.2322
 9479SOL    HW240074   1.341   4.727  10.532  2.3985  2.0618 -0.0592
 9480SOL     OW40075   2.145   2.747  16.244 -0.0710  0.3509 -0.6718
 9480SOL    HW140076   2.194   2.817  16.288  2.2490 -0.1168 -2.5326
 9480SOL    HW240077   2.216   2.685  16.229  0.1701  0.7422 -1.1560
 9481SOL     OW40078   0.772   1.321   0.820 -0.4384  0.3647  0.0658
 9481SOL    HW140079   0.806   1.232   0.829 -2.5900 -0.5320 -0.5458
 9481SOL    HW240080   0.685   1.303   0.782  0.0741 -3.1965  0.5127
 9482SOL     OW40081   2.548   1.314   6.889  0.1518  0.2505  0.5658
 9482SOL    HW140082   2.458   1.310   6.856  0.3967  3.0267 -0.4208
 9482SOL    HW240083   2.555   1.407   6.868  2.4247 -0.5133 -2.0319
 9483SOL     OW40084   4.201   1.394   6.199 -0.0725 -0.2385  0.5981
 9483SOL    HW140085   4.185   1.341   6.277 -0.3647 -0.7160  0.2092
 9483SOL    HW240086   4.190   1.476   6.248 -1.9163 -0.0389 -0.1574
 9484SOL     OW40087   2.444   1.346   9.061 -0.0423 -0.1612 -0.0719
 9484SOL    HW140088   2.522   1.324   9.011 -0.2789 -1.0303 -0.0538
 9484SOL    HW240089   2.423   1.263   9.105  2.4341 -1.4453 -1.3368
 9485SOL     OW40090   3.975   1.028   7.698  0.1815  0.2186  0.1762
 9485SOL    HW140091   3.902   1.086   7.720 -2.8041 -2.6126 -2.2007
 9485SOL    HW240092   3.928   0.992   7.623  1.4201  1.5870 -1.2543
 9486SOL     OW40093   2.224   0.147   0.761 -0.0787 -0.0519  0.1883
 9486SOL    HW140094   2.158   0.130   0.694  0.3647 -0.8273 -0.0493
 9486SOL    HW240095   2.254   0.057   0.772  0.9398  0.0610 -1.7701
 9487SOL     OW40096   2.596   0.956  10.869 -0.0599 -0.6203 -0.3598
 9487SOL    HW140097   2.579   0.992  10.956 -1.4601 -0.3387 -0.7477
 9487SOL    HW240098   2.527   0.890  10.868  0.6936 -1.4113 -0.3597
 9488SOL     OW40099   4.033   4.737  10.153  0.0644  0.1202  0.2544
 9488SOL    HW140100   4.001   4.716  10.240  0.6895 -1.8243  0.0014
 9488SOL    HW240101   4.120   0.025  10.180 -0.6628  1.1225  1.5603
 9489SOL     OW40102   3.203   2.435   2.683 -0.6651 -0.3541 -0.0751
 9489SOL    HW140103   3.248   2.415   2.764 -1.8797 -1.0853  0.4236
 9489SOL    HW240104   3.260   2.501   2.643  2.2343 -3.0872 -0.4375
 9490SOL     OW40105   4.121   2.339   0.115  0.4885  0.3953  0.5524
 9490SOL    HW140106   4.131   2.245   0.103 -0.1883  0.4356 -0.3063
 9490SOL    HW240107   4.191   2.382   0.067  0.7560  1.3134  1.7584
 9491SOL     OW40108   4.689   0.443  12.058  0.1720 -0.1522  0.0483
 9491SOL    HW140109   4.711   0.369  12.114 -2.8351 -0.8080  0.3657
 9491SOL    HW240110   4.631   0.411  11.989  0.0356  1.0794 -0.4233
 9492SOL     OW40111   4.088   1.879   4.046  0.0278 -0.5722 -0.2779
 9492SOL    HW140112   4.012   1.837   4.007 -0.6140  0.4758 -0.1672
 9492SOL    HW240113   4.132   1.905   3.965 -1.6347  1.5442 -0.5055
 9493SOL     OW40114   2.411   2.420   6.455  0.0510  0.3017  0.3058
 9493SOL    HW140115   2.411   2.325   6.467 -0.3482  0.2424 -0.1485
 9493SOL    HW240116   2.319   2.445   6.448 -0.3073 -1.5257 -1.4491
 9494SOL     OW40117   4.736   3.229   7.027  0.1087  0.6549 -0.3318
 9494SOL    HW140118   0.025   3.139   7.017  1.5176  1.0015  0.6769
 9494SOL    HW240119   4.703   3.237   7.117 -0.1778 -0.4667 -0.3322
 9495SOL     OW40120   3.945   1.762   2.127  0.7981  0.5276 -0.0943
 9495SOL    HW140121   3.871   1.709   2.155 -0.9347  2.8624 -0.1933
 9495SOL    HW240122   3.910   1.848   2.150  3.0225  1.1616  0.8835
 9496SOL     OW40123   4.659   0.056  14.562  0.0098 -0.2876  0.3127
 9496SOL    HW140124   4.601   0.131  14.576 -0.8612 -0.8735 -0.1274
 9496SOL    HW240125   4.681   0.079  14.472 -0.3401  1.2646  0.6315
 9497SOL     OW40126   2.258   3.691   8.409 -0.6517 -0.3628 -0.0776
 9497SOL    HW140127   2.328   3.663   8.351 -0.0826 -0.7745  0.8052
 9497SOL    HW240128   2.205   3.738   8.345  1.4872 -1.9559 -2.9999
 9498SOL     OW40129   0.800   0.826  14.751 -0.1442 -0.0546  0.2705
 9498SOL    HW140130   0.879   0.873  14.778 -1.3492  2.3288 -0.4294
 9498SOL    HW240131   0.780   0.779  14.832  3.4635  0.5929  1.5510
 9499SOL     OW40132   1.382   2.034   5.395  0.3664  0.7464  0.1161
 9499SOL    HW140133   1.355   1.992   5.314  0.8882  0.8945 -0.1297
 9499SOL    HW240134   1.449   2.089   5.355 -0.8026 -1.1209 -4.3053
 9500SOL     OW40135   4.589   2.147   6.765  0.8190  0.6130 -0.6599
 9500SOL    HW140136   4.627   2.196   6.692  1.0905  0.4154 -0.6495
 9500SOL    HW240137   4.645   2.165   6.840 -0.0485  1.1136 -0.1357
 9501SOL     OW40138   3.725   0.871   3.614 -0.2247 -0.4325  0.0950
 9501SOL    HW140139   3.755   0.934   3.548  1.0000 -0.6944  0.3899
 9501SOL    HW240140   3.719   0.916   3.698 -0.8943 -0.3326 -0.0073
 9502SOL     OW40141   3.447   0.010  17.225  0.8635 -0.5270  0.4279
 9502SOL    HW140142   3.409   0.089  17.263 -0.8990 -1.2358  0.1108
 9502SOL    HW240143   3.456   0.025  17.130 -0.3969  1.5065  0.6245
 9503SOL     OW40144   3.958   3.459   9.476 -0.1209 -0.1113 -0.1390
 9503SOL    HW140145   3.935   3.501   9.559 -1.8017  0.3253 -0.8345
 9503SOL    HW240146   3.914   3.511   9.408 -1.1761 -1.1664 -0.2519
 9504SOL     OW40147   3.766   3.020   7.692 -0.3131 -0.1394 -0.6571
 9504SOL    HW140148   3.709   2.997   7.765 -0.5503 -1.8521 -1.3593
 9504SOL    HW240149   3.690   3.011   7.633 -0.1818 -0.0835 -0.8342
 9505SOL     OW40150   1.782   0.368   5.411  0.8381  0.3474 -0.6940
 9505SOL    HW140151   1.788   0.273   5.420 -1.3831  0.1103 -1.8163
 9505SOL    HW240152   1.783   0.395   5.503 -3.6788  1.3082 -0.9626
 9506SOL     OW40153   4.722   4.511   6.997 -0.2469 -0.4026 -0.2766
 9506SOL    HW140154   4.640   4.558   6.984 -1.3369 -2.3392 -0.2741
 9506SOL    HW240155   0.036   4.590   6.995  0.1473 -0.6167  1.4483
 9507SOL     OW40156   1.674   0.652   5.784 -0.3672 -0.3605 -0.1916
 9507SOL    HW140157   1.581   0.643   5.762  0.2122 -1.0026 -2.3222
 9507SOL    HW240158   1.663   0.677   5.876  1.3494 -0.6064  0.0702
 9508SOL     OW40159   1.828   0.158  15.261 -0.5004  0.3892 -0.2997
 9508SOL    HW140160   1.782   0.092  15.312 -1.2135 -1.1565 -2.9454
 9508SOL    HW240161   1.798   0.238  15.305 -0.6811 -1.8100  3.4829
 9509SOL     OW40162   0.818   3.187   6.811  0.1952 -0.1703  0.0961
 9509SOL    HW140163   0.766   3.174   6.732  2.2898 -2.2145 -0.9541
 9509SOL    HW240164   0.893   3.128   6.799  2.3407  2.6503 -0.4914
 9510SOL     OW40165   2.742   1.568  16.432  0.0423  0.4195 -0.0009
 9510SOL    HW140166   2.661   1.571  16.380  0.4944 -0.5909 -0.7528
 9510SOL    HW240167   2.801   1.512  16.382 -0.4387  0.9593 -1.1827
 9511SOL     OW40168   1.965   2.231   2.939  0.4869 -0.1967 -0.1571
 9511SOL    HW140169   1.873   2.254   2.940  1.1537  2.4006  0.6587
 9511SOL    HW240170   1.990   2.237   2.847 -1.4946  1.1029 -0.5977
 9512SOL     OW40171   1.849   1.331  15.898 -0.5265 -0.2027  0.6664
 9512SOL    HW140172   1.911   1.367  15.961 -1.0195 -2.1726  2.2993
 9512SOL    HW240173   1.823   1.410  15.851  0.7696 -1.4250 -2.1243
 9513SOL     OW40174   2.122   2.071   7.221 -0.4066 -0.3101 -0.2449
 9513SOL    HW140175   2.087   2.017   7.292  1.5191 -2.2443 -0.7585
 9513SOL    HW240176   2.073   2.030   7.149 -1.1824 -1.4933  0.9575
 9514SOL     OW40177   0.369   2.794   9.680  0.0565 -0.2098 -0.2630
 9514SOL    HW140178   0.441   2.762   9.733  0.8043 -0.8340 -1.6407
 9514SOL    HW240179   0.304   2.732   9.712 -0.3117  0.7556  0.8650
 9515SOL     OW40180   0.150   4.326   5.721  0.0519 -0.4984 -0.1256
 9515SOL    HW140181   0.117   4.338   5.810  0.5627  1.2686 -0.1711
 9515SOL    HW240182   0.078   4.360   5.668 -1.1852 -0.5340  1.5349
 9516SOL     OW40183   1.579   2.517  17.298  0.4485  0.2402  0.0439
 9516SOL    HW140184   1.553   2.609  17.289 -1.3913 -0.3195 -0.2764
 9516SOL    HW240185   1.528   2.480  17.227 -1.3715 -0.4080  1.6951
 9517SOL     OW40186   1.257   1.833   7.374 -0.2667  1.1390  0.5565
 9517SOL    HW140187   1.317   1.842   7.300 -1.2450 -2.1951 -0.6674
 9517SOL    HW240188   1.307   1.827   7.455 -0.3400  0.2152  0.5354
 9518SOL     OW40189   0.018   0.178   8.653  0.2132 -0.0208 -0.0336
 9518SOL    HW140190   0.049   0.247   8.711 -0.7632 -1.7397  2.4993
 9518SOL    HW240191   0.046   0.207   8.565  0.8297  1.6134  0.6951
 9519SOL     OW40192   2.253   2.560   3.571 -0.5247 -0.2021 -0.6433
 9519SOL    HW140193   2.299   2.640   3.599  1.5599 -1.6681  0.1259
 9519SOL    HW240194   2.187   2.557   3.641 -0.0727 -2.0881 -0.3051
 9520SOL     OW40195   3.588   1.058  15.965  0.9568  0.1247  0.1770
 9520SOL    HW140196   3.548   1.144  15.949  0.3001  0.0700  1.5747
 9520SOL    HW240197   3.662   1.073  16.024  1.6629 -0.0623 -0.6696
 9521SOL     OW40198   3.708   0.218   8.408  0.3100 -0.3881 -0.5081
 9521SOL    HW140199   3.765   0.246   8.336  0.8095  0.6247  0.2822
 9521SOL    HW240200   3.694   0.287   8.473 -0.6419 -1.5704  0.5501
 9522SOL     OW40201   1.901   3.245   8.505  0.6385  0.2001  0.1664
 9522SOL    HW140202   1.853   3.214   8.428  0.9125 -0.7390  0.3698
 9522SOL    HW240203   1.833   3.236   8.572 -0.3191  2.9298 -0.4442
 9523SOL     OW40204   1.112   4.182  13.786  0.5911  0.2537  0.1681
 9523SOL    HW140205   1.101   4.090  13.811  1.1182  0.1900  0.1634
 9523SOL    HW240206   1.032   4.229  13.808  1.2745  1.4116  0.1505
 9524SOL     OW40207   2.471   2.746   3.623  0.6362  0.2898 -0.7517
 9524SOL    HW140208   2.464   2.774   3.532 -0.2515  2.5125  0.0035
 9524SOL    HW240209   2.518   2.821   3.661 -1.6511  1.3828 -0.0909
 9525SOL     OW40210   0.477   1.554   2.850 -0.0126  0.7731 -0.4818
 9525SOL    HW140211   0.456   1.475   2.800 -0.7568  0.2594  0.6636
 9525SOL    HW240212   0.395   1.601   2.839 -0.4938 -0.4125 -2.0738
 9526SOL     OW40213   3.869   2.280   1.416 -0.0346  0.2258 -0.1565
 9526SOL    HW140214   3.942   2.330   1.453  0.4580 -2.0193  1.9383
 9526SOL    HW240215   3.905   2.246   1.334  2.8967 -0.5031  1.4251
 9527SOL     OW40216   3.418   0.100   6.493 -0.2658  0.5266  0.5860
 9527SOL    HW140217   3.365   0.020   6.489 -1.6805  1.6553 -3.0720
 9527SOL    HW240218   3.467   0.099   6.411 -2.0146 -0.0016 -0.4669
 9528SOL     OW40219   0.223   2.873  13.141  0.1204  0.3438 -0.1498
 9528SOL    HW140220   0.159   2.872  13.069 -0.2799  0.9996  0.1907
 9528SOL    HW240221   0.219   2.779  13.154  1.6527  0.4321  0.8161
 9529SOL     OW40222   4.733   3.727   7.844 -0.6661 -0.8655  0.2588
 9529SOL    HW140223   4.714   3.821   7.850 -0.8267 -0.8421 -0.5406
 9529SOL    HW240224   0.088   3.726   7.848 -0.6355 -3.2757 -1.3489
 9530SOL     OW40225   2.143   2.202   6.389 -0.0352 -0.4079 -0.2228
 9530SOL    HW140226   2.099   2.189   6.473 -0.8904  0.4831 -0.5369
 9530SOL    HW240227   2.129   2.294   6.368 -1.4565 -0.2792  1.3287
 9531SOL     OW40228   1.983   2.283   3.630 -0.0814 -0.0574 -0.1738
 9531SOL    HW140229   1.933   2.219   3.681 -0.6899 -0.8776 -1.8155
 9531SOL    HW240230   1.999   2.247   3.543  1.0961  0.7912 -0.3065
 9532SOL     OW40231   4.246   2.533   2.266 -0.4588 -0.0964  0.4103
 9532SOL    HW140232   4.323   2.570   2.309 -0.8792  1.4974 -0.2204
 9532SOL    HW240233   4.280   2.457   2.219 -2.5416 -0.0255 -1.2342
 9533SOL     OW40234   3.290   4.623   8.176 -0.0417  0.1792  0.0826
 9533SOL    HW140235   3.291   4.719   8.171  0.0449  0.2676  1.7041
 9533SOL    HW240236   3.343   4.607   8.098  0.3471 -0.9225  0.5757
 9534SOL     OW40237   2.688   1.991   5.091 -0.0089  0.2798  0.2424
 9534SOL    HW140238   2.778   1.969   5.067  0.1715  2.3731 -0.9839
 9534SOL    HW240239   2.648   1.985   5.004  0.0244 -0.0978  0.2508
 9535SOL     OW40240   0.020   3.155   2.473  0.0849  0.1976 -0.8124
 9535SOL    HW140241   0.054   3.244   2.478  1.6004 -0.5169  1.6898
 9535SOL    HW240242   4.673   3.171   2.436 -0.4981  1.1560  1.0134
 9536SOL     OW40243   0.063   4.445  10.756 -0.2121  0.6023 -0.6651
 9536SOL    HW140244   0.110   4.410  10.832 -1.1640  1.9122  0.5279
 9536SOL    HW240245   0.068   4.538  10.778 -1.6535  0.4698  0.1975
 9537SOL     OW40246   0.286   2.588   3.816  0.1555  0.2470  0.4982
 9537SOL    HW140247   0.321   2.662   3.765 -0.7000  0.4907  0.2619
 9537SOL    HW240248   0.221   2.637   3.865 -0.8623 -0.3602 -0.2483
 9538SOL     OW40249   3.755   2.574   5.558 -0.0463  0.1266 -0.2180
 9538SOL    HW140250   3.687   2.634   5.589 -2.7943 -2.2060 -1.7331
 9538SOL    HW240251   3.792   2.553   5.644  0.0115  0.0028 -0.2730
 9539SOL     OW40252   2.611   1.976   4.555 -0.6586 -0.2856  0.3167
 9539SOL    HW140253   2.522   1.998   4.525  0.1836  1.9991 -0.4484
 9539SOL    HW240254   2.651   1.936   4.478 -2.6252 -0.7849 -0.4600
 9540SOL     OW40255   4.236   3.359   8.855 -0.7559 -0.1965 -0.0840
 9540SOL    HW140256   4.173   3.364   8.783 -0.1237  0.6363 -0.5781
 9540SOL    HW240257   4.213   3.266   8.865 -0.8209 -0.3504 -1.6865
 9541SOL     OW40258   1.880   2.088   3.811  0.0741  0.5835 -0.1563
 9541SOL    HW140259   1.853   2.138   3.888  0.3246 -1.5525  1.3252
 9541SOL    HW240260   1.862   1.998   3.838  0.2567  0.6905  0.3094
 9542SOL     OW40261   4.509   1.048   0.207  0.0882  0.0957 -0.4513
 9542SOL    HW140262   4.484   0.997   0.284  1.2232  0.7138  0.3297
 9542SOL    HW240263   4.519   0.973   0.148  2.3351 -1.2287  1.5946
 9543SOL     OW40264   2.350   2.473   6.953  0.2609  0.7865  0.1891
 9543SOL    HW140265   2.312   2.556   6.923 -1.2294  0.2776  0.6431
 9543SOL    HW240266   2.408   2.455   6.879  0.8502  0.0924  0.8179
 9544SOL     OW40267   0.547   0.409   7.257  0.4027 -0.4042  0.0058
 9544SOL    HW140268   0.492   0.485   7.240 -0.8532 -1.3879 -0.3178
 9544SOL    HW240269   0.492   0.342   7.218 -0.7887  1.4946 -1.5522
 9545SOL     OW40270   0.934   1.816   2.225 -0.3833  0.1161  0.6371
 9545SOL    HW140271   0.844   1.814   2.257  0.0795  1.0120  2.0152
 9545SOL    HW240272   0.939   1.751   2.155  3.1792  0.7882  0.2691
 9546SOL     OW40273   4.307   2.129   8.728  0.4174 -0.2702  0.2156
 9546SOL    HW140274   4.375   2.109   8.664 -1.5693  0.4279 -2.0641
 9546SOL    HW240275   4.337   2.215   8.758 -1.8816  0.5464  0.1861
 9547SOL     OW40276   2.674   2.248  11.260  0.1214  0.0616 -0.5757
 9547SOL    HW140277   2.635   2.331  11.234  0.4198 -0.3555 -2.3329
 9547SOL    HW240278   2.630   2.195  11.195 -0.0355 -0.0469 -0.3807
 9548SOL     OW40279   3.678   1.636   3.834  0.2457  0.2439 -0.2437
 9548SOL    HW140280   3.699   1.566   3.772 -0.5811  0.7841 -1.1402
 9548SOL    HW240281   3.653   1.580   3.908 -0.2189  0.1421 -0.4734
 9549SOL     OW40282   2.494   2.767   4.210 -0.3897 -0.2726 -0.2336
 9549SOL    HW140283   2.555   2.694   4.197  0.1055  0.1927 -0.5348
 9549SOL    HW240284   2.414   2.731   4.248 -1.6905  1.6006 -1.1788
 9550SOL     OW40285   0.762   4.224   4.845  0.3373 -0.2738 -0.2201
 9550SOL    HW140286   0.730   4.143   4.805  0.8564 -0.5285 -0.1097
 9550SOL    HW240287   0.686   4.264   4.888  2.1443  0.7237  2.0713
 9551SOL     OW40288   3.181   1.355   8.633  0.3389 -0.0506  0.0450
 9551SOL    HW140289   3.159   1.434   8.583 -1.6147 -2.0067 -2.1990
 9551SOL    HW240290   3.106   1.359   8.692 -0.0289  1.3173 -0.5215
 9552SOL     OW40291   2.799   1.062   5.241 -0.5462  0.0728 -0.1410
 9552SOL    HW140292   2.822   1.062   5.148 -1.3789 -0.0085 -0.3469
 9552SOL    HW240293   2.736   1.132   5.255 -0.5954  0.2583 -1.2423
 9553SOL     OW40294   0.724   2.871   3.896 -0.4938  0.3785 -0.0422
 9553SOL    HW140295   0.784   2.943   3.876  0.2634  0.1247  1.3063
 9553SOL    HW240296   0.642   2.916   3.917  0.0397  1.8984 -1.1797
 9554SOL     OW40297   1.053   2.498  15.539 -0.6520  0.4985 -0.1792
 9554SOL    HW140298   0.976   2.459  15.497 -2.8377  3.7697  0.8254
 9554SOL    HW240299   1.094   2.541  15.464 -2.3208  1.2099 -0.6893
 9555SOL     OW40300   2.426   4.317   1.661 -0.3215  0.1390 -0.9339
 9555SOL    HW140301   2.382   4.368   1.593  0.2226 -1.7551 -2.7025
 9555SOL    HW240302   2.518   4.341   1.648 -0.6088  1.2953 -0.8695
 9556SOL     OW40303   2.872   1.900   9.073 -0.2298 -0.2298  0.1319
 9556SOL    HW140304   2.881   1.805   9.074  0.0305 -0.2140 -0.7807
 9556SOL    HW240305   2.788   1.908   9.119 -1.4615  0.9779 -2.3639
 9557SOL     OW40306   4.664   4.332   7.867  0.2003  0.3086  0.6665
 9557SOL    HW140307   4.699   4.356   7.953 -1.4218  2.2259  0.8058
 9557SOL    HW240308   4.657   4.421   7.830  0.5040  0.4882  1.0402
 9558SOL     OW40309   0.157   0.991   9.303 -0.0428 -0.1380  0.4206
 9558SOL    HW140310   0.091   1.038   9.252 -0.6774 -0.8568  0.5782
 9558SOL    HW240311   0.206   0.948   9.233  0.6807  1.8850 -0.3139
 9559SOL     OW40312   3.683   0.377   0.864  0.8905  0.1438 -0.6603
 9559SOL    HW140313   3.772   0.341   0.855  0.1608 -1.3832 -1.6953
 9559SOL    HW240314   3.686   0.439   0.937  1.0909 -0.6754  0.0288
 9560SOL     OW40315   1.209   2.387  16.959 -0.3595 -0.5411 -0.8427
 9560SOL    HW140316   1.119   2.406  16.985  0.8807 -0.2447  3.2544
 9560SOL    HW240317   1.201   2.377  16.864 -2.0572 -0.1593 -0.7375
 9561SOL     OW40318   4.606   0.401   9.640  0.4155 -0.1540  0.2339
 9561SOL    HW140319   4.614   0.462   9.714 -0.5614  0.6522 -0.3252
 9561SOL    HW240320   4.668   0.334   9.669  1.0872  0.3971  0.0794
 9562SOL     OW40321   1.656   2.884   6.782 -1.0136  0.0771 -0.1563
 9562SOL    HW140322   1.695   2.805   6.821  0.9199  1.7508  1.3700
 9562SOL    HW240323   1.575   2.848   6.746 -0.1334  1.1362 -3.1872
 9563SOL     OW40324   1.312   3.764  12.202 -0.0580  0.2364 -0.1299
 9563SOL    HW140325   1.281   3.846  12.164 -2.1111 -0.6022 -0.3061
 9563SOL    HW240326   1.268   3.752  12.286 -2.0062 -0.1238 -1.2081
 9564SOL     OW40327   3.320   0.022   0.319  0.0712  0.2402 -0.6094
 9564SOL    HW140328   3.386   0.087   0.342  1.7474 -1.8395  0.4239
 9564SOL    HW240329   3.380   4.692   0.343  0.1919  0.4852 -0.2017
 9565SOL     OW40330   1.851   4.096   4.071 -0.2303 -0.2554  0.3694
 9565SOL    HW140331   1.782   4.085   4.136  0.1841 -0.8171  0.7092
 9565SOL    HW240332   1.900   4.016   4.087 -1.8028 -0.5784  3.6068
 9566SOL     OW40333   0.721   1.787   3.522  0.0928 -0.1584 -0.3037
 9566SOL    HW140334   0.639   1.757   3.561 -0.3548  0.3984 -0.8093
 9566SOL    HW240335   0.711   1.746   3.436 -1.8934  1.1671 -0.7126
 9567SOL     OW40336   2.203   3.705   8.716 -0.7213  0.2970  0.1491
 9567SOL    HW140337   2.213   3.728   8.624 -2.8714  1.7070  0.2590
 9567SOL    HW240338   2.124   3.652   8.706 -0.6072 -0.2579  2.1510
 9568SOL     OW40339   0.168   3.717   2.832  0.1336 -0.3297 -0.1448
 9568SOL    HW140340   0.220   3.791   2.866 -0.7143  0.3063 -0.2231
 9568SOL    HW240341   0.121   3.759   2.760 -1.0148  1.4413  1.6253
 9569SOL     OW40342   4.093   0.400   5.475 -0.3064  0.5385 -0.2922
 9569SOL    HW140343   4.070   0.412   5.567 -0.2273 -0.8848 -0.0813
 9569SOL    HW240344   4.097   0.305   5.471 -0.6682  0.6308 -2.5174
   4.74002   4.74002  17.75769
