Membrane in water
40344
    1TMC1    C1    1   3.486   1.443  12.379  0.0875 -0.0237 -0.5328
    1TMC1    C2    2   3.486   1.494  12.249  0.1296  0.7032 -0.6205
    1TMC1    C3    3   3.608   1.535  12.205 -0.1536  0.2289 -0.0262
    1TMC1    C4    4   3.596   1.424  12.459  0.8825 -0.8680  0.6556
    1TMC1    C5    5   3.710   1.472  12.407 -0.2075 -0.3488 -0.6712
    1TMC1    C6    6   3.724   1.525  12.280  0.2946 -0.2655  0.0069
    1TMC1     C    7   3.369   1.354  12.405  0.2599  0.0946  0.5848
    1TMC1     O    8   3.291   1.345  12.313 -0.0994 -0.0311 -0.2070
    1TMC1     H    9   3.395   1.502  12.190 -2.0192 -2.2940  2.3106
    1TMC1    H1   10   3.588   1.375  12.556  1.0738 -2.1006  0.0459
    1TMC1    H2   11   3.822   1.528  12.236  0.1283  1.1793 -0.2365
    1TMC1    C7   12   3.829   1.488  12.486  0.0519 -0.2045  0.3568
    1TMC1    C8   13   3.634   1.560  12.065  0.2210 -0.9623 -0.9314
    1TMC1    O1   14   3.907   1.573  12.448 -0.0793 -0.4508 -0.3544
    1TMC1    O2   15   3.742   1.561  12.015 -0.2624 -0.1316  0.1087
    1TMC1    O3   16   3.792   1.470  12.614  0.3263  0.0451  0.3123
    1TMC1    H3   17   3.742   1.389  12.637  1.6104 -0.2017  2.1712
    1TMC1    O5   18   3.524   1.617  12.010  0.2182  0.6153  0.0833
    1TMC1    H5   19   3.458   1.645  12.077 -0.1030  0.4321 -0.1599
    2MPD2     C   20   3.162   0.956  12.666  0.4455  0.2105  0.0337
    2MPD2    C1   21   3.140   1.002  12.536 -0.2576 -0.3712  0.6863
    2MPD2    C2   22   3.213   1.112  12.490  0.1672  0.8076  1.2891
    2MPD2    C3   23   3.308   1.176  12.573 -0.0368 -0.1693 -0.0909
    2MPD2    C4   24   3.330   1.129  12.700  0.0811  0.0956  0.3582
    2MPD2    C5   25   3.256   1.021  12.741 -0.2167  0.1135 -0.3947
    2MPD2     H   26   3.209   1.128  12.383  0.7334  0.7027  1.2511
    2MPD2    H1   27   3.393   1.185  12.769  1.0533  1.5473 -1.7169
    2MPD2    H2   28   3.104   0.876  12.711 -0.0787  0.8434  0.4960
    2MPD2    H3   29   3.266   0.978  12.840 -2.7964  0.3710 -0.0079
    2MPD2     N   30   3.373   1.295  12.532  0.0509 -0.1184 -0.3043
    2MPD2    H5   31   3.440   1.330  12.599  1.7679  1.2232 -2.7062
    2MPD2    N1   32   3.069   0.929  12.441  0.3709  0.6259  0.9564
    2MPD2    H7   33   3.075   0.965  12.346  1.0019 -1.2051  0.2944
    3TMC1    C1   34   2.285   2.550  10.361 -0.1155  0.3595  0.1104
    3TMC1    C2   35   2.316   2.645  10.456 -0.4924  0.6299 -0.0896
    3TMC1    C3   36   2.289   2.778  10.426  0.0232  0.6968 -0.0626
    3TMC1    C4   37   2.250   2.590  10.233 -0.0668 -0.3008 -0.0662
    3TMC1    C5   38   2.250   2.719  10.200  0.1648 -0.6113 -0.2804
    3TMC1    C6   39   2.248   2.818  10.302 -0.3129  0.0757 -0.0984
    3TMC1     C   40   2.303   2.406  10.392 -0.4434  0.2546 -0.1997
    3TMC1     O   41   2.326   2.337  10.294  0.4156  0.1745 -0.2176
    3TMC1     H   42   2.369   2.621  10.547  0.4938 -0.6077 -0.9918
    3TMC1    H1   43   2.259   2.517  10.154  0.4104  2.4128 -2.5123
    3TMC1    H2   44   2.228   2.923  10.286  1.7468  0.5145  0.2535
    3TMC1    C7   45   2.192   2.751  10.069 -0.6337  0.1429 -0.1755
    3TMC1    C8   46   2.314   2.878  10.533 -0.1281 -0.6263  0.4478
    3TMC1    O1   47   2.155   2.665   9.990  0.2984  0.2792  0.0447
    3TMC1    O2   48   2.322   2.994  10.514  0.2217  0.0088 -0.6488
    3TMC1    O3   49   2.250   2.868  10.032 -0.0059  0.2856 -0.1638
    3TMC1    H3   50   2.309   2.912  10.098 -0.6035 -0.8976  1.1494
    3TMC1    O5   51   2.242   2.826  10.632 -0.0386 -0.1330 -0.1116
    3TMC1    H5   52   2.215   2.734  10.608 -0.1000  0.0732 -0.8288
    4MPD2     C   53   2.253   2.004  10.709  0.3931 -0.4620  0.0909
    4MPD2    C1   54   2.200   2.113  10.772  0.1122 -0.1307 -0.1436
    4MPD2    C2   55   2.211   2.239  10.704 -0.7551 -0.1964 -0.0721
    4MPD2    C3   56   2.274   2.252  10.588 -0.5968 -0.7010 -0.1724
    4MPD2    C4   57   2.333   2.144  10.532 -0.4202 -0.8048  0.0516
    4MPD2    C5   58   2.328   2.024  10.594  1.1591  0.7035  0.5662
    4MPD2     H   59   2.153   2.323  10.740  1.2858  0.3176  2.0248
    4MPD2    H1   60   2.393   2.153  10.442 -0.0702  1.1953  0.4868
    4MPD2    H2   61   2.248   1.904  10.749  2.7388 -1.4003 -1.9229
    4MPD2    H3   62   2.361   1.931  10.550  0.5511  1.3818 -1.3478
    4MPD2     N   63   2.273   2.380  10.520  1.0205  0.3879 -0.0953
    4MPD2    H5   64   2.245   2.454  10.584  1.4034 -0.9337  1.6108
    4MPD2    N1   65   2.123   2.107  10.893 -0.0827  0.4742  0.4765
    4MPD2    H7   66   2.081   2.194  10.926 -1.4681 -0.2758  0.6907
    5TCq1    O1   67   2.526   4.152  11.579 -0.3116 -0.2131 -0.0448
    5TCq1    C1   68   2.616   4.067  11.530 -0.3133  0.8048  0.3657
    5TCq1    O2   69   2.738   4.082  11.511  0.2961 -0.7001  0.2691
    5TCq1    C2   70   2.532   3.953  11.503 -0.2201 -0.6400  0.5880
    5TCq1    C3   71   2.424   3.929  11.584  0.5323  0.7670 -0.1588
    5TCq1    C4   72   2.351   3.816  11.561  0.2209  0.3163  0.0281
    5TCq1    C5   73   2.376   3.734  11.455  0.5246  0.3186  0.3864
    5TCq1    C6   74   2.493   3.753  11.384  0.3343  0.3885  0.6020
    5TCq1    C7   75   2.575   3.855  11.414 -0.0610 -0.0127 -0.0661
    5TCq1    C8   76   2.514   3.686  11.259  0.6967  0.1859 -0.8186
    5TCq1    O4   77   2.622   3.671  11.206  0.0036  0.0280  0.6841
    5TCq1    C9   78   2.229   3.783  11.640 -0.9665  0.4364  0.1762
    5TCq1    O5   79   2.194   3.865  11.729 -0.5737  0.0876  0.3513
    5TCq1    O6   80   2.170   3.675  11.625 -0.3015  0.3392 -0.6083
    5TCq1    H1   81   2.438   4.128  11.543 -0.3533 -0.6545  0.3515
    5TCq1    H2   82   2.400   3.983  11.675  1.1395  1.3158 -0.3287
    5TCq1    H3   83   2.315   3.646  11.438  0.7113 -0.0664  1.7358
    5TCq1    H4   84   2.673   3.864  11.368  0.0897 -0.9549  0.0832
    6MPD2     C   85   2.255   3.647  11.006  0.1370  0.1647  0.2256
    6MPD2    C1   86   2.368   3.607  11.073  0.5977 -0.2120 -0.0131
    6MPD2    C2   87   2.457   3.526  11.002  0.4589  0.8118  0.0416
    6MPD2    C3   88   2.426   3.468  10.881 -0.2833 -0.0362  0.8969
    6MPD2    C4   89   2.308   3.510  10.818  0.1939 -0.3494  0.1887
    6MPD2    C5   90   2.225   3.591  10.887  0.2298  0.3128 -0.9067
    6MPD2     H   91   2.550   3.500  11.051  0.3061  3.7155  1.8867
    6MPD2    H1   92   2.270   3.478  10.722 -1.0118 -0.0316  0.5624
    6MPD2    H2   93   2.173   3.703  11.049  0.0354  2.6754 -3.2405
    6MPD2    H3   94   2.122   3.614  10.861 -0.3214 -0.6717  0.3965
    6MPD2     N   95   2.528   3.391  10.816 -0.4841 -0.2323  0.9762
    6MPD2    H5   96   2.598   3.349  10.877 -1.0845 -2.0751  0.3962
    6MPD2    N1   97   2.391   3.662  11.200 -0.0974  0.1447 -0.0324
    6MPD2    H7   98   2.308   3.700  11.243  0.1665 -0.1613  0.7493
    7TCq1    O1   99   0.429   3.208  13.208  0.4344  0.1692 -0.5984
    7TCq1    C1  100   0.404   3.247  13.082 -0.6775  0.3095 -0.0305
    7TCq1    O2  101   0.415   3.365  13.043  1.1420 -0.4538 -0.1755
    7TCq1    C2  102   0.309   3.154  13.027  0.2234  0.4872 -0.0196
    7TCq1    C3  103   0.207   3.209  12.952  0.5595 -0.8466  0.0886
    7TCq1    C4  104   0.105   3.115  12.914 -0.2600 -0.0441  0.0797
    7TCq1    C5  105   0.116   2.982  12.954  0.4755 -0.3869 -0.1896
    7TCq1    C6  106   0.229   2.934  13.021  0.1999 -0.3079  0.6779
    7TCq1    C7  107   0.331   3.024  13.049 -0.2169 -0.3010 -0.0889
    7TCq1    C8  108   0.227   2.800  13.080  0.4618 -0.2427  0.4230
    7TCq1    O4  109   0.132   2.729  13.053 -0.6746  0.4486 -0.3903
    7TCq1    C9  110   4.721   3.162  12.861 -0.5387  0.0700 -0.1613
    7TCq1    O5  111   4.622   3.074  12.864  0.2651 -0.6284  0.6196
    7TCq1    O6  112   4.714   3.282  12.818 -0.4456 -0.2960 -0.5891
    7TCq1    H1  113   0.399   3.118  13.233 -2.2030  1.4048  0.7639
    7TCq1    H2  114   0.186   3.312  12.928  1.5587 -0.8448 -0.7644
    7TCq1    H3  115   0.036   2.916  12.923  0.0367  0.2302 -0.3624
    7TCq1    H4  116   0.426   2.995  13.094 -0.2273 -0.3690 -0.1100
    8MPD2     C  117   0.429   2.432  13.381 -0.2651  0.0155  0.4010
    8MPD2    C1  118   0.313   2.441  13.308 -0.3708  0.3795 -0.1893
    8MPD2    C2  119   0.279   2.552  13.234 -0.0045 -0.0964  0.6759
    8MPD2    C3  120   0.367   2.658  13.232 -0.5639 -0.0794  0.3033
    8MPD2    C4  121   0.492   2.648  13.283  0.8176 -0.0904 -0.2499
    8MPD2    C5  122   0.521   2.537  13.360 -0.2012 -0.3189 -0.1203
    8MPD2     H  123   0.183   2.550  13.183 -0.7411 -1.2166  2.1012
    8MPD2    H1  124   0.563   2.730  13.284 -0.1768  0.7490  1.0038
    8MPD2    H2  125   0.456   2.341  13.434 -0.9493 -0.0245  0.6751
    8MPD2    H3  126   0.619   2.530  13.406  0.0300 -0.8232 -0.6920
    8MPD2     N  127   0.334   2.772  13.161 -0.5722  0.1488  0.3157
    8MPD2    H5  128   0.415   2.831  13.143 -0.1328 -0.5253  0.0798
    8MPD2    N1  129   0.214   2.341  13.329  0.5470 -0.8441 -0.2912
    8MPD2    H7  130   0.238   2.262  13.388 -0.6303 -0.7579  0.3058
    9TMC1    C1  131   2.716   2.716  11.510  0.1539 -0.5199  0.0781
    9TMC1    C2  132   2.842   2.671  11.478 -0.4209  0.9451 -0.7828
    9TMC1    C3  133   2.919   2.741  11.396 -0.3282 -0.5043  1.1300
    9TMC1    C4  134   2.658   2.824  11.450  0.1725 -0.0020 -0.9094
    9TMC1    C5  135   2.748   2.895  11.380  0.1599 -0.0480  1.1506
    9TMC1    C6  136   2.882   2.864  11.357  0.6281 -0.1467  0.1673
    9TMC1     C  137   2.643   2.672  11.628  0.3362  0.1231 -0.2217
    9TMC1     O  138   2.555   2.747  11.666  0.3075 -0.1430  0.4120
    9TMC1     H  139   2.897   2.599  11.539 -1.1606  1.3527  0.3731
    9TMC1    H1  140   2.558   2.863  11.470  0.0292 -1.5241  1.3096
    9TMC1    H2  141   2.944   2.925  11.293  0.6213 -0.3533 -0.0350
    9TMC1    C7  142   2.693   3.019  11.315 -0.3249  0.3506  0.2084
    9TMC1    C8  143   3.060   2.714  11.373 -0.9536  0.8494  0.1718
    9TMC1    O1  144   2.598   3.075  11.364 -0.0481  0.0536 -0.6675
    9TMC1    O2  145   3.150   2.794  11.372  0.8918  0.1404 -0.9320
    9TMC1    O3  146   2.754   3.041  11.203  0.0062  0.1355  0.2236
    9TMC1    H3  147   2.799   2.960  11.172 -1.5402 -0.2882 -0.8673
    9TMC1    O5  148   3.073   2.583  11.370  0.5005  0.0289 -0.0502
    9TMC1    H5  149   2.992   2.532  11.349  0.2592  1.1542 -1.8310
   10MPD2     C  150   2.574   2.584  11.896 -0.2909 -0.1153  0.0556
   10MPD2    C1  151   2.628   2.497  11.800  0.3351  0.2222 -0.3379
   10MPD2    C2  152   2.659   2.366  11.836  0.4118  0.6380 -0.1231
   10MPD2    C3  153   2.631   2.324  11.969 -0.4866 -0.2570 -0.2283
   10MPD2    C4  154   2.588   2.412  12.067  0.1195  0.0852 -0.0560
   10MPD2    C5  155   2.551   2.537  12.024  0.4314  0.3648 -0.3243
   10MPD2     H  156   2.701   2.295  11.766 -0.1781  0.3096 -0.1452
   10MPD2    H1  157   2.577   2.389  12.172 -1.7454  1.5229  0.0768
   10MPD2    H2  158   2.542   2.687  11.886 -1.0306 -0.3774 -0.2439
   10MPD2    H3  159   2.498   2.594  12.100  2.4388 -0.2725  1.5319
   10MPD2     N  160   2.662   2.193  12.013  0.2150  0.4568 -0.4697
   10MPD2    H5  161   2.666   2.173  12.113  1.2885  0.2288 -0.5536
   10MPD2    N1  162   2.668   2.538  11.675  0.5998 -0.0713 -0.1173
   10MPD2    H7  163   2.736   2.476  11.631 -0.5947 -1.4362 -0.0252
   11TCq1    O1  164   2.776   1.339  14.381 -0.0316  0.1442 -0.2027
   11TCq1    C1  165   2.804   1.404  14.498  0.2694  0.0169  0.4423
   11TCq1    O2  166   2.873   1.364  14.590 -0.1463  0.0504 -0.4487
   11TCq1    C2  167   2.774   1.543  14.467  0.2270 -0.1416  0.2132
   11TCq1    C3  168   2.843   1.630  14.543  0.3028  0.3924 -0.2126
   11TCq1    C4  169   2.803   1.761  14.539 -0.5789  0.1898 -0.2341
   11TCq1    C5  170   2.696   1.797  14.465 -0.0376  0.0717 -0.2422
   11TCq1    C6  171   2.627   1.706  14.394  0.2679 -0.3250  0.7763
   11TCq1    C7  172   2.665   1.580  14.394  0.0486  0.0470 -0.4927
   11TCq1    C8  173   2.519   1.748  14.315 -0.0733 -0.2293  0.0736
   11TCq1    O4  174   2.467   1.858  14.333 -0.0457 -0.1065 -0.2176
   11TCq1    C9  175   2.888   1.850  14.602 -0.0696  0.0948  0.3544
   11TCq1    O5  176   3.004   1.811  14.638 -0.1283  0.3098  0.2949
   11TCq1    O6  177   2.843   1.969  14.613 -0.0255 -0.0497  0.1437
   11TCq1    H1  178   2.717   1.381  14.314  2.4636  1.5767 -1.4748
   11TCq1    H2  179   2.922   1.603  14.613  0.5952  0.5030 -0.4984
   11TCq1    H3  180   2.672   1.903  14.455 -2.8923 -0.7845 -2.4839
   11TCq1    H4  181   2.604   1.502  14.349 -1.2090  0.6670  0.1448
   12MPD2     C  182   2.240   1.695  14.222 -0.2699  0.4187 -0.1007
   12MPD2    C1  183   2.349   1.628  14.172  0.0939 -0.2035 -0.0585
   12MPD2    C2  184   2.343   1.547  14.065  0.4189  0.5474 -0.2708
   12MPD2    C3  185   2.225   1.528  14.001 -0.1346  0.3318  0.4716
   12MPD2    C4  186   2.107   1.586  14.054  0.0434  0.1113  0.2269
   12MPD2    C5  187   2.121   1.673  14.158  0.4089  0.3317 -0.2774
   12MPD2     H  188   2.432   1.491  14.040  1.0316  1.7714 -0.8260
   12MPD2    H1  189   2.014   1.558  14.007  0.2915  0.3410 -0.3949
   12MPD2    H2  190   2.241   1.761  14.308  1.8212  0.6221 -0.2882
   12MPD2    H3  191   2.035   1.733  14.185  0.3324 -0.5266  1.3576
   12MPD2     N  192   2.213   1.455  13.877  0.3460 -0.5491  0.0948
   12MPD2    H5  193   2.118   1.424  13.859  0.1694  0.2623 -0.3690
   12MPD2    N1  194   2.480   1.646  14.228 -0.6254  0.5465 -0.4156
   12MPD2    H7  195   2.544   1.570  14.209 -0.6422  0.7454 -1.2566
   13TCq1    O1  196   3.064   2.269  12.151 -0.4291  0.2602  0.3574
   13TCq1    C1  197   3.068   2.233  12.017  0.4444  1.0203 -0.4670
   13TCq1    O2  198   3.002   2.289  11.929 -0.1682 -0.4289 -1.0302
   13TCq1    C2  199   3.101   2.092  12.001  0.1473  1.1396  0.5216
   13TCq1    C3  200   3.191   2.047  12.082 -0.1594 -0.4743 -0.1621
   13TCq1    C4  201   3.220   1.908  12.076  0.0974 -0.0932  0.2372
   13TCq1    C5  202   3.157   1.835  11.980 -0.2894 -0.4079  0.3040
   13TCq1    C6  203   3.074   1.894  11.881 -0.3457 -1.1067  0.1673
   13TCq1    C7  204   3.041   2.025  11.892 -0.1294 -0.4280 -0.3926
   13TCq1    C8  205   2.954   1.809  11.849  0.2941  0.4544 -0.4403
   13TCq1    O4  206   2.852   1.864  11.812 -0.1239  0.3246 -0.0375
   13TCq1    C9  207   3.317   1.851  12.173 -0.3188  0.0693 -0.4518
   13TCq1    O5  208   3.347   1.729  12.147  0.0341 -0.0264 -0.1085
   13TCq1    O6  209   3.375   1.927  12.253  0.0052 -0.0592 -0.2836
   13TCq1    H1  210   3.107   2.204  12.211 -1.9801 -0.4208  0.7159
   13TCq1    H2  211   3.253   2.103  12.151 -0.7921 -1.9944  1.6713
   13TCq1    H3  212   3.205   1.738  11.977 -0.0747 -0.3017  0.3752
   13TCq1    H4  213   2.975   2.073  11.821 -2.6625  0.0060  2.2156
   14MPD2     C  214   2.928   1.439  11.865  0.1545 -0.3168  0.1549
   14MPD2    C1  215   2.892   1.568  11.836 -0.2731 -0.3532  0.9010
   14MPD2    C2  216   2.777   1.590  11.765  0.2370 -0.4307 -0.1455
   14MPD2    C3  217   2.692   1.488  11.727 -0.3863 -0.6861 -0.2506
   14MPD2    C4  218   2.726   1.360  11.763 -0.4352 -0.2715 -0.2218
   14MPD2    C5  219   2.847   1.332  11.828 -0.6095 -0.3664  0.5091
   14MPD2     H  220   2.742   1.686  11.730  3.3446  0.6705 -0.2368
   14MPD2    H1  221   2.656   1.279  11.745 -1.1934  0.4585 -0.5699
   14MPD2    H2  222   3.017   1.410  11.921  0.1235 -0.8897 -0.0932
   14MPD2    H3  223   2.871   1.237  11.873  1.4928  1.2488  2.8096
   14MPD2     N  224   2.570   1.526  11.660 -0.4789  0.7084 -0.1294
   14MPD2    H5  225   2.557   1.623  11.636  0.4463  0.5405 -1.2946
   14MPD2    N1  226   2.976   1.672  11.881  0.0461  0.1316  0.2953
   14MPD2    H7  227   3.063   1.632  11.913 -0.2153  0.6209  1.5936
   15TCq1    O1  228   0.122   1.518   1.995  0.2871 -0.2569  0.2537
   15TCq1    C1  229   0.137   1.430   1.897 -0.4076  0.2868  0.3385
   15TCq1    O2  230   0.161   1.461   1.781  0.2785 -0.5003  0.1879
   15TCq1    C2  231   0.043   1.330   1.935  0.4864 -0.1277  0.1330
   15TCq1    C3  232   4.665   1.358   1.999  0.1002 -0.6374 -0.4825
   15TCq1    C4  233   4.554   1.295   1.948  0.1784  0.8630  0.1155
   15TCq1    C5  234   4.553   1.203   1.849 -0.3317 -0.0475 -0.7107
   15TCq1    C6  235   4.677   1.164   1.813  0.2563  0.3533  0.2159
   15TCq1    C7  236   0.051   1.227   1.850 -0.7531 -0.4684  0.4489
   15TCq1    C8  237   4.693   1.070   1.699  0.7392  0.1052  0.3878
   15TCq1    O4  238   0.063   1.014   1.694  0.0118  0.1356  0.4446
   15TCq1    C9  239   4.430   1.327   2.006  0.6637 -0.4777  0.9102
   15TCq1    O5  240   4.325   1.278   1.951 -0.5515 -0.2382  0.2080
   15TCq1    O6  241   4.434   1.381   2.121  0.5647  0.3524  0.3277
   15TCq1    H1  242   0.087   1.464   2.069 -0.1215 -2.1189 -1.2951
   15TCq1    H2  243   4.639   1.438   2.066 -1.4017 -1.5780  0.0594
   15TCq1    H3  244   4.464   1.147   1.825  0.2589  0.6242 -4.5290
   15TCq1    H4  245   0.147   1.210   1.802 -0.5987  0.5622  0.3870
   16MPD2     C  246   4.400   0.933   1.511 -0.5429 -0.0970  0.0683
   16MPD2    C1  247   4.531   0.948   1.540 -0.3550  0.0965 -0.6325
   16MPD2    C2  248   4.628   0.865   1.481  0.1155 -0.9523 -0.2552
   16MPD2    C3  249   4.593   0.757   1.404 -1.0912 -0.3063 -0.4942
   16MPD2    C4  250   4.459   0.747   1.373  0.5522 -1.1532  0.0059
   16MPD2    C5  251   4.364   0.829   1.431 -0.3639  0.1658  0.3635
   16MPD2     H  252   4.735   0.871   1.501 -0.2818 -0.3746  1.6427
   16MPD2    H1  253   4.424   0.681   1.294 -0.6149  0.7298 -1.0620
   16MPD2    H2  254   4.318   0.992   1.551 -1.0467 -0.2785 -0.6911
   16MPD2    H3  255   4.260   0.802   1.418  0.1227 -0.8685 -1.3065
   16MPD2     N  256   4.692   0.663   1.368 -0.3920 -0.3544 -0.2497
   16MPD2    H5  257   0.037   0.658   1.425 -1.3218 -2.5365  0.9374
   16MPD2    N1  258   4.567   1.048   1.640  0.0707  0.0453  0.2070
   16MPD2    H7  259   4.494   1.116   1.659 -0.9135 -1.4807  1.8432
   17TMC1    C1  260   2.259   0.220  10.613 -0.1946 -0.7790 -0.7950
   17TMC1    C2  261   2.203   0.094  10.603  0.9076  0.7909 -0.5100
   17TMC1    C3  262   2.210   0.015  10.716  0.5217  0.0205 -0.0770
   17TMC1    C4  263   2.293   0.270  10.737 -0.3512 -0.1405 -0.6415
   17TMC1    C5  264   2.300   0.185  10.841  0.5446 -0.0673 -0.0519
   17TMC1    C6  265   2.258   0.062  10.835  0.6331  0.2702  0.9038
   17TMC1     C  266   2.282   0.292  10.494 -0.0289  0.4712 -0.0474
   17TMC1     O  267   2.213   0.251  10.400  0.4373  0.2593 -0.0118
   17TMC1     H  268   2.195   0.042  10.508 -2.1113 -2.1398  1.3076
   17TMC1    H1  269   2.345   0.364  10.752  0.3090 -0.5069 -0.6133
   17TMC1    H2  270   2.241   0.007  10.927  1.6442  0.3765  1.1583
   17TMC1    C7  271   2.352   0.239  10.966  0.0697 -0.3016  0.4636
   17TMC1    C8  272   2.194   4.609  10.699 -0.7055  0.0115 -0.1626
   17TMC1    O1  273   2.321   0.353  11.002  0.3457  0.0402  0.2106
   17TMC1    O2  274   2.266   4.527  10.756 -0.4764  0.1246  0.1262
   17TMC1    O3  275   2.458   0.158  10.999  0.2444 -0.2830 -0.3413
   17TMC1    H3  276   2.480   0.085  10.937 -0.0131 -0.7289  0.0857
   17TMC1    O5  277   2.064   4.597  10.679 -0.5051  0.0270 -0.2782
   17TMC1    H5  278   2.015   4.681  10.665  0.3747  0.7347  0.9402
   18MPD2     C  279   2.369   0.465  10.260  0.1520 -0.4619  0.4988
   18MPD2    C1  280   2.441   0.445  10.376 -0.2355 -0.1108  0.5791
   18MPD2    C2  281   2.561   0.505  10.395 -0.9500  0.6995  0.3628
   18MPD2    C3  282   2.615   0.588  10.295 -0.4199  0.0953  0.0638
   18MPD2    C4  283   2.541   0.603  10.179 -0.1710  0.0819 -0.2337
   18MPD2    C5  284   2.419   0.547  10.162 -0.5805 -0.2335 -1.1738
   18MPD2     H  285   2.614   0.495  10.489 -0.6528 -1.8811 -0.0753
   18MPD2    H1  286   2.578   0.666  10.099 -0.6349  2.7906  1.6972
   18MPD2    H2  287   2.271   0.420  10.252 -0.9770  2.4661 -1.8363
   18MPD2    H3  288   2.366   0.571  10.070 -1.6241  1.8691 -0.0094
   18MPD2     N  289   2.751   0.637  10.285 -0.0844  0.0100 -0.4913
   18MPD2    H5  290   2.776   0.697  10.207 -1.7110  1.0297 -0.2263
   18MPD2    N1  291   2.393   0.374  10.492  0.0048  0.5724 -0.4466
   18MPD2    H7  292   2.448   0.381  10.577 -1.1409 -2.6772  0.5274
   19TMC2    C1  293   3.879   1.474  14.097 -0.1271 -0.2627 -0.2854
   19TMC2    C2  294   3.854   1.604  14.052  0.2841  0.0525 -0.1453
   19TMC2    C3  295   3.728   1.648  14.068 -0.4902  0.0461  0.2926
   19TMC2    C4  296   3.784   1.398  14.162 -0.5128  0.0162  0.2229
   19TMC2    C5  297   3.661   1.454  14.168  0.0334  0.3305  0.0819
   19TMC2    C6  298   3.627   1.577  14.123  0.6579  0.1841 -0.8760
   19TMC2     C  299   3.996   1.417  14.034 -0.1133 -0.4727  0.0192
   19TMC2     O  300   4.030   1.447  13.924  0.6500  0.1130  0.3091
   19TMC2     H  301   3.931   1.656  13.996  0.2347  1.2696  0.9114
   19TMC2    H1  302   3.798   1.292  14.182  3.0769  0.4569  0.0020
   19TMC2    H2  303   3.526   1.613  14.107  1.4539  2.5276 -0.6150
   19TMC2    C7  304   3.552   1.368  14.210  0.0996 -0.2992  0.3329
   19TMC2    C8  305   3.687   1.769  14.006 -0.3098  0.0210  0.3766
   19TMC2    O1  306   3.575   1.250  14.225 -0.0503  0.0590  0.1834
   19TMC2    O2  307   3.571   1.791  13.974 -0.3724  0.3796 -0.0289
   19TMC2    O5  308   3.772   1.854  14.070 -0.0977 -0.1469  0.4409
   19TMC2    H5  309   3.838   1.807  14.127  0.0999  0.7129  0.9199
   20MPD2     C  310   4.137   1.180  13.965  0.0133  0.0376  0.1200
   20MPD2    C1  311   4.133   1.225  14.093 -0.3545 -0.7001  0.0528
   20MPD2    C2  312   4.189   1.152  14.194  0.0391 -0.9751 -0.3521
   20MPD2    C3  313   4.239   1.024  14.169  0.2864  0.3052  0.0728
   20MPD2    C4  314   4.261   0.990  14.035  0.6665 -0.3823 -0.1775
   20MPD2    C5  315   4.205   1.068  13.932  0.0552  0.5089  0.2993
   20MPD2     H  316   4.195   1.185  14.297  0.5194 -1.7176 -0.1384
   20MPD2    H1  317   4.293   0.889  14.012 -1.2171 -1.2898  1.2057
   20MPD2    H2  318   4.083   1.235  13.888  3.9786 -0.7241 -3.1656
   20MPD2    H3  319   4.205   1.025  13.832 -2.5325 -0.1311  0.5779
   20MPD2     N  320   4.266   0.920  14.263 -0.4071 -0.1564 -0.5780
   20MPD2    H5  321   4.290   0.833  14.217 -0.0357 -0.5205  0.2971
   20MPD2    N1  322   4.052   1.335  14.122 -0.3231 -0.5240  0.0539
   20MPD2    H7  323   4.033   1.354  14.220 -0.7561  3.5541 -0.7952
   21TMC2    C1  324   1.648   1.548  14.250 -0.1614 -0.6371  0.3659
   21TMC2    C2  325   1.776   1.513  14.230  0.1869  0.8713 -0.3115
   21TMC2    C3  326   1.832   1.445  14.331  0.5646 -0.2901 -0.1177
   21TMC2    C4  327   1.573   1.528  14.369  0.1769  0.2735 -0.5278
   21TMC2    C5  328   1.640   1.480  14.476  0.1112 -0.3485  0.6037
   21TMC2    C6  329   1.767   1.426  14.454  0.2202 -0.0744  0.3273
   21TMC2     C  330   1.578   1.588  14.125 -0.3029  0.3193  0.2130
   21TMC2     O  331   1.600   1.531  14.021 -0.6121 -0.0768 -0.2405
   21TMC2     H  332   1.821   1.535  14.134 -0.5205  1.2218 -0.5576
   21TMC2    H1  333   1.468   1.553  14.360  0.5747  1.7757 -0.9096
   21TMC2    H2  334   1.808   1.361  14.530 -0.0504 -1.6927 -0.9201
   21TMC2    C7  335   1.598   1.500  14.614  0.0001 -0.7704 -0.3647
   21TMC2    C8  336   1.950   1.364  14.300  0.2876 -0.3572 -0.6660
   21TMC2    O1  337   1.671   1.450  14.700 -0.1664  0.3218  0.2085
   21TMC2    O2  338   1.984   1.320  14.190  0.3111  0.5730  0.3810
   21TMC2    O5  339   2.013   1.345  14.418 -0.4251 -0.0858 -0.1640
   21TMC2    H5  340   1.969   1.398  14.488  1.0306  1.8523 -0.7353
   22MPD2     C  341   1.418   1.927  14.477 -0.2033  0.3921  0.1123
   22MPD2    C1  342   1.547   1.902  14.437  0.2171 -0.7599  0.6013
   22MPD2    C2  343   1.571   1.824  14.321  0.3680  0.2843 -0.1337
   22MPD2    C3  344   1.468   1.775  14.249 -0.1063  0.1026 -0.8563
   22MPD2    C4  345   1.336   1.810  14.283  0.0598 -0.3045 -0.2281
   22MPD2    C5  346   1.315   1.879  14.404  0.5929 -0.8835 -0.4389
   22MPD2     H  347   1.674   1.804  14.294  0.3561 -0.8258  0.6441
   22MPD2    H1  348   1.248   1.770  14.233 -2.7048  3.0473  1.9453
   22MPD2    H2  349   1.404   1.995  14.560 -0.2420  0.5251 -0.0032
   22MPD2    H3  350   1.210   1.903  14.420  1.6843  2.6816  1.4002
   22MPD2     N  351   1.480   1.683  14.144 -0.0324 -0.3396  0.3865
   22MPD2    H5  352   1.400   1.665  14.084 -0.4124  1.2849  0.4206
   22MPD2    N1  353   1.665   1.960  14.494  0.6048 -0.1622 -0.3148
   22MPD2    H7  354   1.743   1.970  14.429  2.3176  0.9589  1.9101
   23TMC2    C1  355   2.770   2.933  14.823  0.1201 -0.4240  0.0048
   23TMC2    C2  356   2.708   3.045  14.768  0.0336  0.0702  0.1965
   23TMC2    C3  357   2.610   3.024  14.673 -0.2840  0.1357  0.1313
   23TMC2    C4  358   2.741   2.806  14.781  0.9273 -0.5483 -0.3653
   23TMC2    C5  359   2.640   2.792  14.692  0.2314 -0.0705  0.7638
   23TMC2    C6  360   2.581   2.901  14.630 -0.0984  0.1549 -0.4936
   23TMC2     C  361   2.898   2.945  14.885 -0.0578 -0.3269  0.5966
   23TMC2     O  362   2.946   2.842  14.932  0.1118 -0.2056  0.2597
   23TMC2     H  363   2.737   3.149  14.784  0.4942  0.5470 -3.7665
   23TMC2    H1  364   2.789   2.715  14.813  2.5371  0.4908  0.1655
   23TMC2    H2  365   2.530   2.883  14.536  0.3906 -1.5876 -0.4321
   23TMC2    C7  366   2.570   2.668  14.693  0.4551  0.1713 -0.6799
   23TMC2    C8  367   2.576   3.142  14.595  0.1384 -0.5910 -0.4055
   23TMC2    O1  368   2.641   2.566  14.692  0.3280 -0.6665 -0.5172
   23TMC2    O2  369   2.636   3.249  14.613  0.6433  0.0636 -0.0407
   23TMC2    O5  370   2.443   3.125  14.566 -0.0456 -0.0233 -0.1164
   23TMC2    H5  371   2.410   3.034  14.578 -1.0751  0.4446  0.5785
   24MPD2     C  372   3.304   3.213  15.043  0.0627 -0.0728  0.2838
   24MPD2    C1  373   3.263   3.081  15.077 -0.4286 -0.7816 -0.0824
   24MPD2    C2  374   3.140   3.035  15.025 -0.5895  0.3734 -0.6911
   24MPD2    C3  375   3.080   3.104  14.926 -0.4012  0.1100  0.5638
   24MPD2    C4  376   3.126   3.232  14.900  0.0041  0.6443  0.3061
   24MPD2    C5  377   3.238   3.288  14.953  0.0556 -0.7676  0.4195
   24MPD2     H  378   3.116   2.935  15.059  2.7475  0.6883  2.6263
   24MPD2    H1  379   3.080   3.303  14.832 -3.5888 -1.7522  0.2396
   24MPD2    H2  380   3.398   3.254  15.079 -0.0927  1.1467 -0.7115
   24MPD2    H3  381   3.273   3.384  14.918 -0.5032 -0.5294  0.5190
   24MPD2     N  382   2.958   3.068  14.872  0.1127 -0.2372 -0.0089
   24MPD2    H5  383   2.921   3.142  14.814  0.3464  1.5729  2.1359
   24MPD2    N1  384   3.335   2.997  15.171  0.4668 -0.0763  1.0926
   24MPD2    H7  385   3.293   2.907  15.192 -1.2370  0.4465 -0.1456
   25TMC2    C1  386   2.220   0.313  11.799 -0.1564  0.2366  0.2731
   25TMC2    C2  387   2.293   0.417  11.747  0.2799  0.2527 -0.8129
   25TMC2    C3  388   2.257   0.545  11.780  0.1312 -0.0024  0.0472
   25TMC2    C4  389   2.110   0.329  11.876  0.6633  0.1808  0.2480
   25TMC2    C5  390   2.079   0.461  11.903 -0.4886  0.7280 -1.2438
   25TMC2    C6  391   2.157   0.567  11.863 -0.2656 -0.2908 -0.9064
   25TMC2     C  392   2.286   0.190  11.775 -0.2668 -0.2858 -0.4806
   25TMC2     O  393   2.404   0.204  11.753 -0.1718  0.2455  0.6367
   25TMC2     H  394   2.369   0.413  11.670 -0.9102  2.0267 -2.0829
   25TMC2    H1  395   2.068   0.242  11.925 -2.0308  1.5757  0.4019
   25TMC2    H2  396   2.130   0.666  11.898  3.3430  0.8513 -1.2824
   25TMC2    C7  397   1.978   0.485  12.002  0.0639 -0.8217  0.2106
   25TMC2    C8  398   2.299   0.655  11.698 -1.1968  0.3564 -1.3309
   25TMC2    O1  399   1.964   0.397  12.084 -0.7715  0.3341  0.3589
   25TMC2    O2  400   2.317   0.767  11.737  0.9719 -0.2763  0.0140
   25TMC2    O5  401   2.275   0.621  11.564 -0.5742  0.4590 -0.7181
   25TMC2    H5  402   2.222   0.539  11.555 -0.7782  0.5016  0.1210
   26MPD2     C  403   2.301   4.414  11.681 -0.0151  0.2335  0.3765
   26MPD2    C1  404   2.174   4.469  11.667  0.1539  0.0077 -0.5133
   26MPD2    C2  405   2.154   4.602  11.679  0.1139 -0.0758  0.2664
   26MPD2    C3  406   2.250   4.688  11.713 -0.4512 -0.4788  0.1695
   26MPD2    C4  407   2.378   4.640  11.734  0.3448  0.4204  0.5442
   26MPD2    C5  408   2.399   4.506  11.711  0.6402 -0.2524 -1.3669
   26MPD2     H  409   2.055   4.644  11.666  0.5346  0.6685 -0.6084
   26MPD2    H1  410   2.457   4.703  11.773  2.1449 -1.0027 -0.8266
   26MPD2    H2  411   2.335   4.312  11.667  1.2263  0.5331  1.1074
   26MPD2    H3  412   2.501   4.475  11.731  0.6322 -0.3914 -1.5509
   26MPD2     N  413   2.208   0.084  11.735  0.3974  0.8078  0.3009
   26MPD2    H5  414   2.109   0.107  11.740  0.2737  0.4182 -0.3605
   26MPD2    N1  415   2.068   4.384  11.632 -0.0932 -0.2669  0.3248
   26MPD2    H7  416   2.092   4.286  11.625  1.1739  0.0156  0.7898
   27TMC2    C1  417   1.273   2.137  12.141 -0.4234  0.4336 -0.0013
   27TMC2    C2  418   1.296   2.236  12.052  0.7741  0.0748  0.1747
   27TMC2    C3  419   1.317   2.359  12.110 -1.0245 -0.2331  0.3406
   27TMC2    C4  420   1.275   2.157  12.278  0.8413 -0.1326  0.8327
   27TMC2    C5  421   1.268   2.282  12.324 -0.3679 -0.3008  0.0247
   27TMC2    C6  422   1.303   2.387  12.241 -0.3527 -0.3735  0.0792
   27TMC2     C  423   1.161   2.059  12.102  0.1190 -0.0992  0.4632
   27TMC2     O  424   1.151   2.023  11.984 -0.4446  0.5090  0.4167
   27TMC2     H  425   1.281   2.222  11.946 -0.7064  0.3051  0.3497
   27TMC2    H1  426   1.263   2.068  12.337 -2.9166  0.7003  1.3135
   27TMC2    H2  427   1.297   2.488  12.280 -0.1061 -0.0538 -0.7303
   27TMC2    C7  428   1.186   2.307  12.442  0.4376  0.2835  0.2122
   27TMC2    C8  429   1.353   2.473  12.033  0.0459 -0.1525  0.0117
   27TMC2    O1  430   1.133   2.205  12.485 -0.0655  0.4221  0.2315
   27TMC2    O2  431   1.408   2.580  12.070 -0.5439  0.2974 -0.2001
   27TMC2    O5  432   1.317   2.451  11.905 -0.2689 -0.0905  0.3706
   27TMC2    H5  433   1.266   2.370  11.883 -1.9547  1.1642 -0.2786
   28MPD2     C  434   0.664   1.959  12.181 -0.3520  0.5783  0.6531
   28MPD2    C1  435   0.710   2.021  12.293  0.4424 -0.6070  0.6628
   28MPD2    C2  436   0.841   2.056  12.291  0.3161 -0.1869  0.3377
   28MPD2    C3  437   0.926   2.033  12.183  0.3523 -0.6143 -0.3262
   28MPD2    C4  438   0.879   1.964  12.078  0.4626  0.3663 -0.2116
   28MPD2    C5  439   0.748   1.926  12.078  0.0832  0.6221  0.1585
   28MPD2     H  440   0.880   2.107  12.378 -1.1054 -0.8398  1.3391
   28MPD2    H1  441   0.938   1.937  11.990 -0.1699 -2.5757  0.2812
   28MPD2    H2  442   0.562   1.932  12.160 -0.0102  2.5665 -3.5388
   28MPD2    H3  443   0.715   1.887  11.982 -0.1458 -0.6158  0.7332
   28MPD2     N  444   1.063   2.069  12.200  0.4430 -0.5651 -0.1401
   28MPD2    H5  445   1.083   2.124  12.283 -3.7358  0.1525  0.3860
   28MPD2    N1  446   0.610   2.052  12.396 -0.2134 -0.0350  1.1402
   28MPD2    H7  447   0.522   2.002  12.386 -1.2430  2.2152 -1.0109
   29TMC2    C1  448   0.402   0.054  14.702  0.2701 -0.1233  0.0786
   29TMC2    C2  449   0.464   0.047  14.825 -0.5505 -0.6441  0.1584
   29TMC2    C3  450   0.591   0.100  14.850 -0.7425  0.2858 -0.5828
   29TMC2    C4  451   0.473   0.118  14.598 -0.5644  0.2543 -0.4578
   29TMC2    C5  452   0.590   0.191  14.628 -0.1792  0.1224  0.2067
   29TMC2    C6  453   0.648   0.170  14.748 -0.1829  0.4884  0.0765
   29TMC2     C  454   0.304   4.689  14.664 -0.1129  0.4259 -0.2599
   29TMC2     O  455   0.304   4.580  14.721 -0.2572  0.4620 -0.0398
   29TMC2     H  456   0.403   0.002  14.903 -1.9578 -1.1956 -1.2507
   29TMC2    H1  457   0.423   0.112  14.502 -1.3516 -0.5604  0.0041
   29TMC2    H2  458   0.753   0.195  14.756  0.7569 -2.6316 -2.5278
   29TMC2    C7  459   0.686   0.212  14.525 -0.4853  0.3485  0.1672
   29TMC2    C8  460   0.646   0.125  14.981 -0.1936 -0.5056 -0.1989
   29TMC2    O1  461   0.670   0.140  14.429 -0.0165  0.1248  0.1261
   29TMC2    O2  462   0.669   0.243  14.997  0.9927 -0.8203 -0.4058
   29TMC2    O5  463   0.599   0.035  15.064 -0.1347 -0.8862 -0.4882
   29TMC2    H5  464   0.595   4.687  15.017 -4.2993 -1.2169  0.4569
   30MPD2     C  465   4.731   4.494  14.316 -0.7025  0.7694 -0.0194
   30MPD2    C1  466   0.069   4.430  14.410  0.2081  0.4868  0.1000
   30MPD2    C2  467   0.137   4.510  14.499 -0.9143  0.2436 -0.1473
   30MPD2    C3  468   0.144   4.650  14.484 -0.3267 -0.4416  0.7275
   30MPD2    C4  469   0.077   4.714  14.386  0.0792  0.3668  0.3835
   30MPD2    C5  470   4.737   4.632  14.309 -0.3185  0.4692  0.0585
   30MPD2     H  471   0.210   4.456  14.558 -1.2506  1.2539  1.2008
   30MPD2    H1  472   0.090   0.079  14.356 -0.0713  0.5892  1.0861
   30MPD2    H2  473   4.683   4.439  14.236  1.8763 -1.1215 -0.2673
   30MPD2    H3  474   4.674   4.681  14.234  0.1977  0.1144 -0.6051
   30MPD2     N  475   0.236   4.729  14.560  0.2993  0.2860  0.1305
   30MPD2    H5  476   0.234   0.091  14.543  0.2817  0.5477  1.6697
   30MPD2    N1  477   0.085   4.290  14.410  0.4710 -1.2861 -0.1066
   30MPD2    H7  478   0.166   4.249  14.456  2.2755  1.5127 -0.8028
   31TMC2    C1  479   3.074   3.430  15.253  0.1821  0.2250 -0.3398
   31TMC2    C2  480   3.209   3.445  15.272 -0.3563  0.0869  0.2605
   31TMC2    C3  481   3.272   3.360  15.360  0.0818  0.9930  0.7122
   31TMC2    C4  482   2.999   3.341  15.331 -0.7394  0.2017  0.3229
   31TMC2    C5  483   3.067   3.259  15.414  0.1234  0.3004 -0.4911
   31TMC2    C6  484   3.206   3.259  15.420  0.3508  0.5565  0.0344
   31TMC2     C  485   3.001   3.532  15.179  0.4375  0.1126  0.0017
   31TMC2     O  486   2.913   3.507  15.096  0.5905 -0.0647 -0.3684
   31TMC2     H  487   3.256   3.526  15.217 -1.2954  1.3591  1.3280
   31TMC2    H1  488   2.891   3.336  15.322 -0.6120 -1.7130 -0.1094
   31TMC2    H2  489   3.260   3.193  15.487  0.1123  0.8125  0.4775
   31TMC2    C7  490   3.001   3.175  15.511  0.5209 -0.4410 -0.1901
   31TMC2    C8  491   3.411   3.380  15.407  0.0333 -0.0059  0.5980
   31TMC2    O1  492   3.075   3.088  15.558  0.0569  0.1571  0.0759
   31TMC2    O2  493   3.457   3.323  15.507 -0.4573  0.1668 -0.3523
   31TMC2    O5  494   3.467   3.474  15.328  0.7127  0.0174  0.4424
   31TMC2    H5  495   3.416   3.487  15.245  1.6977  1.3402  0.0392
   32MPD2     C  496   3.022   4.012  15.002 -0.4264 -0.0395  0.2792
   32MPD2    C1  497   2.967   3.901  14.944  0.4736  0.0080 -0.5422
   32MPD2    C2  498   2.964   3.780  15.007  0.9381 -0.0735  0.2693
   32MPD2    C3  499   3.025   3.777  15.137 -0.0001  0.2348 -0.4645
   32MPD2    C4  500   3.078   3.891  15.194  0.6766  0.2404 -0.5591
   32MPD2    C5  501   3.072   4.009  15.128 -0.5810  0.0084  0.6231
   32MPD2     H  502   2.920   3.694  14.958  1.4483 -0.6134  0.7511
   32MPD2    H1  503   3.127   3.886  15.290  1.9806  0.3569 -1.2127
   32MPD2    H2  504   3.030   4.104  14.945 -2.0031 -0.6528 -0.9057
   32MPD2    H3  505   3.106   4.100  15.175 -1.0866 -0.4771  1.9296
   32MPD2     N  506   3.037   3.659  15.214  0.3756  0.0074 -0.1117
   32MPD2    H5  507   3.076   3.670  15.307  1.2174 -1.3488 -0.2969
   32MPD2    N1  508   2.917   3.911  14.815 -0.4538 -0.2269 -0.4411
   32MPD2    H7  509   2.932   4.002  14.772  2.6099 -0.3154  0.4136
   33TMC2    C1  510   2.980   1.644  10.280 -0.9856 -0.0551  0.6240
   33TMC2    C2  511   2.865   1.663  10.352 -0.0877 -0.1214  0.9603
   33TMC2    C3  512   2.794   1.777  10.340 -0.2578 -0.0969 -0.0783
   33TMC2    C4  513   3.038   1.745  10.204  0.7966  0.0250 -0.2790
   33TMC2    C5  514   2.971   1.863  10.199 -0.5001 -0.4962 -0.1093
   33TMC2    C6  515   2.843   1.877  10.254 -0.0035  0.6530  0.2955
   33TMC2     C  516   3.031   1.514  10.283  0.0108  0.3363  0.7283
   33TMC2     O  517   2.961   1.431  10.336 -0.3924  0.7660  0.3621
   33TMC2     H  518   2.828   1.577  10.407 -0.2688  0.7213  2.1567
   33TMC2    H1  519   3.120   1.727  10.136 -1.3038  1.2858 -3.1268
   33TMC2    H2  520   2.793   1.973  10.251 -0.8838  0.1233 -2.2789
   33TMC2    C7  521   3.027   1.965  10.109 -0.7053 -0.4584 -0.0865
   33TMC2    C8  522   2.694   1.820  10.440 -0.5243  0.3112  0.0580
   33TMC2    O1  523   3.148   1.950  10.079  0.3719  0.5244  0.6687
   33TMC2    O2  524   2.622   1.915  10.422  0.5091 -0.6708  0.2686
   33TMC2    O5  525   2.670   1.722  10.535  0.4573  0.2163  0.2102
   33TMC2    H5  526   2.742   1.658  10.556  1.0701  0.5433 -0.8861
   34MPD2     C  527   3.390   1.175  10.139 -0.1416  0.5863 -0.5085
   34MPD2    C1  528   3.262   1.151  10.187 -1.0233 -0.3620 -0.9605
   34MPD2    C2  529   3.188   1.263  10.229  0.4588 -0.2497 -0.8012
   34MPD2    C3  530   3.228   1.395  10.209 -1.0119 -0.3209  0.0628
   34MPD2    C4  531   3.348   1.413  10.150 -0.3867 -0.7139  0.1165
   34MPD2    C5  532   3.427   1.307  10.122 -0.1011  0.1591  0.4860
   34MPD2     H  533   3.101   1.241  10.290  0.2668 -2.4657 -1.8944
   34MPD2    H1  534   3.380   1.514  10.127  2.0007 -1.1660  1.4946
   34MPD2    H2  535   3.455   1.093  10.110  1.6899  1.7521  0.2971
   34MPD2    H3  536   3.522   1.328  10.075 -0.5268  0.4580 -0.2414
   34MPD2     N  537   3.156   1.512  10.231 -0.5172  0.0358  0.2524
   34MPD2    H5  538   3.194   1.601  10.200 -2.6352  0.3187 -1.5238
   34MPD2    N1  539   3.235   1.015  10.208  0.9143  0.0552  0.0122
   34MPD2    H7  540   3.311   0.949  10.197  0.4425 -0.7854  1.7646
   35TMC2    C1  541   3.940   2.183  11.147  0.2078  0.0774 -0.0634
   35TMC2    C2  542   3.937   2.131  11.022 -1.0566 -1.2191  0.3589
   35TMC2    C3  543   3.827   2.050  10.998  0.0638  0.0919  0.1550
   35TMC2    C4  544   3.840   2.161  11.240 -0.0738 -0.5048 -0.1428
   35TMC2    C5  545   3.736   2.080  11.206  0.1045 -0.5133 -0.7766
   35TMC2    C6  546   3.723   2.024  11.083 -0.4951 -0.6033  0.4445
   35TMC2     C  547   4.060   2.261  11.184  0.5761  0.0073  0.6866
   35TMC2     O  548   4.136   2.294  11.095 -0.4328  0.3291 -0.1336
   35TMC2     H  549   4.022   2.134  10.955 -0.0293 -0.6043  1.6928
   35TMC2    H1  550   3.855   2.197  11.341 -0.2948  1.1901 -0.7120
   35TMC2    H2  551   3.635   1.968  11.055 -0.4466 -1.4474  1.9451
   35TMC2    C7  552   3.661   2.000  11.307 -0.0261  0.1843 -0.1033
   35TMC2    C8  553   3.819   1.977  10.877  0.1751  0.2969 -0.4939
   35TMC2    O1  554   3.625   1.891  11.263 -0.5386 -0.9466 -0.0077
   35TMC2    O2  555   3.770   1.868  10.857 -0.3726 -0.1074  0.8735
   35TMC2    O5  556   3.896   2.030  10.783  0.0485  0.2492  0.5346
   35TMC2    H5  557   3.939   2.118  10.796 -1.0116  1.0775 -1.5421
   36MPD2     C  558   4.431   2.475  11.452  0.3529  0.2161 -0.0122
   36MPD2    C1  559   4.396   2.363  11.520 -0.1884  0.4683  0.0317
   36MPD2    C2  560   4.288   2.286  11.473  0.4696 -0.3848  0.4658
   36MPD2    C3  561   4.210   2.324  11.361  0.1022  0.1464  0.0931
   36MPD2    C4  562   4.257   2.446  11.303 -0.6588 -0.2652  0.0410
   36MPD2    C5  563   4.356   2.518  11.348 -0.0364  0.0846  0.1034
   36MPD2     H  564   4.253   2.199  11.526  1.7184 -1.6569 -0.8040
   36MPD2    H1  565   4.206   2.487  11.216 -1.6428  0.5706  1.0157
   36MPD2    H2  566   4.525   2.526  11.473  0.2514  0.5400 -0.3566
   36MPD2    H3  567   4.383   2.608  11.293 -0.2331 -0.2231 -0.4934
   36MPD2     N  568   4.097   2.251  11.315  0.6491 -0.4330 -0.1733
   36MPD2    H5  569   4.057   2.179  11.373  2.3092 -0.7030  0.6551
   36MPD2    N1  570   4.474   2.336  11.638 -0.1172 -0.0948 -0.1543
   36MPD2    H7  571   4.553   2.399  11.652 -0.3055 -0.2089  1.3324
   37TMC2    C1  572   0.900   3.660  11.383  0.2494  0.5506  0.5801
   37TMC2    C2  573   0.792   3.684  11.304  0.5453 -0.0922 -0.1322
   37TMC2    C3  574   0.806   3.721  11.172 -0.3813 -1.2884  0.7156
   37TMC2    C4  575   1.025   3.669  11.327 -0.2828  0.3562  0.3145
   37TMC2    C5  576   1.036   3.698  11.191 -0.2200 -0.4350 -0.2106
   37TMC2    C6  577   0.928   3.731  11.110  0.9902  0.3490  0.4239
   37TMC2     C  578   0.882   3.591  11.511 -0.3343  0.2623  0.7884
   37TMC2     O  579   0.771   3.608  11.564 -0.3545  0.5157  0.2105
   37TMC2     H  580   0.689   3.675  11.337 -0.0576  1.0304 -1.6852
   37TMC2    H1  581   1.111   3.649  11.390  0.9830  0.6234 -1.3202
   37TMC2    H2  582   0.927   3.731  11.002  1.0690  1.2660  0.4264
   37TMC2    C7  583   1.152   3.644  11.128  0.4685 -0.7522 -0.1938
   37TMC2    C8  584   0.691   3.715  11.089 -0.1152  0.7181  0.1293
   37TMC2    O1  585   1.206   3.545  11.172 -0.5065 -0.5751  0.6933
   37TMC2    O2  586   0.624   3.611  11.088 -0.2363 -0.5447  0.2366
   37TMC2    O5  587   0.636   3.840  11.121 -0.0238 -0.1515  0.1729
   37TMC2    H5  588   0.698   3.902  11.166 -0.0219  0.4754 -0.6729
   38MPD2     C  589   1.048   3.250  11.866 -0.2228  0.0124  0.2722
   38MPD2    C1  590   1.137   3.259  11.762 -0.4144 -0.0046 -0.9984
   38MPD2    C2  591   1.113   3.342  11.654  0.1073  0.6811  0.2515
   38MPD2    C3  592   0.988   3.405  11.640 -0.1157 -0.6571  0.2205
   38MPD2    C4  593   0.894   3.381  11.743  0.0904  0.1019  0.5155
   38MPD2    C5  594   0.924   3.307  11.852  0.0013 -0.1944  0.4000
   38MPD2     H  595   1.186   3.333  11.574 -1.3861  1.6032 -1.2050
   38MPD2    H1  596   0.804   3.441  11.744  1.3154  1.9724 -0.0925
   38MPD2    H2  597   1.078   3.214  11.964  1.3696 -2.7040 -1.2108
   38MPD2    H3  598   0.850   3.290  11.929  1.6898 -0.9923  1.8391
   38MPD2     N  599   0.974   3.487  11.527 -0.2480  0.3841 -0.3236
   38MPD2    H5  600   1.051   3.480  11.461 -0.5923 -2.2112 -0.4449
   38MPD2    N1  601   1.264   3.192  11.756  0.2612 -0.0707 -0.1532
   38MPD2    H7  602   1.333   3.217  11.687  1.7448  3.7561  2.6969
   39TMC2    C1  603   0.774   4.575   1.442 -0.3617 -0.0421  0.5179
   39TMC2    C2  604   0.866   4.475   1.431  0.5154  0.0478 -0.3612
   39TMC2    C3  605   0.985   4.484   1.498 -0.4988  0.4087 -0.2186
   39TMC2    C4  606   0.806   4.678   1.522  0.8238 -0.3866  0.2583
   39TMC2    C5  607   0.932   4.698   1.569  0.1240 -0.1405  0.1715
   39TMC2    C6  608   1.024   4.599   1.567  0.5320  0.9516  0.0499
   39TMC2     C  609   0.633   4.555   1.400  0.1227  0.0862 -0.0798
   39TMC2     O  610   0.551   4.643   1.419  0.2585  0.2650 -0.7469
   39TMC2     H  611   0.848   4.389   1.367  0.5484 -0.0877 -0.1861
   39TMC2    H1  612   0.730   0.013   1.547 -0.5101 -2.2980  1.7394
   39TMC2    H2  613   1.121   4.608   1.616  1.6804 -0.3186 -1.9922
   39TMC2    C7  614   0.977   0.086   1.627  0.2969 -0.3960 -0.2172
   39TMC2    C8  615   1.069   4.367   1.473 -0.0789 -0.1386 -0.1158
   39TMC2    O1  616   1.087   0.089   1.677 -0.3043  0.2080  0.1233
   39TMC2    O2  617   1.038   4.248   1.467  0.3539 -0.0464  0.5611
   39TMC2    O5  618   1.160   4.417   1.388  0.1106 -0.1487 -0.1710
   39TMC2    H5  619   1.149   4.512   1.368 -0.1115 -0.1806 -0.2011
   40MPD2     C  620   0.513   4.242   1.238 -0.6610  0.2518 -0.1769
   40MPD2    C1  621   0.498   4.365   1.297 -0.3492  0.0215 -0.5011
   40MPD2    C2  622   0.372   4.427   1.288 -0.1293 -0.4326  0.6203
   40MPD2    C3  623   0.264   4.374   1.230  0.2020  0.6317  0.2052
   40MPD2    C4  624   0.282   4.248   1.178  0.1496 -0.0518  0.3923
   40MPD2    C5  625   0.407   4.194   1.170  0.4780  0.5153  0.0127
   40MPD2     H  626   0.364   4.529   1.321 -2.1999 -0.1367 -0.8357
   40MPD2    H1  627   0.208   4.200   1.115 -0.9622  0.6376  1.1668
   40MPD2    H2  628   0.604   4.183   1.234 -0.0884  1.0183  1.1254
   40MPD2    H3  629   0.426   4.106   1.108 -4.4694  0.5916 -1.6429
   40MPD2     N  630   0.136   4.429   1.227 -0.0229 -0.3640 -0.2904
   40MPD2    H5  631   0.070   4.371   1.175  0.9989  0.7155 -2.8139
   40MPD2    N1  632   0.615   4.423   1.357  0.5503  0.0519  0.6779
   40MPD2    H7  633   0.698   4.365   1.352  0.5576 -0.0258  1.7266
   41TMC2    C1  634   3.254   3.116  13.386  0.3562  0.8299  0.2417
   41TMC2    C2  635   3.169   3.221  13.406  0.9153  0.2644  0.3117
   41TMC2    C3  636   3.091   3.261  13.306 -0.1230 -0.2482 -0.5871
   41TMC2    C4  637   3.281   3.062  13.254  0.2275 -0.1864 -0.0533
   41TMC2    C5  638   3.200   3.118  13.158 -0.7334  0.0120  0.4061
   41TMC2    C6  639   3.105   3.212  13.177 -0.6255 -1.1928 -0.5369
   41TMC2     C  640   3.364   3.088  13.487  0.1057 -0.4412  0.7039
   41TMC2     O  641   3.462   3.029  13.446 -0.6819 -0.7123  0.1494
   41TMC2     H  642   3.153   3.271  13.500 -1.9807 -1.0324  0.5258
   41TMC2    H1  643   3.353   2.984  13.232  1.6974  1.4709 -1.1264
   41TMC2    H2  644   3.041   3.240  13.095 -0.7868  0.5558  0.1785
   41TMC2    C7  645   3.217   3.063  13.022 -0.0690  0.5276  0.1616
   41TMC2    C8  646   2.982   3.352  13.337  0.1268 -0.0149  0.0161
   41TMC2    O1  647   3.244   2.944  13.004  0.2653  0.0001 -0.6304
   41TMC2    O2  648   2.913   3.399  13.251  0.4753  0.0503  0.2697
   41TMC2    O5  649   2.925   3.304  13.456 -0.0552  0.0341 -0.2774
   41TMC2    H5  650   2.972   3.231  13.501 -0.2468 -0.1294 -0.3435
   42MPD2     C  651   3.564   3.098  13.711 -0.3122  0.2932 -0.1430
   42MPD2    C1  652   3.428   3.131  13.732  0.2214 -0.3388 -0.1296
   42MPD2    C2  653   3.380   3.172  13.856  0.2697  0.0546  0.1763
   42MPD2    C3  654   3.472   3.188  13.966 -0.5002 -0.1108  0.1415
   42MPD2    C4  655   3.605   3.163  13.938  0.5894 -1.0382 -0.1043
   42MPD2    C5  656   3.648   3.126  13.811 -0.4461  0.1265  0.1507
   42MPD2     H  657   3.280   3.213  13.862 -0.2302 -0.6687 -3.1729
   42MPD2    H1  658   3.677   3.181  14.017 -0.3581 -1.8703  0.9288
   42MPD2    H2  659   3.609   3.064  13.618  2.3038 -1.3085  1.7287
   42MPD2    H3  660   3.753   3.116  13.785 -1.2564  1.1781 -3.6119
   42MPD2     N  661   3.431   3.221  14.096 -0.2213 -0.2292 -0.3102
   42MPD2    H5  662   3.507   3.217  14.163 -0.5298  0.3930  0.0787
   42MPD2    N1  663   3.340   3.126  13.619  0.0253 -0.6346 -0.0170
   42MPD2    H7  664   3.242   3.143  13.637  0.5972  1.3210  1.2133
   43TMC2    C1  665   0.176   1.485   1.133 -0.4226  0.3951  0.9068
   43TMC2    C2  666   0.057   1.533   1.177 -0.1815  0.4626 -0.2816
   43TMC2    C3  667   0.071   1.627   1.283  0.2709 -0.0966 -0.4211
   43TMC2    C4  668   0.295   1.527   1.180 -0.1937 -0.5816 -0.0673
   43TMC2    C5  669   0.299   1.620   1.272  0.4313  0.1657 -0.5806
   43TMC2    C6  670   0.188   1.675   1.332 -0.4969 -0.3746  0.1164
   43TMC2     C  671   0.184   1.386   1.030  0.0059 -0.4509 -0.0963
   43TMC2     O  672   0.296   1.367   0.978 -0.3661 -0.4428 -0.4926
   43TMC2     H  673   4.698   1.516   1.133 -0.1098 -0.8612  0.0654
   43TMC2    H1  674   0.390   1.487   1.147 -1.3794 -0.4310 -3.7002
   43TMC2    H2  675   0.189   1.765   1.392 -0.6502 -1.5161  1.8332
   43TMC2    C7  676   0.412   1.709   1.268 -0.1991 -0.0381  0.4228
   43TMC2    C8  677   4.683   1.691   1.322 -0.1395 -0.2238  0.1267
   43TMC2    O1  678   0.484   1.703   1.172  0.2242  0.0613 -0.3655
   43TMC2    O2  679   4.678   1.778   1.408 -0.2568  0.4020 -0.5036
   43TMC2    O5  680   4.576   1.625   1.274  0.1476  0.7144 -0.1585
   43TMC2    H5  681   4.493   1.655   1.317 -0.3807 -0.3331 -0.4475
   44MPD2     C  682   4.671   1.078   0.707  0.3713 -0.1741  0.8028
   44MPD2    C1  683   0.062   1.121   0.713  0.1298  0.2688 -0.2957
   44MPD2    C2  684   0.108   1.210   0.810 -0.4862 -0.5947 -0.0369
   44MPD2    C3  685   0.020   1.252   0.903  0.7426  0.7904 -1.0910
   44MPD2    C4  686   4.630   1.216   0.896 -0.0465  0.0170 -0.4270
   44MPD2    C5  687   4.586   1.129   0.796 -0.3413 -0.7293  0.3356
   44MPD2     H  688   0.209   1.249   0.802 -0.0079 -1.2741  2.5199
   44MPD2    H1  689   4.557   1.258   0.964  2.3133 -0.3577  2.2868
   44MPD2    H2  690   4.631   1.003   0.639  2.1583  0.2727 -0.7649
   44MPD2    H3  691   4.483   1.094   0.786 -0.8181  1.2457 -1.6144
   44MPD2     N  692   0.058   1.337   1.012  0.1355 -0.7270  0.1605
   44MPD2    H5  693   4.730   1.364   1.084 -0.0927  0.2197 -0.4145
   44MPD2    N1  694   0.163   1.065   0.628  0.2490  0.1374 -0.5162
   44MPD2    H7  695   0.261   1.083   0.649 -0.5269  0.1726  3.0585
   45TMC2    C1  696   0.948   3.230   9.817 -0.7463  0.8716 -0.4214
   45TMC2    C2  697   0.850   3.281   9.738 -0.8022 -0.2250 -0.0431
   45TMC2    C3  698   0.842   3.419   9.730  0.3653  0.2102 -0.0733
   45TMC2    C4  699   1.044   3.305   9.885 -0.3184  0.0274 -0.4943
   45TMC2    C5  700   1.040   3.439   9.854  0.0589  0.4891  0.2492
   45TMC2    C6  701   0.938   3.499   9.784 -0.0092 -0.8045 -0.2691
   45TMC2     C  702   0.978   3.088   9.818  0.5555  0.2347 -0.1948
   45TMC2     O  703   1.029   3.048   9.921 -0.2666  0.0303 -0.9463
   45TMC2     H  704   0.762   3.223   9.710 -1.2699 -0.1237  1.2368
   45TMC2    H1  705   1.129   3.258   9.933 -0.6541  0.7539  0.7966
   45TMC2    H2  706   0.936   3.607   9.793 -0.4853 -0.7435 -1.1394
   45TMC2    C7  707   1.157   3.516   9.894 -0.0953 -0.5099 -0.1502
   45TMC2    C8  708   0.750   3.486   9.634  0.3832  0.5485  0.0727
   45TMC2    O1  709   1.207   3.465   9.993 -0.1067  0.7625  0.2829
   45TMC2    O2  710   0.765   3.610   9.621  0.0501 -0.2459 -0.1011
   45TMC2    O5  711   0.737   3.398   9.534  0.0616  0.3637  0.4526
   45TMC2    H5  712   0.748   3.304   9.558  0.7427  0.6265  1.1641
   46MPD2     C  713   0.991   2.803   9.752  0.4008  0.1136  0.0653
   46MPD2    C1  714   0.889   2.883   9.713 -0.1122 -0.6486 -0.3493
   46MPD2    C2  715   0.789   2.838   9.629 -0.3066 -0.0303  0.3622
   46MPD2    C3  716   0.772   2.706   9.620 -0.2024 -0.0276  0.3229
   46MPD2    C4  717   0.867   2.621   9.661 -0.4698 -0.2841 -0.1931
   46MPD2    C5  718   0.981   2.670   9.713  0.4391  0.2500  0.0495
   46MPD2     H  719   0.716   2.900   9.578 -0.7251 -0.4695  0.4206
   46MPD2    H1  720   0.858   2.516   9.634  2.4018 -0.9591  1.3810
   46MPD2    H2  721   1.080   2.831   9.807 -0.8338  0.0821  2.0855
   46MPD2    H3  722   1.064   2.603   9.731 -0.4915 -0.8135  0.3678
   46MPD2     N  723   0.650   2.672   9.562  0.2155  0.2742  0.0471
   46MPD2    H5  724   0.582   2.747   9.559 -0.5142 -0.4182 -0.5286
   46MPD2    N1  725   0.903   3.023   9.725 -0.2745  0.1500  0.1358
   46MPD2    H7  726   0.824   3.074   9.687  1.1309  0.9076 -1.7696
   47TMC2    C1  727   2.846   4.092   9.653  0.4891  0.4797 -0.0562
   47TMC2    C2  728   2.757   4.182   9.603  0.2884 -0.5852  0.6853
   47TMC2    C3  729   2.644   4.138   9.546  0.2697  0.2249 -0.1633
   47TMC2    C4  730   2.829   3.960   9.614 -0.3607  0.4229  0.1237
   47TMC2    C5  731   2.729   3.915   9.532  0.2625  0.1960  0.2364
   47TMC2    C6  732   2.636   4.010   9.491  0.8566  0.2371  0.4868
   47TMC2     C  733   2.969   4.136   9.707  0.6271  0.6161 -0.8440
   47TMC2     O  734   2.962   4.255   9.733 -0.0717  0.1605 -0.0567
   47TMC2     H  735   2.768   4.289   9.620 -0.7344 -0.2543 -0.7340
   47TMC2    H1  736   2.901   3.882   9.638 -0.5644  0.4360  0.7733
   47TMC2    H2  737   2.538   3.987   9.449  1.3209  1.3328 -1.1971
   47TMC2    C7  738   2.729   3.782   9.477 -0.2311 -0.3281  0.0847
   47TMC2    C8  739   2.556   4.247   9.514 -0.7705 -0.1753  0.3861
   47TMC2    O1  740   2.766   3.705   9.566 -0.0367  0.0496 -0.5311
   47TMC2    O2  741   2.594   4.363   9.489 -0.0199 -0.2790  0.2631
   47TMC2    O5  742   2.441   4.217   9.570  0.4830  0.2946 -0.1096
   47TMC2    H5  743   2.435   4.125   9.605  0.2251 -0.2515 -1.5615
   48MPD2     C  744   3.180   4.144   9.907 -0.0042  0.4262  0.6033
   48MPD2    C1  745   3.178   4.055   9.802 -0.6222 -0.6688 -0.1107
   48MPD2    C2  746   3.283   3.967   9.783  0.1884  0.6145 -0.1449
   48MPD2    C3  747   3.386   3.969   9.871  0.3385  0.3824 -0.2202
   48MPD2    C4  748   3.388   4.067   9.963 -0.6235  0.4384  0.2383
   48MPD2    C5  749   3.290   4.153   9.988 -0.1737  0.4119  0.4936
   48MPD2     H  750   3.277   3.886   9.712 -0.4523 -0.1721  0.8015
   48MPD2    H1  751   3.465   4.085  10.036  0.6564  0.3194 -1.0907
   48MPD2    H2  752   3.100   4.217   9.923 -1.7177 -1.1664 -0.7350
   48MPD2    H3  753   3.292   4.219  10.074 -0.2089  0.4235  0.4854
   48MPD2     N  754   3.486   3.868   9.867  0.0935  0.5309 -0.4699
   48MPD2    H5  755   3.469   3.795   9.799 -0.8520  0.2100  0.1167
   48MPD2    N1  756   3.065   4.046   9.717  0.0769  0.7582  0.4174
   48MPD2    H7  757   3.062   3.963   9.658 -0.1963  1.4014 -0.4751
   49TMC2    C1  758   2.132   0.676  10.479 -0.5437 -0.3855 -0.2884
   49TMC2    C2  759   2.239   0.750  10.516 -0.5749 -0.2558  0.8913
   49TMC2    C3  760   2.291   0.830  10.417  0.5700 -0.0616  0.0308
   49TMC2    C4  761   2.079   0.678  10.356  0.0848 -0.8186 -1.0932
   49TMC2    C5  762   2.132   0.769  10.266 -0.0574  0.5080 -0.0676
   49TMC2    C6  763   2.234   0.845  10.295 -0.0849  0.3444  0.2074
   49TMC2     C  764   2.083   0.589  10.580 -0.1073 -0.0761 -0.4491
   49TMC2     O  765   2.014   0.496  10.544 -0.1723 -0.4155 -0.1271
   49TMC2     H  766   2.279   0.751  10.616 -3.4431 -1.1269  2.0406
   49TMC2    H1  767   1.992   0.615  10.339 -0.5384 -0.6890  1.6767
   49TMC2    H2  768   2.276   0.914  10.224 -3.0715 -0.5839 -2.4712
   49TMC2    C7  769   2.066   0.789  10.136  0.1455  0.0176  0.7230
   49TMC2    C8  770   2.365   0.946  10.450 -0.0402  0.1386  0.5032
   49TMC2    O1  771   2.089   0.890  10.070 -0.0515  0.0999  0.6555
   49TMC2    O2  772   2.427   1.015  10.372  0.1689 -0.2166 -0.1137
   49TMC2    O5  773   2.296   1.002  10.547  1.0379  0.7111  0.1518
   49TMC2    H5  774   2.271   0.942  10.621  0.9852 -1.9970 -2.0570
   50MPD2     C  775   1.996   0.433  10.830 -0.3051 -0.4695 -0.2104
   50MPD2    C1  776   2.025   0.570  10.824  0.2889 -0.1188  0.8038
   50MPD2    C2  777   2.019   0.640  10.941 -0.7982  0.4572 -0.0981
   50MPD2    C3  778   1.976   0.586  11.062  0.2772 -0.2069 -0.3331
   50MPD2    C4  779   1.951   0.449  11.066  0.4263 -0.4418  0.9173
   50MPD2    C5  780   1.959   0.374  10.953  0.1077  0.0831  0.4918
   50MPD2     H  781   2.049   0.743  10.926  0.9221  0.2411  1.8913
   50MPD2    H1  782   1.916   0.408  11.160 -1.8261 -1.3458 -0.3015
   50MPD2    H2  783   2.027   0.368  10.749  0.6083 -0.9414  0.5139
   50MPD2    H3  784   1.945   0.266  10.959 -1.9260  0.1733 -2.4811
   50MPD2     N  785   1.946   0.655  11.177 -0.7057  0.0595  0.4056
   50MPD2    H5  786   1.916   0.601  11.257  3.2993  1.0165  2.5928
   50MPD2    N1  787   2.077   0.639  10.711 -0.6286  0.5847  0.2717
   50MPD2    H7  788   2.109   0.734  10.728 -1.8320  1.1653 -0.7681
   51TMC2    C1  789   2.361   0.332   1.690  0.2717  0.2326 -0.0969
   51TMC2    C2  790   2.470   0.340   1.771  0.6291  0.0365 -0.5988
   51TMC2    C3  791   2.590   0.375   1.719  0.2447  0.2560  0.2910
   51TMC2    C4  792   2.368   0.366   1.557  0.3535  0.2838  0.3286
   51TMC2    C5  793   2.495   0.399   1.508 -0.4876 -0.4588 -0.5923
   51TMC2    C6  794   2.608   0.406   1.589 -0.5253  0.3318 -0.2042
   51TMC2     C  795   2.243   0.250   1.725 -0.4424  0.6696  0.1448
   51TMC2     O  796   2.164   0.216   1.635 -0.2885  0.5191 -0.0112
   51TMC2     H  797   2.472   0.317   1.877  3.1091 -1.7630 -1.0398
   51TMC2    H1  798   2.282   0.372   1.491  0.0271 -1.9158  0.5579
   51TMC2    H2  799   2.706   0.426   1.548  0.3729  0.1459  1.8588
   51TMC2    C7  800   2.530   0.339   1.378 -0.3076  0.0400 -0.1295
   51TMC2    C8  801   2.700   0.366   1.810 -1.0679  0.7953 -0.3430
   51TMC2    O1  802   2.642   0.289   1.374  0.1991 -0.0776 -0.0632
   51TMC2    O2  803   2.702   0.294   1.905  0.4339 -0.5636  0.2910
   51TMC2    O5  804   2.804   0.438   1.754 -0.0643 -0.3889 -0.4412
   51TMC2    H5  805   2.777   0.511   1.695  0.9559  0.7443  0.4893
   52MPD2     C  806   1.957   4.734   2.051  0.4351 -0.1791  0.3652
   52MPD2    C1  807   2.008   4.692   1.928  0.1025 -0.1014  0.1353
   52MPD2    C2  808   2.098   0.037   1.874  0.3418 -0.2674  0.6467
   52MPD2    C3  809   2.141   0.152   1.933 -0.3331  0.5466  0.8931
   52MPD2    C4  810   2.111   0.177   2.059  0.7249 -0.1187 -0.2680
   52MPD2    C5  811   2.024   0.094   2.117  0.0806  0.8058  0.1373
   52MPD2     H  812   2.144   0.011   1.779  2.2483 -0.7308  1.6945
   52MPD2    H1  813   2.162   0.258   2.110 -0.0649  0.4090 -0.3158
   52MPD2    H2  814   1.895   4.666   2.108 -1.2363  0.6146 -0.5125
   52MPD2    H3  815   1.998   0.104   2.222  2.4072 -0.1902  0.8118
   52MPD2     N  816   2.233   0.230   1.861  0.6623 -0.3905 -0.5350
   52MPD2    H5  817   2.285   0.290   1.924  0.8589 -1.8873  0.7318
   52MPD2    N1  818   1.977   4.572   1.862  0.3497 -0.1960 -0.4657
   52MPD2    H7  819   2.036   4.558   1.781  0.9530  0.5523 -0.1593
   53TMC2    C1  820   1.847   3.437  11.150 -0.0677 -0.2031  0.1360
   53TMC2    C2  821   1.959   3.383  11.097 -0.5209 -0.0496 -0.6596
   53TMC2    C3  822   2.013   3.273  11.166  0.5773 -0.4589  0.0562
   53TMC2    C4  823   1.785   3.391  11.265 -0.5603 -0.3069  0.3901
   53TMC2    C5  824   1.847   3.288  11.330  0.0365 -0.2604 -0.0408
   53TMC2    C6  825   1.959   3.226  11.284  0.6921 -0.3625 -0.6954
   53TMC2     C  826   1.798   3.552  11.085 -0.4867 -0.4499 -0.0651
   53TMC2     O  827   1.879   3.629  11.037 -0.5587  0.1710 -0.8191
   53TMC2     H  828   1.999   3.419  11.003  0.3297  1.9856  0.4673
   53TMC2    H1  829   1.694   3.436  11.303  0.6387  0.8555  1.8912
   53TMC2    H2  830   2.006   3.138  11.325 -0.3112 -0.2127  0.7657
   53TMC2    C7  831   1.815   3.280  11.472  0.2946 -0.0956 -0.3582
   53TMC2    C8  832   2.133   3.215  11.104  0.0445  0.4460  0.1552
   53TMC2    O1  833   1.706   3.329  11.502  0.1051 -0.1527  0.4193
   53TMC2    O2  834   2.144   3.183  10.989  0.5969 -0.5888 -0.0126
   53TMC2    O5  835   2.237   3.233  11.190  0.0343 -0.6545 -0.8658
   53TMC2    H5  836   2.225   3.256  11.284  0.9547  3.2320 -1.6713
   54MPD2     C  837   1.611   3.762  10.952  0.3900 -0.8551  0.1642
   54MPD2    C1  838   1.572   3.661  11.039  0.1580 -0.0138  0.2974
   54MPD2    C2  839   1.438   3.652  11.068 -0.2287 -0.2940  0.1650
   54MPD2    C3  840   1.345   3.741  11.021 -0.3888  0.2120  0.1197
   54MPD2    C4  841   1.388   3.835  10.933  0.5954 -0.1052 -0.1390
   54MPD2    C5  842   1.520   3.840  10.896 -0.8685 -0.2702  0.2722
   54MPD2     H  843   1.414   3.580  11.146 -0.4959  1.3843  1.6139
   54MPD2    H1  844   1.315   3.906  10.897 -1.3855 -3.0722 -2.0423
   54MPD2    H2  845   1.714   3.787  10.930  0.5802 -1.2968  0.5395
   54MPD2    H3  846   1.563   3.916  10.832 -1.1199  1.7381  2.4768
   54MPD2     N  847   1.211   3.743  11.052 -0.6572 -0.6358  0.3458
   54MPD2    H5  848   1.161   3.828  11.030  0.6261 -0.5170 -2.1371
   54MPD2    N1  849   1.662   3.563  11.094  0.5426  0.0983  0.3184
   54MPD2    H7  850   1.617   3.492  11.152  1.2737  1.2708  2.3392
   55TMC2    C1  851   3.036   0.358   0.337  0.4003 -0.4654  1.0640
   55TMC2    C2  852   3.060   0.264   0.246  0.1206  0.1895  0.0789
   55TMC2    C3  853   3.084   0.131   0.280 -0.1918  0.1011  0.4961
   55TMC2    C4  854   3.009   0.320   0.469  0.7034 -0.4468 -0.1760
   55TMC2    C5  855   3.026   0.188   0.508  0.7890 -0.7930 -0.8216
   55TMC2    C6  856   3.070   0.093   0.417  0.1389 -0.0797 -0.5469
   55TMC2     C  857   3.008   0.497   0.291  0.1806 -0.1000  0.2559
   55TMC2     O  858   2.947   0.576   0.368 -0.3540 -0.1582  0.2643
   55TMC2     H  859   3.068   0.289   0.140 -1.8905 -0.0991 -0.1386
   55TMC2    H1  860   2.977   0.399   0.536  0.8825  0.2828 -0.9473
   55TMC2    H2  861   3.090   4.729   0.445  1.1012  0.5587  1.1128
   55TMC2    C7  862   3.051   0.157   0.652  0.9876 -0.2368  0.1957
   55TMC2    C8  863   3.153   0.049   0.186 -0.1170 -0.4530  0.3097
   55TMC2    O1  864   3.134   0.069   0.674  0.3886 -0.3094  1.2418
   55TMC2    O2  865   3.232   4.703   0.215  0.0516 -0.2423  0.0212
   55TMC2    O5  866   3.109   0.074   0.058  0.4850 -0.0894 -0.0203
   55TMC2    H5  867   3.014   0.099   0.061  0.4156 -0.6327  2.3554
   56MPD2     C  868   3.063   0.666  17.727 -0.0117  0.0392 -0.4076
   56MPD2    C1  869   3.026   0.652   0.103 -0.1454  0.1710 -0.5238
   56MPD2    C2  870   2.974   0.768   0.165 -0.2737 -0.2948 -0.3311
   56MPD2    C3  871   2.948   0.883   0.091  0.3500  0.0025 -0.3716
   56MPD2    C4  872   2.994   0.890  17.721  0.2313 -1.1201  0.2726
   56MPD2    C5  873   3.045   0.785  17.658  0.5179 -0.1887  0.1016
   56MPD2     H  874   2.953   0.768   0.271  0.9015  2.0269 -0.0992
   56MPD2    H1  875   2.994   0.982  17.663 -1.4020 -0.4009  1.3930
   56MPD2    H2  876   3.110   0.588  17.669  0.7472 -0.9473  1.5421
   56MPD2    H3  877   3.084   0.805  17.559 -1.1913  0.6255 -0.4093
   56MPD2     N  878   2.890   0.997   0.159 -0.4176 -0.8711 -0.4145
   56MPD2    H5  879   2.842   0.980   0.246 -2.6075 -0.2119 -1.4878
   56MPD2    N1  880   3.048   0.524   0.164 -0.0563 -0.4063  0.2271
   56MPD2    H7  881   3.098   0.452   0.112  3.4066  0.6796  2.0564
   57TMC2    C1  882   2.249   1.931  13.857  0.1952 -0.1704 -0.1919
   57TMC2    C2  883   2.222   1.909  13.727 -0.1987 -0.4331  0.1512
   57TMC2    C3  884   2.297   1.808  13.671 -0.0845  0.5407  0.3733
   57TMC2    C4  885   2.359   1.890  13.929 -0.6703 -0.1340  0.4669
   57TMC2    C5  886   2.439   1.794  13.860 -1.2229 -0.3344  0.3180
   57TMC2    C6  887   2.404   1.751  13.740  0.4313  0.8148 -0.3787
   57TMC2     C  888   2.137   1.980  13.934 -0.0451  0.2103 -0.1827
   57TMC2     O  889   2.028   1.977  13.883  0.3673 -0.3321 -0.3411
   57TMC2     H  890   2.131   1.946  13.682  0.0314 -0.6067 -0.4711
   57TMC2    H1  891   2.378   1.896  14.036  2.2807  0.8856 -0.1143
   57TMC2    H2  892   2.460   1.672  13.690  2.6951  0.5658  2.5554
   57TMC2    C7  893   2.564   1.762  13.926  0.3170  0.3935 -0.0556
   57TMC2    C8  894   2.234   1.747  13.557 -0.2913 -0.9596 -0.4485
   57TMC2    O1  895   2.615   1.858  13.983  0.4296 -0.0867 -0.1737
   57TMC2    O2  896   2.112   1.754  13.536 -0.2209 -0.2623 -0.2300
   57TMC2    O5  897   2.330   1.710  13.459 -0.1856 -0.1598  0.1170
   57TMC2    H5  898   2.420   1.724  13.496 -0.2134  0.2399  0.0373
   58MPD2     C  899   1.931   2.214  14.347  0.1129 -0.3786  0.2087
   58MPD2    C1  900   1.874   2.156  14.238  0.0509  0.1772 -0.0321
   58MPD2    C2  901   1.954   2.087  14.149  0.6365 -0.2945 -0.9062
   58MPD2    C3  902   2.090   2.082  14.160  0.2997  0.6004  0.0646
   58MPD2    C4  903   2.139   2.127  14.279 -0.2278  0.2463  0.2423
   58MPD2    C5  904   2.059   2.196  14.370  0.0220 -0.1258 -0.6499
   58MPD2     H  905   1.904   2.057  14.057 -1.1993  1.2768 -0.4328
   58MPD2    H1  906   2.246   2.114  14.291 -0.3595  0.1650  1.3541
   58MPD2    H2  907   1.871   2.279  14.411 -1.8673 -0.7537 -1.2859
   58MPD2    H3  908   2.110   2.251  14.449  1.4640 -0.9909 -0.9751
   58MPD2     N  909   2.178   2.025  14.059  0.0950  0.3013 -0.1104
   58MPD2    H5  910   2.278   2.027  14.076  0.3275 -2.4405 -1.2464
   58MPD2    N1  911   1.738   2.171  14.208 -0.1390 -0.0789  0.6548
   58MPD2    H7  912   1.697   2.130  14.125  0.1262 -0.3094  0.6388
   59TMC2    C1  913   0.069   1.750  12.932 -0.0256 -0.1479  0.7308
   59TMC2    C2  914   0.204   1.780  12.920  0.6351 -0.0155 -0.0564
   59TMC2    C3  915   0.257   1.753  12.795  0.0870  0.5711 -0.5862
   59TMC2    C4  916   4.724   1.709  12.832  0.2731  0.5604 -0.5358
   59TMC2    C5  917   0.050   1.673  12.719  0.4885 -0.3745  0.2970
   59TMC2    C6  918   0.179   1.696  12.696 -0.1718  0.3408 -0.0368
   59TMC2     C  919   0.001   1.759  13.059  0.1363  0.4366  0.0182
   59TMC2     O  920   4.633   1.706  13.083  0.0678  0.2773  0.2072
   59TMC2     H  921   0.268   1.809  13.003  0.3026  0.7626 -0.0730
   59TMC2    H1  922   4.618   1.692  12.847  0.3723  1.1909  0.8874
   59TMC2    H2  923   0.238   1.664  12.611 -0.8027  0.2141 -0.4289
   59TMC2    C7  924   4.709   1.638  12.601  0.0363 -0.8926  0.4629
   59TMC2    C8  925   0.397   1.737  12.787  0.6836  0.2672  0.5218
   59TMC2    O1  926   4.609   1.575  12.631  0.6055 -0.2212 -0.5062
   59TMC2    O2  927   0.466   1.812  12.850 -0.3714 -0.2878 -0.0393
   59TMC2    O5  928   0.427   1.613  12.750  0.6614 -0.3793 -0.1062
   59TMC2    H5  929   0.353   1.555  12.721  1.3347 -1.7188  0.8428
   60MPD2     C  930   4.691   1.768  13.350  0.0480 -0.0947  0.7533
   60MPD2    C1  931   0.056   1.830  13.293  0.2058  0.1140 -0.1336
   60MPD2    C2  932   0.147   1.900  13.367 -0.5587  0.0777 -0.1606
   60MPD2    C3  933   0.145   1.901  13.504 -0.1217  0.2540 -0.1152
   60MPD2    C4  934   0.051   1.829  13.567 -0.3839 -0.2661  0.3051
   60MPD2    C5  935   4.696   1.765  13.485 -0.0812  0.6142  0.6036
   60MPD2     H  936   0.233   1.948  13.321 -1.0853  1.3127  0.1521
   60MPD2    H1  937   0.046   1.815  13.675  0.6798  1.6706  0.6003
   60MPD2    H2  938   4.618   1.714  13.291  0.1580 -1.1767  1.6005
   60MPD2    H3  939   4.606   1.719  13.525  0.5495 -0.7550  0.4168
   60MPD2     N  940   0.249   1.960  13.578 -0.2370  0.5695 -0.3720
   60MPD2    H5  941   0.266   1.915  13.668 -0.2953  0.8801 -0.2066
   60MPD2    N1  942   0.077   1.823  13.149  0.2051 -0.1801 -0.3787
   60MPD2    H7  943   0.152   1.882  13.114  2.0578 -1.0270  2.1627
   61TMC2    C1  944   4.450   2.927  15.372  0.3660 -0.3797  0.0775
   61TMC2    C2  945   4.424   2.942  15.507  0.0785  0.1876 -0.1098
   61TMC2    C3  946   4.415   3.074  15.552  0.1070 -0.7423  0.5614
   61TMC2    C4  947   4.458   3.034  15.281 -0.5728 -0.5914 -0.1172
   61TMC2    C5  948   4.446   3.159  15.335  0.2251  0.3095  0.2878
   61TMC2    C6  949   4.427   3.186  15.467  0.2928 -0.2484  0.4556
   61TMC2     C  950   4.475   2.791  15.329  0.9545  0.8348  0.0444
   61TMC2     O  951   4.439   2.697  15.402  0.5453  0.8467  0.6070
   61TMC2     H  952   4.438   2.862  15.579 -0.6119  1.4303  1.4297
   61TMC2    H1  953   4.477   3.027  15.175  1.2198  0.3889  0.1357
   61TMC2    H2  954   4.414   3.287  15.504 -2.4000 -0.1031 -0.9181
   61TMC2    C7  955   4.407   3.268  15.243 -0.7436 -0.2523  0.5258
   61TMC2    C8  956   4.410   3.105  15.691 -0.0617  0.0742 -0.4032
   61TMC2    O1  957   4.429   3.382  15.285  0.3714  0.1316  0.3250
   61TMC2    O2  958   4.453   3.015  15.758 -0.3764 -0.2604  0.4332
   61TMC2    O5  959   4.287   3.160  15.696  0.1899 -0.4277  0.4815
   61TMC2    H5  960   4.262   3.238  15.642  0.9177 -1.5677 -1.4606
   62MPD2     C  961   4.478   2.543  15.150 -0.2587  0.7958  0.5405
   62MPD2    C1  962   4.502   2.673  15.113  0.3218 -0.0756  0.1533
   62MPD2    C2  963   4.504   2.708  14.981 -0.7482  0.4448 -0.4571
   62MPD2    C3  964   4.475   2.624  14.879  0.1081 -0.9596  0.3010
   62MPD2    C4  965   4.431   2.498  14.914 -0.2430  0.0245 -0.2299
   62MPD2    C5  966   4.442   2.457  15.049 -0.6400 -0.2165 -0.0941
   62MPD2     H  967   4.509   2.815  14.963  0.5872  0.4207 -0.2415
   62MPD2    H1  968   4.398   2.429  14.837  1.2788  0.8735 -1.6616
   62MPD2    H2  969   4.476   2.512  15.254 -0.9683  0.3512  0.4002
   62MPD2    H3  970   4.411   2.356  15.074 -0.7219 -0.0233  0.5891
   62MPD2     N  971   4.469   2.676  14.745  0.2758 -0.2004 -0.2654
   62MPD2    H5  972   4.429   2.614  14.675 -0.0212  2.3497 -2.3594
   62MPD2    N1  973   4.518   2.786  15.198  0.6984 -0.6156  0.6499
   62MPD2    H7  974   4.557   2.867  15.150 -0.4717 -1.4352 -1.7191
   63TMC2    C1  975   3.420   3.291  10.831  0.6108 -0.2166  0.0092
   63TMC2    C2  976   3.504   3.235  10.921  0.4931 -0.1279 -0.2414
   63TMC2    C3  977   3.511   3.310  11.040  0.0823  0.1504  0.7662
   63TMC2    C4  978   3.344   3.400  10.862 -0.1755 -0.4362  0.1714
   63TMC2    C5  979   3.352   3.469  10.978 -0.7495 -0.3579 -0.5288
   63TMC2    C6  980   3.438   3.425  11.069 -0.2553  0.1367 -0.3925
   63TMC2     C  981   3.421   3.241  10.696 -0.0878  0.2191 -0.0027
   63TMC2     O  982   3.372   3.318  10.616  0.0965  0.5228 -0.7290
   63TMC2     H  983   3.570   3.150  10.906  0.2452 -0.5611  1.1050
   63TMC2    H1  984   3.269   3.437  10.793  0.7367 -1.2515 -1.2511
   63TMC2    H2  985   3.455   3.467  11.167 -0.8935  0.7476 -0.5451
   63TMC2    C7  986   3.260   3.570  11.002  0.0418 -0.3136 -0.1181
   63TMC2    C8  987   3.550   3.242  11.164 -0.2456 -0.3002 -0.2188
   63TMC2    O1  988   3.149   3.567  10.949  0.1121  0.6349  0.1959
   63TMC2    O2  989   3.496   3.280  11.268  0.2311 -0.5248  0.3098
   63TMC2    O5  990   3.602   3.121  11.131  0.3361  0.0474 -0.2172
   63TMC2    H5  991   3.604   3.069  11.213  0.6702  1.8829  0.9439
   64MPD2     C  992   3.437   2.868  10.362 -0.6589  0.1496 -0.0378
   64MPD2    C1  993   3.507   2.825  10.473  0.4166  0.4642  0.6853
   64MPD2    C2  994   3.522   2.916  10.581 -0.2548 -0.4295 -0.6926
   64MPD2    C3  995   3.450   3.033  10.575 -0.6941  0.0081  0.8342
   64MPD2    C4  996   3.388   3.075  10.459 -0.1604 -0.5221 -0.4592
   64MPD2    C5  997   3.377   2.986  10.358  0.6280 -0.0736  0.1051
   64MPD2     H  998   3.575   2.880  10.668  0.5891 -0.7541 -1.3437
   64MPD2    H1  999   3.334   3.167  10.438 -2.0034 -1.3710  0.5391
   64MPD2    H2 1000   3.450   2.815  10.269  1.9543  0.4157  0.1821
   64MPD2    H3 1001   3.337   3.021  10.263  0.0535 -0.0890  0.3389
   64MPD2     N 1002   3.473   3.120  10.684  0.3647  0.0279 -0.3346
   64MPD2    H5 1003   3.511   3.083  10.770  1.5290 -0.1416 -0.9175
   64MPD2    N1 1004   3.585   2.703  10.472 -0.3663 -0.5643  0.1143
   64MPD2    H7 1005   3.648   2.693  10.551  1.0667  0.8167 -0.8623
   65TMC2    C1 1006   0.123   2.772  15.750 -0.0508  0.7417  0.0592
   65TMC2    C2 1007   0.114   2.736  15.616 -1.1397  0.2417  0.1424
   65TMC2    C3 1008   0.078   2.824  15.523 -0.3884  0.1057 -0.2858
   65TMC2    C4 1009   0.078   2.893  15.789  0.3280 -0.3552 -0.8542
   65TMC2    C5 1010   0.028   2.977  15.687 -0.6539 -0.1986  0.1874
   65TMC2    C6 1011   0.032   2.948  15.552 -0.4960  0.2132  0.2921
   65TMC2     C 1012   0.083   2.669  15.844 -0.5005  0.4828 -0.6197
   65TMC2     O 1013   4.734   2.699  15.928  0.4336  0.0796 -0.3142
   65TMC2     H 1014   0.163   2.644  15.586 -0.6075  0.9201 -1.0674
   65TMC2    H1 1015   0.075   2.924  15.893 -0.9845 -0.9538 -0.7165
   65TMC2    H2 1016   4.714   3.007  15.482 -0.8160 -1.3103 -0.7320
   65TMC2    C7 1017   0.014   3.116  15.705 -0.4731  0.7571  0.3069
   65TMC2    C8 1018   0.072   2.779  15.386 -0.5705  0.3382  0.2018
   65TMC2    O1 1019   0.008   3.184  15.603 -0.5319  0.2176  0.5736
   65TMC2    O2 1020   0.047   2.664  15.361 -0.3688  0.6412 -0.6504
   65TMC2    O5 1021   0.140   2.877  15.323 -0.4791  0.3222 -0.0365
   65TMC2    H5 1022   0.149   2.963  15.368 -0.6544  0.1282  0.3614
   66MPD2     C 1023   0.066   2.409  15.996  0.0885  0.8107  0.7556
   66MPD2    C1 1024   0.097   2.415  15.862  0.0026  0.5980 -0.2316
   66MPD2    C2 1025   0.120   2.298  15.790  0.1032  0.0680 -0.5406
   66MPD2    C3 1026   0.090   2.179  15.847  0.0954  0.7691 -0.3062
   66MPD2    C4 1027   0.039   2.171  15.979  0.8150  0.3626 -0.2313
   66MPD2    C5 1028   0.034   2.288  16.054 -0.1588  0.0344  0.2008
   66MPD2     H 1029   0.138   2.301  15.683 -0.3850 -0.8131 -0.6498
   66MPD2    H1 1030   0.005   2.075  16.018  0.9375 -0.2068 -1.5287
   66MPD2    H2 1031   0.039   2.492  16.060 -0.9502  0.7313  0.4328
   66MPD2    H3 1032   0.009   2.280  16.160 -0.0562 -0.7800  0.1611
   66MPD2     N 1033   0.082   2.053  15.775 -0.3806 -0.2845 -0.0814
   66MPD2    H5 1034   0.046   1.974  15.827  1.4118  0.1796  1.8961
   66MPD2    N1 1035   0.112   2.539  15.791 -0.4863 -0.0127  0.1795
   66MPD2    H7 1036   0.148   2.537  15.696 -0.5732  1.1587  0.1281
   67TMC2    C1 1037   0.372   1.704  14.488 -0.6631  0.5210 -0.5847
   67TMC2    C2 1038   0.289   1.813  14.522 -0.0730 -0.2802  0.0290
   67TMC2    C3 1039   0.330   1.892  14.631 -0.0506 -0.5575 -1.2273
   67TMC2    C4 1040   0.490   1.682  14.549 -0.1358  0.5390  0.2941
   67TMC2    C5 1041   0.527   1.765  14.650  0.5160 -0.1162 -0.1062
   67TMC2    C6 1042   0.453   1.880  14.685 -0.3255  0.3842 -0.4323
   67TMC2     C 1043   0.333   1.606  14.391 -0.4108 -0.2322 -0.1510
   67TMC2     O 1044   0.387   1.496  14.398 -0.0236 -0.0843 -0.3444
   67TMC2     H 1045   0.196   1.835  14.473  0.3267  0.7067 -0.2808
   67TMC2    H1 1046   0.549   1.595  14.523 -1.7565 -1.1305  2.2442
   67TMC2    H2 1047   0.485   1.960  14.751 -0.4911  0.8710 -0.9381
   67TMC2    C7 1048   0.624   1.709  14.750  0.4589  0.0214  0.9500
   67TMC2    C8 1049   0.261   2.023  14.646  0.0630  0.6983  0.2191
   67TMC2    O1 1050   0.706   1.631  14.701  0.1555 -0.0290 -0.0062
   67TMC2    O2 1051   0.182   2.068  14.563 -0.1059  0.4647  0.5666
   67TMC2    O5 1052   0.239   2.019  14.783 -0.2571 -0.4443 -0.6940
   67TMC2    H5 1053   0.299   1.966  14.839 -0.4851 -0.4434 -0.4475
   68MPD2     C 1054   0.241   1.430  14.157 -0.8377 -0.0472  0.2718
   68MPD2    C1 1055   0.203   1.559  14.187  0.1439 -0.0865  0.0113
   68MPD2    C2 1056   0.113   1.617  14.101  0.6867  0.3367 -0.1539
   68MPD2    C3 1057   0.067   1.551  13.989 -0.2224  0.0200 -0.3704
   68MPD2    C4 1058   0.108   1.423  13.960 -0.1435  0.7843  0.3870
   68MPD2    C5 1059   0.198   1.365  14.044  0.1714 -0.6002  0.2320
   68MPD2     H 1060   0.077   1.714  14.134 -0.3269  0.7290 -2.4509
   68MPD2    H1 1061   0.061   1.373  13.876  1.8637 -0.0608 -0.2350
   68MPD2    H2 1062   0.311   1.373  14.217 -2.7777 -0.5701  2.0238
   68MPD2    H3 1063   0.233   1.265  14.023  1.9238 -0.0227  0.3562
   68MPD2     N 1064   4.693   1.600  13.912  0.7600  0.8761 -1.0698
   68MPD2    H5 1065   4.666   1.552  13.827  0.6011  1.8472 -1.5654
   68MPD2    N1 1066   0.250   1.648  14.292 -0.0044 -0.0093 -0.4228
   68MPD2    H7 1067   0.225   1.747  14.292  1.4284  0.3614  0.8312
   69TMC2    C1 1068   2.318   3.681  12.263  0.5040  0.4943  0.1520
   69TMC2    C2 1069   2.206   3.738  12.212 -0.5358  0.2928 -0.3957
   69TMC2    C3 1070   2.208   3.789  12.089  0.6688  0.3924  0.0535
   69TMC2    C4 1071   2.419   3.653  12.174 -0.7543  0.4690 -0.3900
   69TMC2    C5 1072   2.421   3.714  12.057 -0.3834  0.0465  0.1932
   69TMC2    C6 1073   2.314   3.781  12.006 -0.3141  0.5621 -0.5474
   69TMC2     C 1074   2.304   3.585  12.371  0.4453  0.3965  0.0487
   69TMC2     O 1075   2.366   3.480  12.371 -0.2395  0.1540  0.5334
   69TMC2     H 1076   2.117   3.745  12.274  0.0493  1.5507  0.3023
   69TMC2    H1 1077   2.498   3.596  12.221 -0.9392  0.7454  0.2456
   69TMC2    H2 1078   2.315   3.840  11.915  0.4577  1.0537 -0.2130
   69TMC2    C7 1079   2.554   3.733  11.996  0.6273 -0.0503 -0.1845
   69TMC2    C8 1080   2.093   3.858  12.048  0.6540 -0.4028  0.3062
   69TMC2    O1 1081   2.646   3.661  12.031  0.0629 -0.0688  0.2452
   69TMC2    O2 1082   2.009   3.887  12.134  0.2782  0.0930  0.3969
   69TMC2    O5 1083   2.060   3.799  11.931  0.1532  0.2826  0.2079
   69TMC2    H5 1084   2.133   3.814  11.867  0.5616  0.5136  0.7313
   70MPD2     C 1085   2.133   3.651  12.683 -1.2468  0.0479 -0.4476
   70MPD2    C1 1086   2.184   3.568  12.584 -0.5628  0.2909  0.4114
   70MPD2    C2 1087   2.167   3.428  12.588 -0.2016  0.4461 -0.1463
   70MPD2    C3 1088   2.099   3.371  12.698  0.2909  0.4949  0.2977
   70MPD2    C4 1089   2.062   3.453  12.801  0.1504  0.2182  0.3317
   70MPD2    C5 1090   2.078   3.585  12.789  0.7468  0.1851 -0.2295
   70MPD2     H 1091   2.195   3.371  12.501 -0.6522  1.2551 -0.8117
   70MPD2    H1 1092   2.027   3.417  12.897  0.8432  0.8428  0.8146
   70MPD2    H2 1093   2.152   3.757  12.675  1.2641 -0.4202 -0.4669
   70MPD2    H3 1094   2.049   3.649  12.872  2.2787  0.1031  0.3740
   70MPD2     N 1095   2.060   3.237  12.707 -0.2122 -0.1045  0.1041
   70MPD2    H5 1096   2.007   3.213  12.790 -0.7300  1.2910  0.1791
   70MPD2    N1 1097   2.230   3.639  12.474 -0.7136 -0.0756 -0.4860
   70MPD2    H7 1098   2.208   3.738  12.472 -2.9647 -0.5772 -0.7585
   71TMC2    C1 1099   4.357   4.009   1.318  0.7605  0.4442  0.2443
   71TMC2    C2 1100   4.452   3.919   1.362 -0.0734  0.1984 -0.0935
   71TMC2    C3 1101   4.458   3.901   1.502  0.1187  0.3805 -0.1409
   71TMC2    C4 1102   4.278   4.081   1.400  0.0498  0.1159 -0.2663
   71TMC2    C5 1103   4.288   4.065   1.534 -0.2072 -0.5581 -0.5349
   71TMC2    C6 1104   4.382   3.979   1.585 -0.5583 -0.3573  0.1250
   71TMC2     C 1105   4.358   4.046   1.181 -0.3178 -0.4071  0.8051
   71TMC2     O 1106   4.328   4.161   1.155  0.0381  0.2170 -0.6015
   71TMC2     H 1107   4.534   3.887   1.299 -1.2528 -0.5110 -1.2599
   71TMC2    H1 1108   4.217   4.158   1.355  1.1041  1.8938  1.3635
   71TMC2    H2 1109   4.409   3.988   1.689  0.0550  0.0292 -0.0618
   71TMC2    C7 1110   4.210   4.143   1.626  0.9590 -0.3531  0.3803
   71TMC2    C8 1111   4.543   3.804   1.559  0.2415  0.5670  0.4733
   71TMC2    O1 1112   4.244   4.163   1.742  0.0198  0.3452 -0.1446
   71TMC2    O2 1113   4.620   3.747   1.480 -0.4083 -0.1529  0.9549
   71TMC2    O5 1114   4.484   3.750   1.673 -0.3287  0.1578 -0.2237
   71TMC2    H5 1115   4.417   3.809   1.715  0.8453  0.6157  0.9863
   72MPD2     C 1116   4.334   3.960   0.690 -0.4547  0.0506  0.0335
   72MPD2    C1 1117   4.394   4.068   0.752  0.4972  0.3968 -0.3085
   72MPD2    C2 1118   4.408   4.058   0.888  0.2346  0.7224  0.3438
   72MPD2    C3 1119   4.374   3.949   0.961  0.2603  0.0647 -0.4239
   72MPD2    C4 1120   4.325   3.839   0.894 -0.2567 -0.6613  0.4612
   72MPD2    C5 1121   4.308   3.845   0.755 -0.5273 -0.4648  0.7080
   72MPD2     H 1122   4.443   4.144   0.945 -1.7602  2.0657 -0.5028
   72MPD2    H1 1123   4.281   3.754   0.945 -0.5314  0.0807  1.4611
   72MPD2    H2 1124   4.307   3.967   0.586  0.4485  0.5641 -0.1713
   72MPD2    H3 1125   4.260   3.765   0.699 -2.8815  0.0624  1.9778
   72MPD2     N 1126   4.372   3.936   1.099 -0.1129 -0.1819  0.0286
   72MPD2    H5 1127   4.374   3.843   1.140  1.7117  0.2549  0.9392
   72MPD2    N1 1128   4.416   4.196   0.693  0.0217 -0.2743  0.5076
   72MPD2    H7 1129   4.440   4.276   0.751  0.8149 -0.3713  0.3178
   73TMC2    C1 1130   0.077   0.387  13.648  0.0149  0.4087 -0.1433
   73TMC2    C2 1131   0.208   0.400  13.615 -0.0403  0.1754  0.1008
   73TMC2    C3 1132   0.244   0.383  13.483 -0.0246 -0.1664  0.0113
   73TMC2    C4 1133   4.727   0.354  13.551  0.4988 -0.3042 -0.0574
   73TMC2    C5 1134   0.025   0.326  13.421  0.1201  0.5976  0.3174
   73TMC2    C6 1135   0.151   0.352  13.393  0.1234 -0.0640  0.2137
   73TMC2     C 1136   0.018   0.491  13.727 -0.1242 -1.0583  0.0885
   73TMC2     O 1137   4.646   0.530  13.691  0.5369  0.1907  0.1637
   73TMC2     H 1138   0.280   0.432  13.690 -1.5799  1.4225  1.0230
   73TMC2    H1 1139   4.630   0.326  13.590  1.4965 -0.3298  2.3959
   73TMC2    H2 1140   0.173   0.334  13.288  1.1398  0.8411  0.2734
   73TMC2    C7 1141   4.678   0.380  13.322  0.0520 -0.6270 -0.8675
   73TMC2    C8 1142   0.380   0.325  13.452  0.2143  0.9341 -0.0838
   73TMC2    O1 1143   4.683   0.348  13.202 -0.8542  0.0770 -0.1138
   73TMC2    O2 1144   0.388   0.227  13.381  0.2150  0.1276  0.2166
   73TMC2    O5 1145   0.478   0.388  13.527  0.7963 -0.3584 -0.6807
   73TMC2    H5 1146   0.446   0.476  13.557 -0.0872 -0.3657 -1.5918
   74MPD2     C 1147   0.081   0.909  14.017  0.2536  0.5224 -0.5179
   74MPD2    C1 1148   0.005   0.887  13.906  0.1421 -0.3876  0.1951
   74MPD2    C2 1149   0.012   0.766  13.846 -0.0266  0.1012 -0.2200
   74MPD2    C3 1150   0.101   0.668  13.886 -0.1343  0.3257  0.3814
   74MPD2    C4 1151   0.180   0.683  13.999 -0.3716  0.0658 -0.0070
   74MPD2    C5 1152   0.165   0.809  14.066  0.8983  0.0746 -0.4188
   74MPD2     H 1153   4.694   0.760  13.753  1.8393  0.9082 -1.4064
   74MPD2    H1 1154   0.248   0.617  14.052 -1.2202 -1.1814 -0.4608
   74MPD2    H2 1155   0.092   1.009  14.056 -1.7692  0.7452 -0.5557
   74MPD2    H3 1156   0.231   0.823  14.150  1.3462 -1.1263 -0.5710
   74MPD2     N 1157   0.113   0.546  13.814  0.0006 -0.4720 -0.0989
   74MPD2    H5 1158   0.189   0.485  13.845  0.8177 -0.2875 -1.7795
   74MPD2    N1 1159   4.660   0.992  13.864  0.5012 -0.0180  0.2931
   74MPD2    H7 1160   4.654   1.064  13.935 -0.6782 -1.1960  1.4017
   75TMC2    C1 1161   4.480   1.700  13.875  0.3566  0.1044  0.2179
   75TMC2    C2 1162   4.448   1.581  13.811  0.5067 -0.3741  1.2155
   75TMC2    C3 1163   4.318   1.562  13.786  0.3540 -0.3180  0.0970
   75TMC2    C4 1164   4.394   1.801  13.899 -0.6306 -0.4606  0.1997
   75TMC2    C5 1165   4.273   1.785  13.840 -0.4685 -0.0290  0.3590
   75TMC2    C6 1166   4.229   1.665  13.801  0.9986 -0.1368 -0.2241
   75TMC2     C 1167   4.606   1.700  13.949 -0.4174 -0.1039 -0.7328
   75TMC2     O 1168   4.617   1.777  14.045  0.0200  0.1038 -0.4580
   75TMC2     H 1169   4.513   1.495  13.815  1.0331 -0.1023 -1.5752
   75TMC2    H1 1170   4.428   1.890  13.950 -0.2748 -0.0352 -0.7798
   75TMC2    H2 1171   4.124   1.649  13.780  0.9299  1.4459 -1.0855
   75TMC2    C7 1172   4.214   1.893  13.768 -0.2639  0.0971 -0.5381
   75TMC2    C8 1173   4.286   1.471  13.680  0.2701 -0.1727  0.2659
   75TMC2    O1 1174   4.104   1.883  13.718 -0.1338 -0.4925 -0.0053
   75TMC2    O2 1175   4.348   1.465  13.576  0.2255 -0.4966 -0.5121
   75TMC2    O5 1176   4.161   1.424  13.708 -0.1654  0.6882 -0.6927
   75TMC2    H5 1177   4.121   1.441  13.796  1.0454  1.7506 -0.3575
   76TMC2    C1 1178   3.702   2.766  11.388  0.5531  0.8473  0.1368
   76TMC2    C2 1179   3.692   2.728  11.254  0.0922  0.4801 -0.0296
   76TMC2    C3 1180   3.698   2.593  11.224 -0.0756  0.0081 -0.6941
   76TMC2    C4 1181   3.694   2.667  11.488 -0.3730  0.2816  0.3846
   76TMC2    C5 1182   3.718   2.536  11.454 -0.9541 -0.0420 -0.3801
   76TMC2    C6 1183   3.729   2.497  11.323 -0.7701 -0.0851 -0.5216
   76TMC2     C 1184   3.679   2.908  11.418 -0.7083  0.6188  0.1994
   76TMC2     O 1185   3.615   2.972  11.340 -0.5250 -0.4721 -0.6776
   76TMC2     H 1186   3.683   2.800  11.174  2.0438  0.4245 -0.3160
   76TMC2    H1 1187   3.674   2.695  11.591  0.1035  1.1788  0.2339
   76TMC2    H2 1188   3.759   2.395  11.300  2.2791  0.4491  1.0242
   76TMC2    C7 1189   3.720   2.432  11.552  0.3680 -0.5085  0.5113
   76TMC2    C8 1190   3.693   2.559  11.083 -0.6535  0.5687  0.1114
   76TMC2    O1 1191   3.730   2.315  11.511  0.1972 -0.5709 -0.8481
   76TMC2    O2 1192   3.732   2.632  10.991  0.1915  0.1358  0.2715
   76TMC2    O5 1193   3.634   2.439  11.065  0.0180  0.3854 -0.7544
   76TMC2    H5 1194   3.592   2.417  11.151 -0.5398 -0.2212 -1.1745
   77MPD2     C 1195   3.728   3.318  11.736 -0.1897 -0.0142  0.0742
   77MPD2    C1 1196   3.636   3.294  11.633 -0.7339 -0.6452 -0.1758
   77MPD2    C2 1197   3.639   3.177  11.556 -0.6933 -0.2428  0.2776
   77MPD2    C3 1198   3.724   3.077  11.597 -0.0471 -0.3069  0.0226
   77MPD2    C4 1199   3.807   3.095  11.705  0.2416 -0.2048 -0.0123
   77MPD2    C5 1200   3.812   3.221  11.766 -0.2183  0.5587  0.4479
   77MPD2     H 1201   3.570   3.153  11.476  0.3303 -0.1910 -0.6134
   77MPD2    H1 1202   3.879   3.020  11.733 -0.6907 -1.5637 -1.2680
   77MPD2    H2 1203   3.725   3.408  11.796  2.4661  0.0275  0.1573
   77MPD2    H3 1204   3.887   3.237  11.843  1.9668 -1.1760 -1.3106
   77MPD2     N 1205   3.736   2.947  11.536 -0.1339  0.3485 -0.4131
   77MPD2    H5 1206   3.785   2.873  11.586  2.6846  1.4913 -1.4732
   77MPD2    N1 1207   3.529   3.379  11.607  0.4087  0.3450  0.5437
   77MPD2    H7 1208   3.447   3.340  11.560  0.3494 -0.5505  1.3794
   78TMC2    C1 1209   4.198   4.561   1.504 -0.2400 -0.0406 -0.3371
   78TMC2    C2 1210   4.133   4.531   1.390  0.1392  0.3824  0.3246
   78TMC2    C3 1211   4.198   4.462   1.293  0.1761 -0.2143  0.5032
   78TMC2    C4 1212   4.327   4.510   1.532  1.0269 -0.0569  0.1152
   78TMC2    C5 1213   4.390   4.448   1.429 -0.3821 -0.3412 -0.1330
   78TMC2    C6 1214   4.325   4.424   1.309 -0.2706 -0.4494 -0.2291
   78TMC2     C 1215   4.142   4.649   1.610 -0.0740  0.4834 -0.2587
   78TMC2     O 1216   4.215   4.676   1.703  0.0176 -0.0737 -0.1118
   78TMC2     H 1217   4.040   4.578   1.360 -0.1164  2.0171  3.7875
   78TMC2    H1 1218   4.387   4.534   1.620  3.0072  1.5364 -1.6505
   78TMC2    H2 1219   4.378   4.381   1.225 -0.6952 -2.8300  0.7124
   78TMC2    C7 1220   4.519   4.383   1.450 -0.5633  0.4180 -0.6501
   78TMC2    C8 1221   4.154   4.485   1.154  0.3833  0.2292  0.1509
   78TMC2    O1 1222   4.539   4.295   1.369 -0.2117 -0.3723 -0.6673
   78TMC2    O2 1223   4.058   4.561   1.129 -0.3371 -0.5935 -0.5819
   78TMC2    O5 1224   4.180   4.379   1.078 -0.5297 -0.6048  0.3853
   78TMC2    H5 1225   4.241   4.315   1.120 -1.4076 -1.3579  0.5213
   79MPD1     C 1226   3.767   0.202   1.784 -0.1235  0.4715 -0.3232
   79MPD1    C1 1227   3.904   0.222   1.800 -0.0815  0.4297 -0.3342
   79MPD1    C2 1228   3.991   0.125   1.734 -0.1880 -0.0102  0.3530
   79MPD1    C3 1229   3.934   0.030   1.648  0.1284  0.2250  0.6008
   79MPD1    C4 1230   3.799   0.024   1.626  0.1304 -0.3651  0.0405
   79MPD1    C5 1231   3.721   0.111   1.690 -0.5496 -0.1195  0.0613
   79MPD1     H 1232   4.097   0.132   1.758  0.1232 -1.7760 -0.5101
   79MPD1    H1 1233   3.761   4.690   1.555 -1.6243  0.2128  0.4122
   79MPD1    H2 1234   3.705   0.276   1.833  1.4487  1.1671  0.5951
   79MPD1    H3 1235   3.613   0.108   1.675 -0.3300 -0.1710 -1.5061
   79MPD1     N 1236   4.010   4.674   1.587 -0.2984 -0.1140  0.0158
   79MPD1    H5 1237   3.964   4.639   1.503 -0.1673  0.4812 -0.3019
   79MPD1    N1 1238   3.956   0.324   1.886  0.2218 -0.4870 -0.5516
   79MPD1    H6 1239   3.897   0.406   1.882  0.8336 -0.0366 -0.3557
   79MPD1    H7 1240   4.053   0.347   1.865  1.2419 -2.7988  1.6014
   80TMC2    C1 1241   2.282   2.812  11.054  0.6496  0.7339  0.9785
   80TMC2    C2 1242   2.356   2.877  10.956  0.1753 -0.3648 -0.0046
   80TMC2    C3 1243   2.485   2.845  10.963 -0.5445  0.1402  0.2352
   80TMC2    C4 1244   2.329   2.727  11.153 -0.2072  0.4640 -0.3078
   80TMC2    C5 1245   2.459   2.703  11.143 -0.1645  0.1115  0.3646
   80TMC2    C6 1246   2.539   2.760  11.047 -0.8032 -0.0592 -0.5034
   80TMC2     C 1247   2.144   2.812  11.027 -0.5413  0.1469 -0.3295
   80TMC2     O 1248   2.116   2.829  10.910  0.0881 -0.3059  0.0809
   80TMC2     H 1249   2.313   2.933  10.874 -1.6174 -0.3434  0.9298
   80TMC2    H1 1250   2.257   2.667  11.208 -0.0177  1.7809  1.3930
   80TMC2    H2 1251   2.645   2.736  11.048 -1.2043 -1.8703 -0.6635
   80TMC2    C7 1252   2.512   2.577  11.210 -0.4244 -0.1292 -0.6933
   80TMC2    C8 1253   2.567   2.877  10.850  0.0186 -0.2510 -0.0408
   80TMC2    O1 1254   2.619   2.539  11.161  0.2577 -0.1598 -0.6259
   80TMC2    O2 1255   2.633   2.790  10.797 -0.7907  0.6289 -0.2923
   80TMC2    O5 1256   2.540   3.006  10.813  0.2199  0.2909  0.4195
   80TMC2    H5 1257   2.489   3.047  10.886 -4.2228 -1.2944 -1.7960
   81MPD2     C 1258   1.865   2.908  11.051  0.5491 -0.4934  0.1006
   81MPD2    C1 1259   1.941   2.878  11.163 -0.1286  0.7810  0.5160
   81MPD2    C2 1260   1.883   2.901  11.288  0.3964  0.2425  0.2175
   81MPD2    C3 1261   1.758   2.956  11.296 -0.0772  0.2137  0.1547
   81MPD2    C4 1262   1.679   2.982  11.181  0.0359 -0.3417  0.5151
   81MPD2    C5 1263   1.741   2.958  11.062  0.6451  0.2414 -0.3764
   81MPD2     H 1264   1.934   2.882  11.382 -0.7257  0.0377  0.7884
   81MPD2    H1 1265   1.572   2.998  11.184  0.1128 -0.0887  1.9335
   81MPD2    H2 1266   1.893   2.870  10.954 -0.7595  0.9341 -0.8353
   81MPD2    H3 1267   1.674   2.954  10.976  0.3573 -1.5198 -0.0686
   81MPD2     N 1268   1.709   2.967  11.427  0.2840  0.1345  0.5723
   81MPD2    H5 1269   1.765   2.920  11.497 -1.0128 -0.0821  1.4675
   81MPD2    N1 1270   2.074   2.828  11.146 -0.2213  0.1234  1.2205
   81MPD2    H7 1271   2.126   2.823  11.233  3.7197  0.2351 -1.1321
   82TMC2    C1 1272   0.778   2.046  11.241  0.1409  0.1478  0.4633
   82TMC2    C2 1273   0.813   2.107  11.356  0.0302  0.0753  0.2647
   82TMC2    C3 1274   0.935   2.085  11.403 -0.7297  0.6774  0.4853
   82TMC2    C4 1275   0.865   1.960  11.178  0.5703 -0.1028 -0.2528
   82TMC2    C5 1276   0.980   1.921  11.242  0.1418 -0.7678  0.6691
   82TMC2    C6 1277   1.013   1.989  11.350 -0.3912  0.5826 -0.3715
   82TMC2     C 1278   0.638   2.022  11.223  0.2910  0.5394 -0.1878
   82TMC2     O 1279   0.599   1.989  11.113 -0.5100 -0.0697  0.4156
   82TMC2     H 1280   0.753   2.172  11.418 -1.3768 -1.0973  0.1470
   82TMC2    H1 1281   0.832   1.911  11.087  0.8242 -1.8992  0.6285
   82TMC2    H2 1282   1.095   1.964  11.415  0.0923  2.7678 -0.1454
   82TMC2    C7 1283   1.003   1.778  11.256  0.1630 -0.0926 -0.2311
   82TMC2    C8 1284   0.981   2.149  11.524 -0.3264  0.4980 -0.3066
   82TMC2    O1 1285   1.019   1.742  11.370  0.5335 -0.5484 -0.7404
   82TMC2    O2 1286   1.054   2.089  11.595 -0.1487 -0.6257  0.0782
   82TMC2    O5 1287   0.979   2.283  11.513 -0.2760  0.0964 -0.5039
   82TMC2    H5 1288   0.912   2.308  11.446  0.3817  1.3183 -0.6909
   83MPD2     C 1289   0.184   1.882  11.432  0.2726 -0.5879  0.3801
   83MPD2    C1 1290   0.223   1.876  11.299 -0.5879  0.0804  0.6905
   83MPD2    C2 1291   0.352   1.915  11.267 -0.1302  0.8281 -0.6037
   83MPD2    C3 1292   0.432   1.967  11.365 -0.0290  0.5201  0.3731
   83MPD2    C4 1293   0.388   1.968  11.499 -0.4502 -0.7507 -0.0419
   83MPD2    C5 1294   0.267   1.928  11.533  0.0112  0.2801 -0.0930
   83MPD2     H 1295   0.386   1.914  11.164  2.3134  0.1015  0.2114
   83MPD2    H1 1296   0.459   1.984  11.579 -2.4933 -1.7009  1.9808
   83MPD2    H2 1297   0.093   1.831  11.463 -0.0864 -0.3170 -0.2399
   83MPD2    H3 1298   0.234   1.917  11.635 -0.3562  0.8636 -0.1448
   83MPD2     N 1299   0.571   2.010  11.345  0.0746  0.1024 -0.4018
   83MPD2    H5 1300   0.630   2.010  11.428 -1.1766 -3.9612  0.4730
   83MPD2    N1 1301   0.125   1.827  11.215 -0.4378  0.3618  0.2592
   83MPD2    H7 1302   0.036   1.796  11.252 -0.0760 -0.9943 -0.0076
   84TMC2    C1 1303   1.875   1.029  11.448  0.4506  0.5165  0.0329
   84TMC2    C2 1304   1.872   0.953  11.557 -0.2519  0.4526 -0.3526
   84TMC2    C3 1305   1.913   0.828  11.539  0.0766 -0.7159  0.2343
   84TMC2    C4 1306   1.906   0.975  11.329 -0.5841 -0.2700 -0.2157
   84TMC2    C5 1307   1.944   0.845  11.319 -0.0246 -0.4214 -0.3458
   84TMC2    C6 1308   1.966   0.770  11.432 -0.8535 -0.5744 -0.0746
   84TMC2     C 1309   1.869   1.171  11.475  0.2361  0.2999 -0.7014
   84TMC2     O 1310   1.826   1.208  11.580  0.5192  0.0066 -0.2370
   84TMC2     H 1311   1.820   0.990  11.645  2.6576  1.1684  1.0772
   84TMC2    H1 1312   1.904   1.036  11.239 -1.7377  0.1531  0.0999
   84TMC2    H2 1313   1.994   0.666  11.425  0.7855 -0.2414  1.5707
   84TMC2    C7 1314   1.962   0.793  11.187 -0.4001 -0.9793 -0.8397
   84TMC2    C8 1315   1.909   0.736  11.651  0.7859 -0.2579  0.5451
   84TMC2    O1 1316   1.972   0.878  11.101  0.3691 -0.3346 -0.2432
   84TMC2    O2 1317   1.902   0.616  11.645  0.0017 -0.1530  0.6769
   84TMC2    O5 1318   1.958   0.809  11.760 -0.0657 -0.0227 -0.7069
   84TMC2    H5 1319   1.987   0.900  11.736  0.9696 -0.1312  0.1351
   85TMC2    C1 1320   2.086   4.034  15.948 -0.1147  0.9597  0.1957
   85TMC2    C2 1321   1.984   3.996  15.868  0.7489  0.3538 -0.6225
   85TMC2    C3 1322   1.985   4.052  15.743 -0.1811  0.3160 -0.1710
   85TMC2    C4 1323   2.185   4.122  15.914 -0.1577 -0.2633 -0.4634
   85TMC2    C5 1324   2.176   4.170  15.787 -0.2521 -0.0780  0.6597
   85TMC2    C6 1325   2.081   4.131  15.694  0.1668 -0.6094 -0.8350
   85TMC2     C 1326   2.113   3.943  16.063 -0.2014 -0.1294  0.2865
   85TMC2     O 1327   2.155   3.994  16.166  0.0511  0.1124  0.1321
   85TMC2     H 1328   1.902   3.936  15.906  0.1185 -0.0150 -2.5490
   85TMC2    H1 1329   2.259   4.144  15.991  1.3183 -2.1495 -1.3728
   85TMC2    H2 1330   2.076   4.183  15.599  1.9351  2.1530  0.5819
   85TMC2    C7 1331   2.284   4.248  15.733 -0.7391 -0.0510  0.1552
   85TMC2    C8 1332   1.880   4.018  15.646  0.5047 -0.2960 -0.9098
   85TMC2    O1 1333   2.311   4.354  15.784 -0.0707 -0.2352  0.6122
   85TMC2    O2 1334   1.856   4.068  15.539 -0.0749  0.0204 -0.2447
   85TMC2    O5 1335   1.856   3.885  15.662 -0.6325  0.0388 -0.4293
   85TMC2    H5 1336   1.874   3.849  15.752 -2.1671 -0.8406 -0.4770
   86MPD2     C 1337   2.041   3.498  16.319 -0.5092 -0.6609 -0.5406
   86MPD2    C1 1338   1.982   3.486  16.192  0.1205  0.3461  0.9525
   86MPD2    C2 1339   1.992   3.592  16.105  0.1029  0.2259 -0.4860
   86MPD2    C3 1340   2.047   3.713  16.140  0.0607  0.3887  0.0968
   86MPD2    C4 1341   2.098   3.727  16.265  0.2162  0.4151  0.8008
   86MPD2    C5 1342   2.102   3.616  16.352  0.0810 -0.7387 -0.1272
   86MPD2     H 1343   1.936   3.583  16.013 -0.9351  1.8283 -0.0116
   86MPD2    H1 1344   2.152   3.817  16.292  0.3884  0.4258  0.4177
   86MPD2    H2 1345   2.038   3.417  16.391  0.0175  0.3325  0.5874
   86MPD2    H3 1346   2.156   3.621  16.446 -1.8214  4.0325  0.7282
   86MPD2     N 1347   2.054   3.820  16.044  0.1831 -0.5174 -0.1823
   86MPD2    H5 1348   2.024   3.803  15.948 -1.7043  1.4414  0.0453
   86MPD2    N1 1349   1.924   3.362  16.144 -0.6488 -0.0448  0.6303
   86MPD2    H7 1350   1.881   3.366  16.053 -0.5834  3.7903  0.7462
   87TMC2    C1 1351   4.637   2.090   0.837 -0.0378 -0.1987  0.0125
   87TMC2    C2 1352   4.719   1.985   0.855 -0.4123 -0.0730  0.2112
   87TMC2    C3 1353   4.728   1.926   0.979 -0.1269  0.3061 -0.0724
   87TMC2    C4 1354   4.557   2.132   0.939 -0.2090  0.7896  0.5846
   87TMC2    C5 1355   4.568   2.064   1.065  0.1277 -0.2130  0.0529
   87TMC2    C6 1356   4.652   1.965   1.083  0.3955 -0.7673 -0.2077
   87TMC2     C 1357   4.588   2.108   0.701  0.0488  0.0498  0.6893
   87TMC2     O 1358   4.632   2.031   0.617  0.8578 -0.4816  0.1875
   87TMC2     H 1359   0.061   1.981   0.783  0.1652 -0.5134  0.8754
   87TMC2    H1 1360   4.479   2.205   0.922 -0.3995  0.0428 -1.8383
   87TMC2    H2 1361   4.661   1.924   1.183  0.9726  1.0862  0.4853
   87TMC2    C7 1362   4.484   2.097   1.177  0.0964  0.7628 -0.6042
   87TMC2    C8 1363   0.120   1.877   1.018  0.7659  0.7135  0.5352
   87TMC2    O1 1364   4.479   2.015   1.268  0.1789  0.3440 -0.0881
   87TMC2    O2 1365   0.193   1.915   1.107 -0.7526  0.0437  0.1362
   87TMC2    O5 1366   0.135   1.761   0.950 -0.3178 -0.3178 -0.2538
   87TMC2    H5 1367   0.052   1.726   0.909 -3.0063  2.0745  3.1916
   88MPD2     C 1368   4.303   2.227   1.379  0.2915 -0.1065 -0.7786
   88MPD2    C1 1369   4.370   2.292   1.280  0.0564 -1.0855 -0.3807
   88MPD2    C2 1370   4.359   2.430   1.274  0.3110  0.5735  0.1204
   88MPD2    C3 1371   4.291   2.504   1.368 -1.3395  0.3570 -0.2115
   88MPD2    C4 1372   4.237   2.434   1.473 -0.3352 -0.0343 -0.0196
   88MPD2    C5 1373   4.237   2.297   1.476  0.4453  0.1349  0.1327
   88MPD2     H 1374   4.423   2.480   1.202 -0.5525  2.3742  0.5900
   88MPD2    H1 1375   4.196   2.489   1.557 -0.0110  2.2953 -1.3909
   88MPD2    H2 1376   4.293   2.119   1.391  0.5767  0.3424  3.6355
   88MPD2    H3 1377   4.189   2.253   1.563  0.2009  1.3757  0.6231
   88MPD2     N 1378   4.286   2.647   1.373  0.1336  0.1201  0.3165
   88MPD2    H5 1379   4.250   2.698   1.453 -2.5987 -1.8759  0.3615
   88MPD2    N1 1380   4.444   2.225   1.173  0.7946  0.1216  1.1337
   88MPD2    H7 1381   4.481   2.273   1.092 -0.7970 -3.5790 -1.7727
   89TMC2    C1 1382   0.570   0.812   1.773 -0.9406  0.7154 -0.2165
   89TMC2    C2 1383   0.453   0.744   1.800  0.2310 -0.3383  0.0022
   89TMC2    C3 1384   0.339   0.812   1.827 -0.6303 -0.1616 -0.0119
   89TMC2    C4 1385   0.561   0.950   1.761  0.5299 -0.1598 -0.8862
   89TMC2    C5 1386   0.444   1.013   1.791  0.7291 -0.8252  0.0840
   89TMC2    C6 1387   0.329   0.945   1.826 -0.2781  0.5464 -0.3116
   89TMC2     C 1388   0.690   0.753   1.717 -0.1388 -0.0992  0.2803
   89TMC2     O 1389   0.790   0.823   1.716 -0.1159  0.5794 -0.7359
   89TMC2     H 1390   0.442   0.636   1.797 -1.4782 -0.1786  0.9040
   89TMC2    H1 1391   0.653   1.006   1.775  0.8791 -0.8608 -0.4111
   89TMC2    H2 1392   0.239   0.996   1.860 -0.1935  0.9506 -0.6931
   89TMC2    C7 1393   0.452   1.157   1.818  1.1846 -0.1248  0.3406
   89TMC2    C8 1394   0.225   0.724   1.856 -0.3585 -0.1854  0.0946
   89TMC2    O1 1395   0.391   1.204   1.911 -0.1987  0.2508  0.4665
   89TMC2    O2 1396   0.229   0.613   1.901 -0.3525 -0.4847 -0.3995
   89TMC2    O5 1397   0.117   0.772   1.783  0.2962 -0.0874  0.4569
   89TMC2    H5 1398   0.137   0.861   1.748  0.9724  0.1568  1.4912
   90MPD2     C 1399   1.019   0.370   1.700 -0.0010  0.4620 -0.0488
   90MPD2    C1 1400   0.895   0.314   1.658 -0.5018  0.3663  0.5016
   90MPD2    C2 1401   0.785   0.400   1.662  0.4224  0.6268 -0.0227
   90MPD2    C3 1402   0.800   0.530   1.704 -0.6237 -1.0487 -0.3309
   90MPD2    C4 1403   0.919   0.571   1.745  0.0428 -0.6025  0.0247
   90MPD2    C5 1404   1.036   0.495   1.739  0.3230  0.0139 -0.3199
   90MPD2     H 1405   0.690   0.362   1.626  0.8619 -1.2736  0.7992
   90MPD2    H1 1406   0.931   0.666   1.795  1.8642 -1.0669  0.4804
   90MPD2    H2 1407   1.104   0.305   1.686  0.5059  1.3309 -0.9677
   90MPD2    H3 1408   1.134   0.524   1.775  0.1209  1.6550 -1.1194
   90MPD2     N 1409   0.689   0.617   1.690 -0.5756  0.5216  0.0978
   90MPD2    H5 1410   0.599   0.577   1.664 -0.7592  0.8759  0.1803
   90MPD2    N1 1411   0.877   0.179   1.621 -0.8741  0.0064 -0.1326
   90MPD2    H7 1412   0.789   0.159   1.573 -0.5555 -0.3548 -0.5704
   91TMC2    C1 1413   1.994   4.586  16.413  0.0995  0.4820  0.3926
   91TMC2    C2 1414   2.076   4.545  16.507  0.3664 -0.2601 -0.1692
   91TMC2    C3 1415   2.043   4.434  16.576  0.3325 -0.1680 -0.1245
   91TMC2    C4 1416   1.869   4.531  16.393  0.1724  0.1239 -0.4344
   91TMC2    C5 1417   1.832   4.427  16.477 -0.4775  0.2085 -0.2637
   91TMC2    C6 1418   1.919   4.371  16.562  0.1660  0.0433  0.1615
   91TMC2     C 1419   2.060   4.647  16.296 -0.7093  0.4433 -0.0161
   91TMC2     O 1420   1.978   4.680  16.212  0.1545  0.0036 -0.1517
   91TMC2     H 1421   2.165   4.601  16.534  0.1418  0.0505 -0.0739
   91TMC2    H1 1422   1.796   4.575  16.327 -0.0672  0.6479  0.1738
   91TMC2    H2 1423   1.897   4.279  16.614  2.0765 -1.2649 -1.3405
   91TMC2    C7 1424   1.710   4.357  16.453  0.0166  0.8447 -0.1777
   91TMC2    C8 1425   2.123   4.387  16.690  0.1497 -0.0163 -0.6452
   91TMC2    O1 1426   1.681   4.285  16.545 -0.2477 -0.7057 -0.1902
   91TMC2    O2 1427   2.079   4.331  16.790  0.4366 -0.2476 -0.2018
   91TMC2    O5 1428   2.235   4.342  16.629  0.5686  1.0274 -0.2553
   91TMC2    H5 1429   2.245   4.372  16.536 -1.0478  0.6034 -0.5661
   92MPD2     C 1430   2.216   0.058  16.083  0.5340  0.5220 -0.5819
   92MPD2    C1 1431   2.274   4.723  16.185  0.8340 -0.7780 -0.0063
   92MPD2    C2 1432   2.408   4.722  16.203 -0.4859  0.0596 -0.0979
   92MPD2    C3 1433   2.488   0.059  16.120 -0.0138  1.2212 -0.2390
   92MPD2    C4 1434   2.431   0.127  16.012  0.0437  0.5177 -0.2652
   92MPD2    C5 1435   2.291   0.119  15.991 -0.6993  0.0996 -0.1494
   92MPD2     H 1436   2.448   4.665  16.286  0.3047  1.2045  0.3051
   92MPD2    H1 1437   2.483   0.189  15.939  3.4706 -0.7814  1.0608
   92MPD2    H2 1438   2.109   0.064  16.067  0.4290 -0.2627 -0.1792
   92MPD2    H3 1439   2.249   0.183  15.913  0.7652  1.9058  0.5582
   92MPD2     N 1440   2.629   0.070  16.154  0.0486 -0.7220  0.4435
   92MPD2    H5 1441   2.669   0.032  16.240  0.5816  0.9785  0.9424
   92MPD2    N1 1442   2.197   4.660  16.293  0.0323  0.2751 -0.1010
   92MPD2    H7 1443   2.241   4.614  16.372  1.0844 -1.0298 -1.4370
   93TMC2    C1 1444   4.147   0.202  14.128 -0.0542 -0.3583  0.1032
   93TMC2    C2 1445   4.123   0.336  14.149 -0.0282  0.4060  0.0956
   93TMC2    C3 1446   4.225   0.425  14.173 -0.1795 -0.2949  0.1230
   93TMC2    C4 1447   4.274   0.157  14.147 -0.9949 -0.0769  0.4701
   93TMC2    C5 1448   4.374   0.249  14.164  0.5203  0.2119  0.5562
   93TMC2    C6 1449   4.351   0.382  14.165 -0.1360  0.1538  0.5993
   93TMC2     C 1450   4.053   0.097  14.084  0.3201 -0.4323 -0.4280
   93TMC2     O 1451   4.095   4.738  14.020 -0.1559 -0.0376  0.0801
   93TMC2     H 1452   4.026   0.378  14.128 -0.2710 -0.8760 -1.3833
   93TMC2    H1 1453   4.297   0.052  14.138 -0.9384  0.2998 -3.9134
   93TMC2    H2 1454   4.432   0.454  14.158 -2.2390  2.4170 -0.5554
   93TMC2    C7 1455   4.503   0.190  14.160  0.0033  0.5128 -0.1910
   93TMC2    C8 1456   4.179   0.561  14.151 -0.7671  0.4207  0.9244
   93TMC2    O1 1457   4.520   0.109  14.072  0.2906 -0.4823 -0.0076
   93TMC2    O2 1458   4.263   0.655  14.132  0.0676  0.1510 -0.1999
   93TMC2    O5 1459   4.097   0.565  14.260 -0.9432 -0.0287 -0.3584
   93TMC2    H5 1460   4.054   0.479  14.276  0.1088 -0.4339  0.2942
   94MPD2     C 1461   3.841   0.007  13.905 -0.5241 -0.5756  0.4020
   94MPD2    C1 1462   3.820   0.116  13.994  0.7938  0.0057 -0.0313
   94MPD2    C2 1463   3.699   0.185  13.989  0.6535  0.3758  0.4248
   94MPD2    C3 1464   3.605   0.163  13.895  0.2105 -0.1969  0.1939
   94MPD2    C4 1465   3.624   0.053  13.808 -0.3100  0.9728 -0.3970
   94MPD2    C5 1466   3.744   4.723  13.810  0.2819  0.3659 -0.0306
   94MPD2     H 1467   3.689   0.265  14.061 -2.2737  0.2327  0.1957
   94MPD2    H1 1468   3.554   0.038  13.727  0.2915  0.1496 -0.7574
   94MPD2    H2 1469   3.923   4.675  13.902 -0.4172 -0.5408  2.6550
   94MPD2    H3 1470   3.764   4.645  13.736 -0.9039  0.2358 -0.2086
   94MPD2     N 1471   3.489   0.252  13.882  0.3367 -0.1891 -0.3505
   94MPD2    H5 1472   3.434   0.246  13.796  0.0739  2.1774 -0.3254
   94MPD2    N1 1473   3.924   0.155  14.082  0.1674  0.3145 -0.6148
   94MPD2    H7 1474   3.915   0.241  14.134  0.4716  0.4388 -0.7639
   95TMC2    C1 1475   3.935   1.982  15.390 -0.2908 -0.6327 -0.0453
   95TMC2    C2 1476   3.846   1.988  15.495  0.2191 -0.1188 -0.7502
   95TMC2    C3 1477   3.766   2.097  15.508  0.2215  0.4575 -0.2908
   95TMC2    C4 1478   3.930   2.074  15.297  0.5411  0.2158  0.7061
   95TMC2    C5 1479   3.853   2.183  15.321  0.1913 -0.2213  0.4056
   95TMC2    C6 1480   3.769   2.197  15.425  0.6454 -0.7762  0.9301
   95TMC2     C 1481   4.039   1.881  15.375 -0.8058  0.0146  0.1786
   95TMC2     O 1482   4.143   1.909  15.322 -0.1579 -0.0443 -0.1239
   95TMC2     H 1483   3.830   1.907  15.565 -3.9003  0.1338 -1.3929
   95TMC2    H1 1484   3.997   2.086  15.213  0.7461  1.4898  1.0494
   95TMC2    H2 1485   3.699   2.279  15.443 -0.9122 -2.0892  0.8527
   95TMC2    C7 1486   3.854   2.296  15.220  0.5792  0.0331  1.0349
   95TMC2    C8 1487   3.682   2.118  15.628 -0.1218  0.4724 -0.3098
   95TMC2    O1 1488   3.873   2.270  15.102 -0.0827  0.0148  0.5078
   95TMC2    O2 1489   3.589   2.201  15.650  0.3818  0.0126 -0.1922
   95TMC2    O5 1490   3.740   2.054  15.732  0.2473  0.7902  0.5281
   95TMC2    H5 1491   3.822   2.001  15.723 -0.2274  0.2961 -0.8001
   96MPD2     C 1492   4.270   1.473  15.560 -0.6508 -0.2948  0.2537
   96MPD2    C1 1493   4.319   1.602  15.532 -0.3374  0.0789  0.7010
   96MPD2    C2 1494   4.230   1.699  15.487 -0.9412  0.0677  0.0610
   96MPD2    C3 1495   4.097   1.672  15.490 -0.4269 -0.0422  0.7439
   96MPD2    C4 1496   4.049   1.549  15.523  0.5535  0.7528  0.9361
   96MPD2    C5 1497   4.136   1.448  15.561  0.2736 -0.8978 -0.5252
   96MPD2     H 1498   4.278   1.792  15.457 -1.0199 -0.9735 -3.2981
   96MPD2    H1 1499   3.943   1.527  15.519  1.0288 -1.5313  0.9859
   96MPD2    H2 1500   4.337   1.393  15.591  0.7054  0.8506  0.3085
   96MPD2    H3 1501   4.107   1.346  15.581  1.8455 -1.1584  0.3819
   96MPD2     N 1502   4.003   1.769  15.444 -0.1488  0.2662 -0.3689
   96MPD2    H5 1503   3.904   1.761  15.463  0.2033 -1.9553  0.4821
   96MPD2    N1 1504   4.461   1.620  15.528  0.2252 -0.0456  0.4560
   96MPD2    H7 1505   4.516   1.536  15.516  1.9016  1.1215 -0.0317
   97TMC2    C1 1506   1.408   0.162  17.366  0.2227  0.3362  0.0720
   97TMC2    C2 1507   1.364   0.239  17.263  0.0943 -0.3500  0.0152
   97TMC2    C3 1508   1.353   0.368  17.276 -0.4315 -0.2015  0.2116
   97TMC2    C4 1509   1.453   0.218  17.482 -0.6118 -0.6443  0.2608
   97TMC2    C5 1510   1.430   0.349  17.499  0.1825 -0.4848  0.2827
   97TMC2    C6 1511   1.379   0.431  17.396 -0.2717 -0.5209 -0.0093
   97TMC2     C 1512   1.361   0.024  17.372  0.0388  0.0374 -0.0725
   97TMC2     O 1513   1.380   4.714  17.482 -0.2399 -0.1577  0.0269
   97TMC2     H 1514   1.345   0.195  17.166  2.0558 -1.8678  0.2939
   97TMC2    H1 1515   1.491   0.158  17.563 -0.8431 -0.2485  0.6674
   97TMC2    H2 1516   1.379   0.537  17.416  0.1229 -0.7143  1.0309
   97TMC2    C7 1517   1.422   0.405  17.633 -0.1868 -0.0958 -0.0344
   97TMC2    C8 1518   1.340   0.456  17.159  0.6646 -0.2891 -0.2458
   97TMC2    O1 1519   1.491   0.350  17.715 -0.3957  0.2333 -0.1642
   97TMC2    O2 1520   1.382   0.421  17.048 -0.6110 -0.0064 -0.6597
   97TMC2    O5 1521   1.286   0.573  17.203 -0.2819 -0.2475 -0.0149
   97TMC2    H5 1522   1.242   0.572  17.291 -2.0426  2.2686 -0.8800
   98MPD2     C 1523   1.053   4.385  17.224 -0.4589  1.0470  0.0957
   98MPD2    C1 1524   1.072   4.437  17.347 -0.4715  0.7877 -0.7636
   98MPD2    C2 1525   1.152   4.545  17.366  0.0411  0.5039 -0.2745
   98MPD2    C3 1526   1.215   4.597  17.255 -0.6503  0.4729 -0.6252
   98MPD2    C4 1527   1.193   4.543  17.128  0.2961 -0.0433 -0.0436
   98MPD2    C5 1528   1.111   4.439  17.113  0.7451  0.2401 -0.3584
   98MPD2     H 1529   1.178   4.580  17.465  3.0105 -1.5878 -0.2873
   98MPD2    H1 1530   1.224   4.599  17.040  0.2468  0.8976  0.5373
   98MPD2    H2 1531   0.992   4.296  17.214 -1.8573  1.9357  0.6208
   98MPD2    H3 1532   1.096   4.405  17.011  0.8031 -1.6403  0.2638
   98MPD2     N 1533   1.302   4.709  17.259 -0.0801  0.9553  0.3304
   98MPD2    H5 1534   1.320   0.008  17.167 -0.0114 -0.8286 -0.3926
   98MPD2    N1 1535   1.000   4.382  17.453  0.0413 -0.4388  0.3514
   98MPD2    H7 1536   0.954   4.295  17.428  2.0998 -1.6197  0.5672
   99TMC2    C1 1537   0.612   2.247   1.873 -0.0148  0.1471 -1.3647
   99TMC2    C2 1538   0.716   2.296   1.938  0.2573  0.3176  0.2315
   99TMC2    C3 1539   0.708   2.312   2.072 -0.4080 -0.8109  0.0986
   99TMC2    C4 1540   0.493   2.210   1.939  0.1654 -0.6731  0.5232
   99TMC2    C5 1541   0.493   2.227   2.068  0.6956 -0.5772 -0.1579
   99TMC2    C6 1542   0.600   2.281   2.139 -0.0779  0.0486  0.5335
   99TMC2     C 1543   0.642   2.221   1.735 -0.0140 -0.5428 -0.1179
   99TMC2     O 1544   0.723   2.289   1.677 -0.2474 -0.3324  0.2059
   99TMC2     H 1545   0.802   2.332   1.883  0.6436  1.0374  1.2934
   99TMC2    H1 1546   0.410   2.170   1.883  0.6778 -2.0374  0.7241
   99TMC2    H2 1547   0.604   2.276   2.247 -0.8240  1.2303  0.6110
   99TMC2    C7 1548   0.379   2.179   2.152 -0.2761 -0.2686 -0.0875
   99TMC2    C8 1549   0.825   2.338   2.152 -0.1417  0.0011  0.1818
   99TMC2    O1 1550   0.392   2.193   2.274  0.4839 -0.6966  0.0264
   99TMC2    O2 1551   0.818   2.420   2.249 -0.2258  0.6107  0.3054
   99TMC2    O5 1552   0.913   2.235   2.141  0.2185 -0.3212  0.4223
   99TMC2    H5 1553   0.878   2.159   2.090 -2.6909 -0.9967  3.4516
  100MPD2     C 1554   0.665   2.116   1.459 -0.3841  0.3096  0.4187
  100MPD2    C1 1555   0.583   2.062   1.554  0.0498  0.1455  1.4183
  100MPD2    C2 1556   0.505   1.957   1.525 -0.7000  0.3803  0.3856
  100MPD2    C3 1557   0.508   1.890   1.400  0.0136  0.0901 -0.6772
  100MPD2    C4 1558   0.604   1.935   1.304 -0.0014  0.5176 -0.0496
  100MPD2    C5 1559   0.683   2.047   1.339  1.1299  0.1668  0.2611
  100MPD2     H 1560   0.441   1.913   1.601 -1.1071  2.3719  1.2010
  100MPD2    H1 1561   0.615   1.889   1.207  0.6837  2.3517 -0.8330
  100MPD2    H2 1562   0.714   2.212   1.473 -0.0574  0.1641  0.2603
  100MPD2    H3 1563   0.755   2.089   1.270 -0.7534  1.4963 -0.8939
  100MPD2     N 1564   0.427   1.779   1.386  0.6889 -0.3587 -0.0819
  100MPD2    H5 1565   0.360   1.760   1.460  1.5673  1.7934  1.2511
  100MPD2    N1 1566   0.579   2.109   1.691 -0.1573 -0.6398 -0.4048
  100MPD2    H7 1567   0.525   2.050   1.754  0.5613 -0.0080  0.7987
  101TMC2    C1 1568   0.966   2.728  13.164  0.5758 -0.3337  0.2859
  101TMC2    C2 1569   0.851   2.806  13.163  0.3166 -0.4170 -0.4538
  101TMC2    C3 1570   0.824   2.897  13.066  0.3457  0.2395 -0.0824
  101TMC2    C4 1571   1.065   2.752  13.064 -0.3412 -0.3199 -0.2935
  101TMC2    C5 1572   1.037   2.838  12.967  0.1948 -0.6207 -0.7610
  101TMC2    C6 1573   0.921   2.913  12.969 -0.5754  0.3313  0.0255
  101TMC2     C 1574   0.970   2.617  13.252  0.1602 -0.7088  0.7727
  101TMC2     O 1575   0.892   2.619  13.351 -0.3082  0.2243 -0.6802
  101TMC2     H 1576   0.785   2.787  13.247  0.9943  1.4845  0.5228
  101TMC2    H1 1577   1.163   2.704  13.068  1.2122  2.6917 -2.3946
  101TMC2    H2 1578   0.893   2.982  12.890 -2.9426  0.1784  0.7352
  101TMC2    C7 1579   1.133   2.867  12.860  0.0200  0.2711 -0.1528
  101TMC2    C8 1580   0.708   2.989  13.086 -0.4783 -0.1024  0.1423
  101TMC2    O1 1581   1.113   2.976  12.805 -0.0189  0.6402  0.2205
  101TMC2    O2 1582   0.665   3.038  12.984  0.3764 -0.0938 -0.2365
  101TMC2    O5 1583   0.644   2.972  13.205  0.0125  0.1307  0.2924
  101TMC2    H5 1584   0.719   2.960  13.268 -1.0996  0.6904  1.7253
  102MPD2     C 1585   1.132   2.291  13.199  0.0510 -0.6823  0.1374
  102MPD2    C1 1586   1.036   2.379  13.248  0.1733  0.3832  0.1230
  102MPD2    C2 1587   0.940   2.333  13.333  0.0271  0.1802  0.3622
  102MPD2    C3 1588   0.932   2.205  13.380 -0.4378 -0.7186  0.6953
  102MPD2    C4 1589   1.026   2.116  13.324 -0.1159  0.6359  0.1786
  102MPD2    C5 1590   1.124   2.163  13.244  0.0737 -0.0684 -0.1747
  102MPD2     H 1591   0.865   2.398  13.376  1.4704  2.3092 -0.3311
  102MPD2    H1 1592   1.032   2.010  13.348 -2.5686  0.3003 -0.7121
  102MPD2    H2 1593   1.203   2.308  13.119  1.2580  1.0096  1.5503
  102MPD2    H3 1594   1.198   2.092  13.208  0.7885  0.5028  0.1622
  102MPD2     N 1595   0.841   2.170  13.476  0.0947 -0.6407  0.2614
  102MPD2    H5 1596   0.789   2.250  13.512 -0.7713 -1.5294  0.9534
  102MPD2    N1 1597   1.045   2.510  13.209 -0.5017 -0.3660 -0.4515
  102MPD2    H7 1598   1.104   2.531  13.129  0.7806  0.1324  0.6146
  103TMC2    C1 1599   3.698   2.640  12.303 -1.0477  0.0793 -0.0919
  103TMC2    C2 1600   3.766   2.596  12.410  0.2835  0.0507  0.2678
  103TMC2    C3 1601   3.720   2.642  12.530  0.6293 -0.5074 -0.0330
  103TMC2    C4 1602   3.591   2.731  12.308 -0.4329 -0.5487 -0.5112
  103TMC2    C5 1603   3.546   2.762  12.437 -0.0750  0.1544  0.8173
  103TMC2    C6 1604   3.604   2.716  12.550  0.0969 -0.8192  0.1952
  103TMC2     C 1605   3.729   2.597  12.171  0.3978  0.2965 -0.7819
  103TMC2     O 1606   3.742   2.689  12.088 -0.0565 -0.0529 -0.4300
  103TMC2     H 1607   3.856   2.537  12.394 -0.5060 -0.9154 -0.6572
  103TMC2    H1 1608   3.542   2.765  12.218  1.4249  0.8910 -0.9732
  103TMC2    H2 1609   3.578   2.749  12.650  0.5672  1.3072 -0.3729
  103TMC2    C7 1610   3.461   2.880  12.444  0.4772  0.0902  0.9001
  103TMC2    C8 1611   3.804   2.595  12.640  0.1925 -0.1462  0.5012
  103TMC2    O1 1612   3.470   2.959  12.348  0.2319 -0.0467  0.5988
  103TMC2    O2 1613   3.877   2.498  12.628  0.4953 -0.4764  0.1604
  103TMC2    O5 1614   3.804   2.680  12.748 -0.1808  0.1565 -0.2520
  103TMC2    H5 1615   3.739   2.753  12.751 -0.9742 -0.5116 -1.2139
  104MPD2     C 1616   3.751   2.249  12.036 -0.4515 -0.3210 -0.2929
  104MPD2    C1 1617   3.734   2.388  12.033 -0.3547 -0.2312  0.0277
  104MPD2    C2 1618   3.731   2.457  11.914  0.3974 -0.0906  0.4779
  104MPD2    C3 1619   3.738   2.391  11.796  0.4982 -0.1536  0.2191
  104MPD2    C4 1620   3.753   2.256  11.797 -0.0071 -0.4290 -0.1055
  104MPD2    C5 1621   3.763   2.183  11.914  0.3191 -0.2524  0.6859
  104MPD2     H 1622   3.721   2.565  11.919 -2.6088 -0.3427  0.2953
  104MPD2    H1 1623   3.755   2.203  11.703  1.1052  0.9980 -0.8843
  104MPD2    H2 1624   3.751   2.188  12.126 -1.4927  1.4161  0.8970
  104MPD2    H3 1625   3.764   2.075  11.910 -0.6042 -0.2577  0.5458
  104MPD2     N 1626   3.716   2.470  11.686  0.5046  0.8162  0.2765
  104MPD2    H5 1627   3.709   2.571  11.701  1.3592  0.6627  1.7279
  104MPD2    N1 1628   3.744   2.456  12.158 -0.5464 -0.3572  0.2490
  104MPD2    H7 1629   3.722   2.389  12.232  0.0914  0.3193  1.0515
  105TMC2    C1 1630   4.206   1.776   0.011  0.2791  0.6081  0.1787
  105TMC2    C2 1631   4.094   1.776  17.690  0.4269  0.4426 -0.1537
  105TMC2    C3 1632   4.015   1.889  17.697  0.0024  0.1843  0.8427
  105TMC2    C4 1633   4.240   1.882   0.093 -0.5636 -0.2477  0.4144
  105TMC2    C5 1634   4.162   1.991   0.094  0.3360 -1.1621  0.0928
  105TMC2    C6 1635   4.047   1.997   0.017 -0.2321  0.1668 -0.1626
  105TMC2     C 1636   4.309   1.680  17.725 -0.0308  0.5953  0.8624
  105TMC2     O 1637   4.271   1.567  17.716 -0.5164 -0.8426  0.4174
  105TMC2     H 1638   4.068   1.694  17.623  2.9835 -0.8640  0.4528
  105TMC2    H1 1639   4.342   1.885   0.130 -0.4929  1.1129  0.1001
  105TMC2    H2 1640   3.991   2.088  17.750 -0.8461  0.0173  0.9385
  105TMC2    C7 1641   4.194   2.109   0.170 -1.3320 -0.2560  0.4742
  105TMC2    C8 1642   3.877   1.905  17.637 -0.9029 -0.2699 -0.6263
  105TMC2    O1 1643   4.122   2.205   0.147 -0.0645  0.5131  0.4358
  105TMC2    O2 1644   3.789   1.975  17.685 -0.6866  0.6698  0.3013
  105TMC2    O5 1645   3.855   1.792  17.567 -0.4797  0.1326  0.2741
  105TMC2    H5 1646   3.938   1.757  17.528 -0.1606 -0.5937  1.5987
  106MPD2     C 1647   0.029   1.573  17.526  0.1697 -0.8140  0.8341
  106MPD2    C1 1648   4.734   1.707  17.493 -0.3230 -0.2234 -0.5316
  106MPD2    C2 1649   4.626   1.754  17.563  0.7295 -0.0813  0.6101
  106MPD2    C3 1650   4.536   1.679  17.629 -0.0961  0.3402 -0.1525
  106MPD2    C4 1651   4.564   1.545  17.648  0.6760  0.1693 -0.8263
  106MPD2    C5 1652   4.676   1.495  17.587  0.2031  0.0567  0.1865
  106MPD2     H 1653   4.601   1.860  17.571 -2.8715 -0.7347 -2.0773
  106MPD2    H1 1654   4.492   1.479  17.696  1.0013  2.0933  2.2934
  106MPD2    H2 1655   0.126   1.536  17.496 -0.9420 -1.0544 -2.4402
  106MPD2    H3 1656   4.715   1.395  17.601  0.5185  0.5131  2.6060
  106MPD2     N 1657   4.420   1.746  17.680 -0.1067 -1.0278  0.1869
  106MPD2    H5 1658   4.412   1.847  17.673  1.9712 -0.9393 -1.2064
  106MPD2    N1 1659   0.082   1.795  17.431 -0.1005 -0.0112  1.1530
  106MPD2    H7 1660   0.046   1.890  17.429  0.9532  0.3236 -1.2822
  107TMC2    C1 1661   1.719   1.866  11.882 -0.1052 -0.3952 -0.1727
  107TMC2    C2 1662   1.793   1.975  11.906 -0.3206  0.0315 -0.3977
  107TMC2    C3 1663   1.856   2.038  11.802  0.1707 -0.0335  0.4499
  107TMC2    C4 1664   1.703   1.816  11.753 -0.0836 -0.8685 -0.1566
  107TMC2    C5 1665   1.755   1.884  11.651  0.2488 -0.8320 -0.2567
  107TMC2    C6 1666   1.838   1.992  11.673  0.2893 -0.7891  0.0450
  107TMC2     C 1667   1.631   1.814  11.994  0.1342 -0.0287  0.3398
  107TMC2     O 1668   1.637   1.869  12.104  0.1973 -0.2643 -0.1467
  107TMC2     H 1669   1.790   2.010  12.009 -0.6150 -0.0570 -0.3735
  107TMC2    H1 1670   1.636   1.733  11.736 -0.9863 -0.4291  1.2493
  107TMC2    H2 1671   1.885   2.030  11.583 -0.1432 -3.7831 -1.4450
  107TMC2    C7 1672   1.780   1.821  11.523  0.0284 -0.2370 -0.2938
  107TMC2    C8 1673   1.962   2.138  11.824 -0.3533 -0.7794  0.3593
  107TMC2    O1 1674   1.809   1.896  11.427 -0.0501 -0.1283  0.1475
  107TMC2    O2 1675   1.955   2.226  11.910 -0.6423 -0.7079  0.1929
  107TMC2    O5 1676   2.079   2.072  11.792 -0.2700 -0.1404 -0.5482
  107TMC2    H5 1677   2.071   1.995  11.730  1.4501  1.3267 -2.5944
  108MPD2     C 1678   1.545   1.470  12.041  0.4190 -0.0024 -0.1020
  108MPD2    C1 1679   1.541   1.604  12.061 -0.7137 -0.2018  0.5257
  108MPD2    C2 1680   1.478   1.647  12.178 -0.1393  0.1224 -0.7841
  108MPD2    C3 1681   1.423   1.553  12.267 -0.2393 -0.1364 -0.1477
  108MPD2    C4 1682   1.446   1.417  12.253 -0.7760  0.0977 -0.6914
  108MPD2    C5 1683   1.512   1.378  12.137  0.8306  0.5970  0.2096
  108MPD2     H 1684   1.458   1.753  12.192 -0.3619 -0.3749  2.6754
  108MPD2    H1 1685   1.430   1.340  12.327  0.8121  0.9970  0.5968
  108MPD2    H2 1686   1.609   1.442  11.958 -2.0772 -2.2563 -1.2525
  108MPD2    H3 1687   1.535   1.272  12.131  0.0936  0.3518  1.6788
  108MPD2     N 1688   1.342   1.586  12.380 -0.3482 -0.1723 -0.2009
  108MPD2    H5 1689   1.308   1.514  12.443  1.2641 -0.4664  0.3152
  108MPD2    N1 1690   1.593   1.689  11.961 -0.5664  0.6235 -0.2712
  108MPD2    H7 1691   1.626   1.639  11.879  2.5837  2.7548 -0.2873
  109TMC2    C1 1692   0.161   3.397   0.389 -0.3294 -0.2834  0.2306
  109TMC2    C2 1693   0.081   3.360   0.287  0.0579  0.0677 -0.2459
  109TMC2    C3 1694   0.086   3.439   0.176  0.5138  0.9086  0.4114
  109TMC2    C4 1695   0.228   3.519   0.393 -0.4358 -0.4659  1.6266
  109TMC2    C5 1696   0.216   3.602   0.285 -0.3043 -0.3847 -0.0865
  109TMC2    C6 1697   0.143   3.565   0.178 -0.5342  0.7348  0.2877
  109TMC2     C 1698   0.134   3.344   0.518 -0.4669  0.4247 -0.5715
  109TMC2     O 1699   0.078   3.233   0.521 -0.7226 -0.1094 -0.1025
  109TMC2     H 1700   0.032   3.264   0.296 -0.6883  0.2687 -2.0530
  109TMC2    H1 1701   0.293   3.544   0.476 -0.8042 -0.7444  1.9978
  109TMC2    H2 1702   0.129   3.637   0.098 -0.4834 -1.3658 -1.6275
  109TMC2    C7 1703   0.323   3.694   0.248  0.1894 -0.0638  0.0705
  109TMC2    C8 1704   4.727   3.402   0.067 -0.6289 -0.0284  0.2567
  109TMC2    O1 1705   0.285   3.784   0.171  0.2068 -0.3603 -0.0853
  109TMC2    O2 1706   4.657   3.485   0.011  0.6917 -0.4000  0.1003
  109TMC2    O5 1707   0.038   3.285   0.008 -0.5251 -0.1749 -0.4014
  109TMC2    H5 1708   0.107   3.239   0.060  0.1226  1.2966  0.0401
  110MPD2     C 1709   0.084   3.388   1.029 -0.1586  0.4229 -0.1409
  110MPD2    C1 1710   0.144   3.502   0.980  0.6135  0.5661 -0.1839
  110MPD2    C2 1711   0.166   3.515   0.843 -0.0644 -0.2742 -0.1451
  110MPD2    C3 1712   0.134   3.411   0.760 -0.2435  0.2624  0.9761
  110MPD2    C4 1713   0.086   3.295   0.811  0.1588 -0.6618 -0.3953
  110MPD2    C5 1714   0.056   3.287   0.944 -0.0776 -0.0609  0.0956
  110MPD2     H 1715   0.187   3.607   0.789 -1.0548  0.4781  0.7600
  110MPD2    H1 1716   0.055   3.204   0.761 -1.6434  1.0407 -2.3341
  110MPD2    H2 1717   0.061   3.382   1.134  4.0580  0.0520  0.7561
  110MPD2    H3 1718   0.020   3.191   0.978  0.1733 -0.2960 -0.2996
  110MPD2     N 1719   0.144   3.436   0.621 -0.3276 -0.2496  0.6179
  110MPD2    H5 1720   0.156   3.533   0.591  1.2386 -0.3523  0.9192
  110MPD2    N1 1721   0.173   3.603   1.073  0.0219 -0.3440 -0.4166
  110MPD2    H7 1722   0.153   3.584   1.171  0.7055 -0.8881 -0.3803
  111TMC2    C1 1723   0.515   3.609  11.740  0.2422 -0.1273  0.3683
  111TMC2    C2 1724   0.489   3.732  11.685  1.1386 -0.6725  0.2097
  111TMC2    C3 1725   0.567   3.839  11.713  0.8138  0.0186 -0.2887
  111TMC2    C4 1726   0.609   3.594  11.841  0.3132 -0.1364 -0.6808
  111TMC2    C5 1727   0.686   3.704  11.861 -0.0005 -0.9016 -0.7350
  111TMC2    C6 1728   0.671   3.822  11.794  0.0168  0.3538 -0.8418
  111TMC2     C 1729   0.505   3.494  11.662  0.5050  0.4489 -0.2096
  111TMC2     O 1730   0.477   3.503  11.544 -0.4343 -0.2399  0.4408
  111TMC2     H 1731   0.409   3.745  11.614  2.4221 -2.5680 -1.5597
  111TMC2    H1 1732   0.644   3.500  11.881  0.4292  0.1638 -0.0812
  111TMC2    H2 1733   0.742   3.900  11.816  1.2346 -0.2696 -2.5968
  111TMC2    C7 1734   0.819   3.673  11.906 -0.0468 -0.1884  0.6011
  111TMC2    C8 1735   0.561   3.956  11.641 -0.3362 -0.4363  0.0374
  111TMC2    O1 1736   0.833   3.604  12.006 -0.2213  0.1710  0.2677
  111TMC2    O2 1737   0.622   4.059  11.673 -0.3836  0.1275 -0.5304
  111TMC2    O5 1738   0.535   3.920  11.513  0.5375  0.5491  0.4949
  111TMC2    H5 1739   0.498   3.831  11.492  1.7532  0.3537 -0.8298
  112MPD2     C 1740   0.806   3.077  11.574  0.4035  0.0021 -0.2052
  112MPD2    C1 1741   0.772   3.184  11.494  0.1621 -0.0799  0.2022
  112MPD2    C2 1742   0.678   3.276  11.539  0.5752  0.1469  0.4884
  112MPD2    C3 1743   0.608   3.259  11.658  0.2264 -0.2254  0.0289
  112MPD2    C4 1744   0.638   3.144  11.725  0.2275  0.2381  0.1979
  112MPD2    C5 1745   0.741   3.061  11.689 -0.1296  0.1243 -0.8050
  112MPD2     H 1746   0.664   3.369  11.484  2.7912  0.6861  0.8305
  112MPD2    H1 1747   0.590   3.117  11.818  1.5442 -1.4606  0.3807
  112MPD2    H2 1748   0.885   3.009  11.546 -0.3390 -0.8105 -0.3417
  112MPD2    H3 1749   0.758   2.976  11.754 -0.3181 -0.4467 -1.5063
  112MPD2     N 1750   0.538   3.367  11.724  0.0363 -0.2975 -0.3379
  112MPD2    H5 1751   0.528   3.355  11.825 -0.3557  0.2087 -0.3140
  112MPD2    N1 1752   0.837   3.216  11.376  0.6952  0.4376 -0.1900
  112MPD2    H7 1753   0.788   3.281  11.316 -1.6371  1.4562  2.8038
  113TMC2    C1 1754   3.490   1.489   1.236  0.0650  0.3613 -0.1606
  113TMC2    C2 1755   3.393   1.587   1.203  0.0858 -0.6057  0.4885
  113TMC2    C3 1756   3.274   1.549   1.146  0.1628 -0.5450 -0.1096
  113TMC2    C4 1757   3.468   1.356   1.210 -0.7412 -0.6856  0.0225
  113TMC2    C5 1758   3.338   1.330   1.148 -0.1489  0.2644  0.1299
  113TMC2    C6 1759   3.242   1.427   1.113 -0.1541 -0.0432 -0.0933
  113TMC2     C 1760   3.617   1.551   1.266  1.5207  0.0211  0.0297
  113TMC2     O 1761   3.616   1.632   1.359  0.6755  0.0585  0.1036
  113TMC2     H 1762   3.414   1.693   1.214  2.6323 -1.3697  2.9061
  113TMC2    H1 1763   3.546   1.283   1.232 -2.4191 -2.4222  0.1941
  113TMC2    H2 1764   3.142   1.400   1.083 -0.2588  1.1439 -0.7833
  113TMC2    C7 1765   3.294   1.197   1.113  0.3728  0.0214  0.2986
  113TMC2    C8 1766   3.185   1.656   1.144 -0.2690  0.3780 -0.2530
  113TMC2    O1 1767   3.193   1.186   1.042  0.1538  0.0019 -0.5702
  113TMC2    O2 1768   3.186   1.756   1.219  0.0559 -0.4859 -0.2505
  113TMC2    O5 1769   3.120   1.638   1.031  0.4146 -0.0201  0.0947
  113TMC2    H5 1770   3.152   1.567   0.971 -0.6364  0.2795 -0.8120
  114MPD2     C 1771   4.122   1.515   1.258 -0.4870  0.2321  0.8998
  114MPD2    C1 1772   4.040   1.606   1.322  0.4701 -0.4128  0.2723
  114MPD2    C2 1773   3.905   1.584   1.312  0.3266 -0.0935 -0.3135
  114MPD2    C3 1774   3.850   1.486   1.237 -0.1414  0.4249  0.0634
  114MPD2    C4 1775   3.935   1.401   1.171 -0.3115  0.1468 -0.0405
  114MPD2    C5 1776   4.068   1.416   1.175 -0.0478  0.2556  0.3337
  114MPD2     H 1777   3.846   1.653   1.371 -0.6297 -0.9794 -0.2461
  114MPD2    H1 1778   3.906   1.315   1.111 -0.7769  0.1670  0.1545
  114MPD2    H2 1779   4.230   1.519   1.263 -0.4940  0.0134  1.1842
  114MPD2    H3 1780   4.140   1.353   1.124 -1.7430 -0.9688 -0.5665
  114MPD2     N 1781   3.716   1.480   1.210 -0.1128 -0.1114  0.5887
  114MPD2    H5 1782   3.689   1.417   1.134  1.1040  1.3559 -1.0738
  114MPD2    N1 1783   4.092   1.699   1.414 -0.2468 -0.2243 -0.2721
  114MPD2    H7 1784   4.027   1.754   1.470  3.6344  2.0259  2.0086
  115TMC2    C1 1785   4.312   3.757  17.633  0.3419 -0.8193  0.4161
  115TMC2    C2 1786   4.448   3.743  17.662  0.6560 -0.2333 -0.0469
  115TMC2    C3 1787   4.516   3.851  17.603 -0.3411  0.1264 -0.8226
  115TMC2    C4 1788   4.259   3.861  17.553 -0.3419  0.1788 -0.3131
  115TMC2    C5 1789   4.335   3.965  17.512  0.4477 -0.5053  0.0914
  115TMC2    C6 1790   4.471   3.959  17.529  0.1369 -0.4008 -0.2350
  115TMC2     C 1791   4.250   3.633  17.617  0.5164 -0.4356 -0.0920
  115TMC2     O 1792   4.186   3.618  17.512  0.4757  0.0084  0.1956
  115TMC2     H 1793   4.491   3.663  17.720 -0.0656  0.9900  2.1944
  115TMC2    H1 1794   4.151   3.869  17.545  0.0379  3.4706 -2.2619
  115TMC2    H2 1795   4.538   4.043  17.514  1.0255 -0.5845  2.8450
  115TMC2    C7 1796   4.264   4.084  17.459  0.3341 -0.3206  0.0367
  115TMC2    C8 1797   4.645   3.867  17.656 -0.3676  0.0123 -0.2248
  115TMC2    O1 1798   4.155   4.101  17.511 -0.0088 -0.1101  0.6230
  115TMC2    O2 1799   4.687   3.979  17.676 -0.3187  0.4057 -0.0076
  115TMC2    O5 1800   4.716   3.751  17.638  0.4165  0.0270 -0.0708
  115TMC2    H5 1801   4.662   3.679  17.599  1.0258 -0.0497 -0.7935
  116MPD2     C 1802   4.155   3.147  17.728  0.0942  0.4195  0.6918
  116MPD2    C1 1803   4.181   3.217  17.616  0.4203 -0.4751 -0.0234
  116MPD2    C2 1804   4.215   3.351  17.616 -0.4308 -0.5682  0.1309
  116MPD2    C3 1805   4.222   3.421  17.735  0.3054  0.5967 -0.1015
  116MPD2    C4 1806   4.198   3.351   0.098  0.3379  0.0179  0.1226
  116MPD2    C5 1807   4.166   3.219   0.096 -0.2309 -0.6892 -0.1247
  116MPD2     H 1808   4.231   3.392  17.517 -0.3616 -0.1083  0.3316
  116MPD2    H1 1809   4.189   3.401   0.194 -0.4421 -0.3892  0.2597
  116MPD2    H2 1810   4.125   3.044  17.732  2.0327 -0.1661  0.5110
  116MPD2    H3 1811   4.150   3.156   0.183  0.3684  1.6647  1.6683
  116MPD2     N 1812   4.246   3.563  17.738  0.4472 -0.0737  0.0640
  116MPD2    H5 1813   4.275   3.616   0.067  2.8689 -2.0335  0.4737
  116MPD2    N1 1814   4.163   3.161  17.488  0.0771  0.3960  0.0988
  116MPD2    H7 1815   4.174   3.227  17.411  2.1172  0.2633  0.2639
  117TMC2    C1 1816   2.968   0.659  14.349 -0.3699  0.1886 -0.3161
  117TMC2    C2 1817   3.024   0.592  14.450 -0.5041  0.0323  0.5624
  117TMC2    C3 1818   3.146   0.632  14.499  0.1398  0.8936  0.3797
  117TMC2    C4 1819   3.037   0.767  14.292  0.1345  0.1900  0.1900
  117TMC2    C5 1820   3.153   0.802  14.345  0.2782  0.5376  0.5162
  117TMC2    C6 1821   3.214   0.737  14.443 -0.4695  0.7406 -1.0116
  117TMC2     C 1822   2.845   0.604  14.286  0.3884  0.4423  0.4540
  117TMC2     O 1823   2.806   0.495  14.321 -0.3683 -0.6256  0.1465
  117TMC2     H 1824   2.965   0.514  14.497  1.4206 -2.0020 -0.4185
  117TMC2    H1 1825   3.021   0.814  14.196  0.1901 -1.7866 -0.7980
  117TMC2    H2 1826   3.299   0.784  14.492  0.6311 -1.0610 -1.1978
  117TMC2    C7 1827   3.223   0.922  14.308 -0.5000  0.0150 -0.3296
  117TMC2    C8 1828   3.224   0.563  14.594 -0.0510 -0.2030 -0.4349
  117TMC2    O1 1829   3.342   0.935  14.336 -0.1061  0.0343  0.1035
  117TMC2    O2 1830   3.301   0.619  14.664 -0.5090  0.2712 -0.1860
  117TMC2    O5 1831   3.161   0.448  14.619  0.2502 -0.4309 -0.3228
  117TMC2    H5 1832   3.112   0.415  14.541  1.2819 -0.2490 -1.0444
  118MPD2     C 1833   3.058   1.245  14.259  0.9492 -0.3940  0.3695
  118MPD2    C1 1834   3.165   1.161  14.259  0.2685 -0.3027 -0.3270
  118MPD2    C2 1835   3.292   1.216  14.241 -0.9711 -0.2045 -0.4168
  118MPD2    C3 1836   3.304   1.355  14.228 -0.4895 -0.0875 -0.1844
  118MPD2    C4 1837   3.193   1.435  14.236 -0.1776 -0.8417  0.2603
  118MPD2    C5 1838   3.073   1.381  14.258 -0.0760 -0.1733  0.0589
  118MPD2     H 1839   3.375   1.148  14.228  0.2279  1.6571 -2.4967
  118MPD2    H1 1840   3.204   1.542  14.221 -0.7335 -0.9345 -0.7981
  118MPD2    H2 1841   2.961   1.197  14.255 -0.3566  2.2343  0.0002
  118MPD2    H3 1842   2.989   1.450  14.263  2.1499  2.4679  1.0256
  118MPD2     N 1843   3.424   1.424  14.210 -0.4203  0.1825 -0.6006
  118MPD2    H5 1844   3.423   1.525  14.199 -0.1738  0.1600 -0.8045
  118MPD2    N1 1845   3.140   1.019  14.269 -0.0869 -0.0662  0.0941
  118MPD2    H7 1846   3.044   0.992  14.248 -0.1978 -1.1676  2.0164
  119TMC2    C1 1847   1.807   1.824  13.425 -0.4239  0.1126 -0.9204
  119TMC2    C2 1848   1.890   1.811  13.320  0.3940 -0.1213 -0.7614
  119TMC2    C3 1849   1.889   1.698  13.246  0.9447 -0.5310 -0.7124
  119TMC2    C4 1850   1.718   1.725  13.454 -0.2788  0.1725  0.1388
  119TMC2    C5 1851   1.721   1.610  13.383  0.3538  0.1348 -0.5110
  119TMC2    C6 1852   1.808   1.597  13.281  0.2598  0.3462  0.5712
  119TMC2     C 1853   1.810   1.941  13.507 -0.2785  0.4791 -0.4265
  119TMC2     O 1854   1.723   1.948  13.589  0.1981  0.0988 -0.3146
  119TMC2     H 1855   1.949   1.893  13.280  1.8429 -1.4791 -1.4184
  119TMC2    H1 1856   1.645   1.743  13.532 -0.9459  0.6391 -0.5917
  119TMC2    H2 1857   1.816   1.504  13.226  0.9519  0.9853 -0.3981
  119TMC2    C7 1858   1.602   1.536  13.371  0.5689 -0.2279  0.2371
  119TMC2    C8 1859   1.986   1.694  13.143 -0.2430 -0.0797 -0.6023
  119TMC2    O1 1860   1.584   1.493  13.257 -0.1789 -0.5057 -0.1533
  119TMC2    O2 1861   2.085   1.765  13.136  0.3971  0.4207  0.4207
  119TMC2    O5 1862   1.934   1.624  13.032  0.6604 -0.3616  0.0505
  119TMC2    H5 1863   1.848   1.583  13.056 -0.1794  1.1163 -0.4558
  120MPD2     C 1864   1.997   2.315  13.787  0.4065 -0.3889  0.1341
  120MPD2    C1 1865   1.864   2.274  13.774 -1.2326  0.1872 -0.1994
  120MPD2    C2 1866   1.842   2.188  13.668  0.6600  0.0090 -0.0440
  120MPD2    C3 1867   1.936   2.140  13.578 -0.3303  0.3427  0.6106
  120MPD2    C4 1868   2.067   2.193  13.600 -1.2552 -0.4742  0.8516
  120MPD2    C5 1869   2.095   2.275  13.704 -0.0869 -0.4517  0.2821
  120MPD2     H 1870   1.741   2.150  13.666  0.1999  1.3673 -2.4190
  120MPD2    H1 1871   2.153   2.148  13.552  0.0894  0.7159  2.1478
  120MPD2    H2 1872   2.029   2.386  13.864  0.3117  0.6697 -0.8038
  120MPD2    H3 1873   2.193   2.316  13.725 -0.4891  1.1949 -1.0617
  120MPD2     N 1874   1.919   2.028  13.488 -0.2807  0.1890 -0.5728
  120MPD2    H5 1875   1.992   2.008  13.420  0.2876 -1.2299  0.4654
  120MPD2    N1 1876   1.755   2.322  13.858 -0.1843  0.5183 -0.9766
  120MPD2    H7 1877   1.787   2.384  13.932  0.0387 -1.2084  0.3767
  121TMC2    C1 1878   3.118   3.814  14.287 -0.1886 -0.1371 -0.3174
  121TMC2    C2 1879   3.161   3.748  14.398 -0.8251  0.1297  0.2099
  121TMC2    C3 1880   3.081   3.645  14.446  0.6871  0.3971 -0.2674
  121TMC2    C4 1881   2.996   3.783  14.228  0.3018  0.7283 -0.5434
  121TMC2    C5 1882   2.926   3.684  14.281 -0.1030 -0.3570  0.4066
  121TMC2    C6 1883   2.963   3.612  14.392 -0.6310 -1.0011 -0.0800
  121TMC2     C 1884   3.200   3.918  14.226 -0.8471  0.1307  0.6752
  121TMC2     O 1885   3.275   3.977  14.303  0.0283 -0.2048  0.4658
  121TMC2     H 1886   3.251   3.784  14.446 -0.9249  1.7126 -0.7859
  121TMC2    H1 1887   2.944   3.850  14.161 -1.0384 -1.7018 -1.9301
  121TMC2    H2 1888   2.900   3.532  14.429 -0.6112 -1.6089 -1.3435
  121TMC2    C7 1889   2.806   3.656  14.207  0.3937 -0.3583 -0.6445
  121TMC2    C8 1890   3.109   3.577  14.575 -0.0390 -0.2711 -0.1358
  121TMC2    O1 1891   2.802   3.703  14.091  0.4909  0.1476 -0.1058
  121TMC2    O2 1892   3.055   3.478  14.614  0.7820 -0.0291  0.1354
  121TMC2    O5 1893   3.232   3.617  14.622 -0.3095  0.1038  0.0890
  121TMC2    H5 1894   3.251   3.704  14.580  0.3173  0.6492  1.5053
  122MPD2     C 1895   3.302   4.148  14.060 -0.4185  0.4237  0.7144
  122MPD2    C1 1896   3.249   4.027  14.013 -0.3532  1.2450 -0.1991
  122MPD2    C2 1897   3.252   4.010  13.873 -0.6525 -0.1988 -0.2741
  122MPD2    C3 1898   3.312   4.104  13.787 -0.4890  0.2324 -0.4328
  122MPD2    C4 1899   3.372   4.213  13.835 -0.4004 -0.1713  0.2906
  122MPD2    C5 1900   3.360   4.235  13.969 -0.4009 -0.3276  0.6310
  122MPD2     H 1901   3.203   3.919  13.840  0.4489 -0.4575 -1.2203
  122MPD2    H1 1902   3.418   4.293  13.779  0.9740  0.9143  2.9905
  122MPD2    H2 1903   3.321   4.170  14.165  0.9787  1.5450  0.2354
  122MPD2    H3 1904   3.423   4.319  13.999  0.7832 -0.9255 -0.1689
  122MPD2     N 1905   3.298   4.102  13.645  0.5768 -0.0173  0.2146
  122MPD2    H5 1906   3.332   4.183  13.594  0.9766 -0.1088  0.3376
  122MPD2    N1 1907   3.181   3.929  14.091 -0.1309  0.1958 -0.2368
  122MPD2    H7 1908   3.111   3.870  14.048  1.4581 -1.0170 -1.1357
  123TMC2    C1 1909   1.909   2.471  10.386 -0.5645 -0.0324 -0.2876
  123TMC2    C2 1910   1.883   2.600  10.434 -0.1511 -0.3349 -0.1988
  123TMC2    C3 1911   1.842   2.690  10.346 -0.1161  0.8241  0.0449
  123TMC2    C4 1912   1.900   2.448  10.242  0.1537  0.7935 -0.4915
  123TMC2    C5 1913   1.881   2.553  10.150  0.2963 -0.0340 -0.2038
  123TMC2    C6 1914   1.846   2.676  10.207 -0.7450  0.4520  0.0905
  123TMC2     C 1915   1.922   2.368  10.490 -0.5252  0.3688  0.1994
  123TMC2     O 1916   1.906   2.411  10.602 -0.1990  0.0552 -0.2263
  123TMC2     H 1917   1.904   2.620  10.538 -0.6497  0.9553 -0.3465
  123TMC2    H1 1918   1.911   2.346  10.205 -3.3565 -0.3191  1.5210
  123TMC2    H2 1919   1.808   2.762  10.153  1.4865  1.8623  0.7645
  123TMC2    C7 1920   1.833   2.509  10.021  0.2280 -1.0469  0.2752
  123TMC2    C8 1921   1.863   2.824  10.391  0.2850  0.2377  0.7208
  123TMC2    O1 1922   1.814   2.389  10.015 -0.1980 -0.1951  0.1889
  123TMC2    O2 1923   1.974   2.841  10.443  0.2252 -0.4132 -0.4231
  123TMC2    O5 1924   1.785   2.914  10.325 -0.1584 -0.2073 -0.5239
  123TMC2    H5 1925   1.690   2.894  10.311 -0.5003  0.8979  0.2025
  124MPD2     C 1926   1.799   1.886  10.609  0.4539  0.5018  0.2045
  124MPD2    C1 1927   1.853   1.886  10.483  0.3229  0.3061  0.0417
  124MPD2    C2 1928   1.900   2.004  10.426 -0.4505 -0.0828 -0.8199
  124MPD2    C3 1929   1.894   2.120  10.504  0.4579  0.2286  0.4659
  124MPD2    C4 1930   1.851   2.116  10.634  0.8738 -0.1028 -0.6000
  124MPD2    C5 1931   1.798   1.995  10.684  0.9118  0.0430 -0.3156
  124MPD2     H 1932   1.925   2.014  10.321  0.7110  1.4022 -0.4052
  124MPD2    H1 1933   1.863   2.202  10.698 -1.9446  0.2106 -0.4579
  124MPD2    H2 1934   1.758   1.796  10.653  1.7506  1.1486  2.7327
  124MPD2    H3 1935   1.765   1.999  10.787 -1.4828 -0.4325 -1.0776
  124MPD2     N 1936   1.923   2.242  10.438  0.3744  0.0753  0.3788
  124MPD2    H5 1937   1.953   2.236  10.341 -0.0906  1.2917  0.1602
  124MPD2    N1 1938   1.836   1.765  10.411 -0.2269  0.2762 -0.3871
  124MPD2    H7 1939   1.788   1.689  10.458 -0.7289  0.9343  0.1656
  125TMC2    C1 1940   2.720   2.821   9.338  0.1343  0.5434  0.7161
  125TMC2    C2 1941   2.794   2.846   9.444  0.6375  0.2400 -0.3881
  125TMC2    C3 1942   2.832   2.974   9.487  0.1419 -0.0193  0.1541
  125TMC2    C4 1943   2.686   2.932   9.270  0.5672  0.4259  0.1344
  125TMC2    C5 1944   2.741   3.056   9.292  0.8519  0.5822  0.1430
  125TMC2    C6 1945   2.812   3.080   9.406  0.1849  0.5891 -0.7034
  125TMC2     C 1946   2.642   2.701   9.329 -0.1518  0.1925  0.4642
  125TMC2     O 1947   2.552   2.708   9.250  0.2280  0.0913 -0.6366
  125TMC2     H 1948   2.838   2.766   9.503  1.5983 -0.1841 -1.6790
  125TMC2    H1 1949   2.617   2.924   9.187 -0.5186 -2.1321  1.2963
  125TMC2    H2 1950   2.860   3.176   9.419  1.6305 -0.3635  0.8318
  125TMC2    C7 1951   2.702   3.170   9.215  0.1608  0.0766 -0.3832
  125TMC2    C8 1952   2.930   2.982   9.594 -0.1822  0.4264 -0.0447
  125TMC2    O1 1953   2.658   3.144   9.099 -0.2374 -0.1590  0.6098
  125TMC2    O2 1954   2.995   2.880   9.615 -0.0293 -0.2718 -0.0199
  125TMC2    O5 1955   2.908   3.095   9.667 -0.3301  0.0310 -0.5889
  125TMC2    H5 1956   2.834   3.152   9.637 -0.1341  2.2354  3.0532
  126MPD1     C 1957   2.436   2.281   9.530 -0.0306 -0.5215 -0.5791
  126MPD1    C1 1958   2.571   2.280   9.549  0.9118 -0.2511 -0.3807
  126MPD1    C2 1959   2.648   2.390   9.514 -0.6593 -0.1341  0.2373
  126MPD1    C3 1960   2.594   2.492   9.437 -0.1242 -0.1754 -0.5978
  126MPD1    C4 1961   2.460   2.494   9.415 -0.4025  0.1912  0.4645
  126MPD1    C5 1962   2.382   2.392   9.466  0.0811 -0.7146  0.5715
  126MPD1     H 1963   2.748   2.408   9.551  0.2293 -2.6864 -0.9192
  126MPD1    H1 1964   2.416   2.567   9.349 -0.9633  0.0522  0.6898
  126MPD1    H2 1965   2.381   2.196   9.568  1.2036 -0.7180  0.7614
  126MPD1    H3 1966   2.274   2.397   9.466  0.0301 -1.9969  0.2685
  126MPD1     N 1967   2.682   2.601   9.406 -0.3998  0.3769  0.5921
  126MPD1    H5 1968   2.774   2.607   9.449 -1.1079 -0.3024  2.2088
  126MPD1    N1 1969   2.615   2.184   9.639  0.2247 -0.1156  0.2410
  126MPD1    H6 1970   2.709   2.156   9.614 -0.2097 -0.3686 -1.1391
  126MPD1    H7 1971   2.571   2.092   9.634  1.8158 -0.8230 -0.6231
  127TMC2    C1 1972   3.595   2.648   9.859  0.6015  0.0495 -0.2819
  127TMC2    C2 1973   3.677   2.574   9.935  0.5403 -1.0356  0.3121
  127TMC2    C3 1974   3.633   2.443   9.951  0.0590  0.0673 -0.0797
  127TMC2    C4 1975   3.480   2.604   9.791 -0.3910  0.4548  0.3663
  127TMC2    C5 1976   3.443   2.475   9.808  0.2637 -0.3639 -0.2569
  127TMC2    C6 1977   3.518   2.393   9.888  0.3508  0.0960 -0.0449
  127TMC2     C 1978   3.645   2.782   9.840 -0.3498  0.0306  0.7676
  127TMC2     O 1979   3.717   2.844   9.917 -0.3517 -0.0776  0.3600
  127TMC2     H 1980   3.770   2.617   9.971 -0.1661 -0.3806  1.3427
  127TMC2    H1 1981   3.403   2.674   9.761 -1.6800 -0.4862  1.4464
  127TMC2    H2 1982   3.486   2.289   9.884  2.6664 -0.6492  0.8970
  127TMC2    C7 1983   3.316   2.435   9.768 -0.1852  0.1919  0.6670
  127TMC2    C8 1984   3.718   2.367  10.046 -0.3149  0.2843  0.0942
  127TMC2    O1 1985   3.254   2.494   9.678 -0.0442 -0.1303 -0.5566
  127TMC2    O2 1986   3.829   2.402  10.089  0.1251  0.1255 -0.6889
  127TMC2    O5 1987   3.640   2.276  10.111  0.0627  0.5154  0.4627
  127TMC2    H5 1988   3.542   2.278  10.106  0.2393 -0.3506 -3.0660
  128MPD2     C 1989   3.582   2.962   9.522  0.7509 -0.9325 -0.0446
  128MPD2    C1 1990   3.624   2.950   9.653  0.3396  0.1059  0.1140
  128MPD2    C2 1991   3.664   3.058   9.724  0.1692  0.2929  0.0920
  128MPD2    C3 1992   3.662   3.186   9.669 -0.3017  0.2010 -0.4577
  128MPD2    C4 1993   3.609   3.200   9.544 -0.1312 -0.5245 -0.9096
  128MPD2    C5 1994   3.591   3.093   9.466  0.7831 -0.8907 -0.4354
  128MPD2     H 1995   3.686   3.050   9.830  1.2848  1.0813 -0.0760
  128MPD2    H1 1996   3.596   3.300   9.503  1.5712  0.6160  1.3060
  128MPD2    H2 1997   3.557   2.883   9.453 -2.7051  0.5660 -0.5186
  128MPD2    H3 1998   3.567   3.116   9.362  0.0935  1.4511  0.2476
  128MPD2     N 1999   3.692   3.297   9.750  0.1172 -0.0096 -0.0229
  128MPD2    H5 2000   3.738   3.272   9.837  0.1401  0.5761  0.1344
  128MPD2    N1 2001   3.603   2.820   9.712 -0.0987  0.3586 -0.0645
  128MPD2    H7 2002   3.545   2.755   9.660 -1.1263  1.2300 -0.0098
  129TMC2    C1 2003   1.799   3.353   1.375  0.3117  0.0487 -0.3958
  129TMC2    C2 2004   1.919   3.414   1.358  0.4017  0.4306 -0.4780
  129TMC2    C3 2005   2.002   3.350   1.273 -0.3094  0.4836  0.5188
  129TMC2    C4 2006   1.762   3.245   1.298  1.0648  0.1533  0.3166
  129TMC2    C5 2007   1.849   3.186   1.214 -0.1430 -0.0492  0.4298
  129TMC2    C6 2008   1.977   3.235   1.206 -0.0055  0.0753  0.3460
  129TMC2     C 2009   1.690   3.419   1.450  0.0959 -0.1328  0.4213
  129TMC2     O 2010   1.578   3.363   1.457 -0.1916  1.2377  0.5919
  129TMC2     H 2011   1.949   3.499   1.417 -0.7722  2.3273 -2.5941
  129TMC2    H1 2012   1.658   3.216   1.291  0.9587  0.1499  1.9042
  129TMC2    H2 2013   2.050   3.195   1.135  0.7030 -2.5199  2.5294
  129TMC2    C7 2014   1.814   3.075   1.120  1.0049 -0.0125  0.1635
  129TMC2    C8 2015   2.143   3.393   1.276 -0.0310 -0.9308 -0.1953
  129TMC2    O1 2016   1.699   3.072   1.070  0.2881 -0.2674  0.2038
  129TMC2    O2 2017   2.223   3.365   1.188 -0.2390 -0.1842 -0.3340
  129TMC2    O5 2018   2.174   3.402   1.404 -0.0626 -0.5181 -0.0671
  129TMC2    H5 2019   2.096   3.398   1.463 -0.1169  1.4847 -0.0277
  130MPD2     C 2020   1.516   3.614   1.612 -0.4671 -0.1337 -0.9073
  130MPD2    C1 2021   1.640   3.642   1.564 -0.7920  0.5982 -0.4794
  130MPD2    C2 2022   1.695   3.766   1.589 -0.1656 -0.3733 -0.5141
  130MPD2    C3 2023   1.629   3.862   1.662 -0.4273 -0.5483  0.1141
  130MPD2    C4 2024   1.504   3.827   1.713 -0.4372 -0.6269 -0.5132
  130MPD2    C5 2025   1.442   3.708   1.682  0.2365  0.3371 -0.6110
  130MPD2     H 2026   1.789   3.778   1.537  1.4887 -1.3397  2.2518
  130MPD2    H1 2027   1.443   3.902   1.764 -0.4906  1.1646 -3.2408
  130MPD2    H2 2028   1.462   3.523   1.591 -0.4847 -0.0861 -1.0693
  130MPD2    H3 2029   1.349   3.673   1.725  2.3255 -1.8637  2.1398
  130MPD2     N 2030   1.692   3.988   1.659  0.4335  0.5154  0.2526
  130MPD2    H5 2031   1.774   3.993   1.600 -0.7616 -1.5214 -1.5746
  130MPD2    N1 2032   1.720   3.554   1.481 -0.2864 -0.3705 -0.0180
  130MPD2    H7 2033   1.814   3.586   1.461 -0.3949  0.9911  1.6325
  131TMC2    C1 2034   1.402   2.464   9.994  0.3312 -0.1368  0.1172
  131TMC2    C2 2035   1.434   2.515  10.120  0.1350  0.5130 -0.1395
  131TMC2    C3 2036   1.443   2.648  10.138  0.1819 -0.0087 -0.1527
  131TMC2    C4 2037   1.394   2.550   9.885  0.9562  0.3195 -0.2904
  131TMC2    C5 2038   1.394   2.680   9.913  0.4925  0.2355  0.1223
  131TMC2    C6 2039   1.425   2.735  10.033 -0.5455 -0.0947 -0.0392
  131TMC2     C 2040   1.427   2.320   9.982  0.7424 -0.4483 -0.5728
  131TMC2     O 2041   1.491   2.271  10.069 -0.0570  0.6126  0.2380
  131TMC2     H 2042   1.448   2.453  10.208 -0.1351 -0.0170 -0.4720
  131TMC2    H1 2043   1.382   2.514   9.784  2.4926  0.4984 -0.5509
  131TMC2    H2 2044   1.434   2.843  10.045  1.6734 -0.4996  1.9141
  131TMC2    C7 2045   1.379   2.770   9.799  0.3672  0.0740  0.1942
  131TMC2    C8 2046   1.474   2.707  10.264  0.0639  0.7425  0.9660
  131TMC2    O1 2047   1.319   2.719   9.706  0.0045 -0.2367  0.7208
  131TMC2    O2 2048   1.560   2.798  10.279  0.0939  0.5149  0.0184
  131TMC2    O5 2049   1.415   2.623  10.364  1.0243 -1.2497 -0.3771
  131TMC2    H5 2050   1.345   2.563  10.331 -0.4010  0.4542 -0.4248
  132MPD2     C 2051   1.313   2.082   9.724  0.5838 -0.0747  0.1047
  132MPD2    C1 2052   1.378   2.119   9.837 -0.5639  0.0474  0.8865
  132MPD2    C2 2053   1.444   2.028   9.919  0.3041 -1.0032  0.3287
  132MPD2    C3 2054   1.452   1.889   9.894 -0.0930 -0.3236 -0.7831
  132MPD2    C4 2055   1.382   1.854   9.781 -0.2714 -0.5633 -0.6354
  132MPD2    C5 2056   1.317   1.947   9.697 -1.1815 -0.6069 -0.2049
  132MPD2     H 2057   1.486   2.054  10.015 -0.1211 -1.2641  0.5847
  132MPD2    H1 2058   1.394   1.751   9.750  0.3032 -0.5054 -0.6052
  132MPD2    H2 2059   1.251   2.150   9.668 -1.1157 -1.6682  0.0355
  132MPD2    H3 2060   1.278   1.905   9.605 -1.6688 -2.4122  0.8255
  132MPD2     N 2061   1.521   1.802   9.987 -0.0397  0.8624 -0.0633
  132MPD2    H5 2062   1.566   1.848  10.065 -0.6647 -0.5907  1.1600
  132MPD2    N1 2063   1.371   2.258   9.871 -0.2526 -0.3251  0.4193
  132MPD2    H7 2064   1.322   2.322   9.809 -1.0346 -2.7213 -1.4299
  133TMC2    C1 2065   0.038   3.291   8.957 -0.0368  1.0514 -0.0725
  133TMC2    C2 2066   0.084   3.253   8.829 -0.1540  0.4545  0.2969
  133TMC2    C3 2067   0.055   3.333   8.726  0.5343 -0.2812 -0.0932
  133TMC2    C4 2068   4.685   3.389   8.970 -0.5342 -0.1996 -0.0985
  133TMC2    C5 2069   4.650   3.461   8.861  0.4213  0.1014 -0.3072
  133TMC2    C6 2070   4.702   3.434   8.734  0.1394  0.7019  0.3068
  133TMC2     C 2071   0.084   3.223   9.070 -0.0291  0.4992 -0.2881
  133TMC2     O 2072   0.130   3.111   9.043 -0.2569 -0.3780  0.4841
  133TMC2     H 2073   0.153   3.172   8.807  1.6307  1.5835  1.6781
  133TMC2    H1 2074   4.636   3.407   9.065  2.1285  0.9996  1.0568
  133TMC2    H2 2075   4.685   3.501   8.650 -3.5714 -0.5245  0.0761
  133TMC2    C7 2076   4.519   3.530   8.872  0.4230 -0.0422  0.6078
  133TMC2    C8 2077   0.073   3.287   8.592  0.1679  0.4503  0.1916
  133TMC2    O1 2078   4.483   3.561   8.986  0.3783 -0.0362  0.2191
  133TMC2    O2 2079   4.732   3.310   8.504 -0.6830  0.8236 -0.0636
  133TMC2    O5 2080   0.207   3.288   8.570  0.2285 -0.1632  0.1304
  133TMC2    H5 2081   0.267   3.307   8.645  1.1005 -1.1259 -0.3322
  134MPD2     C 2082   0.053   3.309   9.427  0.2238 -0.9649  0.2725
  134MPD2    C1 2083   0.084   3.232   9.317  0.5634 -0.2006  0.2078
  134MPD2    C2 2084   0.146   3.108   9.349 -0.2128 -0.3189 -0.3819
  134MPD2    C3 2085   0.162   3.065   9.476 -0.4763  0.0344 -0.1100
  134MPD2    C4 2086   0.127   3.149   9.578  1.0926 -0.2146  0.6810
  134MPD2    C5 2087   0.078   3.272   9.554 -0.0266 -0.1089 -0.0744
  134MPD2     H 2088   0.160   3.031   9.275 -1.6993 -1.2497  0.2901
  134MPD2    H1 2089   0.142   3.118   9.681  2.8761 -0.2428  0.4270
  134MPD2    H2 2090   4.735   3.399   9.413  1.6208 -0.3559 -1.4413
  134MPD2    H3 2091   0.045   3.342   9.631 -0.2752  1.8177 -1.9317
  134MPD2     N 2092   0.213   2.937   9.523 -0.2915  0.0942  0.2490
  134MPD2    H5 2093   0.229   2.923   9.622 -1.9207  0.5399  0.5694
  134MPD2    N1 2094   0.057   3.286   9.188  0.4991  0.3468 -0.1867
  134MPD2    H7 2095   0.012   3.377   9.185  0.2138  0.2817  2.2872
  135TMC2    C1 2096   3.414   4.348   9.742 -0.5726 -0.4565 -0.2779
  135TMC2    C2 2097   3.346   4.311   9.628  0.2999  0.1950  0.5999
  135TMC2    C3 2098   3.228   4.373   9.603  0.2061 -0.3988  0.0589
  135TMC2    C4 2099   3.355   4.434   9.838  0.3003  0.0101 -0.4746
  135TMC2    C5 2100   3.225   4.478   9.814  0.8548 -0.8516  0.8359
  135TMC2    C6 2101   3.165   4.454   9.694 -0.2010 -0.5389 -0.0563
  135TMC2     C 2102   3.540   4.292   9.770 -0.6810  0.0781  0.1643
  135TMC2     O 2103   3.603   4.333   9.864  0.4923 -0.0852 -0.4067
  135TMC2     H 2104   3.388   4.252   9.547  0.2297 -0.3326  0.9472
  135TMC2    H1 2105   3.411   4.456   9.928  0.4474 -0.8730 -0.3423
  135TMC2    H2 2106   3.065   4.485   9.666  0.5150 -0.3853 -2.4327
  135TMC2    C7 2107   3.145   4.544   9.919  0.0083 -0.0146 -0.4755
  135TMC2    C8 2108   3.162   4.362   9.476 -0.1047 -0.4674  0.1795
  135TMC2    O1 2109   3.206   4.634   9.980 -0.0613 -0.0052  0.0739
  135TMC2    O2 2110   3.110   4.454   9.411  0.2656  0.2881  0.8686
  135TMC2    O5 2111   3.170   4.238   9.429 -0.0576 -0.8521 -0.4262
  135TMC2    H5 2112   3.229   4.179   9.480 -1.7313  0.1851  2.7069
  136MPD2     C 2113   3.772   4.105   9.815 -0.3447 -0.1846 -0.4313
  136MPD2    C1 2114   3.689   4.100   9.707  1.0215  0.0245 -0.0415
  136MPD2    C2 2115   3.708   4.003   9.612  0.2009 -0.8455 -0.2685
  136MPD2    C3 2116   3.813   3.912   9.626  0.4092  0.5008  0.4117
  136MPD2    C4 2117   3.905   3.930   9.728  0.0259 -1.0033 -0.3040
  136MPD2    C5 2118   3.882   4.022   9.824  0.1792  0.2829 -0.0832
  136MPD2     H 2119   3.643   4.014   9.526  1.7212 -2.9959 -1.6920
  136MPD2    H1 2120   3.997   3.874   9.717 -0.4972 -1.9503  0.1319
  136MPD2    H2 2121   3.753   4.178   9.893 -3.7371 -1.0351 -0.4945
  136MPD2    H3 2122   3.952   4.043   9.904  2.5323  0.8449 -2.2838
  136MPD2     N 2123   3.843   3.813   9.527 -0.2563 -0.4089 -0.4220
  136MPD2    H5 2124   3.910   3.744   9.558 -0.8246 -0.6601  0.2320
  136MPD2    N1 2125   3.579   4.185   9.692  0.0676  0.1315  0.4904
  136MPD2    H7 2126   3.518   4.157   9.616 -0.1821  1.8549  0.0681
  137TMC2    C1 2127   2.368   2.970   9.412 -0.4070 -0.4496 -0.6342
  137TMC2    C2 2128   2.312   2.848   9.379 -0.2451 -0.1811  0.6221
  137TMC2    C3 2129   2.212   2.841   9.291 -0.2077 -0.4550  0.1078
  137TMC2    C4 2130   2.324   3.090   9.354  0.3848 -0.2287  0.2676
  137TMC2    C5 2131   2.214   3.077   9.273  0.2895 -0.0225 -0.1438
  137TMC2    C6 2132   2.162   2.956   9.232 -0.0263 -0.3882 -0.4707
  137TMC2     C 2133   2.447   2.984   9.533 -0.1227 -0.2114 -0.4156
  137TMC2     O 2134   2.518   3.085   9.548  0.4503 -0.1884  0.0498
  137TMC2     H 2135   2.345   2.755   9.425 -0.1552 -0.8662 -0.8435
  137TMC2    H1 2136   2.367   3.182   9.391  1.1804 -0.3053 -0.4682
  137TMC2    H2 2137   2.063   2.952   9.189 -0.1060  1.5371 -0.4479
  137TMC2    C7 2138   2.130   3.195   9.264 -0.4249 -0.1765  0.0358
  137TMC2    C8 2139   2.159   2.710   9.264  0.8566 -0.5707  0.3248
  137TMC2    O1 2140   2.006   3.187   9.264  0.1027  0.3680 -0.6811
  137TMC2    O2 2141   2.121   2.637   9.352 -0.0004  0.1431  0.1364
  137TMC2    O5 2142   2.103   2.714   9.136 -0.3615  0.3230  0.5558
  137TMC2    H5 2143   2.146   2.780   9.077 -0.2358  0.7923  1.1662
  138MPD2     C 2144   2.491   2.707   9.771 -0.2668  0.2786  0.4074
  138MPD2    C1 2145   2.513   2.836   9.723 -0.0786 -0.4647 -0.1900
  138MPD2    C2 2146   2.593   2.930   9.795 -0.3841  0.1068 -0.3775
  138MPD2    C3 2147   2.663   2.878   9.897  0.2907  0.1013  0.0835
  138MPD2    C4 2148   2.668   2.748   9.932  0.3099 -0.6902 -0.4876
  138MPD2    C5 2149   2.585   2.665   9.860 -0.1721  0.0433  0.0040
  138MPD2     H 2150   2.609   3.031   9.757 -0.2049  0.2244  0.0071
  138MPD2    H1 2151   2.737   2.705  10.004 -0.0916  0.0766  0.3438
  138MPD2    H2 2152   2.426   2.630   9.732 -1.3914  1.2213  0.4205
  138MPD2    H3 2153   2.596   2.559   9.878  2.0065  0.1157 -0.8656
  138MPD2     N 2154   2.746   2.975   9.958  0.4830  0.5902 -0.3799
  138MPD2    H5 2155   2.743   3.069   9.920  1.0989  0.6098 -0.3792
  138MPD2    N1 2156   2.445   2.871   9.606  0.2476  0.4148  0.4852
  138MPD2    H7 2157   2.382   2.799   9.572  1.3298 -0.7613  0.9772
  139TMC2    C1 2158   3.671   1.734  13.656 -0.0304 -0.2019  0.2263
  139TMC2    C2 2159   3.742   1.822  13.574  1.2213 -0.1538  0.1112
  139TMC2    C3 2160   3.672   1.923  13.529 -0.1106  0.2213 -0.0304
  139TMC2    C4 2161   3.541   1.746  13.688  0.1480  0.3690  0.1733
  139TMC2    C5 2162   3.474   1.850  13.634  0.0471  0.5091  0.0751
  139TMC2    C6 2163   3.544   1.939  13.553 -0.2308 -0.8477 -0.3806
  139TMC2     C 2164   3.742   1.615  13.696  0.1099  0.0974 -0.7563
  139TMC2     O 2165   3.863   1.630  13.676  0.3275 -0.3889 -0.0444
  139TMC2     H 2166   3.848   1.813  13.554  1.6177  3.1677  0.5899
  139TMC2    H1 2167   3.479   1.665  13.726 -1.6307  1.6486 -0.0057
  139TMC2    H2 2168   3.484   2.008  13.494 -3.0006 -0.6773  2.6780
  139TMC2    C7 2169   3.347   1.893  13.699 -0.1618 -0.6406  0.2984
  139TMC2    C8 2170   3.739   2.029  13.452  0.6176 -0.7103  0.6842
  139TMC2    O1 2171   3.270   1.971  13.642 -0.0625 -0.7397 -0.0909
  139TMC2    O2 2172   3.703   2.144  13.433 -0.2300  0.6511 -0.8002
  139TMC2    O5 2173   3.846   1.977  13.392 -0.6796 -0.4485 -0.0886
  139TMC2    H5 2174   3.842   1.879  13.398 -4.0595 -0.2677  0.9959
  140MPD2     C 2175   3.655   1.289  13.826 -0.1075 -0.0159  0.1296
  140MPD2    C1 2176   3.726   1.379  13.762 -0.0730  0.3293 -0.3094
  140MPD2    C2 2177   3.842   1.344  13.696 -0.0320  0.0287  0.0509
  140MPD2    C3 2178   3.895   1.215  13.706 -0.1288  0.1567 -0.4725
  140MPD2    C4 2179   3.831   1.128  13.785  0.2293  0.9913 -0.8882
  140MPD2    C5 2180   3.711   1.159  13.836  0.2543  0.8339  0.2775
  140MPD2     H 2181   3.894   1.408  13.625 -1.2922  3.7454  2.5038
  140MPD2    H1 2182   3.849   1.021  13.785 -1.3641  0.7443 -2.9755
  140MPD2    H2 2183   3.555   1.300  13.866 -0.1848  0.2097 -0.1269
  140MPD2    H3 2184   3.656   1.084  13.891 -0.7412 -0.4200 -2.4273
  140MPD2     N 2185   4.000   1.177  13.619  0.0636 -0.1443 -0.3972
  140MPD2    H5 2186   4.054   1.242  13.564 -0.4395 -0.3984 -1.1931
  140MPD2    N1 2187   3.670   1.506  13.734  0.6118  0.1214 -0.0441
  140MPD2    H7 2188   3.575   1.524  13.767  0.3318 -0.5390 -0.4900
  141TMC2    C1 2189   3.277   3.257  14.276 -0.3961 -0.4503  0.3834
  141TMC2    C2 2190   3.150   3.238  14.311 -0.3143 -0.0012  0.0685
  141TMC2    C3 2191   3.126   3.226  14.444 -0.0643  0.0633  0.1651
  141TMC2    C4 2192   3.383   3.266  14.369 -0.5503 -0.4509 -0.3534
  141TMC2    C5 2193   3.353   3.238  14.497 -0.1905  0.7286  0.3929
  141TMC2    C6 2194   3.221   3.228  14.536  0.4523 -0.1423 -0.0056
  141TMC2     C 2195   3.304   3.240  14.138  0.5096  0.1060 -0.1562
  141TMC2     O 2196   3.213   3.264  14.064  0.6408  0.5869  0.3999
  141TMC2     H 2197   3.069   3.225  14.240  1.1389  1.7767 -1.9113
  141TMC2    H1 2198   3.483   3.267  14.329  0.1004 -1.2947  1.2356
  141TMC2    H2 2199   3.191   3.203  14.637 -0.6400  0.2498 -0.2392
  141TMC2    C7 2200   3.456   3.230  14.597  0.1828  0.3999 -0.4687
  141TMC2    C8 2201   3.005   3.162  14.488 -0.4871  0.8300  0.5887
  141TMC2    O1 2202   3.427   3.280  14.706 -0.4916 -0.1373  0.0184
  141TMC2    O2 2203   2.960   3.061  14.439  0.3375  0.0113  0.2816
  141TMC2    O5 2204   2.941   3.247  14.573  0.1104  0.4502  0.6297
  141TMC2    H5 2205   2.992   3.328  14.592  2.1607 -0.3748 -1.4013
  142TMC2    C1 2206   1.681   1.852   9.568  0.3413 -0.3251 -0.1312
  142TMC2    C2 2207   1.584   1.849   9.481  0.2089 -0.5639 -0.2566
  142TMC2    C3 2208   1.557   1.964   9.408  0.1141 -0.2435 -0.1207
  142TMC2    C4 2209   1.744   1.970   9.603 -0.1625  0.7515 -0.0892
  142TMC2    C5 2210   1.709   2.089   9.538 -0.5758  0.0382  0.1145
  142TMC2    C6 2211   1.626   2.087   9.430 -0.2261 -0.0285 -0.5493
  142TMC2     C 2212   1.701   1.729   9.644 -0.3937 -0.8474 -0.5757
  142TMC2     O 2213   1.612   1.644   9.639  0.0268  0.1020 -0.6038
  142TMC2     H 2214   1.530   1.757   9.464  1.1876 -1.2462  0.3583
  142TMC2    H1 2215   1.807   1.968   9.692 -1.0952 -0.4644  0.5399
  142TMC2    H2 2216   1.606   2.182   9.380  0.6560  0.2881 -0.3038
  142TMC2    C7 2217   1.758   2.211   9.589  0.2459 -0.5668 -0.5053
  142TMC2    C8 2218   1.460   1.952   9.299 -0.0493 -0.3742 -0.8392
  142TMC2    O1 2219   1.860   2.200   9.655  0.0196 -0.2487  0.6377
  142TMC2    O2 2220   1.382   1.854   9.293 -0.3556  0.2584  0.0782
  142TMC2    O5 2221   1.516   2.022   9.196  0.0023  0.0730 -0.2478
  142TMC2    H5 2222   1.610   2.049   9.207 -0.2051 -0.5044  3.1000
  143MPD2     C 2223   1.975   1.442   9.983  0.4897  0.0481  0.7233
  143MPD2    C1 2224   1.862   1.413   9.908  0.3719 -0.1313 -0.2457
  143MPD2    C2 2225   1.813   1.507   9.817  0.4997  0.2631 -1.0706
  143MPD2    C3 2226   1.877   1.625   9.786  0.4753 -0.3646 -0.4184
  143MPD2    C4 2227   1.996   1.646   9.863 -0.4700  0.1138  0.0278
  143MPD2    C5 2228   2.040   1.557   9.958 -0.1669 -0.1835  0.6747
  143MPD2     H 2229   1.722   1.487   9.761 -0.1652  0.5618 -0.0913
  143MPD2    H1 2230   2.060   1.731   9.846  1.1311 -1.0857  0.0632
  143MPD2    H2 2231   2.016   1.377  10.060  0.1127 -0.2070  0.7140
  143MPD2    H3 2232   2.126   1.585  10.018 -0.2793 -2.6518  1.9931
  143MPD2     N 2233   1.825   1.725   9.701  0.0798 -0.5616 -0.0505
  143MPD2    H5 2234   1.886   1.802   9.676 -1.0318  0.5389  0.6314
  143MPD2    N1 2235   1.794   1.295   9.936  0.0575 -0.0237 -0.0985
  143MPD2    H7 2236   1.847   1.240  10.003 -0.1852  1.2071  1.0993
  144TMC2    C1 2237   4.585   0.800   0.986  0.0236 -0.0475 -0.1454
  144TMC2    C2 2238   4.651   0.737   0.884  0.7197  0.9042  0.0429
  144TMC2    C3 2239   0.049   0.762   0.875  0.3899  0.2729 -0.5555
  144TMC2    C4 2240   4.652   0.879   1.078 -0.2888 -0.1780  0.4748
  144TMC2    C5 2241   0.045   0.910   1.050 -0.0967 -0.2074  0.5461
  144TMC2    C6 2242   0.118   0.850   0.950 -0.4074 -0.5583  0.2032
  144TMC2     C 2243   4.446   0.763   0.998  1.0322 -0.5421  0.3602
  144TMC2     O 2244   4.415   0.664   0.936 -0.1373  0.0380 -0.1018
  144TMC2     H 2245   4.598   0.686   0.804  0.9139  0.3127  0.2922
  144TMC2    H1 2246   4.606   0.915   1.169  0.7266 -0.4673  1.1071
  144TMC2    H2 2247   0.217   0.886   0.924 -1.5403  1.9554 -0.6332
  144TMC2    C7 2248   0.121   0.967   1.156  0.0233 -0.5046 -0.2381
  144TMC2    C8 2249   0.114   0.723   0.755  0.1515  0.5232 -0.1234
  144TMC2    O1 2250   0.240   0.936   1.156  0.0443  0.2492  0.1269
  144TMC2    O2 2251   0.217   0.774   0.720 -0.1795 -0.4174  1.1850
  144TMC2    O5 2252   0.075   0.598   0.717  0.3972 -0.2732  0.3018
  144TMC2    H5 2253   4.732   0.565   0.761  0.4009  0.9590  1.2755
  145MPD2     C 2254   3.951   0.786   1.140  0.2555  0.7156  0.4087
  145MPD2    C1 2255   4.024   0.706   1.055  0.2844  0.1405 -0.0202
  145MPD2    C2 2256   4.154   0.736   1.020 -0.3742 -0.5940  0.1896
  145MPD2    C3 2257   4.228   0.828   1.087  0.4960 -0.1553 -0.4372
  145MPD2    C4 2258   4.164   0.913   1.175  0.1084 -0.0940 -0.2928
  145MPD2    C5 2259   4.028   0.890   1.197 -0.0345 -0.0862  0.3258
  145MPD2     H 2260   4.210   0.666   0.960  1.5847  1.5238 -0.4590
  145MPD2    H1 2261   4.209   0.996   1.228  1.0614  0.2912 -1.7337
  145MPD2    H2 2262   3.845   0.782   1.159  0.2284  0.2974  0.1618
  145MPD2    H3 2263   3.976   0.950   1.271  0.1211  0.7005 -0.2013
  145MPD2     N 2264   4.366   0.850   1.071 -0.3289 -0.2578 -0.1932
  145MPD2    H5 2265   4.403   0.922   1.132 -0.2456  0.0431 -0.5980
  145MPD2    N1 2266   3.970   0.585   1.001  0.0240 -0.3267 -0.0556
  145MPD2    H7 2267   4.033   0.530   0.944  2.0844 -0.5661  2.4378
  146TMC2    C1 2268   0.329   4.008  13.030 -0.2060 -0.3926 -0.4978
  146TMC2    C2 2269   0.252   4.098  12.956  0.6582 -0.3251  0.2895
  146TMC2    C3 2270   0.245   4.103  12.820  0.3231 -0.0673 -0.4297
  146TMC2    C4 2271   0.406   3.922  12.960  0.2514  0.0490 -0.5084
  146TMC2    C5 2272   0.413   3.944  12.823 -0.2652 -0.2061 -0.1576
  146TMC2    C6 2273   0.328   4.025  12.749  0.0273  0.6905 -0.0546
  146TMC2     C 2274   0.340   4.006  13.173 -0.4633 -0.2455  0.7994
  146TMC2     O 2275   0.289   4.108  13.217  0.3481 -0.3982  0.3933
  146TMC2     H 2276   0.178   4.157  13.010  1.6483  1.8613 -0.7682
  146TMC2    H1 2277   0.474   3.852  13.009  0.0328  1.0666  1.2383
  146TMC2    H2 2278   0.329   4.026  12.641 -0.5211 -1.0108 -0.0712
  146TMC2    C7 2279   0.518   3.871  12.748  0.2503  0.2936  0.0853
  146TMC2    C8 2280   0.174   4.212  12.754  0.3210  0.0914  0.5977
  146TMC2    O1 2281   0.498   3.876  12.630 -0.3945  0.3539  0.6474
  146TMC2    O2 2282   0.094   4.186  12.665 -0.2244  0.1117  0.4833
  146TMC2    O5 2283   0.209   4.331  12.808  0.4721  0.3347  0.4750
  146TMC2    H5 2284   0.291   4.342  12.860  0.3048  1.3315  0.5350
  147MPD2     C 2285   0.916   3.572  12.613 -0.3694 -0.0965  0.4852
  147MPD2    C1 2286   0.922   3.599  12.749  0.3987  0.7007  0.4165
  147MPD2    C2 2287   0.821   3.670  12.814 -0.6028 -0.1449 -0.1624
  147MPD2    C3 2288   0.720   3.723  12.741  0.3358  0.4449 -1.1230
  147MPD2    C4 2289   0.716   3.690  12.608  0.7134 -0.9820 -0.2655
  147MPD2    C5 2290   0.804   3.609  12.544 -0.1670 -0.3894  0.2666
  147MPD2     H 2291   0.819   3.691  12.921 -0.2863 -0.9146 -0.0083
  147MPD2    H1 2292   0.636   3.724  12.544  1.4189  0.2733 -0.4769
  147MPD2    H2 2293   0.995   3.519  12.561 -1.7723  0.0493 -1.7774
  147MPD2    H3 2294   0.792   3.596  12.437 -2.1108 -0.9159  0.5370
  147MPD2     N 2295   0.621   3.807  12.813  0.4291 -0.5441 -0.2774
  147MPD2    H5 2296   0.627   3.828  12.912 -2.9751  0.8662 -0.3871
  147MPD2    N1 2297   1.032   3.545  12.819  0.3326  0.2307 -0.1592
  147MPD2    H7 2298   1.091   3.492  12.755  1.6250 -1.5599  2.5412
  148TMC2    C1 2299   1.433   2.538  10.783  0.7818  1.0019 -0.0293
  148TMC2    C2 2300   1.547   2.608  10.803  0.1376 -0.3059  0.4440
  148TMC2    C3 2301   1.656   2.535  10.831  0.2193  0.1828 -0.1318
  148TMC2    C4 2302   1.426   2.398  10.785 -0.4749 -0.1092 -0.1447
  148TMC2    C5 2303   1.537   2.333  10.813  0.2172 -0.4832 -0.5622
  148TMC2    C6 2304   1.655   2.396  10.838 -0.2302  0.4192 -0.5548
  148TMC2     C 2305   1.310   2.607  10.760  0.2014 -0.6173  0.2428
  148TMC2     O 2306   1.298   2.720  10.809  0.5260  0.5104  0.4113
  148TMC2     H 2307   1.549   2.716  10.800 -2.2751 -0.2962 -1.0339
  148TMC2    H1 2308   1.330   2.347  10.783 -1.4497  1.7631 -1.9040
  148TMC2    H2 2309   1.745   2.347  10.875 -2.3306 -2.6220  0.4883
  148TMC2    C7 2310   1.535   2.189  10.820 -0.0173 -0.3878 -0.0052
  148TMC2    C8 2311   1.793   2.597  10.843 -0.2520 -0.7971  0.1711
  148TMC2    O1 2312   1.596   2.141  10.916  0.1287  0.3065  0.9044
  148TMC2    O2 2313   1.894   2.542  10.888  0.0379  0.2377  0.0893
  148TMC2    O5 2314   1.789   2.710  10.769 -0.9869 -0.5791  0.0467
  148TMC2    H5 2315   1.709   2.736  10.720 -0.1065 -0.4354 -1.3238
  149MPD2     C 2316   1.059   2.711  10.638 -0.0581 -0.0170  0.2690
  149MPD2    C1 2317   1.097   2.581  10.627  0.1202 -0.0224 -0.0836
  149MPD2    C2 2318   1.024   2.491  10.558 -0.1154  0.2676 -0.7455
  149MPD2    C3 2319   0.907   2.538  10.485  0.5712 -0.2825  0.3283
  149MPD2    C4 2320   0.874   2.674  10.494  0.0244 -0.2836 -0.2866
  149MPD2    C5 2321   0.945   2.757  10.578  0.7874 -0.3834  0.3675
  149MPD2     H 2322   1.047   2.386  10.553 -0.6068  0.1605 -0.7960
  149MPD2    H1 2323   0.794   2.715  10.433 -1.4063 -1.5621  0.7464
  149MPD2    H2 2324   1.118   2.784  10.692  0.1675  0.3937 -0.5288
  149MPD2    H3 2325   0.938   2.865  10.577 -1.5751 -0.5500 -0.4411
  149MPD2     N 2326   0.828   2.451  10.409 -0.2337 -0.2270  0.5758
  149MPD2    H5 2327   0.743   2.490  10.370  1.1952  1.8811 -0.3825
  149MPD2    N1 2328   1.225   2.537  10.674  1.1821 -0.2174  0.2071
  149MPD2    H7 2329   1.261   2.448  10.641 -0.0925 -0.5429 -0.2859
  150TMC2    C1 2330   3.540   1.865  12.567  0.2344  0.0978 -0.2623
  150TMC2    C2 2331   3.508   1.977  12.488  0.3938  0.2521  0.2321
  150TMC2    C3 2332   3.614   2.051  12.450 -0.2512  0.3048  0.6211
  150TMC2    C4 2333   3.667   1.833  12.611  0.0160  0.2895  0.1171
  150TMC2    C5 2334   3.765   1.923  12.573 -0.0832  0.5142 -0.2373
  150TMC2    C6 2335   3.738   2.028  12.491  0.3566  0.0542  0.1535
  150TMC2     C 2336   3.438   1.765  12.586  0.9606 -0.6299 -0.5804
  150TMC2     O 2337   3.460   1.679  12.672  0.6786  0.0519 -0.1443
  150TMC2     H 2338   3.407   2.017  12.477 -0.6252 -2.4781 -0.3864
  150TMC2    H1 2339   3.686   1.740  12.662  2.2170  0.6017 -0.1512
  150TMC2    H2 2340   3.819   2.096  12.465  1.2863 -1.1436 -0.0936
  150TMC2    C7 2341   3.908   1.878  12.575 -0.3130  0.4984  0.3286
  150TMC2    C8 2342   3.603   2.162  12.351  0.2676 -0.6437 -0.4636
  150TMC2    O1 2343   3.992   1.925  12.497 -0.4344  0.3538 -0.2472
  150TMC2    O2 2344   3.684   2.254  12.344  0.2951  0.3622 -0.2624
  150TMC2    O5 2345   3.521   2.119  12.250  0.0794 -0.3737 -0.3583
  150TMC2    H5 2346   3.455   2.048  12.264 -0.1930 -0.0929 -0.2073
  151MPD2     C 2347   2.980   1.565  12.506  0.5322  0.4437  0.4309
  151MPD2    C1 2348   2.987   1.673  12.420 -0.5499 -0.5209 -0.1281
  151MPD2    C2 2349   3.109   1.740  12.418 -0.3498  0.0174  0.1613
  151MPD2    C3 2350   3.208   1.703  12.507 -0.2748 -0.9115  0.3417
  151MPD2    C4 2351   3.196   1.591  12.591 -0.9390  0.3341  0.0006
  151MPD2    C5 2352   3.079   1.522  12.584 -0.2066  1.0345  0.9572
  151MPD2     H 2353   3.120   1.830  12.359 -0.3400  0.1006  0.2903
  151MPD2    H1 2354   3.270   1.567  12.666 -0.1767  0.3471 -0.7424
  151MPD2    H2 2355   2.893   1.501  12.495  1.3985 -0.2177 -2.6642
  151MPD2    H3 2356   3.061   1.442  12.654 -1.0343  0.0879 -0.3389
  151MPD2     N 2357   3.329   1.779  12.505 -0.8425 -0.0142  0.2917
  151MPD2    H5 2358   3.339   1.855  12.438 -0.2432 -0.2532  0.1197
  151MPD2    N1 2359   2.878   1.706  12.337  0.1838  0.2144  0.5314
  151MPD2    H7 2360   2.800   1.642  12.323  0.9141 -0.8313  1.2710
  152TMC2    C1 2361   2.876   1.852  12.711 -0.1588  0.1713 -0.4724
  152TMC2    C2 2362   2.872   1.791  12.833  0.8621 -0.0197  0.5486
  152TMC2    C3 2363   2.984   1.808  12.918  0.0754  0.0522  0.6530
  152TMC2    C4 2364   2.983   1.925  12.675 -0.3832  0.2658 -0.6950
  152TMC2    C5 2365   3.096   1.940  12.754 -0.1880 -0.2844  0.0611
  152TMC2    C6 2366   3.095   1.884  12.879 -1.1239 -0.0056  0.2457
  152TMC2     C 2367   2.756   1.896  12.640 -0.0475  0.0312 -0.5274
  152TMC2     O 2368   2.758   2.013  12.603 -0.7741 -0.0734 -0.0377
  152TMC2     H 2369   2.782   1.735  12.854  0.3825 -0.3761 -2.3912
  152TMC2    H1 2370   2.989   1.947  12.569  1.5921 -1.9173 -1.0454
  152TMC2    H2 2371   3.173   1.890  12.955  1.0417 -0.3041 -1.9600
  152TMC2    C7 2372   3.204   2.013  12.701 -0.4601  0.1954 -0.1430
  152TMC2    C8 2373   3.005   1.740  13.044 -0.8683 -0.1657  0.8628
  152TMC2    O1 2374   3.184   2.068  12.595 -0.3964 -0.5328 -0.2125
  152TMC2    O2 2375   3.114   1.730  13.101  0.2215 -0.2087 -0.2312
  152TMC2    O5 2376   2.894   1.667  13.070 -0.1594  0.2449  0.2390
  152TMC2    H5 2377   2.812   1.703  13.031 -0.6897 -0.9871  0.2325
  153MPD2     C 2378   2.512   1.663  12.469  0.5089  0.3308 -0.2718
  153MPD2    C1 2379   2.563   1.791  12.505 -0.2802  0.0539 -0.8768
  153MPD2    C2 2380   2.524   1.909  12.444 -0.2551  0.1147  0.7859
  153MPD2    C3 2381   2.425   1.900  12.346 -0.2170  0.6044  0.7797
  153MPD2    C4 2382   2.376   1.776  12.304 -0.1060 -0.2654 -0.5928
  153MPD2    C5 2383   2.423   1.663  12.366  0.4162 -0.2281  0.3058
  153MPD2     H 2384   2.564   2.003  12.481 -2.1333  0.9035  0.8100
  153MPD2    H1 2385   2.304   1.763  12.225 -0.2834  0.6697 -0.5908
  153MPD2    H2 2386   2.544   1.570  12.515 -0.2876 -0.1464 -0.6888
  153MPD2    H3 2387   2.384   1.564  12.343 -1.7600  0.2203  2.0241
  153MPD2     N 2388   2.383   2.018  12.273  0.4594  0.0230 -0.1827
  153MPD2    H5 2389   2.420   2.106  12.306  0.4215 -0.2467  0.5914
  153MPD2    N1 2390   2.671   1.790  12.603  0.3066  0.6896  0.2445
  153MPD2    H7 2391   2.708   1.702  12.638  0.5525  0.1870 -1.2845
  154TMC2    C1 2392   3.666   1.700   0.842  0.1079  0.4596 -0.1126
  154TMC2    C2 2393   3.804   1.694   0.857 -0.7180 -0.1344  0.0994
  154TMC2    C3 2394   3.880   1.626   0.765 -0.4271 -1.0206 -0.7133
  154TMC2    C4 2395   3.610   1.633   0.734 -0.0031 -0.1782  0.6638
  154TMC2    C5 2396   3.688   1.549   0.660 -0.6646 -0.4899  0.2242
  154TMC2    C6 2397   3.825   1.546   0.668 -0.4729 -0.6519  0.4138
  154TMC2     C 2398   3.587   1.797   0.919 -0.8414  0.6507 -0.2769
  154TMC2     O 2399   3.631   1.832   1.029 -0.2558  0.2026 -0.5545
  154TMC2     H 2400   3.844   1.741   0.946  0.8460 -0.6811 -0.3183
  154TMC2    H1 2401   3.502   1.626   0.727  0.1250 -0.6593 -0.7444
  154TMC2    H2 2402   3.889   1.480   0.610 -2.9403 -2.6355 -0.0765
  154TMC2    C7 2403   3.628   1.447   0.573  0.3007  0.1238  0.1791
  154TMC2    C8 2404   4.029   1.620   0.779 -0.4214 -0.1833 -0.1111
  154TMC2    O1 2405   3.512   1.462   0.548 -0.1332  0.3841  0.0672
  154TMC2    O2 2406   4.095   1.560   0.696  0.5498 -0.3357  0.4297
  154TMC2    O5 2407   4.060   1.609   0.913 -0.6330 -0.1784  0.2082
  154TMC2    H5 2408   3.993   1.643   0.976 -0.4878 -1.9300  1.2908
  155MPD2     C 2409   3.247   1.939   0.832 -0.4425 -0.0747 -0.2725
  155MPD2    C1 2410   3.370   1.927   0.893  0.2220 -0.6139  0.5538
  155MPD2    C2 2411   3.389   2.010   1.005 -0.2876  0.1174  0.4872
  155MPD2    C3 2412   3.303   2.111   1.042  1.2825 -0.8939  0.5572
  155MPD2    C4 2413   3.185   2.129   0.967 -0.0555  0.2536 -0.9141
  155MPD2    C5 2414   3.164   2.048   0.861  0.3204 -0.6678  0.2815
  155MPD2     H 2415   3.488   2.019   1.050 -0.1688  0.0020  0.2508
  155MPD2    H1 2416   3.120   2.214   0.989 -1.8537 -0.8708 -1.8670
  155MPD2    H2 2417   3.226   1.866   0.754  3.5607 -0.2014 -1.2439
  155MPD2    H3 2418   3.077   2.061   0.798  0.1524 -0.7449  0.4956
  155MPD2     N 2419   3.334   2.181   1.159  0.4276  0.8787  0.6470
  155MPD2    H5 2420   3.406   2.148   1.222  0.3396 -0.0881  0.2391
  155MPD2    N1 2421   3.466   1.831   0.855 -0.1308  1.4525  0.5025
  155MPD2    H7 2422   3.450   1.792   0.763 -0.4152  0.6892  0.8710
  156TMC2    C1 2423   3.135   3.837  12.328  0.4547  0.9134  0.3894
  156TMC2    C2 2424   3.193   3.735  12.262 -0.2306  0.3171 -0.2501
  156TMC2    C3 2425   3.235   3.754  12.132 -0.5088  0.7054 -0.0337
  156TMC2    C4 2426   3.130   3.963  12.271 -0.8270 -0.7398  0.5790
  156TMC2    C5 2427   3.162   3.977  12.135  0.4210 -0.3291 -0.9859
  156TMC2    C6 2428   3.220   3.872  12.063 -0.1566 -0.2964  0.1973
  156TMC2     C 2429   3.049   3.806  12.440  0.2312 -0.2492  0.1397
  156TMC2     O 2430   2.969   3.886  12.471  0.4935  0.2727  0.0615
  156TMC2     H 2431   3.184   3.636  12.305  0.5168 -0.2720 -1.4318
  156TMC2    H1 2432   3.089   4.051  12.320  0.8803 -1.6890  3.6970
  156TMC2    H2 2433   3.241   3.881  11.957 -1.4291  0.6171  0.0374
  156TMC2    C7 2434   3.177   4.111  12.086  0.0933 -0.0759  0.0044
  156TMC2    C8 2435   3.289   3.641  12.060 -0.6783  0.3786 -0.2687
  156TMC2    O1 2436   3.099   4.193  12.140  0.6211 -0.1787 -0.2989
  156TMC2    O2 2437   3.260   3.523  12.085 -0.0379  0.0339 -0.0747
  156TMC2    O5 2438   3.374   3.685  11.960  0.1796  0.2951 -0.2351
  156TMC2    H5 2439   3.407   3.777  11.962  1.2209 -0.0651 -1.0533
  157MPD2     C 2440   3.093   3.552  12.717 -0.1617 -0.0023 -0.0295
  157MPD2    C1 2441   3.035   3.656  12.639  0.2307 -0.0004  0.3220
  157MPD2    C2 2442   2.907   3.697  12.675  0.0463 -0.0378  0.4530
  157MPD2    C3 2443   2.844   3.647  12.785 -0.4812 -0.4007 -0.3160
  157MPD2    C4 2444   2.907   3.557  12.873  0.1587 -0.0177 -0.1376
  157MPD2    C5 2445   3.027   3.506  12.833  0.3018  0.0394 -0.1194
  157MPD2     H 2446   2.846   3.762  12.614  1.1448 -0.4492 -1.0998
  157MPD2    H1 2447   2.860   3.510  12.959  0.5322 -0.8384 -0.3745
  157MPD2    H2 2448   3.187   3.503  12.692  0.1891  0.3628  0.5935
  157MPD2    H3 2449   3.080   3.435  12.895  0.2720 -0.0220 -0.1640
  157MPD2     N 2450   2.721   3.706  12.821 -0.0373  0.1240  0.5090
  157MPD2    H5 2451   2.673   3.765  12.754 -0.2428 -0.8873 -0.2346
  157MPD2    N1 2452   3.097   3.704  12.520 -0.1641 -0.0286  0.0198
  157MPD2    H7 2453   3.186   3.660  12.501 -0.4239  0.7832 -3.2046
  158TMC2    C1 2454   3.283   2.651  13.155  0.7842 -0.3325  1.0995
  158TMC2    C2 2455   3.363   2.635  13.053 -0.4632 -0.2816  0.5322
  158TMC2    C3 2456   3.310   2.592  12.938  0.4658 -0.7334 -0.0158
  158TMC2    C4 2457   3.155   2.602  13.153 -0.1770 -0.0565 -0.3284
  158TMC2    C5 2458   3.109   2.554  13.036 -0.0419 -0.8123  0.5604
  158TMC2    C6 2459   3.184   2.550  12.920  0.4953  0.0486  0.1711
  158TMC2     C 2460   3.354   2.635  13.283 -1.3398  0.4155 -0.3593
  158TMC2     O 2461   3.468   2.610  13.287 -0.3208 -0.0658 -0.1771
  158TMC2     H 2462   3.469   2.659  13.047 -0.6120 -0.4115 -2.5413
  158TMC2    H1 2463   3.095   2.591  13.243 -1.9829  1.0268 -1.3925
  158TMC2    H2 2464   3.150   2.509  12.825 -1.3661  0.8538  0.4939
  158TMC2    C7 2465   2.981   2.482  13.022  0.4708 -0.6247 -0.3430
  158TMC2    C8 2466   3.389   2.610  12.816 -0.2495 -0.4299  0.2400
  158TMC2    O1 2467   2.952   2.430  12.916  0.5298 -0.0978 -0.8375
  158TMC2    O2 2468   3.339   2.644  12.712 -0.1769  0.3061 -0.1516
  158TMC2    O5 2469   3.519   2.577  12.838 -0.4893 -0.0328  0.3380
  158TMC2    H5 2470   3.532   2.529  12.923 -0.3693  0.4040  0.5637
  159MPD2     C 2471   3.425   2.705  13.785 -0.3422 -0.2878 -0.5044
  159MPD2    C1 2472   3.310   2.765  13.748 -0.0925  0.1735  0.8660
  159MPD2    C2 2473   3.265   2.767  13.618  0.4382 -0.2474 -0.2431
  159MPD2    C3 2474   3.331   2.694  13.523  0.4347  0.7025 -0.6646
  159MPD2    C4 2475   3.449   2.625  13.562  0.2291 -0.0374 -0.0340
  159MPD2    C5 2476   3.497   2.636  13.691 -0.3821 -0.2467  0.1774
  159MPD2     H 2477   3.181   2.823  13.578  0.9337  0.3895 -0.3960
  159MPD2    H1 2478   3.515   2.565  13.500  1.1013  0.7614  0.1128
  159MPD2    H2 2479   3.464   2.706  13.886  1.3903 -1.4459 -1.1446
  159MPD2    H3 2480   3.590   2.589  13.719 -0.6942  0.8475  3.0929
  159MPD2     N 2481   3.277   2.684  13.391  0.0446  0.2524 -0.1453
  159MPD2    H5 2482   3.183   2.721  13.383 -0.3342 -0.7342 -0.2394
  159MPD2    N1 2483   3.234   2.823  13.854  0.2768  0.2759 -0.7199
  159MPD2    H7 2484   3.281   2.830  13.943  1.0765  1.4990 -1.2418
  160TMC2    C1 2485   2.702   1.133   1.536  0.4366  0.7184  0.7342
  160TMC2    C2 2486   2.657   1.013   1.588 -0.3618 -0.8553 -0.0625
  160TMC2    C3 2487   2.740   0.904   1.571  0.1846  0.2868  0.5396
  160TMC2    C4 2488   2.833   1.147   1.493 -0.9372  0.0588 -0.0924
  160TMC2    C5 2489   2.915   1.034   1.490  0.1435  0.3713 -0.7991
  160TMC2    C6 2490   2.869   0.913   1.537 -0.0922 -0.2551  0.2531
  160TMC2     C 2491   2.617   1.243   1.534  0.1122 -0.1964 -0.1819
  160TMC2     O 2492   2.536   1.253   1.623 -0.1731 -0.0549  0.0017
  160TMC2     H 2493   2.566   1.010   1.646 -0.1631  1.2691  0.3530
  160TMC2    H1 2494   2.865   1.240   1.448  0.4816  0.1069  1.0214
  160TMC2    H2 2495   2.931   0.825   1.538 -0.9638 -0.8723  0.2515
  160TMC2    C7 2496   3.061   1.047   1.464  0.2278 -0.1563 -0.1962
  160TMC2    C8 2497   2.695   0.776   1.612 -0.8270 -0.4148  0.0473
  160TMC2    O1 2498   3.123   0.944   1.435  0.2012  0.9549 -0.1342
  160TMC2    O2 2499   2.763   0.688   1.660 -0.3377 -0.3402  0.4736
  160TMC2    O5 2500   2.573   0.762   1.552  0.3715  0.3853  0.8696
  160TMC2    H5 2501   2.530   0.845   1.522 -0.3844  0.0008  0.8621
  161MPD2     C 2502   2.522   1.524   1.502  0.2703 -0.4012 -0.0535
  161MPD2    C1 2503   2.563   1.436   1.404  0.0532  0.7712 -0.0015
  161MPD2    C2 2504   2.537   1.486   1.278  0.6102 -0.2022 -0.5700
  161MPD2    C3 2505   2.487   1.608   1.246  0.2334 -0.0574 -0.5600
  161MPD2    C4 2506   2.460   1.690   1.352 -1.1008  0.3510  0.2395
  161MPD2    C5 2507   2.482   1.651   1.480  0.0165  0.0513  0.3839
  161MPD2     H 2508   2.546   1.417   1.195 -1.9880  0.6277 -1.5476
  161MPD2    H1 2509   2.418   1.789   1.338  1.5211  1.1169 -2.0620
  161MPD2    H2 2510   2.527   1.496   1.607  0.0334  0.6675  0.2476
  161MPD2    H3 2511   2.466   1.716   1.565 -0.9767  0.2254  0.0551
  161MPD2     N 2512   2.452   1.654   1.114 -0.3188 -0.3825  0.3171
  161MPD2    H5 2513   2.441   1.755   1.104 -1.9333 -0.4778  1.0838
  161MPD2    N1 2514   2.621   1.311   1.419  0.3694 -0.2499  0.2862
  161MPD2    H7 2515   2.661   1.265   1.338 -0.6044  0.2434 -0.4657
  162TMC2    C1 2516   0.557   3.279   0.915 -0.3316 -0.2594  0.3272
  162TMC2    C2 2517   0.465   3.324   1.005  0.2040 -0.5239  0.3484
  162TMC2    C3 2518   0.531   3.390   1.112  0.1897  0.0266  0.0530
  162TMC2    C4 2519   0.691   3.271   0.934  0.3025  0.0938 -0.0646
  162TMC2    C5 2520   0.751   3.349   1.032 -0.6523 -0.7419 -0.3849
  162TMC2    C6 2521   0.668   3.414   1.116  0.1461  0.2411 -0.5129
  162TMC2     C 2522   0.509   3.208   0.800  0.3750  0.0562  0.4357
  162TMC2     O 2523   0.567   3.233   0.695 -0.0750 -0.3664 -0.2241
  162TMC2     H 2524   0.358   3.332   0.989  0.8926 -0.2269 -3.9699
  162TMC2    H1 2525   0.747   3.223   0.854 -1.2300  0.5199 -1.3820
  162TMC2    H2 2526   0.711   3.455   1.207 -3.0222 -0.2126  1.1987
  162TMC2    C7 2527   0.891   3.343   1.065 -0.2898 -0.1103  0.3134
  162TMC2    C8 2528   0.456   3.426   1.233  0.3416 -0.2742  0.1180
  162TMC2    O1 2529   0.934   3.434   1.138 -0.1305 -0.2010 -0.0573
  162TMC2    O2 2530   0.497   3.501   1.320  0.6490  0.7291  0.1592
  162TMC2    O5 2531   0.373   3.323   1.262 -0.0893  0.3069 -1.3107
  162TMC2    H5 2532   0.373   3.248   1.198 -0.9117  0.6193 -1.6676
  163MPD2     C 2533   0.234   2.827   0.620  0.1837 -0.3705  0.5030
  163MPD2    C1 2534   0.359   2.875   0.572 -0.6896  0.5037 -0.1454
  163MPD2    C2 2535   0.413   2.984   0.642  0.5605 -0.4824  0.4164
  163MPD2    C3 2536   0.345   3.031   0.752 -0.0381 -0.2859  0.0890
  163MPD2    C4 2537   0.227   2.981   0.795 -0.0584  1.0323 -0.0851
  163MPD2    C5 2538   0.166   2.883   0.723  0.2838  1.1444  0.7267
  163MPD2     H 2539   0.515   3.015   0.620  0.4486 -1.8093 -1.9034
  163MPD2    H1 2540   0.174   3.041   0.868  1.3955  2.1838  0.0143
  163MPD2    H2 2541   0.193   2.740   0.570 -1.1303 -0.8883  2.5135
  163MPD2    H3 2542   0.075   2.837   0.761  0.9575  1.6045  2.8562
  163MPD2     N 2543   0.410   3.117   0.842 -0.3507 -0.2206 -0.0589
  163MPD2    H5 2544   0.376   3.113   0.937 -2.9700  0.6010 -0.9594
  163MPD2    N1 2545   0.424   2.802   0.471  0.4977  0.1602  0.1865
  163MPD2    H7 2546   0.393   2.708   0.447  0.5647 -0.0350  0.8864
  164TMC2    C1 2547   1.970   1.995  11.038  0.7764  0.1277  0.0512
  164TMC2    C2 2548   1.878   1.894  11.019 -0.0478 -0.0224  0.4160
  164TMC2    C3 2549   1.767   1.899  11.096  0.2194  0.5867 -0.3489
  164TMC2    C4 2550   1.941   2.111  11.107 -1.1439  0.1388 -0.0615
  164TMC2    C5 2551   1.829   2.111  11.171 -1.2382  0.1838  0.2987
  164TMC2    C6 2552   1.738   2.012  11.171 -0.1155  0.5132  0.1692
  164TMC2     C 2553   2.082   1.988  10.951 -0.3473 -0.1263  0.0071
  164TMC2     O 2554   2.132   1.878  10.947  0.1054  0.6632  0.0398
  164TMC2     H 2555   1.900   1.806  10.959  2.8400  0.2838  1.0249
  164TMC2    H1 2556   2.011   2.192  11.095  2.0987 -2.6622 -0.1031
  164TMC2    H2 2557   1.646   2.014  11.228 -0.4008 -1.9371 -0.1924
  164TMC2    C7 2558   1.790   2.240  11.219  0.9225  0.1435 -0.3271
  164TMC2    C8 2559   1.679   1.790  11.101 -0.5717  1.3146 -0.2479
  164TMC2    O1 2560   1.876   2.312  11.262 -0.0476  0.4610 -0.4982
  164TMC2    O2 2561   1.673   1.708  11.011 -0.1151 -0.1582 -0.0832
  164TMC2    O5 2562   1.648   1.768  11.232 -0.5683  0.0503  0.2393
  164TMC2    H5 2563   1.692   1.846  11.272  0.0937  0.8370 -2.0213
  165TMC2    C1 2564   2.875   4.659   1.014  0.4714  0.3048 -0.3519
  165TMC2    C2 2565   2.874   4.631   0.884  0.0423  0.5432 -0.1548
  165TMC2    C3 2566   2.988   4.571   0.833  0.9427 -0.0131  0.4715
  165TMC2    C4 2567   2.983   4.644   1.094  0.3406  0.2584 -0.3781
  165TMC2    C5 2568   3.099   4.601   1.037  0.0524  0.1408  0.0341
  165TMC2    C6 2569   3.099   4.547   0.906 -0.7870 -0.0029 -0.2963
  165TMC2     C 2570   2.768   0.002   1.070 -0.2901  0.5633  0.0905
  165TMC2     O 2571   2.759   0.010   1.188  0.0273  0.7642  0.3014
  165TMC2     H 2572   2.783   4.627   0.824  0.1679 -2.1752 -0.1602
  165TMC2    H1 2573   2.968   4.675   1.197  2.7411  0.1600 -0.0077
  165TMC2    H2 2574   3.184   4.502   0.857  0.3232  0.1019  1.5052
  165TMC2    C7 2575   3.224   4.652   1.106  0.0830 -0.2696 -0.1891
  165TMC2    C8 2576   2.986   4.534   0.698  0.5298  0.4306 -0.7342
  165TMC2    O1 2577   3.203   4.711   1.212 -0.7337  0.2930  0.4310
  165TMC2    O2 2578   2.936   4.601   0.610 -0.0696  0.2963 -0.7096
  165TMC2    O5 2579   3.007   4.404   0.683 -0.2176  0.2469 -0.0627
  165TMC2    H5 2580   3.008   4.359   0.771 -2.7133 -2.2310 -1.3056
  166MPD2     C 2581   2.327   0.253   1.075  0.3432 -0.2697  0.2297
  166MPD2    C1 2582   2.435   0.247   1.167 -0.1963  0.4527  1.4170
  166MPD2    C2 2583   2.555   0.190   1.130 -0.2481  0.2668  0.0518
  166MPD2    C3 2584   2.563   0.120   1.005 -0.7123 -0.4036 -0.1511
  166MPD2    C4 2585   2.456   0.125   0.919  0.2545  0.1999  0.7787
  166MPD2    C5 2586   2.344   0.188   0.958  0.1729  0.4743  0.3368
  166MPD2     H 2587   2.643   0.188   1.195  0.7375 -0.2661 -1.3084
  166MPD2    H1 2588   2.443   0.066   0.829  2.0145 -2.3375  2.2076
  166MPD2    H2 2589   2.238   0.309   1.102  0.4787  0.3212 -0.5419
  166MPD2    H3 2590   2.268   0.198   0.882 -0.5279 -1.1668  0.8169
  166MPD2     N 2591   2.684   0.046   0.974 -0.1965  0.4578 -0.0215
  166MPD2    H5 2592   2.691   0.025   0.875 -0.3612  0.1195  0.0416
  166MPD2    N1 2593   2.419   0.317   1.292  0.7335  0.5881 -0.0495
  166MPD2    H7 2594   2.325   0.346   1.314  0.6867  0.9411 -0.7213
  167TMC2    C1 2595   0.732   2.292  13.033 -0.9157 -0.4687 -0.1365
  167TMC2    C2 2596   0.602   2.287  13.082  0.0178  0.0704  0.2189
  167TMC2    C3 2597   0.555   2.171  13.120  0.1910 -0.4952  0.6149
  167TMC2    C4 2598   0.817   2.179  13.032  1.3935  0.8408  0.9181
  167TMC2    C5 2599   0.763   2.061  13.076  0.1081 -1.3917  0.4573
  167TMC2    C6 2600   0.633   2.062  13.121  0.2020  0.1611  0.0847
  167TMC2     C 2601   0.774   2.408  12.956  0.7823 -0.6032 -0.0146
  167TMC2     O 2602   0.721   2.521  12.976 -0.2120  0.1859 -0.1986
  167TMC2     H 2603   0.539   2.376  13.078 -0.5680 -0.4245 -2.0762
  167TMC2    H1 2604   0.921   2.180  13.001  1.1777  0.9023  0.1805
  167TMC2    H2 2605   0.598   1.963  13.150 -0.0160  0.6711  1.5716
  167TMC2    C7 2606   0.853   1.949  13.094 -0.5204 -0.3687  0.0377
  167TMC2    C8 2607   0.414   2.160  13.096 -0.4954  0.0296 -0.6829
  167TMC2    O1 2608   0.841   1.884  13.198 -0.2098  0.0065  0.4503
  167TMC2    O2 2609   0.356   2.243  13.028  0.0856 -0.0437  0.2488
  167TMC2    O5 2610   0.367   2.035  13.131 -0.1838  0.2979  0.3484
  167TMC2    H5 2611   0.412   1.993  13.208 -0.6734 -0.9126 -0.0334
  168MPD2     C 2612   0.893   2.593  12.752  0.4493  0.0486  0.4916
  168MPD2    C1 2613   0.925   2.456  12.764  0.2492  0.5405  0.0902
  168MPD2    C2 2614   1.017   2.410  12.675 -0.3205 -0.5813 -0.4691
  168MPD2    C3 2615   1.076   2.487  12.577 -0.0364  0.7050  0.2451
  168MPD2    C4 2616   1.035   2.617  12.561  0.5192  0.8240 -0.1400
  168MPD2    C5 2617   0.946   2.667  12.652 -0.0445 -0.0573  1.0060
  168MPD2     H 2618   1.031   2.302  12.672  2.5271 -0.2046 -0.7068
  168MPD2    H1 2619   1.070   2.678  12.479  0.8875  0.2571 -0.4095
  168MPD2    H2 2620   0.818   2.640  12.815 -0.2267  0.1942 -0.4169
  168MPD2    H3 2621   0.917   2.769  12.630 -0.0772 -0.2481  0.1728
  168MPD2     N 2622   1.163   2.437  12.474  0.1804 -0.2128 -0.0822
  168MPD2    H5 2623   1.198   2.510  12.413 -2.0856  0.8049 -0.1603
  168MPD2    N1 2624   0.866   2.376  12.862  0.9951  0.2772 -0.9096
  168MPD2    H7 2625   0.889   2.277  12.854 -0.0545 -0.1840  1.5793
  169MPD1     C 2626   2.836   2.645   8.927  0.5137  0.2052  0.0435
  169MPD1    C1 2627   2.972   2.618   8.933  0.2073 -1.0091  0.5221
  169MPD1    C2 2628   3.016   2.508   9.011 -0.2903 -0.5257 -0.1977
  169MPD1    C3 2629   2.929   2.438   9.091 -0.4119 -0.0820 -0.2813
  169MPD1    C4 2630   2.794   2.473   9.088 -0.0116  0.0737  0.5110
  169MPD1    C5 2631   2.750   2.573   9.009 -0.5794 -0.2020  0.1565
  169MPD1     H 2632   3.122   2.484   9.011 -0.4667 -1.3180 -0.4003
  169MPD1    H1 2633   2.732   2.424   9.162 -0.8633  0.5486  0.1082
  169MPD1    H2 2634   2.796   2.716   8.857 -3.2574 -0.2226  1.7828
  169MPD1    H3 2635   2.648   2.610   9.017 -0.4657  0.3215 -0.7542
  169MPD1     N 2636   2.973   2.337   9.177  0.0962  0.7559  0.2988
  169MPD1    H5 2637   3.073   2.324   9.181 -0.1173 -0.5724  1.1779
  169MPD1    N1 2638   3.054   2.681   8.842  0.1100  0.3853  0.4820
  169MPD1    H6 2639   3.145   2.700   8.881 -1.4749  2.4111  3.1782
  169MPD1    H7 2640   3.018   2.773   8.816 -1.9777 -0.7349 -0.6174
  170MPD1     C 2641   2.268   3.832  13.226 -0.6967 -0.4973  0.2248
  170MPD1    C1 2642   2.325   3.913  13.324  0.5119 -0.2171  0.2199
  170MPD1    C2 2643   2.269   4.036  13.362  0.4477 -0.5162 -0.5136
  170MPD1    C3 2644   2.149   4.068  13.302  0.1879 -0.6346  0.7517
  170MPD1    C4 2645   2.094   3.989  13.211 -0.7348 -0.6321 -0.2744
  170MPD1    C5 2646   2.156   3.877  13.165  0.7621  0.2082  0.0300
  170MPD1     H 2647   2.312   4.101  13.437 -0.9817 -2.2484  1.8205
  170MPD1    H1 2648   1.992   4.005  13.176 -1.1378 -0.2605  1.0906
  170MPD1    H2 2649   2.312   3.745  13.178 -3.5128 -1.4048 -0.7432
  170MPD1    H3 2650   2.131   3.816  13.079 -0.8930  0.9740 -0.0468
  170MPD1     N 2651   2.086   4.193  13.341  0.0347 -0.0635  0.0863
  170MPD1    H5 2652   2.134   4.253  13.407 -0.4405  2.5844 -1.9683
  170MPD1    N1 2653   2.449   3.879  13.373 -0.4806  0.3124 -0.2013
  170MPD1    H6 2654   2.461   3.904  13.471 -0.5187  0.6692 -0.2876
  170MPD1    H7 2655   2.443   3.778  13.387 -0.1337  0.1323 -1.3979
  171MPD1     C 2656   0.719   0.850  15.269 -0.6325  0.2500  0.0390
  171MPD1    C1 2657   0.630   0.918  15.352 -0.3704 -0.5300  0.0757
  171MPD1    C2 2658   0.593   0.846  15.464 -0.2723  0.1252  0.1092
  171MPD1    C3 2659   0.655   0.725  15.495  0.0492  0.2618  0.5780
  171MPD1    C4 2660   0.753   0.674  15.407  0.0570 -0.0732 -0.5378
  171MPD1    C5 2661   0.791   0.743  15.299 -0.5223  0.1852  0.7974
  171MPD1     H 2662   0.506   0.875  15.523 -0.3192 -1.3831  0.7611
  171MPD1    H1 2663   0.814   0.586  15.423 -0.0543  0.2311  1.5564
  171MPD1    H2 2664   0.742   0.912  15.182  0.2068  0.8375  0.6809
  171MPD1    H3 2665   0.864   0.706  15.228 -0.6214  0.7265  0.4152
  171MPD1     N 2666   0.613   0.645  15.603  0.2010 -0.5573  0.2570
  171MPD1    H5 2667   0.641   0.548  15.597  0.6847 -0.4444  0.7001
  171MPD1    N1 2668   0.571   1.040  15.311 -0.1439 -0.7755  0.1501
  171MPD1    H6 2669   0.526   1.086  15.389 -0.3690 -1.2421  0.2924
  171MPD1    H7 2670   0.638   1.102  15.264 -0.8024  1.3783  2.0552
  172MPD1     C 2671   4.143   0.177   1.105  0.5610  0.2842  0.6754
  172MPD1    C1 2672   4.148   0.139   0.971  0.9589  0.0092  0.1114
  172MPD1    C2 2673   4.198   0.230   0.881 -0.4083 -0.8432  0.0117
  172MPD1    C3 2674   4.249   0.357   0.920 -0.7655 -0.1025 -0.3314
  172MPD1    C4 2675   4.243   0.386   1.054 -0.2147  0.3634  0.0807
  172MPD1    C5 2676   4.185   0.303   1.140  0.6114  0.3028 -0.1704
  172MPD1     H 2677   4.196   0.186   0.783  0.5266  0.5295 -0.6226
  172MPD1    H1 2678   4.289   0.478   1.088  0.7214  1.7871 -4.9482
  172MPD1    H2 2679   4.085   0.125   1.180 -0.1609  0.6859  0.3976
  172MPD1    H3 2680   4.169   0.324   1.245  1.5638  2.0099 -0.3791
  172MPD1     N 2681   4.286   0.450   0.829 -0.0712  0.5355 -0.1340
  172MPD1    H5 2682   4.319   0.537   0.870 -0.0860  0.0482  0.9112
  172MPD1    N1 2683   4.088   0.019   0.922  0.1352 -0.4426  0.0832
  172MPD1    H6 2684   4.134   4.724   0.838 -0.1489  1.0773 -0.6840
  172MPD1    H7 2685   4.072   4.680   0.986  2.1554 -0.3676  0.6803
  173MPD1     C 2686   0.170   4.379  14.018  0.1487 -0.4030 -0.4773
  173MPD1    C1 2687   0.221   4.508  14.031 -0.3016 -0.4771 -0.4569
  173MPD1    C2 2688   0.323   4.536  14.128  0.1339 -0.8130  0.1067
  173MPD1    C3 2689   0.380   4.431  14.202 -0.0357  0.9954 -0.1995
  173MPD1    C4 2690   0.344   4.303  14.173  0.2487  0.0636 -0.4602
  173MPD1    C5 2691   0.239   4.284  14.088  0.0219  0.1765 -0.2985
  173MPD1     H 2692   0.350   4.640  14.142  0.5369 -1.1288  1.6076
  173MPD1    H1 2693   0.388   4.215  14.218  2.7319  1.0798 -0.9440
  173MPD1    H2 2694   0.108   4.345  13.936  0.4319  0.0242 -0.8662
  173MPD1    H3 2695   0.202   4.183  14.074 -1.8722  0.9874 -1.1128
  173MPD1     N 2696   0.474   4.461  14.297 -0.2385 -0.2261  0.1035
  173MPD1    H5 2697   0.514   4.554  14.296  1.9872 -1.2102 -1.1529
  173MPD1    N1 2698   0.155   4.614  13.974 -0.2293 -0.7905 -0.2254
  173MPD1    H6 2699   0.115   4.669  14.051 -1.5004 -0.0070 -1.4496
  173MPD1    H7 2700   0.083   4.587  13.908 -2.5431 -1.3962  2.5245
  174MPD1     C 2701   1.268   0.014  14.257 -0.2033  0.1569  0.0571
  174MPD1    C1 2702   1.235   0.072  14.379 -0.8661 -0.1048  0.3051
  174MPD1    C2 2703   1.113   0.033  14.443  0.0079  0.3562 -0.6131
  174MPD1    C3 2704   1.032   4.678  14.383 -0.2311 -0.2173  0.4636
  174MPD1    C4 2705   1.068   4.616  14.268 -0.7872 -0.7711  0.5679
  174MPD1    C5 2706   1.190   4.654  14.206 -0.3269  0.4779 -0.8615
  174MPD1     H 2707   1.099   0.070  14.544  0.9806  1.0313 -0.7211
  174MPD1    H1 2708   1.008   4.536  14.227 -0.2630 -0.6331 -0.4442
  174MPD1    H2 2709   1.357   0.047  14.203 -0.1725  0.6044  0.3770
  174MPD1    H3 2710   1.210   4.594  14.118  0.0708  0.6506 -0.8873
  174MPD1     N 2711   0.919   4.620  14.448 -0.3677  0.1871 -0.3365
  174MPD1    H5 2712   0.870   4.556  14.385  2.0922 -1.3046 -0.7243
  174MPD1    N1 2713   1.336   0.138  14.456 -0.9792  0.4293  0.1886
  174MPD1    H6 2714   1.416   0.181  14.410 -0.8941 -1.0546 -1.0269
  174MPD1    H7 2715   1.295   0.202  14.525 -1.7606  2.1062 -1.8200
  175MPD1     C 2716   3.380   0.767  16.484 -0.4514 -0.2608  0.2051
  175MPD1    C1 2717   3.503   0.830  16.477  0.4949  0.4608 -0.2569
  175MPD1    C2 2718   3.538   0.892  16.595  0.7013 -0.3496 -0.7339
  175MPD1    C3 2719   3.468   0.879  16.718  0.1073 -0.3688 -0.0678
  175MPD1    C4 2720   3.345   0.811  16.718  0.6184 -0.6764 -0.3525
  175MPD1    C5 2721   3.304   0.752  16.600  0.4374  0.8649  0.7015
  175MPD1     H 2722   3.633   0.943  16.595 -0.3508  1.5807  2.7012
  175MPD1    H1 2723   3.283   0.789  16.805 -0.4639 -0.0732 -0.9796
  175MPD1    H2 2724   3.346   0.742  16.384 -1.9299  3.3559 -0.1666
  175MPD1    H3 2725   3.208   0.705  16.584  1.1526  0.1062 -1.4186
  175MPD1     N 2726   3.518   0.933  16.841  0.1937 -0.4553 -0.3065
  175MPD1    H5 2727   3.460   0.931  16.924 -0.2135 -2.8321 -0.6505
  175MPD1    N1 2728   3.561   0.868  16.357  0.0412  0.1809 -0.2020
  175MPD1    H6 2729   3.549   0.795  16.287 -0.0218 -0.4275  0.4358
  175MPD1    H7 2730   3.660   0.886  16.368  0.1187 -1.5186  2.0183
  176MPD1     C 2731   0.710   3.227   0.282  0.5850  0.1661 -0.5992
  176MPD1    C1 2732   0.584   3.233   0.221 -0.0906  0.5236 -0.2291
  176MPD1    C2 2733   0.586   3.295   0.096 -0.1302 -0.0038 -0.6516
  176MPD1    C3 2734   0.691   3.315   0.022  0.6222  0.6904 -0.1037
  176MPD1    C4 2735   0.813   3.275   0.071 -0.1121 -0.2391 -0.2741
  176MPD1    C5 2736   0.820   3.226   0.198  0.3538  0.4980 -0.5819
  176MPD1     H 2737   0.493   3.329   0.051  0.7300  3.6240  0.3157
  176MPD1    H1 2738   0.905   3.280   0.015  0.2610 -0.8214  0.2891
  176MPD1    H2 2739   0.717   3.196   0.386  1.4322  0.4618 -0.5699
  176MPD1    H3 2740   0.920   3.212   0.237  0.2394  0.2740 -0.3749
  176MPD1     N 2741   0.667   3.377  17.648  0.6851  0.0827  0.6452
  176MPD1    H5 2742   0.570   3.401  17.630  1.0533 -1.1872 -3.0991
  176MPD1    N1 2743   0.466   3.219   0.295  0.5602 -0.3149 -0.0784
  176MPD1    H6 2744   0.392   3.199   0.229  2.3018 -2.1494 -1.4782
  176MPD1    H7 2745   0.474   3.132   0.346 -0.9761 -1.1979 -1.3586
  177MPD1     C 2746   4.263   3.297  10.375 -0.2548 -0.6184 -0.8334
  177MPD1    C1 2747   4.176   3.212  10.307 -0.3115 -0.5099  0.1431
  177MPD1    C2 2748   4.075   3.273  10.227  0.4671  0.1146 -0.2897
  177MPD1    C3 2749   4.069   3.410  10.208  0.1873 -0.9249 -0.1176
  177MPD1    C4 2750   4.160   3.491  10.274 -0.3012  0.8565  0.4712
  177MPD1    C5 2751   4.256   3.435  10.357 -0.8030  0.1542  0.5595
  177MPD1     H 2752   4.003   3.205  10.185 -0.9214  1.0970  0.4912
  177MPD1    H1 2753   4.164   3.599  10.264  2.1577  0.6145 -1.0364
  177MPD1    H2 2754   4.342   3.254  10.435  1.3984 -0.4150 -2.8887
  177MPD1    H3 2755   4.315   3.503  10.417  3.2779  0.0253 -3.2630
  177MPD1     N 2756   3.972   3.450  10.120 -0.0359  0.0111 -0.3366
  177MPD1    H5 2757   3.912   3.376  10.086 -0.8518  1.8051 -2.8074
  177MPD1    N1 2758   4.190   3.075  10.314 -0.0093 -0.0706 -0.0311
  177MPD1    H6 2759   4.112   3.015  10.287 -0.4304 -0.2600  1.5572
  177MPD1    H7 2760   4.251   3.039  10.387 -0.3495 -0.4888  0.0481
  178MPD1     C 2761   1.158   3.667   0.076  0.1588  0.7693 -0.0693
  178MPD1    C1 2762   1.232   3.780   0.058  0.1567  0.2232  0.3438
  178MPD1    C2 2763   1.280   3.803  17.686  0.1887 -0.1882 -0.2069
  178MPD1    C3 2764   1.284   3.704  17.590  0.4405 -0.1424  0.4260
  178MPD1    C4 2765   1.210   3.595  17.608 -0.6215 -0.0463  0.1101
  178MPD1    C5 2766   1.145   3.580  17.723  0.3232  0.8568  0.7975
  178MPD1     H 2767   1.330   3.898  17.675 -1.4829  0.5638 -1.4095
  178MPD1    H1 2768   1.212   3.523  17.527 -1.9935  2.1590 -1.8877
  178MPD1    H2 2769   1.110   3.647   0.171 -2.2405  1.9427 -1.0525
  178MPD1    H3 2770   1.087   3.489  17.732  0.4797  0.3489 -3.1376
  178MPD1     N 2771   1.371   3.698  17.477  0.3551  0.1474  0.2444
  178MPD1    H5 2772   1.371   3.614  17.420 -2.5343  0.7556 -0.6885
  178MPD1    N1 2773   1.268   3.870   0.159  0.2396 -0.1141  0.3081
  178MPD1    H6 2774   1.300   3.962   0.130  0.9018 -0.6102 -0.5191
  178MPD1    H7 2775   1.206   3.876   0.240  0.7714  2.6201  0.5172
  179MPD1     C 2776   0.821   2.095  15.522  0.1319 -1.0294  0.3257
  179MPD1    C1 2777   0.840   1.990  15.435 -0.6315 -0.5061  0.1694
  179MPD1    C2 2778   0.880   1.871  15.482  0.2952  0.7573  0.0926
  179MPD1    C3 2779   0.922   1.852  15.616  0.1849  0.4803 -0.3657
  179MPD1    C4 2780   0.923   1.960  15.701  0.1284 -0.0057 -0.6421
  179MPD1    C5 2781   0.867   2.078  15.650 -0.5552  0.2371 -0.3741
  179MPD1     H 2782   0.873   1.790  15.410 -1.1146  0.9399  0.0348
  179MPD1    H1 2783   0.945   1.959  15.807  1.2314 -0.6001 -0.8781
  179MPD1    H2 2784   0.787   2.192  15.487 -1.7725 -1.3259  1.3183
  179MPD1    H3 2785   0.866   2.163  15.717 -0.3591 -1.0282  1.2604
  179MPD1     N 2786   0.964   1.724  15.664  0.2229 -0.7071  0.4952
  179MPD1    H5 2787   0.962   1.711  15.764 -1.1355 -0.8043  0.4523
  179MPD1    N1 2788   0.793   2.009  15.305 -0.0352  0.0902  0.1357
  179MPD1    H6 2789   0.821   2.103  15.278  1.3110 -0.4901 -0.5213
  179MPD1    H7 2790   0.818   1.937  15.237  0.2880  0.2864  0.0459
  180MPD1     C 2791   0.823   3.559  15.241  0.2618 -0.2171 -0.5417
  180MPD1    C1 2792   0.793   3.593  15.111  0.7757  0.1713  0.5062
  180MPD1    C2 2793   0.782   3.488  15.026 -0.9107  0.3652 -0.1560
  180MPD1    C3 2794   0.794   3.355  15.068  0.0199  0.0242 -0.0624
  180MPD1    C4 2795   0.800   3.329  15.204  0.4677  0.8837 -0.4243
  180MPD1    C5 2796   0.817   3.431  15.291  0.1803  0.4548  0.6608
  180MPD1     H 2797   0.765   3.513  14.922  0.7499  0.6002 -0.3709
  180MPD1    H1 2798   0.802   3.231  15.250  0.8547  0.0441 -2.2193
  180MPD1    H2 2799   0.844   3.634  15.316  0.0600  0.4480 -1.1520
  180MPD1    H3 2800   0.850   3.405  15.391  2.5558  1.5358  0.1652
  180MPD1     N 2801   0.794   3.255  14.971  0.3795  0.5839 -0.5754
  180MPD1    H5 2802   0.777   3.291  14.877 -0.1010  2.1532  0.1119
  180MPD1    N1 2803   0.793   3.721  15.055 -0.3000 -0.2803 -0.5097
  180MPD1    H6 2804   0.805   3.797  15.122  1.3655 -0.1877 -0.9182
  180MPD1    H7 2805   0.719   3.737  14.988 -0.7957 -0.7978 -0.0901
  181MPD1     C 2806   3.050   0.314   9.462 -0.0503 -0.4166  0.6492
  181MPD1    C1 2807   2.997   0.390   9.559 -0.5451  0.2052 -0.2457
  181MPD1    C2 2808   3.070   0.404   9.676 -0.5191 -0.7294 -0.2516
  181MPD1    C3 2809   3.194   0.348   9.694  0.1425 -0.1338  0.2949
  181MPD1    C4 2810   3.238   0.259   9.601 -0.3892  0.1621 -0.1576
  181MPD1    C5 2811   3.163   0.237   9.490 -0.2645  0.4813 -0.1131
  181MPD1     H 2812   3.023   0.459   9.757  0.7589 -0.1896  0.1140
  181MPD1    H1 2813   3.326   0.199   9.624 -0.7916 -0.9954 -1.5901
  181MPD1    H2 2814   2.999   0.288   9.370 -1.5089  2.9391  0.4963
  181MPD1    H3 2815   3.205   0.167   9.419 -0.6098  0.6398 -0.4736
  181MPD1     N 2816   3.281   0.380   9.804 -0.2171 -0.6789  0.0824
  181MPD1    H5 2817   3.372   0.335   9.797  0.4748  0.6576  0.5493
  181MPD1    N1 2818   2.863   0.438   9.558 -0.0172 -0.1944 -0.0262
  181MPD1    H6 2819   2.864   0.534   9.589 -0.6070 -0.4619  0.8154
  181MPD1    H7 2820   2.840   0.439   9.459 -1.4895  0.1731  0.3206
  182MPD1     C 2821   3.415   4.211   0.342  0.0280 -0.1145 -0.7026
  182MPD1    C1 2822   3.386   4.079   0.349  0.6827  0.4410  0.0587
  182MPD1    C2 2823   3.268   4.034   0.403 -1.1017  0.1818 -0.5629
  182MPD1    C3 2824   3.180   4.127   0.452 -0.4992 -0.0403 -0.1676
  182MPD1    C4 2825   3.201   4.263   0.433 -0.1860  0.1064  0.1437
  182MPD1    C5 2826   3.319   4.302   0.377  0.2815 -0.4763 -0.8205
  182MPD1     H 2827   3.263   3.926   0.410  3.1876 -0.0836 -1.6072
  182MPD1    H1 2828   3.129   4.342   0.451 -2.5758 -2.3813  1.7506
  182MPD1    H2 2829   3.513   4.239   0.306 -0.4592  2.6256  0.0801
  182MPD1    H3 2830   3.341   4.408   0.365  0.1722 -0.3363  0.2179
  182MPD1     N 2831   3.063   4.099   0.511  0.6534 -0.0004 -0.8882
  182MPD1    H5 2832   2.997   4.175   0.528  1.3216  0.5012 -0.5121
  182MPD1    N1 2833   3.483   3.986   0.309  0.0241 -0.4380  0.5682
  182MPD1    H6 2834   3.441   3.919   0.246  0.1967 -0.8220  0.8579
  182MPD1    H7 2835   3.554   4.033   0.253 -0.2376 -0.5435  0.1528
  183MPD1     C 2836   3.558   0.261   8.764  0.4738 -0.9545 -0.0103
  183MPD1    C1 2837   3.635   0.297   8.870 -0.4156  0.3350 -0.1501
  183MPD1    C2 2838   3.694   0.192   8.944  0.6380 -0.5224 -0.1712
  183MPD1    C3 2839   3.660   0.060   8.920 -1.0908  0.1062 -0.3622
  183MPD1    C4 2840   3.566   0.027   8.825 -0.2535 -0.8376  0.2959
  183MPD1    C5 2841   3.508   0.130   8.748 -0.1740  0.9693  0.2766
  183MPD1     H 2842   3.772   0.218   9.014  0.0339  0.0710  0.2719
  183MPD1    H1 2843   3.519   4.670   8.805 -2.0606  0.0761  0.2249
  183MPD1    H2 2844   3.509   0.332   8.699 -0.2276 -0.7499  0.7314
  183MPD1    H3 2845   3.437   0.107   8.669  1.4248 -2.3519 -0.2333
  183MPD1     N 2846   3.735   4.693   8.978 -0.1981 -0.3350 -0.4010
  183MPD1    H5 2847   3.804   4.725   9.045 -0.0171  0.1018 -0.7989
  183MPD1    N1 2848   3.693   0.426   8.885  0.0780  0.3682  0.3916
  183MPD1    H6 2849   3.732   0.441   8.978 -0.2908  0.6050  0.5085
  183MPD1    H7 2850   3.617   0.493   8.867  0.8057  1.0827 -0.0116
  184MPD1     C 2851   3.035   2.546  10.097  0.4392 -0.3329  0.6305
  184MPD1    C1 2852   3.149   2.610  10.134 -0.7187 -0.1834  0.3986
  184MPD1    C2 2853   3.197   2.716  10.065 -0.0804  0.2463 -0.1068
  184MPD1    C3 2854   3.143   2.751   9.941  0.0181 -0.6701  1.1392
  184MPD1    C4 2855   3.037   2.682   9.899 -0.6267  0.1579 -0.2349
  184MPD1    C5 2856   2.987   2.580   9.973  0.1469  0.5049  0.2929
  184MPD1     H 2857   3.276   2.771  10.114  0.1570  0.7073 -1.0155
  184MPD1    H1 2858   2.982   2.703   9.807 -0.6843 -1.5850 -0.5850
  184MPD1    H2 2859   2.980   2.471  10.153 -2.3232  1.7878  0.7600
  184MPD1    H3 2860   2.896   2.532   9.939  1.0037 -2.8084  2.6608
  184MPD1     N 2861   3.189   2.863   9.872 -0.9162  0.9337 -0.2850
  184MPD1    H5 2862   3.128   2.882   9.793 -1.0925  0.4662 -0.2649
  184MPD1    N1 2863   3.204   2.572  10.259  0.2217 -0.3951 -0.3177
  184MPD1    H6 2864   3.167   2.478  10.275  1.1142 -0.6633  0.1856
  184MPD1    H7 2865   3.306   2.566  10.260  0.2855  0.4782 -1.6084
  185MPD1     C 2866   3.009   2.996   9.062  0.6578  0.1677  0.5393
  185MPD1    C1 2867   3.032   3.127   9.099 -0.7529 -0.3846  0.3238
  185MPD1    C2 2868   3.104   3.143   9.214  0.7704  0.9714 -0.4142
  185MPD1    C3 2869   3.141   3.044   9.301 -0.5169 -0.0563 -0.7658
  185MPD1    C4 2870   3.099   2.914   9.268  0.6356 -0.2378  0.1221
  185MPD1    C5 2871   3.040   2.891   9.149  0.1661 -0.1723  0.6611
  185MPD1     H 2872   3.120   3.248   9.238  0.0632  0.9395  0.1932
  185MPD1    H1 2873   3.125   2.832   9.334 -0.0876 -0.3293  0.3024
  185MPD1    H2 2874   2.970   2.978   8.963  0.2306  0.7251  0.6102
  185MPD1    H3 2875   3.021   2.792   9.109  0.1367  0.5698 -1.1818
  185MPD1     N 2876   3.210   3.064   9.426 -0.2771 -0.2027  0.1128
  185MPD1    H5 2877   3.210   2.987   9.493 -2.6208 -1.0224 -0.8359
  185MPD1    N1 2878   3.012   3.229   9.006 -0.5386 -0.2912  0.7493
  185MPD1    H6 2879   3.007   3.323   9.043  0.2105  0.8025 -1.9039
  185MPD1    H7 2880   2.931   3.216   8.945  1.1530 -2.2403 -1.1267
  186MPD1     C 2881   2.002   1.692  15.767  0.0398 -0.2183 -0.1212
  186MPD1    C1 2882   1.965   1.671  15.893 -1.0994  0.2016  0.1364
  186MPD1    C2 2883   1.924   1.779  15.967  0.6143  0.5145  0.6443
  186MPD1    C3 2884   1.938   1.899  15.915 -0.3331  0.0463 -0.4334
  186MPD1    C4 2885   1.951   1.913  15.777  0.7211 -1.4986 -0.1781
  186MPD1    C5 2886   1.983   1.806  15.706 -0.1841 -0.7534 -0.3328
  186MPD1     H 2887   1.905   1.775  16.074  1.8346 -0.5895  0.8220
  186MPD1    H1 2888   1.973   2.010  15.733  2.6438 -0.6347  2.7249
  186MPD1    H2 2889   2.037   1.612  15.702 -0.8165 -0.4835 -0.2490
  186MPD1    H3 2890   2.003   1.814  15.599  1.5110  0.1622  0.0512
  186MPD1     N 2891   1.916   2.018  15.978 -0.3140  0.0183 -0.1680
  186MPD1    H5 2892   1.959   2.101  15.939  1.8866 -0.0391  2.0984
  186MPD1    N1 2893   1.950   1.546  15.950 -0.4161 -1.0501  0.5804
  186MPD1    H6 2894   2.017   1.482  15.907  2.5807  1.9309  0.8482
  186MPD1    H7 2895   1.984   1.554  16.046  1.2058 -1.8609  0.0641
  187MPD1     C 2896   0.280   4.587   0.297 -0.6878  0.4763 -0.2337
  187MPD1    C1 2897   0.262   4.471   0.217 -0.4239 -0.1704 -0.1002
  187MPD1    C2 2898   0.324   4.474   0.094  0.0826 -0.1232  0.0642
  187MPD1    C3 2899   0.409   4.576   0.055  0.5672 -0.4626 -0.1314
  187MPD1    C4 2900   0.427   4.683   0.137 -0.0184  0.5090  1.0296
  187MPD1    C5 2901   0.359   4.689   0.255  0.2969 -0.2982  0.1983
  187MPD1     H 2902   0.306   4.396   0.020 -0.1131 -0.3749  0.3731
  187MPD1    H1 2903   0.485   0.029   0.104 -0.3085 -0.3596 -1.7026
  187MPD1    H2 2904   0.227   4.590   0.391  0.9027  0.6150  0.6585
  187MPD1    H3 2905   0.367   0.038   0.318  0.1885 -0.0429 -0.1397
  187MPD1     N 2906   0.495   4.575  17.693  0.4561  0.4755  0.2150
  187MPD1    H5 2907   0.548   4.658  17.670  0.1390  0.7555  0.4900
  187MPD1    N1 2908   0.180   4.370   0.266 -0.2358  0.5763  0.7683
  187MPD1    H6 2909   0.126   4.409   0.343 -1.7061 -0.1551  0.1295
  187MPD1    H7 2910   0.123   4.316   0.201 -1.3454 -1.2883  3.2817
  188MPD1     C 2911   1.523   4.194  10.541  0.0759  0.6121  0.3416
  188MPD1    C1 2912   1.474   4.199  10.413  0.4436  0.1224  0.3443
  188MPD1    C2 2913   1.369   4.108  10.382 -0.3237  0.5853  0.4976
  188MPD1    C3 2914   1.340   3.998  10.467  0.1126  0.8093 -0.8080
  188MPD1    C4 2915   1.410   3.992  10.587 -0.0003  0.0872 -0.1476
  188MPD1    C5 2916   1.492   4.097  10.623 -0.3187  0.2544 -0.1560
  188MPD1     H 2917   1.315   4.117  10.288  0.2173  0.7086  0.1944
  188MPD1    H1 2918   1.394   3.920  10.666  0.8312  0.0067 -0.0511
  188MPD1    H2 2919   1.601   4.260  10.578 -1.2614  2.5374 -0.2815
  188MPD1    H3 2920   1.545   4.110  10.717  0.0946  0.0675 -0.3637
  188MPD1     N 2921   1.265   3.882  10.431 -0.2189 -0.0625 -0.3527
  188MPD1    H5 2922   1.235   3.818  10.503  1.9212 -1.1303 -0.4004
  188MPD1    N1 2923   1.497   4.312  10.332  0.3877 -0.0710  0.8789
  188MPD1    H6 2924   1.584   4.363  10.348  0.7182  0.3795 -2.4422
  188MPD1    H7 2925   1.469   4.296  10.236  1.1022 -0.6560  0.7671
  189MPD1     C 2926   2.259   0.166   0.541  0.1190  0.0750  0.5681
  189MPD1    C1 2927   2.156   0.154   0.455  0.1453 -0.8563  0.0527
  189MPD1    C2 2928   2.075   0.270   0.441  0.4135 -0.6609 -0.2232
  189MPD1    C3 2929   2.114   0.387   0.503  0.5006  0.3928 -0.0950
  189MPD1    C4 2930   2.218   0.391   0.589 -0.0960  0.3567 -0.2892
  189MPD1    C5 2931   2.298   0.281   0.601 -0.1013  0.8660 -0.2477
  189MPD1     H 2932   1.986   0.262   0.380  1.5692 -1.0883 -1.8606
  189MPD1    H1 2933   2.250   0.471   0.655 -1.1940  0.8411 -0.3383
  189MPD1    H2 2934   2.322   0.081   0.564 -1.2634 -1.7924 -2.6023
  189MPD1    H3 2935   2.367   0.281   0.684 -2.4908 -0.9963  1.7485
  189MPD1     N 2936   2.025   0.492   0.490  0.1817  0.6530 -0.2240
  189MPD1    H5 2937   1.962   0.477   0.412 -0.9556  0.0333  0.8134
  189MPD1    N1 2938   2.111   0.032   0.407 -0.6240  0.0587  0.4844
  189MPD1    H6 2939   2.062   0.054   0.321  1.5874  2.5299 -0.1765
  189MPD1    H7 2940   2.187   4.715   0.369 -0.9368  0.3040 -0.4969
  190MPD1     C 2941   1.203   3.372  15.004  0.0459 -0.3019 -0.3485
  190MPD1    C1 2942   1.317   3.453  15.006  0.4695 -0.6641  0.0901
  190MPD1    C2 2943   1.421   3.424  15.089 -0.5788 -0.0058 -0.1399
  190MPD1    C3 2944   1.403   3.327  15.190 -0.4291 -1.0302  0.0464
  190MPD1    C4 2945   1.290   3.251  15.201 -0.1016 -0.0508 -0.0499
  190MPD1    C5 2946   1.190   3.281  15.120 -0.0727 -0.6306 -0.5669
  190MPD1     H 2947   1.514   3.478  15.076 -1.5061  1.9042  1.0834
  190MPD1    H1 2948   1.263   3.183  15.281 -1.3957 -1.1681 -1.4654
  190MPD1    H2 2949   1.121   3.394  14.936 -0.0078  2.7233  0.7248
  190MPD1    H3 2950   1.093   3.234  15.123 -1.0092  1.2069 -1.7036
  190MPD1     N 2951   1.503   3.316  15.282 -0.1931 -0.3632 -0.0856
  190MPD1    H5 2952   1.594   3.360  15.270  0.3793 -1.1468  1.3940
  190MPD1    N1 2953   1.340   3.550  14.908  0.1336 -0.2006  0.7618
  190MPD1    H6 2954   1.254   3.569  14.858  0.3155  2.3056  1.3782
  190MPD1    H7 2955   1.378   3.633  14.954 -0.1382  0.2975  0.0845
  191MPD1     C 2956   0.532   0.618  12.796 -0.9624 -0.1771  0.4170
  191MPD1    C1 2957   0.575   0.516  12.714 -0.3384 -0.0820 -0.7480
  191MPD1    C2 2958   0.647   0.545  12.596 -0.6757 -0.2030  0.3199
  191MPD1    C3 2959   0.699   0.677  12.579  0.2604 -0.1078  0.3819
  191MPD1    C4 2960   0.669   0.768  12.680  0.7008  0.1294 -1.0813
  191MPD1    C5 2961   0.581   0.737  12.782 -0.8475 -0.0376 -0.2041
  191MPD1     H 2962   0.667   0.468  12.522 -2.8131  0.1875 -0.6557
  191MPD1    H1 2963   0.715   0.866  12.681 -1.7926  1.3025 -1.5280
  191MPD1    H2 2964   0.463   0.607  12.878 -0.8267  1.2654  0.7287
  191MPD1    H3 2965   0.566   0.814  12.857  2.0212 -0.1655  0.5133
  191MPD1     N 2966   0.767   0.716  12.460 -0.0636 -0.3137 -0.1406
  191MPD1    H5 2967   0.766   0.659  12.376  1.4756 -2.9180  1.6253
  191MPD1    N1 2968   0.512   0.390  12.728  0.4746  0.1583 -0.2746
  191MPD1    H6 2969   0.560   0.309  12.688 -0.3029 -0.4525  0.0130
  191MPD1    H7 2970   0.497   0.366  12.826 -1.7017 -1.0329 -0.9083
  192MPD1     C 2971   0.462   0.319  11.838  0.0920 -0.0180  0.1484
  192MPD1    C1 2972   0.471   0.313  11.972 -0.2968  0.5122 -0.1778
  192MPD1    C2 2973   0.562   0.400  12.034  0.1000 -0.3014  0.0020
  192MPD1    C3 2974   0.637   0.487  11.959 -0.6010 -0.7309 -0.0540
  192MPD1    C4 2975   0.619   0.500  11.820 -0.4869  0.1949  0.4646
  192MPD1    C5 2976   0.532   0.410  11.761  0.3507  0.3006 -0.4655
  192MPD1     H 2977   0.571   0.398  12.142 -0.1677 -1.8989 -0.0095
  192MPD1    H1 2978   0.681   0.557  11.753 -0.7002 -0.2307 -0.1004
  192MPD1    H2 2979   0.398   0.243  11.794  0.7892 -0.7661  0.4332
  192MPD1    H3 2980   0.520   0.426  11.655 -0.8514 -0.7857 -0.5000
  192MPD1     N 2981   0.724   0.570  12.032 -0.3447 -0.0786 -0.0561
  192MPD1    H5 2982   0.740   0.549  12.130  1.2596  0.1861 -0.2787
  192MPD1    N1 2983   0.388   0.229  12.046  0.3068  0.4198 -0.1200
  192MPD1    H6 2984   0.355   0.148  11.993  2.8094 -0.0354 -1.0012
  192MPD1    H7 2985   0.424   0.196  12.135 -1.6857 -0.2448  0.4528
  193MPD1     C 2986   4.581   0.405  17.345  0.5983  0.1256 -0.2770
  193MPD1    C1 2987   4.529   0.484  17.251 -0.4096  0.2683 -0.2818
  193MPD1    C2 2988   4.624   0.555  17.176 -0.3902 -0.0242  0.3392
  193MPD1    C3 2989   0.025   0.537  17.188 -0.0300 -0.1876  0.5648
  193MPD1    C4 2990   0.067   0.444  17.283 -0.9286  0.0657  0.2522
  193MPD1    C5 2991   4.719   0.383  17.361  0.0018 -0.2795 -0.1663
  193MPD1     H 2992   4.589   0.626  17.102 -1.8725 -1.3881 -0.2438
  193MPD1    H1 2993   0.173   0.423  17.296 -1.3512 -1.8660  0.6366
  193MPD1    H2 2994   4.516   0.348  17.411  1.0406  1.5666  1.3833
  193MPD1    H3 2995   0.019   0.322  17.442  1.2610  0.0908 -0.5016
  193MPD1     N 2996   0.116   0.602  17.103  0.1954 -0.3947 -0.2782
  193MPD1    H5 2997   0.215   0.584  17.117  0.3676  0.3661 -0.5181
  193MPD1    N1 2998   4.393   0.516  17.253 -0.0301 -0.1217 -0.1111
  193MPD1    H6 2999   4.343   0.432  17.280 -1.8575  0.9168 -0.3111
  193MPD1    H7 3000   4.374   0.547  17.158  0.3561  0.2618 -0.0658
  194MPD1     C 3001   2.178   3.035  17.182  0.4099  0.2063 -0.1772
  194MPD1    C1 3002   2.117   3.057  17.303  0.2501  0.4232 -0.1814
  194MPD1    C2 3003   2.152   2.971  17.408  0.8015  0.9967 -1.0101
  194MPD1    C3 3004   2.258   2.885  17.398 -1.2489  0.6912  0.2008
  194MPD1    C4 3005   2.324   2.871  17.279 -0.4379 -0.0637  0.4584
  194MPD1    C5 3006   2.279   2.941  17.172  0.2783  0.8372  0.1422
  194MPD1     H 3007   2.097   2.991  17.500  2.0530 -0.5698  0.0980
  194MPD1    H1 3008   2.408   2.804  17.265 -0.3669  0.2036 -0.3854
  194MPD1    H2 3009   2.145   3.103  17.104 -2.6766  0.0154  0.9566
  194MPD1    H3 3010   2.333   2.927  17.079 -1.3472  1.0388 -0.8355
  194MPD1     N 3011   2.303   2.809  17.510 -0.3013 -0.1636  0.7586
  194MPD1    H5 3012   2.381   2.749  17.486 -1.1824 -0.8943 -0.3237
  194MPD1    N1 3013   1.993   3.129  17.305 -0.1168  0.6046 -0.0554
  194MPD1    H6 3014   1.989   3.208  17.241  1.0823 -0.2266 -1.1582
  194MPD1    H7 3015   1.983   3.163  17.400 -0.4095 -1.4020  0.6293
  195MPD1     C 3016   0.354   0.323  17.504 -0.1299  0.3557 -0.0052
  195MPD1    C1 3017   0.413   0.220  17.444 -0.4977  0.3562  0.4750
  195MPD1    C2 3018   0.355   0.094  17.459 -0.3965 -0.3574 -0.3085
  195MPD1    C3 3019   0.251   0.074  17.549  0.7776  0.1314  0.3172
  195MPD1    C4 3020   0.197   0.184  17.617 -0.2261 -0.0916  0.2744
  195MPD1    C5 3021   0.250   0.310  17.599  0.0554  0.5362 -0.7084
  195MPD1     H 3022   0.392   0.011  17.400 -0.8712 -0.6258 -0.2242
  195MPD1    H1 3023   0.117   0.164  17.687  0.1416  1.7982  1.2361
  195MPD1    H2 3024   0.401   0.419  17.484  1.9661 -0.5591  0.5840
  195MPD1    H3 3025   0.200   0.391  17.651  2.0584  2.3824 -1.6329
  195MPD1     N 3026   0.184   4.689  17.573  0.3176 -0.0272  0.0381
  195MPD1    H5 3027   0.110   4.687  17.643 -0.4704  0.3216 -0.7885
  195MPD1    N1 3028   0.517   0.242  17.351 -0.3242 -0.3167  0.3770
  195MPD1    H6 3029   0.579   0.319  17.376  0.2577 -0.4130 -0.7264
  195MPD1    H7 3030   0.585   0.166  17.350  0.9581  0.8750 -2.1376
  196MPD1     C 3031   4.135   4.635  17.591 -0.0661  0.2461 -0.7418
  196MPD1    C1 3032   4.259   4.683  17.617 -0.7747  0.1922  0.6078
  196MPD1    C2 3033   4.322   4.656  17.738 -0.3870  0.7870  0.3828
  196MPD1    C3 3034   4.263   4.573   0.079  0.2166 -0.2120  0.4177
  196MPD1    C4 3035   4.141   4.522   0.049 -0.6170  0.2067  0.2130
  196MPD1    C5 3036   4.087   4.543  17.678 -0.0749  0.3077  1.3614
  196MPD1     H 3037   4.427   4.684  17.739 -0.6763  1.8745 -0.4905
  196MPD1    H1 3038   4.088   4.454   0.114  0.6713  1.3871  2.4603
  196MPD1    H2 3039   4.091   4.674  17.500 -1.5735  0.6316  0.1636
  196MPD1    H3 3040   3.992   4.492  17.661 -0.4912  0.8011  2.2437
  196MPD1     N 3041   4.326   4.534   0.204 -0.2452  0.2013 -0.5492
  196MPD1    H5 3042   4.272   4.473   0.265 -0.6241  1.3038  0.2280
  196MPD1    N1 3043   4.326   0.021  17.520 -0.1436 -0.9020  0.2208
  196MPD1    H6 3044   4.425   0.038  17.533  0.2219 -2.5584 -0.4939
  196MPD1    H7 3045   4.305   0.006  17.422  0.5076 -2.6036  0.3414
  197MPD1     C 3046   3.017   1.804  17.094  0.0675 -0.4991  0.0390
  197MPD1    C1 3047   3.089   1.883  17.174  0.5534  0.4493  0.0618
  197MPD1    C2 3048   3.228   1.886  17.149 -0.0908 -0.8022  0.7871
  197MPD1    C3 3049   3.290   1.790  17.065 -0.8087  0.8920 -1.2881
  197MPD1    C4 3050   3.211   1.701  16.995  0.4842 -0.5527  0.1586
  197MPD1    C5 3051   3.074   1.712  17.013  0.2669 -0.0972  0.4846
  197MPD1     H 3052   3.282   1.962  17.203  0.4551 -0.5180 -0.1582
  197MPD1    H1 3053   3.253   1.635  16.921 -0.3223 -1.3505  0.4075
  197MPD1    H2 3054   2.910   1.807  17.108 -0.1150 -0.7624 -1.3621
  197MPD1    H3 3055   3.015   1.637  16.962  1.9243 -2.2253  1.7019
  197MPD1     N 3056   3.433   1.777  17.043  0.1039 -0.2982  0.1189
  197MPD1    H5 3057   3.475   1.706  16.986 -0.3760 -0.9666  0.5981
  197MPD1    N1 3058   3.033   1.974  17.262  0.2421  0.2864 -0.2833
  197MPD1    H6 3059   2.941   1.935  17.281  1.6870 -2.1745  1.6436
  197MPD1    H7 3060   3.079   1.994  17.351  1.3351  2.5983 -1.3581
  198MPD1     C 3061   1.224   4.102  15.037  0.1199 -0.3646 -0.0218
  198MPD1    C1 3062   1.322   4.201  15.056 -0.5532  0.2421 -0.6059
  198MPD1    C2 3063   1.306   4.291  15.159  0.2561 -0.3386 -0.2218
  198MPD1    C3 3064   1.204   4.278  15.244  0.8588  0.7982 -0.6590
  198MPD1    C4 3065   1.103   4.184  15.226 -0.5384  0.2006  0.5083
  198MPD1    C5 3066   1.114   4.102  15.122 -0.1349  0.2003 -0.8591
  198MPD1     H 3067   1.381   4.364  15.187 -1.3182  0.8098  1.0130
  198MPD1    H1 3068   1.022   4.162  15.295 -0.9508  1.2171  0.3403
  198MPD1    H2 3069   1.225   4.030  14.956 -2.8776 -1.2811  0.7392
  198MPD1    H3 3070   1.035   4.028  15.118 -1.2768  1.2460  2.2087
  198MPD1     N 3071   1.209   4.365  15.367  0.0120  0.5724  0.1970
  198MPD1    H5 3072   1.291   4.423  15.380  0.3908 -0.3977  2.2083
  198MPD1    N1 3073   1.424   4.223  14.954  0.2890 -0.0517 -0.3097
  198MPD1    H6 3074   1.440   4.136  14.904 -0.1466 -0.2424 -0.1117
  198MPD1    H7 3075   1.512   4.266  14.984 -0.4427 -1.7776  4.2713
  199MPD1     C 3076   3.671   0.584   9.558  0.2529  0.8702  0.1518
  199MPD1    C1 3077   3.720   0.681   9.644 -1.4129  1.1905  0.2161
  199MPD1    C2 3078   3.624   0.766   9.691 -0.8145 -0.5361  0.1663
  199MPD1    C3 3079   3.488   0.740   9.686  0.4206  0.6983 -0.5156
  199MPD1    C4 3080   3.443   0.628   9.622 -0.3060 -0.1495  0.1516
  199MPD1    C5 3081   3.537   0.558   9.551  0.0806 -0.0988  0.4498
  199MPD1     H 3082   3.658   0.856   9.742 -1.0045  0.5241 -1.5746
  199MPD1    H1 3083   3.336   0.613   9.614 -0.7150  2.5610  0.5129
  199MPD1    H2 3084   3.741   0.521   9.503 -1.4931 -1.1636  0.2750
  199MPD1    H3 3085   3.506   0.475   9.489  1.5495 -1.1062  1.0524
  199MPD1     N 3086   3.384   0.831   9.730  0.4395  0.4498  0.1123
  199MPD1    H5 3087   3.287   0.812   9.712  0.7344  1.2247 -2.2358
  199MPD1    N1 3088   3.859   0.704   9.653  0.1406 -0.3677  0.1892
  199MPD1    H6 3089   3.889   0.749   9.739  1.3100  0.4331 -0.6452
  199MPD1    H7 3090   3.913   0.619   9.645  1.0995  0.2249  0.4080
  200MPD1     C 3091   2.733   1.060  15.761 -0.2998  0.4012 -0.1111
  200MPD1    C1 3092   2.808   1.176  15.745 -0.6312  0.5568 -0.0606
  200MPD1    C2 3093   2.741   1.271  15.669 -0.1233 -0.4163  0.6499
  200MPD1    C3 3094   2.630   1.240  15.592 -0.5248  1.1966 -0.4353
  200MPD1    C4 3095   2.554   1.125  15.612 -0.0252  0.1189 -0.5924
  200MPD1    C5 3096   2.611   1.038  15.703 -0.7351  1.1467  0.0653
  200MPD1     H 3097   2.779   1.372  15.670 -2.5211  0.5005 -0.9721
  200MPD1    H1 3098   2.465   1.092  15.560 -0.6898  1.1663 -0.1020
  200MPD1    H2 3099   2.751   0.997  15.847 -0.3101 -0.6777 -0.9024
  200MPD1    H3 3100   2.556   0.955  15.745 -0.9109  0.8708 -0.7049
  200MPD1     N 3101   2.589   1.338  15.494  0.2810  0.2968 -0.6579
  200MPD1    H5 3102   2.640   1.425  15.482 -0.1420  1.0541  2.8781
  200MPD1    N1 3103   2.906   1.207  15.834 -1.1083  0.0734 -0.0326
  200MPD1    H6 3104   2.967   1.128  15.854 -0.7757  0.1058 -0.9317
  200MPD1    H7 3105   2.967   1.288  15.828 -1.6744  0.5544  0.8174
  201MPD1     C 3106   0.257   0.147  12.933 -0.5207 -0.2740  0.1257
  201MPD1    C1 3107   0.277   0.081  13.052 -0.0590 -0.0641 -0.5619
  201MPD1    C2 3108   0.202   4.705  13.074 -0.4526  0.0017 -0.1570
  201MPD1    C3 3109   0.111   4.652  12.979 -0.3842  0.2232 -0.0582
  201MPD1    C4 3110   0.101   4.715  12.859  0.2927 -1.1187  0.3326
  201MPD1    C5 3111   0.174   0.095  12.838  0.6963  0.5144  0.0267
  201MPD1     H 3112   0.234   4.651  13.162 -0.9964  2.5914  1.6524
  201MPD1    H1 3113   0.044   4.675  12.776 -0.8566 -0.5714  0.8549
  201MPD1    H2 3114   0.312   0.235  12.901 -0.8925  0.2464  0.9070
  201MPD1    H3 3115   0.172   0.136  12.737  2.0944  0.1178 -0.1748
  201MPD1     N 3116   0.045   4.532  13.020 -0.6504  0.4370  0.7624
  201MPD1    H5 3117   0.086   4.493  13.104  0.0040  0.8792  0.6488
  201MPD1    N1 3118   0.378   0.126  13.128 -0.0225  0.2922  0.2133
  201MPD1    H6 3119   0.359   0.113  13.227 -2.8155 -0.2929 -0.3918
  201MPD1    H7 3120   0.389   0.224  13.101 -0.0834  0.1146 -0.4534
  202MPD1     C 3121   4.336   3.252   9.354 -0.0332 -0.7018  0.0772
  202MPD1    C1 3122   4.385   3.357   9.280  0.2417 -0.0948 -0.3408
  202MPD1    C2 3123   4.395   3.477   9.352 -0.0191  0.3285  0.4954
  202MPD1    C3 3124   4.421   3.472   9.486 -0.1131 -0.0816 -0.1886
  202MPD1    C4 3125   4.385   3.357   9.560  0.3882  0.3213 -0.2225
  202MPD1    C5 3126   4.332   3.254   9.489 -0.2038  0.1146  0.2498
  202MPD1     H 3127   4.414   3.570   9.300 -0.0025  0.2330  0.3327
  202MPD1    H1 3128   4.394   3.346   9.667  1.3481 -0.9010 -0.4356
  202MPD1    H2 3129   4.319   3.158   9.303 -1.0071  0.2812 -1.4179
  202MPD1    H3 3130   4.303   3.170   9.552  2.6059 -2.1085 -1.4439
  202MPD1     N 3131   4.485   3.576   9.560 -0.1552  0.2639  0.6564
  202MPD1    H5 3132   4.505   3.561   9.659  1.1672 -0.9569  0.2056
  202MPD1    N1 3133   4.349   3.357   9.140  0.1960 -0.3227  0.5393
  202MPD1    H6 3134   4.357   3.266   9.094 -0.2711 -0.7208  1.2415
  202MPD1    H7 3135   4.402   3.430   9.094 -0.5186 -0.7010 -0.8972
  203MPD1     C 3136   3.350   0.549  12.013 -0.0565 -0.4044  0.7221
  203MPD1    C1 3137   3.291   0.521  12.129 -0.7989 -0.9657 -0.0204
  203MPD1    C2 3138   3.359   0.423  12.210  0.5673  0.0579  0.8378
  203MPD1    C3 3139   3.449   0.339  12.160  0.1918 -0.6341 -0.4740
  203MPD1    C4 3140   3.488   0.358  12.030  0.4093  0.0856 -0.0417
  203MPD1    C5 3141   3.430   0.459  11.958  0.4418  0.0468  0.3369
  203MPD1     H 3142   3.320   0.421  12.311  1.0750  0.1377  1.0381
  203MPD1    H1 3143   3.559   0.298  11.974 -1.3293 -1.3087 -0.7181
  203MPD1    H2 3144   3.314   0.638  11.962 -1.5778 -0.4177  1.7548
  203MPD1    H3 3145   3.464   0.484  11.858  0.7881 -0.0381  0.4346
  203MPD1     N 3146   3.484   0.233  12.243 -0.0543 -0.5324  0.0174
  203MPD1    H5 3147   3.441   0.227  12.334 -2.3151  0.7123 -0.9675
  203MPD1    N1 3148   3.203   0.619  12.191 -0.1860 -0.8388  0.1709
  203MPD1    H6 3149   3.145   0.581  12.266 -2.0507 -0.0575 -0.8718
  203MPD1    H7 3150   3.144   0.652  12.115 -0.5879 -0.1651  0.7738
  204MPD1     C 3151   2.194   1.237  17.522  0.0035 -0.9215 -0.2955
  204MPD1    C1 3152   2.304   1.213  17.444  0.7492 -0.8371 -0.5310
  204MPD1    C2 3153   2.386   1.115  17.489  0.7429  0.2872 -0.0543
  204MPD1    C3 3154   2.366   1.052  17.612 -0.0434 -0.7016 -0.1850
  204MPD1    C4 3155   2.261   1.077  17.690 -0.2433  0.5267 -0.4457
  204MPD1    C5 3156   2.177   1.175  17.647 -0.0773 -0.2666 -0.0318
  204MPD1     H 3157   2.473   1.087  17.430  0.7131 -0.9093  0.4615
  204MPD1    H1 3158   2.254   1.027   0.033 -1.4459 -0.7307 -1.1816
  204MPD1    H2 3159   2.110   1.301  17.497  1.0060  0.2393 -0.7143
  204MPD1    H3 3160   2.085   1.190  17.703  1.5758  1.0005  2.3373
  204MPD1     N 3161   2.474   0.969  17.641 -0.2538  0.1536  0.1915
  204MPD1    H5 3162   2.554   0.953  17.580 -0.0463  1.5505  0.1026
  204MPD1    N1 3163   2.305   1.257  17.309  0.6001 -0.0199 -0.2445
  204MPD1    H6 3164   2.282   1.356  17.310  0.8077  0.0228  0.6646
  204MPD1    H7 3165   2.396   1.258  17.262  1.2765 -2.2655  0.9546
  205MPD1     C 3166   2.904   3.856   0.133  0.3737 -0.2156 -0.7118
  205MPD1    C1 3167   2.969   3.966   0.180 -0.2139 -0.1946 -0.7753
  205MPD1    C2 3168   2.898   4.071   0.225 -1.1180  0.1364  0.3649
  205MPD1    C3 3169   2.764   4.063   0.242  0.4608 -0.1065 -0.3544
  205MPD1    C4 3170   2.702   3.946   0.209 -0.2943  0.0257 -0.1579
  205MPD1    C5 3171   2.773   3.842   0.153 -0.1654  0.5859 -1.4084
  205MPD1     H 3172   2.966   4.147   0.261  0.4806 -1.3754  0.5646
  205MPD1    H1 3173   2.599   3.929   0.241  0.5473 -3.5790  0.6321
  205MPD1    H2 3174   2.962   3.774   0.094 -0.1049 -0.9184  0.0527
  205MPD1    H3 3175   2.707   3.765   0.116  1.1874  0.7642 -4.2099
  205MPD1     N 3176   2.687   4.170   0.302 -0.5744  0.0878  0.3236
  205MPD1    H5 3177   2.587   4.155   0.312 -0.6233  1.1709  1.4566
  205MPD1    N1 3178   3.106   3.969   0.150  0.0193  0.2211  0.2161
  205MPD1    H6 3179   3.156   3.880   0.147  0.6334  0.6245 -1.5173
  205MPD1    H7 3180   3.160   4.030   0.211  1.2804 -0.1322 -0.5457
  206MPD1     C 3181   2.888   3.268  16.983  0.4536 -0.0486  0.5647
  206MPD1    C1 3182   2.994   3.188  16.950  0.0880  0.1812  0.3123
  206MPD1    C2 3183   2.993   3.109  16.847 -0.8190 -0.7776  0.0182
  206MPD1    C3 3184   2.895   3.125  16.750  0.0466  0.3145  0.2565
  206MPD1    C4 3185   2.795   3.212  16.773 -0.3137  0.3109  0.0590
  206MPD1    C5 3186   2.790   3.279  16.891 -0.3871 -0.1265  0.0787
  206MPD1     H 3187   3.067   3.030  16.833  0.9441  0.6654  1.2689
  206MPD1    H1 3188   2.721   3.236  16.697 -1.0905 -1.2532  0.3193
  206MPD1    H2 3189   2.893   3.326  17.075  3.2722 -0.8199  0.8915
  206MPD1    H3 3190   2.704   3.343  16.907  0.2716  0.5647  0.8492
  206MPD1     N 3191   2.894   3.061  16.624 -0.3273 -0.4497 -0.0833
  206MPD1    H5 3192   2.814   3.075  16.563  0.9446  0.6404 -1.5241
  206MPD1    N1 3193   3.091   3.174  17.050 -0.5003  0.2425  0.3844
  206MPD1    H6 3194   3.101   3.256  17.109  0.4609  0.3159  0.1208
  206MPD1    H7 3195   3.176   3.146  17.002 -1.8871  1.5122 -2.8245
  207MPD1     C 3196   1.288   0.391   9.564  0.1860 -0.1674 -0.7427
  207MPD1    C1 3197   1.321   0.512   9.497  1.5960  0.0430 -0.4456
  207MPD1    C2 3198   1.379   0.613   9.567 -0.4889  0.3832  0.8018
  207MPD1    C3 3199   1.395   0.597   9.702  0.2720 -0.5671 -0.5909
  207MPD1    C4 3200   1.362   0.483   9.768  0.4679 -0.1733  0.0073
  207MPD1    C5 3201   1.308   0.379   9.695  0.7472  0.0955 -0.2509
  207MPD1     H 3202   1.434   0.685   9.507 -0.0150 -1.9249 -1.5321
  207MPD1    H1 3203   1.382   0.474   9.874  0.3828  0.1759  0.0535
  207MPD1    H2 3204   1.257   0.300   9.515 -1.0740 -1.1260  1.8360
  207MPD1    H3 3205   1.302   0.286   9.751  1.3651  0.1151 -0.1486
  207MPD1     N 3206   1.450   0.698   9.782 -0.7936 -0.4101  0.1101
  207MPD1    H5 3207   1.464   0.681   9.882  0.4938 -0.2592 -0.0378
  207MPD1    N1 3208   1.319   0.505   9.354  0.4490 -0.2259 -0.3070
  207MPD1    H6 3209   1.253   0.443   9.307 -0.8793  0.6814  0.3646
  207MPD1    H7 3210   1.329   0.595   9.307 -0.1111  0.4154  0.7856
  208MPD1     C 3211   1.547   3.228  17.411 -0.5465 -0.0985 -0.0315
  208MPD1    C1 3212   1.467   3.290  17.514  0.2129 -0.1859  0.3543
  208MPD1    C2 3213   1.521   3.397  17.571  0.8519  0.2950 -0.2051
  208MPD1    C3 3214   1.653   3.430  17.567  0.4035 -0.3601  1.2314
  208MPD1    C4 3215   1.725   3.370  17.471  0.2793 -0.1619 -0.0155
  208MPD1    C5 3216   1.670   3.271  17.387 -1.0993  0.5332  0.7496
  208MPD1     H 3217   1.459   3.453  17.641  2.1995  0.1453  1.1092
  208MPD1    H1 3218   1.827   3.396  17.444  0.1963  1.1311  0.9183
  208MPD1    H2 3219   1.502   3.144  17.359  0.0617 -1.7227  2.0506
  208MPD1    H3 3220   1.727   3.228  17.306 -1.2165  0.0976  0.8985
  208MPD1     N 3221   1.704   3.534  17.654  0.7684 -0.2234  0.0965
  208MPD1    H5 3222   1.645   3.573  17.726  1.1212  2.7362 -1.2012
  208MPD1    N1 3223   1.327   3.266  17.526 -0.1997 -0.5882  0.5811
  208MPD1    H6 3224   1.289   3.275  17.620 -0.9463 -1.0414  0.3244
  208MPD1    H7 3225   1.307   3.170  17.500 -1.4996  0.1056 -1.0259
  209MPD1     C 3226   1.460   4.509  10.699  1.0758 -0.6897  0.4835
  209MPD1    C1 3227   1.446   4.598  10.606 -0.2225 -0.1675  0.3486
  209MPD1    C2 3228   1.448   4.732  10.630 -0.1213  0.5445 -0.2224
  209MPD1    C3 3229   1.500   0.025  10.756 -0.0586  0.0178  0.6047
  209MPD1    C4 3230   1.531   4.667  10.854  0.1897  0.3761 -0.2327
  209MPD1    C5 3231   1.502   4.540  10.822 -0.1442  0.1277  0.4275
  209MPD1     H 3232   1.417   0.070  10.560  0.1551  0.4362 -0.4621
  209MPD1    H1 3233   1.563   4.683  10.956 -0.7318  2.4689 -0.2642
  209MPD1    H2 3234   1.446   4.403  10.681  1.3006 -0.4300 -1.2176
  209MPD1    H3 3235   1.522   4.471  10.903  1.3930 -0.9476 -0.8770
  209MPD1     N 3236   1.513   0.161  10.783 -0.5498 -0.1407  0.1772
  209MPD1    H5 3237   1.490   0.226  10.708  1.9771  0.6496  0.0790
  209MPD1    N1 3238   1.398   4.553  10.485 -0.3074  0.0230  0.0033
  209MPD1    H6 3239   1.424   4.611  10.406  2.4786 -1.1146  0.1067
  209MPD1    H7 3240   1.438   4.461  10.469  1.0791  0.4214  1.2251
  210MPD1     C 3241   1.539   1.019  11.470  0.8007 -0.0001  0.2860
  210MPD1    C1 3242   1.555   0.883  11.499  0.1395  0.4715 -1.0567
  210MPD1    C2 3243   1.582   0.798  11.395 -0.6246 -0.4984  0.2383
  210MPD1    C3 3244   1.593   0.842  11.266  0.0539  0.1026  0.3835
  210MPD1    C4 3245   1.569   0.979  11.241  0.2497  0.2375  0.0259
  210MPD1    C5 3246   1.549   1.068  11.345  0.1121 -0.4357  0.7267
  210MPD1     H 3247   1.604   0.692  11.408 -0.6722 -0.6866 -1.1564
  210MPD1    H1 3248   1.560   1.003  11.135 -3.9153 -1.5390 -0.0114
  210MPD1    H2 3249   1.522   1.099  11.542  0.6302 -0.4841  0.7839
  210MPD1    H3 3250   1.528   1.172  11.325 -1.7682 -0.7451  1.1317
  210MPD1     N 3251   1.606   0.761  11.156  0.9105 -0.4754  0.3064
  210MPD1    H5 3252   1.623   0.809  11.069 -1.3664 -1.2244 -0.5349
  210MPD1    N1 3253   1.514   0.835  11.628 -0.2228  0.0553  0.1582
  210MPD1    H6 3254   1.562   0.751  11.660 -0.0622 -0.8592 -2.4755
  210MPD1    H7 3255   1.519   0.900  11.706 -0.7269 -0.7236  0.8395
  211MPD1     C 3256   3.690   0.270  16.026 -0.6751 -0.3666  0.4232
  211MPD1    C1 3257   3.671   0.208  16.149 -0.0833  0.3174  0.6298
  211MPD1    C2 3258   3.546   0.154  16.183  0.5644 -0.5741 -0.4534
  211MPD1    C3 3259   3.435   0.188  16.110  0.3187  0.4864 -0.1838
  211MPD1    C4 3260   3.455   0.259  15.994 -0.3658 -0.3421  0.0887
  211MPD1    C5 3261   3.582   0.289  15.942 -0.4148 -0.2595  0.0630
  211MPD1     H 3262   3.547   0.078  16.260  0.5527 -2.5905 -2.4555
  211MPD1    H1 3263   3.375   0.276  15.923 -0.6696  1.6288  0.8956
  211MPD1    H2 3264   3.785   0.302  15.985 -0.6608  0.6493  1.2613
  211MPD1    H3 3265   3.585   0.347  15.851  0.4452  0.9367  0.8670
  211MPD1     N 3266   3.303   0.168  16.151  0.3424 -0.2157  0.0721
  211MPD1    H5 3267   3.301   0.136  16.247 -0.4985 -0.4526 -0.0291
  211MPD1    N1 3268   3.786   0.171  16.223 -0.2681  0.1650  0.2298
  211MPD1    H6 3269   3.862   0.237  16.213  0.6887 -1.1072 -0.9908
  211MPD1    H7 3270   3.765   0.156  16.322 -0.8797 -0.5351 -0.0004
  212MPD1     C 3271   2.274   3.336  16.586  0.0398 -0.5823 -0.0097
  212MPD1    C1 3272   2.346   3.220  16.585 -0.8426 -0.5588  0.6929
  212MPD1    C2 3273   2.294   3.102  16.635  0.1490 -0.7465 -1.0891
  212MPD1    C3 3274   2.162   3.099  16.681  0.2409 -0.2655  1.2994
  212MPD1    C4 3275   2.084   3.212  16.655  0.3793  0.0535  0.5797
  212MPD1    C5 3276   2.139   3.332  16.616  0.3480  0.4021 -0.1272
  212MPD1     H 3277   2.352   3.010  16.630 -0.0585 -0.8818 -0.9725
  212MPD1    H1 3278   1.982   3.215  16.691  0.1031 -0.4482 -0.1827
  212MPD1    H2 3279   2.315   3.432  16.556 -1.8339  0.5147  0.9424
  212MPD1    H3 3280   2.077   3.421  16.614  0.4866  0.4857 -0.6066
  212MPD1     N 3281   2.098   2.988  16.748  0.8651  0.7774  0.2577
  212MPD1    H5 3282   2.002   2.999  16.778  1.8807  2.3753  2.9732
  212MPD1    N1 3283   2.484   3.232  16.570  0.2065  0.5271  0.2059
  212MPD1    H6 3284   2.520   3.301  16.505 -2.5031  0.1293 -1.7144
  212MPD1    H7 3285   2.528   3.141  16.554  0.2890  0.5987  0.0126
  213MPD1     C 3286   0.952   3.554  15.835 -0.1309 -0.3732  0.2363
  213MPD1    C1 3287   0.840   3.489  15.872 -0.3005  0.1128 -0.1108
  213MPD1    C2 3288   0.734   3.506  15.792  0.1071  0.1209 -0.7533
  213MPD1    C3 3289   0.739   3.580  15.675  0.5366 -0.1964  0.0584
  213MPD1    C4 3290   0.859   3.637  15.629  0.6463  0.1699  0.2890
  213MPD1    C5 3291   0.961   3.628  15.721 -0.4869  0.5149 -0.2164
  213MPD1     H 3292   0.646   3.453  15.825 -1.0750  1.8955 -1.0710
  213MPD1    H1 3293   0.874   3.686  15.533 -2.2188  0.0986 -0.1864
  213MPD1    H2 3294   1.042   3.526  15.890  0.9411  0.2575 -1.2082
  213MPD1    H3 3295   1.058   3.668  15.693 -0.2303 -0.0517 -0.1372
  213MPD1     N 3296   0.620   3.586  15.603  0.3432  0.6588 -0.0303
  213MPD1    H5 3297   0.550   3.521  15.639  1.8094 -0.6154  0.5042
  213MPD1    N1 3298   0.818   3.448  16.006  0.0994 -0.1716 -0.2588
  213MPD1    H6 3299   0.753   3.370  16.013 -1.7785  1.4771  0.4682
  213MPD1    H7 3300   0.907   3.433  16.053 -0.6332 -0.1909  1.1250
  214MPD1     C 3301   0.325   2.995  14.862 -0.0360 -0.2589 -0.5552
  214MPD1    C1 3302   0.320   2.991  14.995  0.3045 -0.4950  0.4964
  214MPD1    C2 3303   0.367   3.097  15.064 -0.7732 -0.3637 -0.0059
  214MPD1    C3 3304   0.382   3.217  14.999 -0.1296 -0.3558 -0.0980
  214MPD1    C4 3305   0.377   3.221  14.861  0.6514 -0.5210  0.0603
  214MPD1    C5 3306   0.357   3.110  14.794  0.0277 -1.0519 -0.5209
  214MPD1     H 3307   0.388   3.093  15.170  1.1302 -0.3779 -0.3896
  214MPD1    H1 3308   0.402   3.312  14.807 -0.0743 -0.2519  0.1792
  214MPD1    H2 3309   0.287   2.922  14.792 -1.0400 -0.1414 -0.1296
  214MPD1    H3 3310   0.356   3.106  14.686 -0.0904 -0.1717 -0.5537
  214MPD1     N 3311   0.411   3.336  15.066  0.1827  0.5870 -0.1113
  214MPD1    H5 3312   0.432   3.415  15.006 -0.2973  1.8410  1.3838
  214MPD1    N1 3313   0.307   2.866  15.056 -0.1315 -0.4378  0.6139
  214MPD1    H6 3314   0.228   2.815  15.016  1.3571 -0.9884 -1.6815
  214MPD1    H7 3315   0.280   2.885  15.152 -0.3706  0.3278  0.3945
  215MPD1     C 3316   1.397   4.038  11.215 -0.4752  0.1734  0.4213
  215MPD1    C1 3317   1.367   4.071  11.338 -1.1205 -0.2019 -0.0144
  215MPD1    C2 3318   1.346   4.207  11.362 -0.5271  0.5493 -0.2549
  215MPD1    C3 3319   1.390   4.303  11.277  0.5345  0.4508 -0.2887
  215MPD1    C4 3320   1.454   4.258  11.169 -0.2596  1.0265  0.2004
  215MPD1    C5 3321   1.454   4.128  11.133 -0.2606 -0.3168  0.0268
  215MPD1     H 3322   1.284   4.237  11.446  0.4005 -0.7939  0.9128
  215MPD1    H1 3323   1.488   4.325  11.090  0.0084  1.4655  0.6859
  215MPD1    H2 3324   1.409   3.932  11.193 -0.4854  0.5681 -1.4360
  215MPD1    H3 3325   1.493   4.103  11.035  0.4440 -1.5019  0.6091
  215MPD1     N 3326   1.355   4.433  11.302  0.1718  0.0754  0.9060
  215MPD1    H5 3327   1.294   4.445  11.382 -1.7825 -3.3411 -0.1027
  215MPD1    N1 3328   1.315   3.973  11.425  0.0578  0.0638  0.0004
  215MPD1    H6 3329   1.343   3.876  11.411 -0.2044  0.3124 -2.2503
  215MPD1    H7 3330   1.316   3.997  11.524 -0.3525 -0.6465  0.1715
  216MPD1     C 3331   1.890   2.641   0.134  0.3632 -0.6081  0.9079
  216MPD1    C1 3332   2.000   2.644   0.216  0.4287  0.1490  0.0799
  216MPD1    C2 3333   2.076   2.520   0.236  0.4655 -0.3534  0.5835
  216MPD1    C3 3334   2.040   2.402   0.173 -0.3250  0.2033 -0.0445
  216MPD1    C4 3335   1.915   2.408   0.108 -0.0608  0.4577 -0.2761
  216MPD1    C5 3336   1.843   2.520   0.093 -0.0534 -0.2432 -0.4223
  216MPD1     H 3337   2.175   2.534   0.279 -0.2007  1.3341  1.5532
  216MPD1    H1 3338   1.863   2.319   0.073 -0.0167  1.4383 -2.8324
  216MPD1    H2 3339   1.836   2.733   0.113  1.1971 -0.8426 -2.1562
  216MPD1    H3 3340   1.743   2.524   0.050 -0.6918  0.1514  1.1027
  216MPD1     N 3341   2.121   2.289   0.182  0.2123  0.0691  0.2792
  216MPD1    H5 3342   2.207   2.285   0.236  0.8705 -0.8537 -0.8344
  216MPD1    N1 3343   2.043   2.764   0.264 -0.6312 -0.5613  0.4902
  216MPD1    H6 3344   2.143   2.754   0.276 -0.4900  1.1385  0.7614
  216MPD1    H7 3345   2.010   2.847   0.213  2.6047  0.9370  0.8516
  217MPD1     C 3346   3.599   2.937   8.961 -0.1702  0.5050 -0.0467
  217MPD1    C1 3347   3.509   3.025   9.024 -0.4908  1.1224 -1.0270
  217MPD1    C2 3348   3.550   3.133   9.098  0.4439  0.0262 -0.7462
  217MPD1    C3 3349   3.690   3.155   9.111  0.0512 -0.6094 -0.2660
  217MPD1    C4 3350   3.775   3.067   9.049 -0.6669  0.7817 -0.2537
  217MPD1    C5 3351   3.730   2.965   8.971  0.0611 -0.6301 -0.0740
  217MPD1     H 3352   3.476   3.195   9.148  2.7217  2.1643 -0.0543
  217MPD1    H1 3353   3.882   3.078   9.058 -0.6334 -2.1072  3.0659
  217MPD1    H2 3354   3.575   2.851   8.899  0.5514  0.0490  0.3176
  217MPD1    H3 3355   3.795   2.903   8.911  0.5927 -0.5115  0.3855
  217MPD1     N 3356   3.748   3.259   9.194 -0.4739  0.4629 -0.1293
  217MPD1    H5 3357   3.849   3.260   9.204 -0.6641 -1.4294  1.9404
  217MPD1    N1 3358   3.372   2.995   9.000 -0.1130 -0.5628  0.5126
  217MPD1    H6 3359   3.357   2.895   8.988 -0.8616 -0.6266  2.0280
  217MPD1    H7 3360   3.306   3.033   9.067 -0.7092  2.4491 -1.7492
  218MPD1     C 3361   0.182   0.695  13.257  0.1047 -0.0143  0.0416
  218MPD1    C1 3362   0.291   0.743  13.322 -0.1317  0.2965 -0.2976
  218MPD1    C2 3363   0.410   0.682  13.305 -0.3148 -0.5578 -0.4931
  218MPD1    C3 3364   0.424   0.591  13.200 -0.3844 -0.6892 -0.2714
  218MPD1    C4 3365   0.315   0.557  13.123 -0.4034  0.1695  0.1114
  218MPD1    C5 3366   0.192   0.601  13.157 -0.0386 -0.1136  0.2778
  218MPD1     H 3367   0.490   0.708  13.374 -2.8758  1.6451  1.6485
  218MPD1    H1 3368   0.316   0.484  13.043 -0.6439 -1.2864  1.4434
  218MPD1    H2 3369   0.086   0.740  13.279  0.3583  0.9316 -0.7813
  218MPD1    H3 3370   0.106   0.559  13.107 -0.4243  0.9478  0.0473
  218MPD1     N 3371   0.552   0.540  13.173 -0.3760 -0.0767 -0.5332
  218MPD1    H5 3372   0.626   0.565  13.237 -0.3072 -1.3797 -0.0879
  218MPD1    N1 3373   0.280   0.842  13.421  0.3873  0.1517  0.3283
  218MPD1    H6 3374   0.200   0.904  13.409 -1.1619 -2.1804 -1.3673
  218MPD1    H7 3375   0.360   0.905  13.426  1.2565 -0.8566 -0.9301
  219MPD1     C 3376   1.495   0.667  13.353  0.2776  0.1284 -0.0453
  219MPD1    C1 3377   1.401   0.749  13.296  0.1362  0.6009 -0.3763
  219MPD1    C2 3378   1.293   0.686  13.241 -0.7608  0.4096  0.0377
  219MPD1    C3 3379   1.274   0.546  13.241  0.0468  0.2011 -0.2490
  219MPD1    C4 3380   1.368   0.468  13.294 -0.6802  0.4987  0.7291
  219MPD1    C5 3381   1.477   0.530  13.350 -0.2621  0.0521  0.3540
  219MPD1     H 3382   1.222   0.751  13.192 -1.0792  1.0887  1.3892
  219MPD1    H1 3383   1.361   0.360  13.292 -0.7945  0.5924 -3.3476
  219MPD1    H2 3384   1.583   0.704  13.404  0.3705 -2.1458  1.4261
  219MPD1    H3 3385   1.555   0.470  13.395  1.6045  1.3823 -1.1097
  219MPD1     N 3386   1.159   0.474  13.203 -0.2111 -0.0348  0.3689
  219MPD1    H5 3387   1.150   0.374  13.211 -0.9944  0.0358  0.4015
  219MPD1    N1 3388   1.420   0.887  13.284 -0.1111 -0.4646  0.5662
  219MPD1    H6 3389   1.444   0.919  13.377 -1.5930  2.4697 -0.0757
  219MPD1    H7 3390   1.341   0.932  13.239 -1.7128 -1.4410  2.4582
  220MPD1     C 3391   0.786   4.534   9.696  0.6396  0.7798 -0.8359
  220MPD1    C1 3392   0.655   4.548   9.739 -0.7694  0.2835 -0.2035
  220MPD1    C2 3393   0.635   4.615   9.860  0.2859  0.4072 -0.2292
  220MPD1    C3 3394   0.739   4.663   9.931  0.1952 -0.0359 -0.7989
  220MPD1    C4 3395   0.872   4.625   9.901  0.1460  0.0057  0.1175
  220MPD1    C5 3396   0.896   4.568   9.774  0.3176  0.3912  0.4496
  220MPD1     H 3397   0.535   4.640   9.892  1.2886 -0.1128  3.2400
  220MPD1    H1 3398   0.960   4.643   9.963  0.7403 -1.0500 -0.4206
  220MPD1    H2 3399   0.792   4.489   9.597 -0.8322 -2.8829  0.7275
  220MPD1    H3 3400   0.998   4.561   9.738 -0.3814  1.0953 -1.6760
  220MPD1     N 3401   0.719   0.005  10.041 -0.2177 -0.5655 -0.0149
  220MPD1    H5 3402   0.624   0.026  10.069 -0.0932 -0.4148  0.2888
  220MPD1    N1 3403   0.547   4.501   9.668 -0.1406  0.0525 -0.2395
  220MPD1    H6 3404   0.462   4.497   9.722 -1.5028  1.1254 -2.2826
  220MPD1    H7 3405   0.568   4.410   9.628 -1.7129 -0.9830  1.3677
  221MPD1     C 3406   3.232   4.190  17.076 -0.2623 -0.8372  0.0698
  221MPD1    C1 3407   3.208   4.056  17.052 -0.7719  0.3877  0.5591
  221MPD1    C2 3408   3.154   4.023  16.931 -0.3822 -0.1334  0.0105
  221MPD1    C3 3409   3.131   4.123  16.843  0.2294 -0.1583  0.1020
  221MPD1    C4 3410   3.144   4.254  16.869 -0.0874  0.1228 -0.1355
  221MPD1    C5 3411   3.205   4.288  16.986 -0.5203  0.6498 -0.2461
  221MPD1     H 3412   3.119   3.922  16.912 -0.5676  0.0096 -0.4275
  221MPD1    H1 3413   3.124   4.326  16.791  1.1449  0.8044  0.1778
  221MPD1    H2 3414   3.281   4.227  17.165  0.5878  1.6597 -1.4275
  221MPD1    H3 3415   3.248   4.384  17.012  1.5188 -0.5381  0.7996
  221MPD1     N 3416   3.096   4.109  16.709 -0.1106 -0.5490  0.5579
  221MPD1    H5 3417   3.064   4.190  16.658  0.1882  1.2621  3.2331
  221MPD1    N1 3418   3.243   3.958  17.146 -0.7170 -0.0202  0.1905
  221MPD1    H6 3419   3.204   3.866  17.127 -0.2965  0.3781 -2.6583
  221MPD1    H7 3420   3.220   3.991  17.239  2.4221  1.1616  0.5590
  222MPD1     C 3421   1.662   2.776  17.549  0.5946  0.2434 -0.0006
  222MPD1    C1 3422   1.727   2.891  17.524 -0.4018 -0.6719  0.5003
  222MPD1    C2 3423   1.718   2.993  17.615  0.1523  0.0222  0.0749
  222MPD1    C3 3424   1.629   2.988  17.723  1.5666 -0.5889  0.3348
  222MPD1    C4 3425   1.554   2.878  17.739 -0.5319  0.4142  0.4491
  222MPD1    C5 3426   1.572   2.766  17.655  0.4977  0.2558 -0.0148
  222MPD1     H 3427   1.780   3.080  17.597  1.2118 -0.5130  1.1681
  222MPD1    H1 3428   1.473   2.877   0.058  2.2600 -2.9964  3.6192
  222MPD1    H2 3429   1.700   2.687  17.501  0.6491  0.2047  0.1143
  222MPD1    H3 3430   1.518   2.674  17.675 -1.4918  1.3742 -0.2139
  222MPD1     N 3431   1.602   3.093   0.054  0.1083 -0.0545  0.2592
  222MPD1    H5 3432   1.534   3.076   0.127 -3.5092  3.8784 -2.1872
  222MPD1    N1 3433   1.837   2.884  17.437 -0.2404  0.0824  0.6064
  222MPD1    H6 3434   1.875   2.972  17.402  1.2964 -1.2383 -1.0229
  222MPD1    H7 3435   1.811   2.827  17.358  0.7366  3.3039 -2.0491
  223MPD1     C 3436   0.976   3.699   0.521  0.0461 -0.4322 -0.1532
  223MPD1    C1 3437   1.093   3.771   0.522 -0.0331  0.2864 -0.0691
  223MPD1    C2 3438   1.203   3.712   0.472 -0.7256 -0.4589 -0.0797
  223MPD1    C3 3439   1.198   3.577   0.435  0.1272  0.1813 -0.2551
  223MPD1    C4 3440   1.088   3.499   0.453 -0.1926  0.1805 -0.4491
  223MPD1    C5 3441   0.966   3.565   0.478  0.1864  0.7380  1.0444
  223MPD1     H 3442   1.287   3.779   0.455 -3.2887  2.3651 -1.7568
  223MPD1    H1 3443   1.084   3.395   0.423 -2.8581  0.3108 -0.5378
  223MPD1    H2 3444   0.883   3.747   0.548 -0.0884 -0.5193 -0.4691
  223MPD1    H3 3445   0.866   3.524   0.474  0.9463 -0.8061 -1.5903
  223MPD1     N 3446   1.327   3.516   0.400  0.4773  0.2847  0.6282
  223MPD1    H5 3447   1.405   3.581   0.405  0.3254  0.4880  0.4045
  223MPD1    N1 3448   1.081   3.911   0.540  0.4804 -0.5658  0.3698
  223MPD1    H6 3449   1.020   3.939   0.616 -0.9999 -0.2063 -0.9528
  223MPD1    H7 3450   1.171   3.950   0.568  0.5485 -1.2259  1.0580
  224MPD1     C 3451   3.486   4.290   9.176  0.0690 -0.2983 -0.3860
  224MPD1    C1 3452   3.571   4.188   9.219 -0.1457 -0.9586  0.1068
  224MPD1    C2 3453   3.659   4.225   9.323 -0.0971  0.5853  0.9357
  224MPD1    C3 3454   3.673   4.356   9.367  0.0953  0.2938  0.0588
  224MPD1    C4 3455   3.586   4.448   9.318 -0.4193  0.0953 -0.0571
  224MPD1    C5 3456   3.499   4.415   9.219 -0.2933  0.0881  0.0062
  224MPD1     H 3457   3.713   4.145   9.370  0.6251  0.1845 -0.5829
  224MPD1    H1 3458   3.579   4.555   9.337  0.6500  0.1697 -0.0758
  224MPD1    H2 3459   3.401   4.259   9.116  0.2480  0.9502 -1.2587
  224MPD1    H3 3460   3.419   4.484   9.194 -1.0683 -0.1932  1.7169
  224MPD1     N 3461   3.765   4.401   9.462 -0.1240 -0.6658  0.3871
  224MPD1    H5 3462   3.746   4.485   9.515 -2.9976 -1.5675  0.8198
  224MPD1    N1 3463   3.540   4.057   9.191 -0.1513 -0.1911 -0.1130
  224MPD1    H6 3464   3.619   3.992   9.194  0.9671  1.1890  0.5151
  224MPD1    H7 3465   3.500   4.044   9.099  1.7310  0.8556 -1.0574
  225MPD1     C 3466   1.093   1.302  12.366 -0.4669 -0.9785 -0.4550
  225MPD1    C1 3467   1.026   1.297  12.242 -0.6826  0.8792 -0.6434
  225MPD1    C2 3468   0.892   1.275  12.235  0.2063 -0.2723  0.2974
  225MPD1    C3 3469   0.815   1.252  12.350  0.8318 -0.2786 -0.3018
  225MPD1    C4 3470   0.879   1.250  12.474 -0.6651  0.3162  1.1864
  225MPD1    C5 3471   1.018   1.272  12.479 -0.5154 -0.1330  0.1298
  225MPD1     H 3472   0.839   1.270  12.141 -0.3600 -0.4999  0.6243
  225MPD1    H1 3473   0.827   1.233  12.568 -0.6891 -0.0319  1.1111
  225MPD1    H2 3474   1.197   1.329  12.368 -0.8224  0.3162  0.3253
  225MPD1    H3 3475   1.068   1.292  12.573  2.5102 -0.6008 -1.3546
  225MPD1     N 3476   0.677   1.251  12.356 -0.0565 -0.0719 -0.4020
  225MPD1    H5 3477   0.634   1.235  12.446  1.5679  2.1859  0.7615
  225MPD1    N1 3478   1.100   1.338  12.135 -0.1850 -0.0328  0.5464
  225MPD1    H6 3479   1.194   1.298  12.136 -0.2134 -0.1193 -0.5962
  225MPD1    H7 3480   1.049   1.297  12.057 -0.1049  0.9915 -0.0438
  226MPD1     C 3481   3.001   3.604   9.173 -0.1084  0.2060  0.2094
  226MPD1    C1 3482   3.101   3.540   9.242  0.6119  1.0864  0.5898
  226MPD1    C2 3483   3.215   3.504   9.170 -0.0597 -0.3543 -0.3695
  226MPD1    C3 3484   3.222   3.515   9.035  0.0245  0.2012 -0.0832
  226MPD1    C4 3485   3.108   3.568   8.970 -0.5433  0.3364  0.1886
  226MPD1    C5 3486   2.999   3.603   9.039  0.3611 -0.3213  0.6572
  226MPD1     H 3487   3.293   3.451   9.222 -0.5882  0.8692  1.6521
  226MPD1    H1 3488   3.117   3.597   8.866  0.4227 -1.0394 -0.1218
  226MPD1    H2 3489   2.911   3.640   9.222  1.1139  0.7334  2.0457
  226MPD1    H3 3490   2.919   3.646   8.979  1.5380 -1.0798 -1.4378
  226MPD1     N 3491   3.347   3.500   8.977  0.3774  0.7133  0.1695
  226MPD1    H5 3492   3.423   3.471   9.037 -0.6408 -0.1025  1.0831
  226MPD1    N1 3493   3.102   3.542   9.383 -0.0620  0.0228 -0.0458
  226MPD1    H6 3494   3.010   3.543   9.427  0.0207  0.3290  0.1176
  226MPD1    H7 3495   3.150   3.460   9.420  0.1707  0.1924  0.0272
  227MPD1     C 3496   3.368   2.847   8.345 -0.0244 -0.0821  0.0112
  227MPD1    C1 3497   3.277   2.904   8.433  0.1560  0.1219 -0.0315
  227MPD1    C2 3498   3.332   2.977   8.539  0.3087  0.2859 -0.6844
  227MPD1    C3 3499   3.456   3.032   8.526 -0.2998 -1.0115  0.0606
  227MPD1    C4 3500   3.535   2.988   8.422  0.4740  0.1888  0.1221
  227MPD1    C5 3501   3.492   2.895   8.338  0.0111  0.0218  0.2498
  227MPD1     H 3502   3.271   2.997   8.627  0.0534 -1.1939 -0.5301
  227MPD1    H1 3503   3.639   3.015   8.404  0.4441 -1.3032 -2.3029
  227MPD1    H2 3504   3.333   2.775   8.271  0.2750 -0.5136  0.2878
  227MPD1    H3 3505   3.539   2.866   8.244 -0.3363 -0.3990  0.2067
  227MPD1     N 3506   3.500   3.126   8.623 -0.4497 -0.1123 -0.3510
  227MPD1    H5 3507   3.432   3.166   8.686  1.0056  2.2476 -0.2565
  227MPD1    N1 3508   3.151   2.852   8.440  0.0628  0.0525  0.2975
  227MPD1    H6 3509   3.091   2.929   8.469  1.3771  1.0933  0.2131
  227MPD1    H7 3510   3.108   2.820   8.353 -2.8829  0.7422  1.4966
  228MPD1     C 3511   1.782   3.465  12.425  0.0325 -0.4327 -0.1999
  228MPD1    C1 3512   1.689   3.570  12.426  0.1495  1.0498  0.4052
  228MPD1    C2 3513   1.605   3.576  12.540  0.1431 -0.3797  0.0426
  228MPD1    C3 3514   1.622   3.484  12.642  0.1919  0.4060 -1.0654
  228MPD1    C4 3515   1.708   3.385  12.634  0.0560  0.0081  0.0250
  228MPD1    C5 3516   1.785   3.373  12.522  0.4161 -0.3076 -0.1325
  228MPD1     H 3517   1.536   3.659  12.554 -1.1272 -1.6724  1.4497
  228MPD1    H1 3518   1.730   3.315  12.714  1.1116  1.1287  0.7123
  228MPD1    H2 3519   1.855   3.450  12.347  0.3267  0.0710 -0.0231
  228MPD1    H3 3520   1.871   3.306  12.518  0.9697  0.4900 -1.5789
  228MPD1     N 3521   1.533   3.501  12.749  0.4422 -0.4185  0.4920
  228MPD1    H5 3522   1.457   3.567  12.744 -1.2355 -2.4295 -0.5572
  228MPD1    N1 3523   1.692   3.677  12.334  0.2418  0.3900 -0.5930
  228MPD1    H6 3524   1.594   3.701  12.325 -0.3329 -1.7146  0.0062
  228MPD1    H7 3525   1.727   3.644  12.244 -2.7108 -0.8008 -1.2826
  229MPD1     C 3526   1.181   2.364  14.532  0.0365  0.0684 -0.7158
  229MPD1    C1 3527   1.115   2.348  14.650 -0.3003  0.0729 -0.2941
  229MPD1    C2 3528   1.173   2.280  14.749  0.0420  0.0506  0.2011
  229MPD1    C3 3529   1.297   2.215  14.736 -0.4426  0.2688  0.2214
  229MPD1    C4 3530   1.365   2.242  14.619 -0.4097  0.2701  0.7663
  229MPD1    C5 3531   1.307   2.317  14.517  0.0030  0.1149  0.1729
  229MPD1     H 3532   1.113   2.267  14.838 -0.9996  0.9756 -0.3794
  229MPD1    H1 3533   1.464   2.201  14.603 -0.7034  0.7423 -2.2586
  229MPD1    H2 3534   1.129   2.410  14.449 -0.5430  0.5833 -0.0624
  229MPD1    H3 3535   1.361   2.323  14.424 -0.0128  0.3432  0.1789
  229MPD1     N 3536   1.353   2.128  14.832 -0.5725 -0.5800 -0.0465
  229MPD1    H5 3537   1.440   2.081  14.808 -0.5507 -1.0551  0.9689
  229MPD1    N1 3538   0.992   2.414  14.664  0.9629  0.1419  0.5554
  229MPD1    H6 3539   0.967   2.422  14.763  0.5108  1.4513  0.3362
  229MPD1    H7 3540   0.991   2.510  14.631  1.3495  0.4773  1.5128
  230MPD1     C 3541   1.384   1.736  15.885 -0.0051 -0.1744 -0.1135
  230MPD1    C1 3542   1.514   1.764  15.834 -0.1912 -0.1213 -0.1324
  230MPD1    C2 3543   1.533   1.795  15.704 -0.1220 -0.6807 -0.2030
  230MPD1    C3 3544   1.425   1.818  15.616  0.3474 -0.1172  0.5934
  230MPD1    C4 3545   1.300   1.810  15.672 -0.0343  0.1961 -0.4774
  230MPD1    C5 3546   1.276   1.776  15.800 -0.2833 -0.1201  0.1925
  230MPD1     H 3547   1.635   1.787  15.669 -1.2262  0.2937 -3.6462
  230MPD1    H1 3548   1.213   1.830  15.611 -1.0196  0.2109  0.9139
  230MPD1    H2 3549   1.367   1.694  15.983 -2.2709  3.4260  1.0392
  230MPD1    H3 3550   1.173   1.765  15.833  0.0279 -1.8353  0.6065
  230MPD1     N 3551   1.458   1.837  15.478  0.3383  0.8178 -0.0728
  230MPD1    H5 3552   1.556   1.855  15.456  0.6707  0.6238  1.2741
  230MPD1    N1 3553   1.623   1.729  15.914 -0.4635  0.2366 -0.4647
  230MPD1    H6 3554   1.709   1.779  15.892 -0.2120 -0.1028 -0.2668
  230MPD1    H7 3555   1.595   1.737  16.011 -0.7064 -0.4913 -0.4740
  231MPD1     C 3556   3.958   3.682  15.524 -0.0644 -0.0832  0.2719
  231MPD1    C1 3557   4.014   3.601  15.426 -0.0893  0.4469 -0.0332
  231MPD1    C2 3558   4.145   3.619  15.383 -0.6701 -0.9353  0.1827
  231MPD1    C3 3559   4.225   3.717  15.441 -0.1620 -0.4507  0.3499
  231MPD1    C4 3560   4.174   3.798  15.543 -0.3699 -1.1994  0.4499
  231MPD1    C5 3561   4.042   3.776  15.579  0.1870  0.2686 -0.8132
  231MPD1     H 3562   4.177   3.553  15.303 -0.0292 -0.3629 -0.0316
  231MPD1    H1 3563   4.234   3.877  15.588  0.0714 -0.6319 -1.1469
  231MPD1    H2 3564   3.856   3.679  15.562 -0.3680 -0.5423 -0.5507
  231MPD1    H3 3565   3.994   3.832  15.659  1.3186 -1.2492  0.9044
  231MPD1     N 3566   4.354   3.729  15.379  0.2715 -0.5642 -0.4010
  231MPD1    H5 3567   4.382   3.669  15.302 -1.6263 -2.8728  0.7015
  231MPD1    N1 3568   3.937   3.509  15.357 -0.0676 -0.7138  0.3641
  231MPD1    H6 3569   3.879   3.447  15.411  2.3693 -1.1768  2.4469
  231MPD1    H7 3570   4.002   3.447  15.309  0.6715 -1.1731  1.9705
  232MPD1     C 3571   1.542   1.965   0.226 -0.0009 -0.6839 -0.1998
  232MPD1    C1 3572   1.462   2.078   0.235  0.4150 -0.8224  0.4322
  232MPD1    C2 3573   1.327   2.061   0.230 -0.4138 -0.2419 -0.5623
  232MPD1    C3 3574   1.263   1.945   0.226 -0.4695 -0.0345 -0.7196
  232MPD1    C4 3575   1.344   1.831   0.224  0.8990  0.0615  0.1077
  232MPD1    C5 3576   1.485   1.842   0.228 -0.3628 -0.1179  0.8003
  232MPD1     H 3577   1.271   2.153   0.237  0.7846  0.4158  0.3639
  232MPD1    H1 3578   1.305   1.730   0.226  1.1219 -0.0167  0.5152
  232MPD1    H2 3579   1.650   1.966   0.218  0.0068 -0.6852 -0.1024
  232MPD1    H3 3580   1.545   1.752   0.229 -0.5465 -0.2537 -0.4037
  232MPD1     N 3581   1.119   1.952   0.218 -0.5243  0.2065 -0.0336
  232MPD1    H5 3582   1.076   2.044   0.219  0.4997  0.6699  0.8027
  232MPD1    N1 3583   1.522   2.210   0.230 -0.0322 -0.6301  0.3322
  232MPD1    H6 3584   1.614   2.211   0.273 -0.0509  1.1137  0.3302
  232MPD1    H7 3585   1.462   2.277   0.278 -0.9035 -1.2438  0.1029
  233MPD1     C 3586   1.636   0.011   1.676  0.3133  0.3373  0.1990
  233MPD1    C1 3587   1.643   4.677   1.560  0.0313 -0.5652 -1.3586
  233MPD1    C2 3588   1.759   4.672   1.486 -0.1796 -0.3855 -0.2703
  233MPD1    C3 3589   1.871   0.002   1.528 -0.0538 -0.0574 -0.3453
  233MPD1    C4 3590   1.856   0.082   1.640  0.4730 -0.3379 -0.0945
  233MPD1    C5 3591   1.746   0.082   1.718 -0.0911  0.1290 -0.5037
  233MPD1     H 3592   1.769   4.613   1.396 -0.9262 -0.8090 -0.0785
  233MPD1    H1 3593   1.933   0.152   1.671 -0.1197  0.5499 -0.6134
  233MPD1    H2 3594   1.543   0.011   1.732  0.8285 -1.4971  1.0380
  233MPD1    H3 3595   1.729   0.132   1.813 -0.1925 -2.7374  0.9872
  233MPD1     N 3596   2.002   0.007   1.475 -0.1782  0.4942  0.0312
  233MPD1    H5 3597   2.067   0.070   1.519 -1.0830  3.1922 -2.4496
  233MPD1    N1 3598   1.531   4.603   1.513  0.5248  0.8121  0.3138
  233MPD1    H6 3599   1.564   4.528   1.453 -0.3317 -0.7752  1.8275
  233MPD1    H7 3600   1.464   4.570   1.583 -0.7561  2.2685 -0.2095
  234MPD1     C 3601   0.180   3.221  10.739 -0.2148  0.1913 -0.1543
  234MPD1    C1 3602   0.229   3.342  10.705  1.0899 -0.1170 -0.4326
  234MPD1    C2 3603   0.169   3.416  10.610  0.0262  0.1168 -0.2551
  234MPD1    C3 3604   0.053   3.378  10.547 -0.6107  0.7527 -0.7875
  234MPD1    C4 3605   0.000   3.256  10.591  0.2858  0.0634  0.2608
  234MPD1    C5 3606   0.070   3.171  10.677  0.3867  0.5128 -0.0071
  234MPD1     H 3607   0.218   3.510  10.585  0.8055 -0.3444 -0.4502
  234MPD1    H1 3608   4.646   3.211  10.558  0.4847 -0.5114  0.4975
  234MPD1    H2 3609   0.233   3.155  10.806  0.7841 -0.8196 -1.9210
  234MPD1    H3 3610   0.031   3.073  10.698  1.0014  0.7967  2.4124
  234MPD1     N 3611   0.003   3.456  10.440 -0.6466  0.2727 -0.0790
  234MPD1    H5 3612   0.037   3.550  10.426  1.4404 -0.3211  1.0549
  234MPD1    N1 3613   0.344   3.397  10.773  0.6055  0.2441 -0.5724
  234MPD1    H6 3614   0.386   3.318  10.821  1.0800  1.0488  0.3288
  234MPD1    H7 3615   0.414   3.437  10.712  2.7083 -4.2492 -1.0794
  235MPD1     C 3616   1.313   0.924  10.438  0.2932 -0.4681  0.2451
  235MPD1    C1 3617   1.289   0.957  10.311  0.4444  0.7397 -0.1384
  235MPD1    C2 3618   1.349   1.069  10.260 -0.3343 -0.1833 -0.0036
  235MPD1    C3 3619   1.437   1.151  10.336  0.0520 -0.0081  0.0713
  235MPD1    C4 3620   1.453   1.113  10.465  0.3385  0.1128 -0.0268
  235MPD1    C5 3621   1.394   0.999  10.516 -1.1913 -0.4868 -1.0099
  235MPD1     H 3622   1.327   1.091  10.156 -2.6687 -1.3693  0.2581
  235MPD1    H1 3623   1.506   1.169  10.541  1.4961 -0.5893 -0.3162
  235MPD1    H2 3624   1.274   0.834  10.484 -1.0542 -0.2732 -0.5190
  235MPD1    H3 3625   1.402   0.983  10.623 -0.3698 -1.0986 -1.1583
  235MPD1     N 3626   1.498   1.263  10.273  0.0282 -0.3339  0.3328
  235MPD1    H5 3627   1.480   1.284  10.175 -0.0950 -2.2859 -0.0670
  235MPD1    N1 3628   1.188   0.891  10.237 -0.1744  0.0813 -0.0225
  235MPD1    H6 3629   1.197   0.902  10.136  2.0581 -0.2490  0.1450
  235MPD1    H7 3630   1.182   0.793  10.266 -0.5722  0.2993  0.6404
  236MPD1     C 3631   4.701   2.021  10.574 -0.1205 -0.6168 -0.1076
  236MPD1    C1 3632   0.048   2.110  10.634  0.0863 -0.4774 -0.1070
  236MPD1    C2 3633   0.172   2.141  10.572  0.2312 -0.9800 -0.2712
  236MPD1    C3 3634   0.196   2.090  10.444 -0.0026 -0.6921 -0.3212
  236MPD1    C4 3635   0.115   1.991  10.392 -0.7736  0.3970 -0.0800
  236MPD1    C5 3636   0.003   1.944  10.457 -0.0419 -0.0095 -0.6562
  236MPD1     H 3637   0.240   2.216  10.609 -1.3257 -0.0327  0.6678
  236MPD1    H1 3638   0.149   1.940  10.302  0.5603  0.5374  0.3371
  236MPD1    H2 3639   4.604   1.992  10.613 -1.1564  0.4830 -1.8888
  236MPD1    H3 3640   4.686   1.861  10.414 -0.7424  0.4448 -0.6312
  236MPD1     N 3641   0.306   2.128  10.364 -0.5797  0.6882 -0.1598
  236MPD1    H5 3642   0.313   2.080  10.275  1.1819 -2.0115  1.4276
  236MPD1    N1 3643   0.007   2.192  10.744  0.8215  0.5479  0.1558
  236MPD1    H6 3644   4.684   2.130  10.796  3.5162 -0.7952  1.7519
  236MPD1    H7 3645   0.084   2.219  10.805  0.4924 -0.8168  1.1807
  237MPD1     C 3646   0.277   0.921  14.769  0.4708  0.5032  0.1444
  237MPD1    C1 3647   0.385   0.870  14.838 -0.3459  0.9736  0.4186
  237MPD1    C2 3648   0.367   0.750  14.902 -0.3276 -0.6708 -0.8239
  237MPD1    C3 3649   0.260   0.664  14.868  0.2688 -0.7892 -0.5437
  237MPD1    C4 3650   0.157   0.720  14.792  0.0351 -0.8560  0.4222
  237MPD1    C5 3651   0.164   0.850  14.750 -0.8996 -0.7107 -0.4547
  237MPD1     H 3652   0.451   0.710  14.957  0.3850  0.3372 -1.1921
  237MPD1    H1 3653   0.075   0.653  14.770 -1.5260  0.6534  1.6057
  237MPD1    H2 3654   0.279   1.020  14.725 -0.8585 -0.1018 -1.3080
  237MPD1    H3 3655   0.092   0.894  14.683 -0.5755 -0.3948 -0.5930
  237MPD1     N 3656   0.245   0.527  14.897  0.5430  0.7526  0.1392
  237MPD1    H5 3657   0.152   0.490  14.885  1.4460 -1.1334 -1.0235
  237MPD1    N1 3658   0.491   0.953  14.875  0.1096  0.1033 -0.9394
  237MPD1    H6 3659   0.580   0.903  14.875  0.5584  0.8893  3.2034
  237MPD1    H7 3660   0.507   1.034  14.815 -0.3951  0.5427 -0.4738
  238MPD1     C 3661   2.117   3.539  14.946  0.2091  0.3551  0.5587
  238MPD1    C1 3662   2.078   3.430  15.027 -0.1478 -0.9050 -0.1254
  238MPD1    C2 3663   1.964   3.363  15.004  0.6119  0.5833 -0.3791
  238MPD1    C3 3664   1.873   3.411  14.912  0.1178  0.2990 -0.2564
  238MPD1    C4 3665   1.906   3.524  14.837 -0.6447  0.5780  0.1862
  238MPD1    C5 3666   2.026   3.586  14.850 -0.3135 -0.2133  0.0981
  238MPD1     H 3667   1.937   3.286  15.076  0.1030  0.7316 -0.4118
  238MPD1    H1 3668   1.835   3.549  14.759 -2.5735 -1.6793  1.1981
  238MPD1    H2 3669   2.220   3.574  14.949  1.4343 -3.1527 -0.6966
  238MPD1    H3 3670   2.057   3.667  14.786  0.2704 -0.4515  0.0736
  238MPD1     N 3671   1.755   3.339  14.880 -0.1655  0.7088  0.2145
  238MPD1    H5 3672   1.707   3.383  14.802  0.7263 -0.1289 -0.7912
  238MPD1    N1 3673   2.168   3.380  15.120  0.1024 -0.1216 -0.6410
  238MPD1    H6 3674   2.245   3.436  15.155 -1.1221 -0.6231  2.8055
  238MPD1    H7 3675   2.128   3.320  15.192 -1.4930  1.3510 -0.2997
  239MPD1     C 3676   2.020   0.039  15.370  0.4906  0.1374  0.4771
  239MPD1    C1 3677   2.137   0.073  15.310  0.3150  0.3716 -0.0107
  239MPD1    C2 3678   2.133   0.101  15.177 -0.9847  0.1303 -0.6352
  239MPD1    C3 3679   2.019   0.082  15.101  0.3092  0.2587 -0.1991
  239MPD1    C4 3680   1.906   0.050  15.169 -0.3832  0.0303 -0.3969
  239MPD1    C5 3681   1.905   0.029  15.300  0.6935  0.2004 -0.4016
  239MPD1     H 3682   2.223   0.131  15.124 -0.8322  0.7111 -0.0476
  239MPD1    H1 3683   1.812   0.048  15.116  0.7314 -0.5823 -2.3565
  239MPD1    H2 3684   2.022   0.023  15.477 -1.4920 -3.7089 -0.0799
  239MPD1    H3 3685   1.813   0.014  15.356  0.7740 -2.5080 -0.9992
  239MPD1     N 3686   2.014   0.098  14.959 -0.3682  0.4401  0.4991
  239MPD1    H5 3687   1.927   0.069  14.915  0.6320 -2.6207  0.5268
  239MPD1    N1 3688   2.242   0.113  15.398  0.6677  0.6573  0.5771
  239MPD1    H6 3689   2.235   0.076  15.493  0.0730  1.1326  0.7179
  239MPD1    H7 3690   2.329   0.090  15.351  0.5514 -1.9557  1.6391
  240MPD1     C 3691   1.107   4.503  13.825 -0.1784  0.3010 -0.0604
  240MPD1    C1 3692   0.989   4.475  13.890  0.4285 -0.7342 -0.1652
  240MPD1    C2 3693   0.990   4.386  13.994  0.7296 -0.7718  0.0872
  240MPD1    C3 3694   1.100   4.305  14.024  0.5824  0.3992  0.1332
  240MPD1    C4 3695   1.224   4.334  13.958 -0.1143 -0.6126  0.3244
  240MPD1    C5 3696   1.224   4.441  13.870  0.2207  0.4617  0.0940
  240MPD1     H 3697   0.897   4.356  14.041  0.3130  1.5743  0.7279
  240MPD1    H1 3698   1.315   4.279  13.978  1.2855  1.0572 -1.5346
  240MPD1    H2 3699   1.108   4.583  13.751  0.6987  0.7797  0.4743
  240MPD1    H3 3700   1.320   4.448  13.821 -0.9847  1.2551 -2.1562
  240MPD1     N 3701   1.104   4.237  14.140 -0.0957 -0.3929  0.4503
  240MPD1    H5 3702   1.014   4.216  14.182 -0.7567 -2.7245 -2.1236
  240MPD1    N1 3703   0.882   4.555  13.856 -0.4028 -0.1071 -0.3937
  240MPD1    H6 3704   0.892   4.596  13.763  0.3213  0.6981  0.0445
  240MPD1    H7 3705   0.794   4.507  13.874  0.8011 -1.8111  0.9952
  241MPD1     C 3706   1.789   3.886  14.777 -0.3189 -0.1939 -0.2968
  241MPD1    C1 3707   1.669   3.834  14.819 -0.5432 -0.3520 -0.2351
  241MPD1    C2 3708   1.557   3.883  14.760 -0.2314 -1.2734 -0.5353
  241MPD1    C3 3709   1.553   3.994  14.673  0.7371  0.2792  0.3136
  241MPD1    C4 3710   1.676   4.036  14.630  0.0311 -0.7515 -0.6956
  241MPD1    C5 3711   1.791   3.989  14.688  0.6845  0.2519  0.1486
  241MPD1     H 3712   1.467   3.834  14.796 -2.2467  1.9822 -1.1188
  241MPD1    H1 3713   1.693   4.111  14.554 -1.4048  0.1404 -0.1330
  241MPD1    H2 3714   1.883   3.848  14.816 -0.5161  0.9264  1.2929
  241MPD1    H3 3715   1.888   4.032  14.663  0.2158  1.2323  0.0012
  241MPD1     N 3716   1.438   4.063  14.624 -0.4037  0.4526 -0.1449
  241MPD1    H5 3717   1.462   4.130  14.552  1.0451  2.2644  2.0103
  241MPD1    N1 3718   1.672   3.733  14.918 -0.5732  0.8637 -0.4137
  241MPD1    H6 3719   1.595   3.738  14.985 -1.0319  0.8166 -0.9394
  241MPD1    H7 3720   1.756   3.751  14.973 -1.5799  1.6384  0.8925
  242MPD1     C 3721   1.330   2.125  16.383  0.1137 -0.4620 -0.0450
  242MPD1    C1 3722   1.252   2.208  16.304 -0.1017  1.1472 -0.9553
  242MPD1    C2 3723   1.255   2.189  16.164  0.5385  0.1845 -0.1119
  242MPD1    C3 3724   1.312   2.078  16.106  0.3384  0.4545 -0.3377
  242MPD1    C4 3725   1.387   1.995  16.186  0.2245  0.3214 -0.0121
  242MPD1    C5 3726   1.394   2.014  16.326  0.2292  0.0723 -0.0482
  242MPD1     H 3727   1.207   2.264  16.102  1.5317  0.6475 -0.3251
  242MPD1    H1 3728   1.443   1.914  16.141 -0.2344  0.1878 -0.3385
  242MPD1    H2 3729   1.332   2.129  16.492  0.4748  0.4545 -0.0864
  242MPD1    H3 3730   1.458   1.948  16.382 -1.3477 -1.5494 -0.1477
  242MPD1     N 3731   1.328   2.061  15.967 -0.4894 -0.2527  0.1131
  242MPD1    H5 3732   1.380   1.980  15.932 -0.0388  0.7661 -1.5915
  242MPD1    N1 3733   1.183   2.311  16.360  0.8829 -0.5356  0.1797
  242MPD1    H6 3734   1.159   2.293  16.457 -0.3731 -2.4717 -0.4812
  242MPD1    H7 3735   1.098   2.338  16.311  0.5886 -2.4803 -0.3635
  243MPD1     C 3736   1.598   1.250  17.723 -0.4812  0.4487 -0.1631
  243MPD1    C1 3737   1.685   1.194   0.065 -0.0849 -0.4283  0.3329
  243MPD1    C2 3738   1.796   1.120   0.019  0.0231  0.3682  0.1870
  243MPD1    C3 3739   1.807   1.085  17.639 -0.5793 -1.1835 -0.3235
  243MPD1    C4 3740   1.705   1.129  17.556  0.6636  0.3186 -0.6529
  243MPD1    C5 3741   1.597   1.197  17.597 -0.2310  0.7825  0.2568
  243MPD1     H 3742   1.867   1.078   0.089  1.1156  0.8866 -0.6115
  243MPD1    H1 3743   1.711   1.106  17.451  1.1881  1.3329 -0.8473
  243MPD1    H2 3744   1.517   1.317  17.751  0.4220  0.6305  2.0090
  243MPD1    H3 3745   1.527   1.220  17.518  1.0621 -0.3339 -1.2097
  243MPD1     N 3746   1.910   0.999  17.595 -0.1058 -0.2508 -0.4802
  243MPD1    H5 3747   1.975   0.961  17.664 -0.9235 -0.7447  0.0213
  243MPD1    N1 3748   1.679   1.242   0.190 -0.5232 -0.0088 -0.7211
  243MPD1    H6 3749   1.739   1.192   0.255 -1.0266  1.8204  1.1628
  243MPD1    H7 3750   1.584   1.251   0.225 -0.6865 -1.8660 -0.6855
  244MPD1     C 3751   2.440   0.245   0.183 -0.6112  0.0001  0.3975
  244MPD1    C1 3752   2.451   0.216   0.046  0.1124 -0.1139 -0.3652
  244MPD1    C2 3753   2.402   0.311  17.702  0.2119 -0.6042 -0.0599
  244MPD1    C3 3754   2.333   0.421   0.003  0.5157 -0.8838  0.3284
  244MPD1    C4 3755   2.315   0.437   0.138  0.8067 -0.1611 -0.5504
  244MPD1    C5 3756   2.374   0.355   0.223  1.1732  0.1258  0.2822
  244MPD1     H 3757   2.407   0.294  17.595 -1.6872  0.4141 -0.3192
  244MPD1    H1 3758   2.258   0.515   0.185  0.7203 -1.7253  1.9343
  244MPD1    H2 3759   2.470   0.173   0.258  0.1233 -1.0887 -0.9610
  244MPD1    H3 3760   2.358   0.375   0.329 -0.2327 -0.7759  0.2450
  244MPD1     N 3761   2.276   0.506  17.658  0.1757  0.3010  0.0287
  244MPD1    H5 3762   2.310   0.489  17.564 -1.2893 -1.3594 -0.1979
  244MPD1    N1 3763   2.463   0.078   0.001 -0.1067 -0.8495  0.0438
  244MPD1    H6 3764   2.521   0.017   0.058  0.4077 -0.1393  0.2790
  244MPD1    H7 3765   2.504   0.081  17.660  0.1697  1.1017  0.2246
  245MPD1     C 3766   4.036   1.717  13.157 -0.4640  0.3832  1.1880
  245MPD1    C1 3767   4.050   1.737  13.292  0.0096  0.1655  0.5246
  245MPD1    C2 3768   4.151   1.823  13.343 -0.7082  0.3340  0.1452
  245MPD1    C3 3769   4.250   1.874  13.257 -0.3964  0.7518 -0.2717
  245MPD1    C4 3770   4.247   1.838  13.120 -0.9395  0.7164  0.1031
  245MPD1    C5 3771   4.146   1.760  13.075 -0.7276 -0.2892 -0.1747
  245MPD1     H 3772   4.152   1.857  13.446 -0.1208 -1.5725  0.7657
  245MPD1    H1 3773   4.329   1.861  13.053 -1.8224  1.7775 -0.6080
  245MPD1    H2 3774   3.954   1.650  13.133 -0.5197  0.8315  0.1321
  245MPD1    H3 3775   4.151   1.732  12.971 -0.4056 -0.2250 -0.1746
  245MPD1     N 3776   4.348   1.974  13.300  0.2089  0.3774 -0.0669
  245MPD1    H5 3777   4.355   1.993  13.399  0.9126  0.7967 -0.2014
  245MPD1    N1 3778   3.956   1.693  13.382  0.3630 -0.4855  0.3225
  245MPD1    H6 3779   4.006   1.677  13.470  1.1906  1.5587  0.2247
  245MPD1    H7 3780   3.902   1.612  13.353  1.3108 -1.1129  0.3333
  246MPD1     C 3781   4.156   3.816   8.641 -0.6359 -0.0824  0.0463
  246MPD1    C1 3782   4.205   3.730   8.545 -0.1148 -0.4927 -0.3275
  246MPD1    C2 3783   4.317   3.659   8.583 -0.6168 -0.3264 -0.2673
  246MPD1    C3 3784   4.362   3.645   8.710 -0.5458 -0.0361 -0.0224
  246MPD1    C4 3785   4.292   3.712   8.811 -0.3958  0.1801 -0.4834
  246MPD1    C5 3786   4.201   3.807   8.766  0.0919  0.2738  0.4973
  246MPD1     H 3787   4.375   3.617   8.501 -0.2758 -1.9806  0.8282
  246MPD1    H1 3788   4.332   3.707   8.912  0.3399  0.1976 -0.7753
  246MPD1    H2 3789   4.078   3.889   8.628 -0.7772  0.0056  1.4003
  246MPD1    H3 3790   4.161   3.869   8.846 -0.7115 -2.1032  1.9424
  246MPD1     N 3791   4.470   3.562   8.747 -0.2743 -0.4316 -0.0264
  246MPD1    H5 3792   4.498   3.508   8.666  0.9778  2.3334 -1.4242
  246MPD1    N1 3793   4.175   3.749   8.405 -0.9399  0.1202 -0.1669
  246MPD1    H6 3794   4.085   3.790   8.379 -1.1227  1.0896  2.0188
  246MPD1    H7 3795   4.179   3.663   8.350 -0.3357 -0.2696  0.5026
  247MPD1     C 3796   3.879   2.790  15.104 -0.4419 -0.1177  0.0673
  247MPD1    C1 3797   3.911   2.683  15.025 -0.9563 -0.1227 -0.2852
  247MPD1    C2 3798   3.907   2.554  15.088 -0.2856  0.1408  0.4608
  247MPD1    C3 3799   3.872   2.543  15.219  0.3056 -0.2525  0.0506
  247MPD1    C4 3800   3.852   2.651  15.292 -0.5058 -0.4036  0.0690
  247MPD1    C5 3801   3.852   2.773  15.236 -0.1193 -0.1321 -0.0006
  247MPD1     H 3802   3.951   2.471  15.034 -0.1928  1.0216 -0.8309
  247MPD1    H1 3803   3.831   2.638  15.398 -1.0537 -3.1965 -0.3978
  247MPD1    H2 3804   3.879   2.896  15.082 -1.6863  0.3974  2.5226
  247MPD1    H3 3805   3.830   2.859  15.299  0.3437 -0.0347  0.0290
  247MPD1     N 3806   3.842   2.419  15.282 -0.6343 -0.1030 -0.0258
  247MPD1    H5 3807   3.816   2.421  15.380  1.0341 -1.1912  0.4387
  247MPD1    N1 3808   3.939   2.693  14.889 -0.7099  0.4984 -0.3789
  247MPD1    H6 3809   3.993   2.621  14.843 -1.9918 -0.7288  0.0562
  247MPD1    H7 3810   3.994   2.778  14.874  0.7923 -0.2134  1.1993
  248MPD1     C 3811   3.589   0.944   0.470 -0.0834 -0.1351 -0.9748
  248MPD1    C1 3812   3.719   0.973   0.477 -0.1132 -0.0654 -0.2413
  248MPD1    C2 3813   3.749   1.107   0.503 -0.6001  0.0103  0.4482
  248MPD1    C3 3814   3.658   1.209   0.507  0.7931  0.2354  0.3133
  248MPD1    C4 3815   3.526   1.179   0.490 -0.1155 -0.6410 -0.0209
  248MPD1    C5 3816   3.489   1.044   0.476  0.3173 -0.5639 -0.6103
  248MPD1     H 3817   3.854   1.133   0.506 -1.1500  2.1451  1.4764
  248MPD1    H1 3818   3.449   1.255   0.484 -0.2162 -0.7199  0.2948
  248MPD1    H2 3819   3.558   0.842   0.451  1.3027 -0.4679 -1.4041
  248MPD1    H3 3820   3.384   1.026   0.455  0.1279  1.4677 -1.4026
  248MPD1     N 3821   3.704   1.338   0.552  0.0015  1.0128  0.2860
  248MPD1    H5 3822   3.800   1.342   0.584 -0.3307  2.4115  1.1311
  248MPD1    N1 3823   3.808   0.872   0.470 -0.4504  0.7532 -0.2242
  248MPD1    H6 3824   3.900   0.910   0.446 -0.2361 -0.3603 -1.1308
  248MPD1    H7 3825   3.775   0.819   0.390 -0.6557  0.3636  0.1189
  249MPD1     C 3826   1.775   0.637   9.733  0.1370  0.0109 -0.1806
  249MPD1    C1 3827   1.753   0.552   9.841  0.2927 -0.3818  0.7187
  249MPD1    C2 3828   1.830   0.563   9.953  0.0401  0.3701 -1.2962
  249MPD1    C3 3829   1.917   0.666   9.971 -0.3637 -0.0270 -0.3632
  249MPD1    C4 3830   1.926   0.756   9.870 -0.9184  0.5360 -0.2034
  249MPD1    C5 3831   1.854   0.741   9.753 -0.2701  0.1666  0.3689
  249MPD1     H 3832   1.813   0.494  10.036 -1.4412  0.5362 -1.4501
  249MPD1    H1 3833   1.985   0.846   9.878  1.4094 -0.9205 -1.1785
  249MPD1    H2 3834   1.736   0.628   9.632 -1.6298  0.7340  0.4308
  249MPD1    H3 3835   1.870   0.818   9.678 -1.2113  0.3209  0.3215
  249MPD1     N 3836   1.989   0.680  10.096  0.3830  0.7946 -0.3712
  249MPD1    H5 3837   1.985   0.597  10.155  2.6983  0.2275 -1.0054
  249MPD1    N1 3838   1.681   0.431   9.816  0.0238  0.0762 -0.4752
  249MPD1    H6 3839   1.602   0.441   9.754 -0.1197 -0.5740 -0.3969
  249MPD1    H7 3840   1.640   0.401   9.905  0.5301 -0.2139 -0.3342
  250MPD2     C 3841   2.781   0.534  13.797  0.5025  0.2204 -0.5098
  250MPD2    C1 3842   2.808   0.588  13.670 -0.5678  0.2379 -0.8061
  250MPD2    C2 3843   2.763   0.523  13.555 -0.5467  0.6686  0.1426
  250MPD2    C3 3844   2.700   0.399  13.566  0.6685 -0.0022  0.4527
  250MPD2    C4 3845   2.678   0.350  13.690 -0.0988 -0.1079 -0.2767
  250MPD2    C5 3846   2.711   0.415  13.803 -0.3936 -0.7823  0.3205
  250MPD2     H 3847   2.771   0.571  13.458  0.8774  0.0501 -0.0469
  250MPD2    H1 3848   2.629   0.253  13.698  1.0698 -0.4931  2.0994
  250MPD2    H2 3849   2.799   0.579  13.893 -0.6487  2.3777 -1.2934
  250MPD2    H3 3850   2.687   0.363  13.895 -2.0771 -0.8401 -0.1608
  250MPD2     N 3851   2.659   0.325  13.453 -0.9111 -0.6275  0.3846
  250MPD2    H5 3852   2.603   0.241  13.464 -3.2390  0.6891 -1.3432
  250MPD2    N1 3853   2.862   0.720  13.663  0.5662 -0.5501 -0.4638
  250MPD2    H7 3854   2.863   0.783  13.743  2.6318 -1.3460  0.1335
  251TMC3    C1 3855   2.980   0.903  13.582 -0.0322  0.0829  0.6151
  251TMC3    C2 3856   2.907   0.990  13.656 -0.1909  0.0954 -0.2942
  251TMC3    C3 3857   2.970   1.112  13.671 -0.7182 -0.2730  0.5517
  251TMC3    C4 3858   3.097   0.939  13.515 -0.6613  0.3659  0.0981
  251TMC3    C5 3859   3.158   1.059  13.536 -0.1274 -0.4607 -0.8451
  251TMC3    C6 3860   3.095   1.143  13.616 -0.0617  0.1486 -0.1794
  251TMC3     C 3861   2.932   0.772  13.552 -0.1094 -0.2361  0.6530
  251TMC3     O 3862   2.992   0.715  13.458 -0.2544  0.0677  0.6583
  251TMC3     H 3863   2.806   0.972  13.692  0.2739 -0.8051  0.5622
  251TMC3    H1 3864   3.159   0.866  13.464  0.2604 -0.5027  2.4700
  251TMC3    H2 3865   3.134   1.243  13.629  2.3150 -0.7117 -0.6471
  251TMC3    C7 3866   3.287   1.092  13.483  0.1433 -0.0392  0.3816
  251TMC3    C8 3867   2.890   1.222  13.720 -0.0547  0.6353 -0.5892
  251TMC3    O1 3868   3.350   0.991  13.454 -0.4294  0.7022  0.7021
  251TMC3    O2 3869   2.774   1.242  13.678  0.1552 -0.0766  0.0943
  252TMC3    C1 3870   2.978   2.166   9.338  0.5011 -0.4248 -0.0546
  252TMC3    C2 3871   3.109   2.185   9.364 -0.2267 -0.4141 -0.7891
  252TMC3    C3 3872   3.175   2.108   9.462  0.7973 -0.0294  0.1603
  252TMC3    C4 3873   2.910   2.069   9.422 -0.2148 -0.4390  0.1007
  252TMC3    C5 3874   2.979   1.999   9.515  0.1372 -0.0028 -0.0227
  252TMC3    C6 3875   3.110   2.015   9.533 -0.1099  0.0415  0.1000
  252TMC3     C 3876   2.897   2.245   9.242 -0.3012  0.1877 -0.1119
  252TMC3     O 3877   2.779   2.212   9.239  0.1268  0.0105 -0.2507
  252TMC3     H 3878   3.165   2.271   9.329 -0.3786  0.0698  0.1552
  252TMC3    H1 3879   2.804   2.049   9.419 -0.6037  1.8145 -1.0026
  252TMC3    H2 3880   3.158   1.953   9.608 -1.2019  1.4871  1.9885
  252TMC3    C7 3881   2.905   1.940   9.620 -0.4751 -0.1165 -0.2525
  252TMC3    C8 3882   3.320   2.133   9.477 -0.1337 -0.1650  0.6594
  252TMC3    O1 3883   2.792   1.982   9.637  0.0696  0.8851  0.0677
  252TMC3    O2 3884   3.380   2.172   9.373  0.2473 -0.5060 -0.5268
  253MPD2     C 3885   4.412   1.027  15.573 -0.4135  0.0853 -0.5892
  253MPD2    C1 3886   4.279   1.052  15.556  0.1756 -0.0191 -0.9854
  253MPD2    C2 3887   4.184   0.992  15.642 -0.0148 -0.8397  0.4973
  253MPD2    C3 3888   4.230   0.919  15.753 -0.2836  0.1067  0.2187
  253MPD2    C4 3889   4.361   0.904  15.771 -0.6924 -0.3054 -0.3218
  253MPD2    C5 3890   4.457   0.948  15.681  0.5661 -0.4219  0.6214
  253MPD2     H 3891   4.080   0.999  15.611 -0.4227 -0.0411  2.0576
  253MPD2    H1 3892   4.392   0.849  15.859  1.7094  0.8311 -0.4439
  253MPD2    H2 3893   4.486   1.048  15.497 -1.7573  2.0098 -1.3549
  253MPD2    H3 3894   4.561   0.926  15.703  0.1975 -2.2414  0.5021
  253MPD2     N 3895   4.157   0.850  15.843 -0.1153 -0.1883 -0.3797
  253MPD2    H5 3896   4.202   0.800  15.919  2.0081 -0.1520 -1.6223
  253MPD2    N1 3897   4.239   1.124  15.440 -0.2664 -0.1000  0.1404
  253MPD2    H7 3898   4.141   1.118  15.413 -0.2644  1.5853 -0.2302
  254TMC3    C1 3899   3.969   0.743  15.933 -0.1792  0.6185 -0.4140
  254TMC3    C2 3900   3.840   0.762  15.973  0.4358  0.6948  0.0460
  254TMC3    C3 3901   3.790   0.661  16.048  0.2571  0.3047 -0.0033
  254TMC3    C4 3902   4.048   0.631  15.980 -0.2219  0.2267 -0.0384
  254TMC3    C5 3903   3.985   0.542  16.055 -0.6362 -0.2881 -0.6824
  254TMC3    C6 3904   3.859   0.556  16.094  0.3907  0.2403  0.0324
  254TMC3     C 3905   4.021   0.838  15.839 -0.5632  0.0524 -0.1648
  254TMC3     O 3906   3.939   0.918  15.795  0.3068  0.2823  0.4065
  254TMC3     H 3907   3.786   0.853  15.953 -0.2295 -0.1692 -2.0977
  254TMC3    H1 3908   4.152   0.619  15.950 -0.0195 -0.4537  0.9501
  254TMC3    H2 3909   3.810   0.476  16.148 -0.0387  1.2828  1.2008
  254TMC3    C7 3910   4.063   0.458  16.146 -0.5865  0.0654 -0.5047
  254TMC3    C8 3911   3.641   0.657  16.063  1.2349  0.2697 -0.1741
  254TMC3    O1 3912   3.992   0.381  16.211 -0.0575 -0.1285 -0.1709
  254TMC3    O2 3913   3.579   0.730  15.990  0.1236 -0.0329  0.2117
  255MPD2     C 3914   2.902   3.687  10.617 -0.8570 -0.0760 -0.5167
  255MPD2    C1 3915   2.814   3.666  10.510  0.3242  0.2499 -0.0805
  255MPD2    C2 3916   2.829   3.550  10.437 -0.6936  0.2143 -0.0416
  255MPD2    C3 3917   2.922   3.454  10.458  0.0791 -0.0907  0.1654
  255MPD2    C4 3918   2.995   3.461  10.574 -0.0325  0.6489 -0.4056
  255MPD2    C5 3919   2.989   3.582  10.650  0.2955 -0.7924 -0.1655
  255MPD2     H 3920   2.762   3.533  10.354 -0.6834 -1.9645  0.3828
  255MPD2    H1 3921   3.072   3.388  10.597  1.2896  2.0775 -0.3165
  255MPD2    H2 3922   2.905   3.774  10.682  3.0048  0.7380 -1.8355
  255MPD2    H3 3923   3.058   3.595  10.733  0.0355  3.6016 -0.6285
  255MPD2     N 3924   2.947   3.351  10.359 -0.3595  0.1201  0.8158
  255MPD2    H5 3925   2.897   3.362  10.271  1.1153 -0.5556 -0.1078
  255MPD2    N1 3926   2.735   3.779  10.471  0.0295 -0.1769  0.8574
  255MPD2    H7 3927   2.740   3.865  10.524  2.3169  1.1507 -1.5555
  256TMC3    C1 3928   2.571   3.898  10.350  0.4916 -0.2281  0.2495
  256TMC3    C2 3929   2.641   4.013  10.358  0.2825  0.5864 -0.5790
  256TMC3    C3 3930   2.577   4.111  10.297 -0.5177 -0.1463 -0.2682
  256TMC3    C4 3931   2.450   3.883  10.278  0.1137  0.0349  0.0989
  256TMC3    C5 3932   2.397   3.990  10.214 -0.3572 -0.5074 -0.3511
  256TMC3    C6 3933   2.457   4.107  10.231  0.3643  0.2911 -0.5686
  256TMC3     C 3934   2.642   3.779  10.374  0.0518  0.5651 -0.8218
  256TMC3     O 3935   2.618   3.688  10.296 -0.3128  0.0540  0.2474
  256TMC3     H 3936   2.743   4.021  10.395 -0.0243  0.5580  0.2682
  256TMC3    H1 3937   2.410   3.787  10.248  1.7465 -0.0195 -1.9159
  256TMC3    H2 3938   2.406   4.199  10.206 -0.5093 -0.5728 -1.9167
  256TMC3    C7 3939   2.291   3.972  10.111 -0.1261  0.1135 -0.1204
  256TMC3    C8 3940   2.649   4.231  10.299 -0.4933 -0.9192 -0.0761
  256TMC3    O1 3941   2.268   3.855  10.083 -0.3085  0.0231  0.0960
  256TMC3    O2 3942   2.676   4.280  10.409 -0.9507 -0.3084 -0.3722
  257MPD2     C 3943   1.341   0.184  12.964  0.0147 -0.1194  0.1314
  257MPD2    C1 3944   1.438   0.259  13.023 -0.0906 -0.9258 -0.0582
  257MPD2    C2 3945   1.538   0.202  13.094 -0.2904  0.7452 -0.5031
  257MPD2    C3 3946   1.541   0.063  13.101 -0.2249 -0.2039 -0.3070
  257MPD2    C4 3947   1.443   4.728  13.032  0.0590  0.1218 -0.3363
  257MPD2    C5 3948   1.342   0.051  12.971  0.1881 -0.7518  0.1359
  257MPD2     H 3949   1.609   0.257  13.154  1.0119 -0.5976 -0.8101
  257MPD2    H1 3950   1.450   4.621  13.021  1.0090 -0.0594  1.9722
  257MPD2    H2 3951   1.266   0.225  12.898  0.4440  0.0486 -0.2525
  257MPD2    H3 3952   1.267   4.727  12.922  1.5532 -1.7950 -0.6227
  257MPD2     N 3953   1.635   4.732  13.185 -0.0769 -0.2281  0.2594
  257MPD2    H5 3954   1.669   0.049  13.263  1.5577  0.1400 -0.7216
  257MPD2    N1 3955   1.427   0.398  12.996 -0.2140  0.3650  0.4319
  257MPD2    H7 3956   1.347   0.431  12.942 -0.2890 -0.0835  0.2729
  258TMC3    C1 3957   1.784   4.557  13.260  0.5504  0.1888  0.1852
  258TMC3    C2 3958   1.866   4.461  13.213  0.3251  0.5249 -1.0685
  258TMC3    C3 3959   1.941   4.385  13.307 -0.0786  1.0218  0.0645
  258TMC3    C4 3960   1.793   4.598  13.390 -0.4208 -0.3219 -0.2612
  258TMC3    C5 3961   1.866   4.515  13.478 -0.4841  0.1597 -0.3052
  258TMC3    C6 3962   1.943   4.405  13.442  0.1410  0.0933  0.0050
  258TMC3     C 3963   1.680   4.601  13.165 -0.9190 -0.5313  0.3891
  258TMC3     O 3964   1.636   4.516  13.087  0.0144  0.0410 -0.0778
  258TMC3     H 3965   1.865   4.427  13.110  0.8347  1.3154 -1.3386
  258TMC3    H1 3966   1.725   4.674  13.428 -1.3115 -0.3881 -1.7315
  258TMC3    H2 3967   1.991   4.338  13.513  0.2170 -2.5091 -2.5208
  258TMC3    C7 3968   1.847   4.532  13.623 -0.4389 -0.0531  0.3332
  258TMC3    C8 3969   1.988   4.252  13.266 -0.1695  0.5101 -0.2659
  258TMC3    O1 3970   1.767   4.618  13.648 -0.0158 -0.5646 -0.0282
  258TMC3    O2 3971   1.944   4.232  13.152  0.2862 -0.3037 -0.0735
  259MPD2     C 3972   4.644   2.647   0.622  0.5839  0.6963 -0.0915
  259MPD2    C1 3973   4.734   2.554   0.581  0.5900  0.5833  0.0682
  259MPD2    C2 3974   0.023   2.554   0.446  0.0672  0.3093 -0.4049
  259MPD2    C3 3975   4.699   2.631   0.353  0.1124 -0.4821 -0.2360
  259MPD2    C4 3976   4.616   2.734   0.400  0.0541  0.3759  0.2294
  259MPD2    C5 3977   4.591   2.737   0.532 -0.4003 -0.2027  0.8959
  259MPD2     H 3978   0.091   2.481   0.403 -1.8999 -0.4206 -2.3101
  259MPD2    H1 3979   4.561   2.807   0.342  0.5763  1.5784  1.2447
  259MPD2    H2 3980   4.613   2.650   0.726  0.6225 -0.4420 -0.0479
  259MPD2    H3 3981   4.519   2.810   0.566 -0.8006 -1.7391  3.3310
  259MPD2     N 3982   4.738   2.618   0.220 -0.0073 -0.2965  0.1236
  259MPD2    H5 3983   0.060   2.538   0.208  0.9601  0.3004  0.9684
  259MPD2    N1 3984   0.060   2.470   0.676  0.5320  0.0380  0.3731
  259MPD2    H7 3985   0.053   2.502   0.772  2.9036  0.3701  0.4540
  260TMC3    C1 3986   0.005   2.630  17.738 -0.0083 -0.0468  0.3579
  260TMC3    C2 3987   0.118   2.684  17.679  0.4400 -0.4741 -0.0274
  260TMC3    C3 3988   0.196   2.605  17.598 -0.0553  0.6629 -0.7432
  260TMC3    C4 3989   4.723   2.496  17.731 -0.5050  0.1085 -0.1460
  260TMC3    C5 3990   0.064   2.418  17.649 -0.0462 -0.5971 -0.2032
  260TMC3    C6 3991   0.164   2.474  17.579  0.3764  0.6090  0.3701
  260TMC3     C 3992   4.700   2.693   0.110  0.2525  0.4163 -0.2322
  260TMC3     O 3993   4.635   2.797   0.115 -0.4752  0.6312  0.1705
  260TMC3     H 3994   0.151   2.780  17.716 -3.9650  0.8740  0.3987
  260TMC3    H1 3995   4.638   2.455   0.032  0.6113 -0.1370  1.4393
  260TMC3    H2 3996   0.209   2.416  17.500 -1.9121 -0.0876 -0.4393
  260TMC3    C7 3997   0.087   2.277  17.667  0.2870 -0.3224 -0.3460
  260TMC3    C8 3998   0.344   2.615  17.599 -0.3979 -0.4475  0.1422
  260TMC3    O1 3999   0.205   2.239  17.647 -0.2585 -0.0805  0.3908
  260TMC3    O2 4000   0.386   2.734  17.578 -0.7204  0.1187 -0.2415
  261MPD2     C 4001   2.322   0.334  12.676  0.0186 -0.4700  0.2834
  261MPD2    C1 4002   2.429   0.389  12.748 -0.1300 -0.6708  0.0939
  261MPD2    C2 4003   2.523   0.455  12.675 -0.5304  0.8664 -0.0451
  261MPD2    C3 4004   2.514   0.460  12.535  0.6363 -0.1011  0.1527
  261MPD2    C4 4005   2.412   0.396  12.459  0.3819 -0.3209 -0.0102
  261MPD2    C5 4006   2.326   0.322  12.535 -0.0369 -0.5404 -0.0043
  261MPD2     H 4007   2.609   0.501  12.722  1.0749 -3.0342  0.8719
  261MPD2    H1 4008   2.410   0.398  12.351  0.2106  1.0041  0.0162
  261MPD2    H2 4009   2.237   0.290  12.726 -1.0704 -0.2168 -1.3669
  261MPD2    H3 4010   2.242   0.279  12.482 -0.5540  1.6022 -0.9413
  261MPD2     N 4011   2.617   0.531  12.470  0.3965 -0.0284 -0.1816
  261MPD2    H5 4012   2.683   0.578  12.530  1.7198 -1.5941 -0.4207
  261MPD2    N1 4013   2.457   0.353  12.882  0.9393  0.6829  0.6301
  261MPD2    H7 4014   2.538   0.397  12.925  1.8605  1.0642 -1.4787
  262TMC3    C1 4015   2.707   0.670  12.307 -0.1988  0.0652  0.0124
  262TMC3    C2 4016   2.663   0.778  12.235  0.0804 -0.4402 -0.7035
  262TMC3    C3 4017   2.748   0.882  12.215  0.4931 -0.2383 -0.0242
  262TMC3    C4 4018   2.830   0.671  12.365  0.6881 -0.0020 -0.8048
  262TMC3    C5 4019   2.910   0.786  12.346 -0.0225 -0.1605  0.4302
  262TMC3    C6 4020   2.871   0.891  12.271 -0.0202  0.2121  0.4491
  262TMC3     C 4021   2.614   0.572  12.340 -0.3725 -0.1761 -0.3413
  262TMC3     O 4022   2.544   0.531  12.247 -0.3179 -0.0246  0.6526
  262TMC3     H 4023   2.558   0.776  12.208 -0.1970  1.7983  0.2428
  262TMC3    H1 4024   2.879   0.576  12.386  2.4572  0.8518 -1.0555
  262TMC3    H2 4025   2.921   0.987  12.269  0.2938 -0.0267 -2.2141
  262TMC3    C7 4026   3.000   0.811  12.453 -0.1995  1.0415 -0.5161
  262TMC3    C8 4027   2.694   1.010  12.191  0.1315  0.6201 -0.4113
  262TMC3    O1 4028   2.998   0.732  12.544  0.4432 -0.8272 -0.4501
  262TMC3    O2 4029   2.722   1.096  12.271 -0.5562  0.2180 -0.7199
  263MPD2     C 4030   4.170   0.005  12.159  0.4181  0.5120 -0.0008
  263MPD2    C1 4031   4.254   4.687  12.060  1.6264  0.4663 -0.3578
  263MPD2    C2 4032   4.203   4.653  11.935  1.2752 -0.0502 -0.4639
  263MPD2    C3 4033   4.066   4.664  11.921 -0.3288 -0.3545  0.6114
  263MPD2    C4 4034   3.983   4.711  12.022 -0.9997 -0.5686  0.2860
  263MPD2    C5 4035   4.038   0.021  12.133 -0.1832  0.3864  0.0212
  263MPD2     H 4036   4.255   4.619  11.846  1.6241  0.0735 -0.3053
  263MPD2    H1 4037   3.875   4.706  12.009 -0.7711 -0.1593 -1.9271
  263MPD2    H2 4038   4.217   0.027  12.254 -0.4263 -0.7400  0.7131
  263MPD2    H3 4039   3.972   0.063  12.208  0.6958  0.2818  0.8497
  263MPD2     N 4040   4.014   4.610  11.805 -0.7203  0.3315  0.4486
  263MPD2    H5 4041   4.079   4.601  11.728 -2.5747 -1.3138 -0.9267
  263MPD2    N1 4042   4.394   4.673  12.089  0.2284 -0.4878 -0.0849
  263MPD2    H7 4043   4.427   4.708  12.179  2.1756 -0.5939 -0.7435
  264TMC3    C1 4044   3.848   4.535  11.647  0.0145 -0.2010 -0.2928
  264TMC3    C2 4045   3.722   4.558  11.600  0.9005  0.3318  0.6504
  264TMC3    C3 4046   3.688   4.533  11.465  0.4888  1.0131 -0.3566
  264TMC3    C4 4047   3.955   4.515  11.568 -0.6095 -0.4428  0.1460
  264TMC3    C5 4048   3.923   4.506  11.430  0.1043 -0.1296 -0.8670
  264TMC3    C6 4049   3.796   4.508  11.378 -0.3514  0.6336 -0.7819
  264TMC3     C 4050   3.879   4.566  11.784 -0.1676  0.1669  0.5007
  264TMC3     O 4051   3.785   4.555  11.860 -0.2165  0.2900 -0.5820
  264TMC3     H 4052   3.651   4.589  11.676 -1.5196 -1.1178 -0.9944
  264TMC3    H1 4053   4.047   4.474  11.608 -0.1494 -1.3417 -1.8295
  264TMC3    H2 4054   3.782   4.505  11.270  0.3912 -1.1503 -0.8365
  264TMC3    C7 4055   4.027   4.495  11.330 -0.5110 -0.3153 -0.7565
  264TMC3    C8 4056   3.592   4.621  11.409 -0.0094 -0.2600 -0.5120
  264TMC3    O1 4057   3.998   4.451  11.224 -0.2889 -0.5852  0.0713
  264TMC3    O2 4058   3.600   4.639  11.291  0.1427 -0.0274  0.0024
  265MPD2     C 4059   0.592   4.678  15.708  0.2258 -0.3898  0.0078
  265MPD2    C1 4060   0.652   0.054  15.660 -0.2272 -0.3702  0.0949
  265MPD2    C2 4061   0.737   0.035  15.551  0.5332 -0.9145 -0.2238
  265MPD2    C3 4062   0.756   4.648  15.487  0.0844 -0.2382  0.5419
  265MPD2    C4 4063   0.692   4.540  15.540 -0.6706 -0.6718 -0.0209
  265MPD2    C5 4064   0.616   4.559  15.654 -0.2665 -0.6114  0.0673
  265MPD2     H 4065   0.799   0.120  15.524  0.5034 -0.5668  0.8253
  265MPD2    H1 4066   0.692   4.441  15.497  0.0081 -0.4397 -0.5423
  265MPD2    H2 4067   0.518   4.682  15.787 -1.7638 -1.3631 -1.7973
  265MPD2    H3 4068   0.565   4.471  15.692  0.9683 -2.2181 -2.0541
  265MPD2     N 4069   0.835   4.619  15.379 -0.3662 -0.1086 -0.3128
  265MPD2    H5 4070   0.831   4.522  15.348 -1.5392 -0.2979  0.4452
  265MPD2    N1 4071   0.632   0.185  15.717 -0.4302 -0.0227 -0.4910
  265MPD2    H7 4072   0.684   0.264  15.680  0.9293 -0.3422  0.7393
  266TMC3    C1 4073   0.536   0.352  15.873 -0.3874  0.0909 -0.6426
  266TMC3    C2 4074   0.518   0.387  16.005 -0.1473 -0.3765  0.4756
  266TMC3    C3 4075   0.519   0.518  16.038 -0.3333  0.2761  0.7259
  266TMC3    C4 4076   0.537   0.443  15.768  0.3184  0.0353  0.5033
  266TMC3    C5 4077   0.511   0.570  15.799 -0.1113  0.8028  0.2201
  266TMC3    C6 4078   0.500   0.613  15.933 -0.2451  0.4895 -0.4747
  266TMC3     C 4079   0.560   0.208  15.835 -0.1166  0.0517  0.1427
  266TMC3     O 4080   0.510   0.130  15.912 -0.4986 -0.0661 -0.3228
  266TMC3     H 4081   0.507   0.308  16.078 -2.1177  1.2939  1.9953
  266TMC3    H1 4082   0.543   0.413  15.664 -1.7852  1.1695  0.0641
  266TMC3    H2 4083   0.490   0.718  15.958  1.4135  0.1790  1.4729
  266TMC3    C7 4084   0.532   0.680  15.704  0.4321 -0.2630  0.0537
  266TMC3    C8 4085   0.519   0.546  16.179  0.0797  0.2118  0.0717
  266TMC3    O1 4086   0.486   0.788  15.736  0.4751 -0.1134  0.1653
  266TMC3    O2 4087   0.574   0.462  16.252 -0.2306  0.4799  0.2186
  267MPD2     C 4088   2.695   1.740   0.758  0.0440 -0.1670 -0.0253
  267MPD2    C1 4089   2.699   1.869   0.723 -0.2555 -0.0093  0.4853
  267MPD2    C2 4090   2.633   1.906   0.604  0.7797  0.1814 -0.1600
  267MPD2    C3 4091   2.573   1.806   0.521  0.8873 -0.6442 -0.0792
  267MPD2    C4 4092   2.587   1.675   0.558  0.4336  0.3257  0.4730
  267MPD2    C5 4093   2.650   1.642   0.674 -0.3485  1.1285 -0.9676
  267MPD2     H 4094   2.615   2.011   0.584 -0.4152 -0.1424 -0.8256
  267MPD2    H1 4095   2.543   1.600   0.493  0.9536 -1.2178  1.9093
  267MPD2    H2 4096   2.736   1.700   0.850 -1.8267  0.4613  1.0608
  267MPD2    H3 4097   2.663   1.539   0.704  0.8796  1.1088 -1.5823
  267MPD2     N 4098   2.490   1.833   0.410 -0.0608 -0.6924  0.3645
  267MPD2    H5 4099   2.465   1.744   0.366  0.9777 -0.3290 -0.9486
  267MPD2    N1 4100   2.760   1.959   0.815  0.4024 -0.6568 -0.4228
  267MPD2    H7 4101   2.798   1.926   0.902  0.9450  0.9863 -0.0395
  268TMC3    C1 4102   2.832   2.170   0.884  0.6875  0.2470  0.6508
  268TMC3    C2 4103   2.848   2.298   0.841  0.3875  0.5283  0.1754
  268TMC3    C3 4104   2.863   2.398   0.933 -0.3310  0.1664  0.3154
  268TMC3    C4 4105   2.852   2.141   1.020 -0.5684  0.1398 -0.1121
  268TMC3    C5 4106   2.877   2.236   1.109  0.7739 -0.3581  0.0943
  268TMC3    C6 4107   2.885   2.366   1.067  1.1834  0.1530 -0.5613
  268TMC3     C 4108   2.761   2.095   0.789  0.0559  0.9392  0.4177
  268TMC3     O 4109   2.713   2.160   0.699  0.2138  0.0859 -0.2750
  268TMC3     H 4110   2.863   2.315   0.735 -1.4143 -0.7032 -0.2899
  268TMC3    H1 4111   2.874   2.037   1.043  0.8486  0.2992 -0.7409
  268TMC3    H2 4112   2.891   2.448   1.138  3.7713 -0.2553 -0.3339
  268TMC3    C7 4113   2.911   2.194   1.242 -0.6260 -0.5008  0.5103
  268TMC3    C8 4114   2.792   2.521   0.906  0.3591  0.2755  0.7481
  268TMC3    O1 4115   2.931   2.078   1.262  0.6222 -0.6086 -0.2435
  268TMC3    O2 4116   2.774   2.594   1.000  0.2161  0.1064 -0.0571
  269MPD2     C 4117   3.836   1.218  15.782  0.6888 -0.4034  0.8585
  269MPD2    C1 4118   3.715   1.190  15.727 -0.8659  0.0512 -0.5295
  269MPD2    C2 4119   3.641   1.292  15.671 -0.3154  0.4417 -0.1215
  269MPD2    C3 4120   3.691   1.419  15.668  0.2406 -0.0949  0.3220
  269MPD2    C4 4121   3.811   1.448  15.727  0.3248 -0.3195  0.4015
  269MPD2    C5 4122   3.883   1.345  15.782  0.1654  0.8864 -0.2280
  269MPD2     H 4123   3.550   1.272  15.616  0.8909 -2.5474 -1.0113
  269MPD2    H1 4124   3.846   1.550  15.738 -1.6795  0.2502  1.4947
  269MPD2    H2 4125   3.896   1.143  15.833  0.5225 -1.7377 -0.8971
  269MPD2    H3 4126   3.968   1.353  15.848  0.2123  0.5339 -0.2470
  269MPD2     N 4127   3.601   1.518  15.618  0.8350 -0.1084 -0.3158
  269MPD2    H5 4128   3.505   1.486  15.606  0.5427  0.4025  0.5953
  269MPD2    N1 4129   3.681   1.052  15.724  0.0601  0.0410 -1.1553
  269MPD2    H7 4130   3.749   0.988  15.763 -0.3942  0.2832  0.0070
  270TMC3    C1 4131   3.554   0.857  15.687 -0.3686  0.1837  0.0210
  270TMC3    C2 4132   3.427   0.798  15.695  0.4939 -0.2500  0.5318
  270TMC3    C3 4133   3.419   0.663  15.692  0.9785  0.0657  0.2593
  270TMC3    C4 4134   3.669   0.787  15.678  0.0017 -0.2407 -0.6117
  270TMC3    C5 4135   3.653   0.646  15.669 -0.4661 -0.0176 -0.4671
  270TMC3    C6 4136   3.533   0.585  15.672  0.2846 -0.4083  0.2727
  270TMC3     C 4137   3.559   1.000  15.690 -0.5592 -0.0459  0.0814
  270TMC3     O 4138   3.456   1.058  15.664 -0.5283 -0.2554 -0.6179
  270TMC3     H 4139   3.339   0.860  15.705  1.6513  1.0400  2.6749
  270TMC3    H1 4140   3.766   0.832  15.667 -0.3981  0.9159  0.5767
  270TMC3    H2 4141   3.525   0.478  15.659 -2.1814 -0.2796  0.6873
  270TMC3    C7 4142   3.764   0.549  15.643 -0.8277  0.5931 -0.1313
  270TMC3    C8 4143   3.289   0.599  15.667  0.3617  0.6966  0.4395
  270TMC3    O1 4144   3.745   0.435  15.680  0.5613  0.3358 -0.2128
  270TMC3    O2 4145   3.306   0.487  15.626  0.1910  0.4419  1.1117
  271MPD2     C 4146   2.390   0.755  14.318 -0.4917  0.2536  0.1141
  271MPD2    C1 4147   2.324   0.640  14.353  0.2032 -0.1004  0.0420
  271MPD2    C2 4148   2.207   0.610  14.291  0.3922  0.6508  0.4995
  271MPD2    C3 4149   2.141   0.709  14.217  0.6574 -0.0401 -0.0614
  271MPD2    C4 4150   2.204   0.831  14.202 -0.2031 -0.0205 -0.4013
  271MPD2    C5 4151   2.329   0.852  14.254  0.3585  0.5098  0.2769
  271MPD2     H 4152   2.165   0.513  14.313 -0.8077  1.7650  3.0439
  271MPD2    H1 4153   2.162   0.904  14.133 -2.1781  0.2636  1.0994
  271MPD2    H2 4154   2.491   0.776  14.349 -0.4567  1.5589 -0.8938
  271MPD2    H3 4155   2.382   0.944  14.233  0.0815  0.3917 -0.9173
  271MPD2     N 4156   2.018   0.695  14.158 -0.1262  0.2735 -0.0478
  271MPD2    H5 4157   1.970   0.770  14.109 -0.3701  0.8001  1.0027
  271MPD2    N1 4158   2.385   0.537  14.429  0.2998 -0.0765  0.1790
  271MPD2    H7 4159   2.337   0.448  14.438 -0.9459  0.3267 -2.7412
  272TMC3    C1 4160   2.527   0.441  14.583  0.0340 -0.0945 -0.4510
  272TMC3    C2 4161   2.661   0.399  14.594  0.0298 -0.7455  0.0706
  272TMC3    C3 4162   2.720   0.385  14.718  0.6284 -1.1376  0.5211
  272TMC3    C4 4163   2.452   0.468  14.697 -0.6990 -0.2918 -0.2090
  272TMC3    C5 4164   2.525   0.462  14.818 -0.1589 -0.3056  0.1612
  272TMC3    C6 4165   2.655   0.425  14.830 -0.6275 -0.6686  0.2827
  272TMC3     C 4166   2.510   0.549  14.484 -0.7121  0.3333  0.0673
  272TMC3     O 4167   2.581   0.648  14.505  0.1664  0.2016 -0.0424
  272TMC3     H 4168   2.710   0.396  14.497 -2.0638  0.0519 -1.0152
  272TMC3    H1 4169   2.352   0.506  14.707 -0.6711  0.0883 -1.3853
  272TMC3    H2 4170   2.694   0.411  14.930  3.3224  1.6496 -0.9429
  272TMC3    C7 4171   2.464   0.541  14.925  0.5988 -0.6532  0.4213
  272TMC3    C8 4172   2.837   0.307  14.736 -0.2334 -0.6735 -0.1345
  272TMC3    O1 4173   2.340   0.551  14.928 -0.0153  0.1120 -0.1318
  272TMC3    O2 4174   2.898   0.319  14.840 -0.4046  0.2231 -0.1756
  273MPD2     C 4175   4.169   3.466  11.884  0.1176  0.6301 -0.0366
  273MPD2    C1 4176   4.306   3.458  11.906  0.3088  0.6109 -0.9749
  273MPD2    C2 4177   4.387   3.491  11.803 -0.0293 -0.8463  0.9570
  273MPD2    C3 4178   4.330   3.519  11.679  0.1674 -0.2080 -0.0067
  273MPD2    C4 4179   4.197   3.530  11.662  0.3282  0.1975 -0.0821
  273MPD2    C5 4180   4.117   3.497  11.766 -0.0465  0.4617  0.0850
  273MPD2     H 4181   4.495   3.493  11.815 -0.0312 -0.4766  0.9145
  273MPD2    H1 4182   4.148   3.550  11.568  1.2633  2.1912 -0.1285
  273MPD2    H2 4183   4.106   3.445  11.970  0.3741  2.2564  0.5396
  273MPD2    H3 4184   4.009   3.492  11.752 -0.2263  3.3323  0.3865
  273MPD2     N 4185   4.407   3.546  11.568  0.2345  0.7190  0.1536
  273MPD2    H5 4186   4.365   3.588  11.486  2.5280  1.5505 -0.5920
  273MPD2    N1 4187   4.353   3.397  12.023  0.2366  0.1435  0.1081
  273MPD2    H7 4188   4.282   3.357  12.084  1.1007 -0.2459  0.8576
  274TMC3    C1 4189   4.595   3.603  11.453  0.6753 -0.9241  0.5026
  274TMC3    C2 4190   4.523   3.637  11.348 -0.7234 -0.0258  0.0297
  274TMC3    C3 4191   4.561   3.731  11.257  0.6341  1.6621  0.5747
  274TMC3    C4 4192   4.716   3.660  11.475  0.2196  0.0092 -0.0569
  274TMC3    C5 4193   0.009   3.767  11.396  0.0123 -0.2009 -0.5095
  274TMC3    C6 4194   4.676   3.797  11.278  0.3303 -0.4008  0.0942
  274TMC3     C 4195   4.548   3.533  11.572 -0.1194 -0.0214  0.8944
  274TMC3     O 4196   4.632   3.489  11.651  0.1523 -1.0549  0.4608
  274TMC3     H 4197   4.424   3.594  11.334  0.2098 -2.5561  1.0879
  274TMC3    H1 4198   0.037   3.643  11.564  0.3246 -0.3512 -0.1991
  274TMC3    H2 4199   4.696   3.896  11.238 -1.9361  0.9796  2.3554
  274TMC3    C7 4200   0.101   3.871  11.450  0.3708 -0.2805 -0.3573
  274TMC3    C8 4201   4.459   3.817  11.196 -0.5543  0.1157 -0.3178
  274TMC3    O1 4202   0.169   3.929  11.363  0.1671 -0.0923 -0.0828
  274TMC3    O2 4203   4.470   3.938  11.182 -0.2665 -0.3161  0.2460
  275MPD2     C 4204   4.044   1.403  14.435  0.0796 -0.1662 -0.4493
  275MPD2    C1 4205   3.986   1.522  14.476  0.5532 -0.1365  0.2348
  275MPD2    C2 4206   3.858   1.515  14.515  0.7636  0.0095  0.1088
  275MPD2    C3 4207   3.789   1.393  14.508 -0.7677 -0.8353 -0.0965
  275MPD2    C4 4208   3.843   1.276  14.482 -1.4847 -0.4497  0.6263
  275MPD2    C5 4209   3.976   1.284  14.453 -0.2412 -0.1164 -0.0600
  275MPD2     H 4210   3.813   1.606  14.552  1.4164  0.5153 -0.3253
  275MPD2    H1 4211   3.791   1.182  14.498 -1.3931 -0.5677  0.2543
  275MPD2    H2 4212   4.149   1.398  14.409  0.4857  4.0858  0.4065
  275MPD2    H3 4213   4.022   1.188  14.430  3.6750  1.7034  0.1789
  275MPD2     N 4214   3.648   1.386  14.546  0.2920 -0.1360 -0.7390
  275MPD2    H5 4215   3.603   1.295  14.552  0.1301  0.0372  0.7335
  275MPD2    N1 4216   4.062   1.639  14.504  0.0385  0.4227  0.3126
  275MPD2    H7 4217   4.010   1.712  14.551  2.6342  2.7922 -0.5046
  276TMC3    C1 4218   4.254   1.775  14.553  0.4028  0.0714  0.4215
  276TMC3    C2 4219   4.180   1.894  14.546 -0.2220  0.1592  0.2259
  276TMC3    C3 4220   4.237   2.007  14.601  0.3124  0.2428  0.5131
  276TMC3    C4 4221   4.386   1.777  14.600  0.7801  0.2970  0.6162
  276TMC3    C5 4222   4.431   1.891  14.660  0.3766  0.5642  1.3620
  276TMC3    C6 4223   4.359   2.002  14.658 -0.0258 -0.6934  0.5445
  276TMC3     C 4224   4.197   1.653  14.495  0.6047  0.5602  0.3044
  276TMC3     O 4225   4.274   1.567  14.454  0.1904 -0.1854  0.6157
  276TMC3     H 4226   4.073   1.893  14.529  0.2419  0.5222 -2.6996
  276TMC3    H1 4227   4.448   1.691  14.618 -0.2085 -0.4051  0.6852
  276TMC3    H2 4228   4.401   2.093  14.700 -0.3557  1.1103 -2.9972
  276TMC3    C7 4229   4.523   1.872  14.772 -0.0151 -0.1582  0.2074
  276TMC3    C8 4230   4.148   2.059  14.698 -0.0857  0.8253 -0.4452
  276TMC3    O1 4231   4.501   1.949  14.865 -0.4098 -0.0354 -0.3359
  276TMC3    O2 4232   4.050   2.121  14.667  0.2082 -0.0491  0.1817
  277MPD2     C 4233   1.092   0.501  13.518  0.2591 -0.2189 -0.5294
  277MPD2    C1 4234   0.960   0.542  13.502 -0.1888  0.4374  0.0547
  277MPD2    C2 4235   0.859   0.461  13.535 -0.0026  0.3870 -0.0027
  277MPD2    C3 4236   0.875   0.330  13.580  0.0305 -0.4428 -0.1282
  277MPD2    C4 4237   1.009   0.284  13.584 -0.4525  0.4398  0.1904
  277MPD2    C5 4238   1.113   0.370  13.565 -0.2713  0.6264  0.4986
  277MPD2     H 4239   0.758   0.500  13.527 -0.3827 -1.4890 -4.1169
  277MPD2    H1 4240   1.026   0.182  13.617  0.3710  0.8090  0.9134
  277MPD2    H2 4241   1.179   0.558  13.488 -0.1973  0.8646  0.2000
  277MPD2    H3 4242   1.211   0.333  13.594 -0.0448 -1.2859 -2.6918
  277MPD2     N 4243   0.759   0.252  13.600  0.8833  0.0232  0.3806
  277MPD2    H5 4244   0.669   0.298  13.591 -0.0550 -1.4202  2.3251
  277MPD2    N1 4245   0.944   0.675  13.452  0.0932 -0.6070  0.0178
  277MPD2    H7 4246   1.021   0.740  13.463 -1.0014  0.1884  2.9217
  278TMC3    C1 4247   0.628   0.079  13.685  0.1469  0.6233 -0.7139
  278TMC3    C2 4248   0.596   4.682  13.680  0.5961 -0.5461 -0.0495
  278TMC3    C3 4249   0.470   4.648  13.718 -0.1424 -0.3653 -0.4793
  278TMC3    C4 4250   0.535   0.167  13.727  0.2526  0.3518 -0.0261
  278TMC3    C5 4251   0.414   0.124  13.784  0.1862  0.3127  0.2685
  278TMC3    C6 4252   0.383   4.735  13.773 -0.7380  0.0983  0.8208
  278TMC3     C 4253   0.757   0.122  13.641  0.5155  0.2348 -0.0880
  278TMC3     O 4254   0.848   0.043  13.661  0.4086 -0.0198 -0.4456
  278TMC3     H 4255   0.660   4.606  13.637 -0.1876 -1.4530  0.3730
  278TMC3    H1 4256   0.551   0.274  13.719 -2.2604  0.7625  0.1476
  278TMC3    H2 4257   0.288   4.698  13.810 -0.1973 -1.6746  0.4719
  278TMC3    C7 4258   0.343   0.220  13.867 -0.3944  0.1209  0.6331
  278TMC3    C8 4259   0.424   4.512  13.698  0.6566 -0.5164 -0.2595
  278TMC3    O1 4260   0.367   0.337  13.866 -0.4392 -0.0338 -0.3597
  278TMC3    O2 4261   0.513   4.426  13.717  0.2938 -0.4493  1.1934
  279MPD2     C 4262   4.352   0.395   0.078 -0.1449  0.2294 -0.7126
  279MPD2    C1 4263   4.391   0.523   0.120 -0.2765  0.0104 -0.1708
  279MPD2    C2 4264   4.404   0.619   0.013  0.2332  0.0527 -0.3712
  279MPD2    C3 4265   4.386   0.591  17.628 -0.4441 -0.2370 -0.2961
  279MPD2    C4 4266   4.347   0.461  17.603  0.0710  0.6022 -0.1363
  279MPD2    C5 4267   4.326   0.363  17.699  0.0930  0.6766  0.5308
  279MPD2     H 4268   4.427   0.720   0.042 -2.5709  0.8116 -0.8185
  279MPD2    H1 4269   4.327   0.433  17.501  1.5963  2.6440 -0.9821
  279MPD2    H2 4270   4.357   0.306   0.140  0.5179 -0.9487 -2.4603
  279MPD2    H3 4271   4.311   0.257  17.681 -2.0726  1.5211 -2.6064
  279MPD2     N 4272   4.423   0.677  17.521  0.0408 -0.3850  0.1505
  279MPD2    H5 4273   4.413   0.631  17.431  0.9403 -0.2472 -0.0139
  279MPD2    N1 4274   4.405   0.554   0.256 -0.0943 -0.6148 -0.0920
  279MPD2    H7 4275   4.378   0.478   0.317 -3.0458  0.0259 -0.5855
  280TMC3    C1 4276   4.439   0.665   0.447  0.3150  0.4985  0.0020
  280TMC3    C2 4277   4.416   0.547   0.514 -0.2658 -0.3219 -0.2971
  280TMC3    C3 4278   4.345   0.563   0.631  0.3533 -0.1155  0.3482
  280TMC3    C4 4279   4.401   0.787   0.493 -0.6707 -0.6105  0.4992
  280TMC3    C5 4280   4.312   0.795   0.597 -0.7553 -0.7486  0.0450
  280TMC3    C6 4281   4.293   0.685   0.674 -0.1991 -0.4665 -0.9013
  280TMC3     C 4282   4.465   0.664   0.305 -0.1719  0.6335  0.0203
  280TMC3     O 4283   4.522   0.754   0.244  0.2620 -0.3390 -0.3028
  280TMC3     H 4284   4.446   0.445   0.491 -1.9236 -0.4710 -1.7586
  280TMC3    H1 4285   4.417   0.871   0.425  1.2141 -1.3327  0.0319
  280TMC3    H2 4286   4.212   0.682   0.746  0.4554 -3.0824 -0.2992
  280TMC3    C7 4287   4.251   0.925   0.619  0.7333 -0.2636  0.0934
  280TMC3    C8 4288   4.286   0.441   0.690 -0.6427  0.3805  0.0295
  280TMC3    O1 4289   4.303   1.023   0.564 -0.2881 -0.5758 -0.0598
  280TMC3    O2 4290   4.266   0.350   0.612  0.4398 -0.0145 -0.4877
  281TMC3    C1 4291   4.103   1.037  13.465 -0.3123  0.1601 -0.2012
  281TMC3    C2 4292   4.030   1.113  13.369 -0.5376  0.2252 -0.5711
  281TMC3    C3 4293   3.951   1.042  13.279 -0.2869  0.5813 -0.7299
  281TMC3    C4 4294   4.127   0.905  13.446  0.0417  0.0779  0.5343
  281TMC3    C5 4295   4.063   0.851  13.338  0.0321 -0.1787  0.2832
  281TMC3    C6 4296   3.970   0.914  13.254 -0.6027  0.5034 -0.6552
  281TMC3     C 4297   4.051   1.054  13.599  0.1411 -0.2234 -0.6574
  281TMC3     O 4298   4.025   0.951  13.663 -0.1127 -0.5247 -0.1880
  281TMC3     H 4299   4.012   1.220  13.377  1.3163  0.5041 -0.2807
  281TMC3    H1 4300   4.175   0.839  13.517 -0.6057 -1.2300 -0.2512
  281TMC3    H2 4301   3.909   0.871  13.175 -0.7484 -3.1916  1.4768
  281TMC3    C7 4302   4.042   0.712  13.361  0.8614  0.3413  0.0415
  281TMC3    C8 4303   3.812   1.068  13.301  0.1778  0.6319  0.4411
  281TMC3    O1 4304   4.142   0.649  13.396  0.8875 -0.8691 -0.2170
  281TMC3    O2 4305   3.741   0.972  13.326 -0.0489 -0.6565 -0.6059
  282MPD2     C 4306   0.739   1.557  15.215  0.3366 -0.1893  0.2043
  282MPD2    C1 4307   0.657   1.665  15.234  0.2187 -0.1889 -0.3678
  282MPD2    C2 4308   0.619   1.739  15.122 -0.1814  0.2765  0.0882
  282MPD2    C3 4309   0.661   1.707  14.994 -0.3826 -0.2288 -0.0575
  282MPD2    C4 4310   0.752   1.606  14.980  0.6979  0.4263 -0.4879
  282MPD2    C5 4311   0.788   1.530  15.090 -0.0722 -0.1749 -0.1232
  282MPD2     H 4312   0.549   1.819  15.140 -1.2905 -0.7656  0.4329
  282MPD2    H1 4313   0.797   1.573  14.887  1.2141 -0.1204 -0.0402
  282MPD2    H2 4314   0.773   1.498  15.299  1.9143  1.4514  0.7121
  282MPD2    H3 4315   0.864   1.453  15.086  0.2617  0.1870 -0.6669
  282MPD2     N 4316   0.601   1.759  14.877 -0.3621  0.4319  0.5447
  282MPD2    H5 4317   0.522   1.820  14.894 -1.0329 -0.8556  2.0292
  282MPD2    N1 4318   0.596   1.703  15.358 -0.1528  0.4872  0.3441
  282MPD2    H7 4319   0.543   1.790  15.360 -1.5717 -0.4198  2.1005
  283TMC3    C1 4320   0.523   1.694  15.586 -0.2353  0.3456  1.2756
  283TMC3    C2 4321   0.548   1.821  15.623  0.5127 -0.0144 -0.1290
  283TMC3    C3 4322   0.478   1.876  15.733 -0.3674 -0.2188  0.1329
  283TMC3    C4 4323   0.427   1.622  15.654 -0.4734 -0.0589 -0.3436
  283TMC3    C5 4324   0.363   1.673  15.768  0.6440 -0.4371  0.2840
  283TMC3    C6 4325   0.387   1.803  15.806  0.0384 -0.0980  0.1612
  283TMC3     C 4326   0.610   1.636  15.480 -0.3465 -0.1170  0.5228
  283TMC3     O 4327   0.629   1.514  15.482  0.0817 -0.5214 -0.2147
  283TMC3     H 4328   0.638   1.869  15.584 -0.0981  1.5517  0.3786
  283TMC3    H1 4329   0.397   1.528  15.608 -0.4602  0.0015 -0.4753
  283TMC3    H2 4330   0.332   1.856  15.883 -1.2592 -1.6035  0.2733
  283TMC3    C7 4331   0.235   1.623  15.813  0.7759  0.1694  0.0958
  283TMC3    C8 4332   0.499   2.010  15.771 -0.6240 -0.4665  0.0038
  283TMC3    O1 4333   0.164   1.690  15.886  0.2217  0.0477  0.0292
  283TMC3    O2 4334   0.468   2.030  15.888 -0.1773  0.6664 -0.6897
  284MPD2     C 4335   3.573   1.119  12.221 -0.5814  0.2979 -0.2332
  284MPD2    C1 4336   3.684   1.165  12.158 -0.2764  0.8938 -0.1427
  284MPD2    C2 4337   3.805   1.153  12.217  0.4645 -0.0337  0.5714
  284MPD2    C3 4338   3.812   1.092  12.343  0.0013  1.0357  0.7096
  284MPD2    C4 4339   3.701   1.046  12.405 -0.4883 -0.1519  0.0003
  284MPD2    C5 4340   3.584   1.061  12.342  0.4974  0.1055 -0.3062
  284MPD2     H 4341   3.892   1.192  12.166  0.0021  0.8191  0.4277
  284MPD2    H1 4342   3.695   1.013  12.508  0.0194 -1.2520 -0.3243
  284MPD2    H2 4343   3.477   1.123  12.172 -0.5750 -2.6286 -0.5225
  284MPD2    H3 4344   3.492   1.033  12.392  1.7711 -0.5456  1.6902
  284MPD2     N 4345   3.931   1.086  12.418 -0.4375 -0.5864 -0.3209
  284MPD2    H5 4346   3.932   1.031  12.503 -0.6387 -1.0212 -0.6003
  284MPD2    N1 4347   3.675   1.215  12.027 -0.4362 -0.4292  0.3425
  284MPD2    H7 4348   3.763   1.224  11.977  0.0228  0.3267  1.2813
  285TMC3    C1 4349   3.603   1.284  11.819 -0.6409 -0.2940 -0.2622
  285TMC3    C2 4350   3.700   1.207  11.764 -0.5836 -0.2490  0.8184
  285TMC3    C3 4351   3.781   1.254  11.665  0.6649 -0.0686 -0.3753
  285TMC3    C4 4352   3.576   1.407  11.771 -0.7251  0.0951 -0.3735
  285TMC3    C5 4353   3.660   1.455  11.672  0.4478  0.2589 -0.3040
  285TMC3    C6 4354   3.762   1.384  11.618 -0.1510 -0.5618 -0.7180
  285TMC3     C 4355   3.565   1.251  11.956 -0.6444 -0.3670  0.0443
  285TMC3     O 4356   3.458   1.282  12.004 -0.4596 -0.0853  0.0550
  285TMC3     H 4357   3.711   1.103  11.790  1.6904 -0.5419 -1.2840
  285TMC3    H1 4358   3.520   1.469  11.840  1.7557  0.6673  1.1188
  285TMC3    H2 4359   3.832   1.417  11.542  0.3620 -1.0917 -0.4720
  285TMC3    C7 4360   3.657   1.593  11.639  0.5441  0.7980  0.5722
  285TMC3    C8 4361   3.850   1.153  11.583 -0.0739  0.7609 -0.1356
  285TMC3    O1 4362   3.740   1.638  11.562 -0.2324  0.4878 -0.1856
  285TMC3    O2 4363   3.821   1.038  11.612 -0.3165  0.0919 -0.1408
  286MPD2     C 4364   4.316   0.499   1.620  0.1030  0.4256 -0.5886
  286MPD2    C1 4365   4.238   0.411   1.542  0.2065  0.1361 -0.3515
  286MPD2    C2 4366   4.293   0.300   1.483  0.7080  0.4833  0.4346
  286MPD2    C3 4367   4.433   0.277   1.494 -0.4404  0.1511 -0.6665
  286MPD2    C4 4368   4.504   0.370   1.564  0.0831 -0.2543  0.2104
  286MPD2    C5 4369   4.449   0.473   1.628 -0.0508 -0.6853 -0.2010
  286MPD2     H 4370   4.227   0.233   1.429  0.8907 -0.2898  1.1726
  286MPD2    H1 4371   4.608   0.346   1.586  0.0877 -0.0735  0.3896
  286MPD2    H2 4372   4.274   0.582   1.676 -0.3531  0.1234 -0.4806
  286MPD2    H3 4373   4.517   0.533   1.689 -1.5186  1.8027 -0.9920
  286MPD2     N 4374   4.504   0.179   1.422  0.0167 -0.0219  0.3512
  286MPD2    H5 4375   4.605   0.189   1.415  0.1630 -1.0313  1.0525
  286MPD2    N1 4376   4.101   0.431   1.516  0.3771 -0.0293  0.0797
  286MPD2    H7 4377   4.058   0.361   1.457  1.6422  0.3741 -1.3402
  287TMC3    C1 4378   4.529   0.013   1.254 -0.6458 -0.5106 -0.0233
  287TMC3    C2 4379   4.468   4.696   1.146 -0.3811  0.5156  0.8985
  287TMC3    C3 4380   4.533   4.599   1.080 -0.8161  0.1024  0.3890
  287TMC3    C4 4381   4.650   4.704   1.300 -0.1723 -0.0384 -0.3470
  287TMC3    C5 4382   4.706   4.603   1.225  0.8187  0.7020 -0.5231
  287TMC3    C6 4383   4.658   4.556   1.111  0.2556  0.7647 -0.4733
  287TMC3     C 4384   4.442   0.087   1.345  0.2540 -0.2832 -0.2619
  287TMC3     O 4385   4.326   0.062   1.321  0.0167  0.0911 -0.3535
  287TMC3     H 4386   4.366   4.718   1.116  0.3058  1.0110 -1.0416
  287TMC3    H1 4387   4.712   0.013   1.376 -1.8626  3.8297 -1.4057
  287TMC3    H2 4388   4.713   4.484   1.052 -1.3412 -1.3843  0.6922
  287TMC3    C7 4389   0.102   4.565   1.262  0.6055  0.0505 -0.1109
  287TMC3    C8 4390   4.475   4.539   0.963 -0.0281 -0.6670  0.3227
  287TMC3    O1 4391   0.161   4.640   1.337 -0.6535 -0.0445 -0.4720
  287TMC3    O2 4392   4.490   4.417   0.945 -0.0767  0.0270 -0.0665
  288TMC3    C1 4393   0.740   4.595  14.585  0.3939  0.2308  0.4147
  288TMC3    C2 4394   0.714   4.566  14.713  0.2984  0.8068 -0.2752
  288TMC3    C3 4395   0.620   4.471  14.739  0.1281 -0.1100 -0.3851
  288TMC3    C4 4396   0.660   4.539  14.487  0.7012 -0.3091 -0.2133
  288TMC3    C5 4397   0.556   4.449  14.516  0.3480 -0.2752 -0.4996
  288TMC3    C6 4398   0.546   4.401  14.647 -0.7839  0.0285  0.6517
  288TMC3     C 4399   0.863   4.664  14.559 -0.4893 -0.4128 -0.1506
  288TMC3     O 4400   0.922   4.721  14.650 -0.5969  0.2442 -0.1005
  288TMC3     H 4401   0.758   4.621  14.795  3.1605 -0.3748 -1.0325
  288TMC3    H1 4402   0.686   4.564  14.385  0.7241 -1.4434 -0.4853
  288TMC3    H2 4403   0.455   4.346  14.667 -2.5509  1.6519 -2.8710
  288TMC3    C7 4404   0.488   4.381  14.410  0.5283 -0.0569 -0.2137
  288TMC3    C8 4405   0.581   4.454  14.883 -0.5950 -0.2248 -0.1350
  288TMC3    O1 4406   0.411   4.294  14.447 -0.1583 -0.7765  0.5225
  288TMC3    O2 4407   0.631   4.531  14.964  0.2456  0.5426 -0.1960
  289MPD2     C 4408   0.730   3.683  14.691 -0.5285  0.4532 -0.1355
  289MPD2    C1 4409   0.747   3.770  14.588  0.4583 -0.1323 -0.0878
  289MPD2    C2 4410   0.631   3.804  14.517 -0.4505 -0.7964 -0.1141
  289MPD2    C3 4411   0.509   3.745  14.541 -0.6862 -0.0624 -0.5518
  289MPD2    C4 4412   0.501   3.645  14.638 -0.7241  0.5895 -0.6411
  289MPD2    C5 4413   0.610   3.621  14.713 -0.7752  0.5649 -0.5447
  289MPD2     H 4414   0.639   3.895  14.458 -1.2212 -1.1865 -0.8261
  289MPD2    H1 4415   0.403   3.601  14.648  0.1767 -1.1147  0.7936
  289MPD2    H2 4416   0.806   3.658  14.764 -0.1239  1.2214 -0.2925
  289MPD2    H3 4417   0.588   3.558  14.799  0.1031 -1.1192 -1.5578
  289MPD2     N 4418   0.392   3.780  14.475  0.0122  0.0337  0.2073
  289MPD2    H5 4419   0.306   3.739  14.508 -0.1647  0.6882  0.5623
  289MPD2    N1 4420   0.868   3.840  14.566 -0.1624 -0.6631 -0.2871
  289MPD2    H7 4421   0.937   3.823  14.638 -1.3039  0.4027  1.0721
  290TMC3    C1 4422   0.242   3.906  14.337 -0.1539  0.3380  0.5903
  290TMC3    C2 4423   0.194   4.036  14.351 -0.2930 -0.0382 -0.0683
  290TMC3    C3 4424   0.059   4.060  14.363  0.2304  0.1732 -0.0447
  290TMC3    C4 4425   0.154   3.803  14.345 -0.3812 -0.0219  0.1100
  290TMC3    C5 4426   0.022   3.829  14.356  0.2492  0.7432 -0.3895
  290TMC3    C6 4427   4.709   3.959  14.356 -0.0967 -0.0554 -0.3206
  290TMC3     C 4428   0.380   3.888  14.385 -0.5174 -0.0236 -0.0851
  290TMC3     O 4429   0.456   3.983  14.365 -0.1160  0.6616  0.0703
  290TMC3     H 4430   0.254   4.126  14.364 -2.0474  1.1279  0.0167
  290TMC3    H1 4431   0.188   3.703  14.324  1.2347 -0.3251  4.0357
  290TMC3    H2 4432   4.602   3.970  14.348 -0.0789  0.7659  0.5093
  290TMC3    C7 4433   4.669   3.730  14.308  0.4648  0.0879  0.6089
  290TMC3    C8 4434   0.009   4.197  14.340 -0.4131 -0.4157  0.1379
  290TMC3    O1 4435   4.562   3.765  14.259  0.4867  0.0485  0.4884
  290TMC3    O2 4436   4.641   4.207  14.279 -0.2072  0.8556  0.1259
  291MPD2     C 4437   4.272   3.985   0.178  0.4290  0.2964 -0.8230
  291MPD2    C1 4438   4.411   3.975   0.187  0.5227 -0.4503  0.0107
  291MPD2    C2 4439   4.493   4.076   0.130  0.0047 -0.0715  0.4590
  291MPD2    C3 4440   4.429   4.183   0.062  0.0307 -0.2622 -0.3861
  291MPD2    C4 4441   4.291   4.189   0.046  1.0156  0.0095 -1.0164
  291MPD2    C5 4442   4.218   4.095   0.107 -0.1918 -0.3862  0.1104
  291MPD2     H 4443   4.601   4.075   0.142 -0.3068 -0.4300  3.2384
  291MPD2    H1 4444   4.245   4.267  17.739 -0.8148  0.0889  0.4843
  291MPD2    H2 4445   4.201   3.922   0.231  1.9514  0.1630  1.0706
  291MPD2    H3 4446   4.112   4.096   0.087 -0.0181 -2.1022 -0.8784
  291MPD2     N 4447   4.491   4.291  17.748  0.0783 -0.2518  0.0132
  291MPD2    H5 4448   4.438   4.349  17.684  1.7822 -0.9902 -2.0745
  291MPD2    N1 4449   4.476   3.863   0.243  0.2971  0.0068  0.2966
  291MPD2    H7 4450   4.576   3.867   0.259  0.1490 -1.6148  1.6374
  292TMC3    C1 4451   4.497   3.640   0.317  0.0915  0.0790  0.3696
  292TMC3    C2 4452   4.533   3.672   0.442  0.0271  0.8906 -0.1178
  292TMC3    C3 4453   4.558   3.565   0.530  0.4673  0.2836 -0.2557
  292TMC3    C4 4454   4.478   3.510   0.280  0.6586 -0.3851 -0.7504
  292TMC3    C5 4455   4.486   3.412   0.376  0.7779 -0.3221 -0.4418
  292TMC3    C6 4456   4.532   3.434   0.499  0.5552  0.6022  0.0278
  292TMC3     C 4457   4.409   3.741   0.257  0.8341  0.3384  0.7289
  292TMC3     O 4458   4.301   3.704   0.213  0.2196 -0.1685  0.1858
  292TMC3     H 4459   4.537   3.770   0.487  1.3783  1.8723 -2.3837
  292TMC3    H1 4460   4.445   3.482   0.180  1.2902  1.6472 -1.5345
  292TMC3    H2 4461   4.564   3.351   0.561  0.2561  0.3591 -0.1457
  292TMC3    C7 4462   4.473   3.275   0.333  0.2183  0.1041 -0.1672
  292TMC3    C8 4463   4.587   3.595   0.669  0.4007 -0.6678 -0.7353
  292TMC3    O1 4464   4.497   3.237   0.218 -0.1823 -0.4280 -0.3870
  292TMC3    O2 4465   4.635   3.707   0.687  0.0328  0.1676 -0.5900
  293MPD2     C 4466   1.848   4.633  12.804 -0.1042 -0.7342 -0.0231
  293MPD2    C1 4467   1.807   0.025  12.824  0.6577  0.0736  0.0969
  293MPD2    C2 4468   1.856   0.099  12.928 -0.3229  0.3542 -0.9635
  293MPD2    C3 4469   1.946   0.038  13.016  0.7599  0.5546 -0.2887
  293MPD2    C4 4470   2.011   4.653  12.986  0.4449  0.1011 -0.3080
  293MPD2    C5 4471   1.951   4.587  12.875 -0.0895  0.1932  0.0538
  293MPD2     H 4472   1.809   0.192  12.958  0.6668  0.2931  0.7858
  293MPD2    H1 4473   2.085   4.602  13.046 -1.1027  0.7894  2.1486
  293MPD2    H2 4474   1.809   4.569  12.725  0.9525 -1.7500  0.2816
  293MPD2    H3 4475   1.981   4.489  12.842  0.2741 -0.2103  1.5990
  293MPD2     N 4476   1.966   0.094  13.143 -0.4210  0.2106  0.2084
  293MPD2    H5 4477   1.921   0.184  13.157 -0.3441  0.4207 -0.8350
  293MPD2    N1 4478   1.709   0.083  12.739 -0.1116 -0.1523 -0.6981
  293MPD2    H7 4479   1.662   0.014  12.681  1.3592  0.4648 -2.6402
  294TMC3    C1 4480   1.571   0.239  12.641 -0.5009 -0.0754  0.2631
  294TMC3    C2 4481   1.459   0.172  12.664  0.0175  0.5258  0.4072
  294TMC3    C3 4482   1.343   0.232  12.613  0.6366  0.1510 -0.0186
  294TMC3    C4 4483   1.571   0.356  12.557 -0.2413  0.6399  0.0279
  294TMC3    C5 4484   1.457   0.395  12.498 -0.6877  0.4820 -0.1217
  294TMC3    C6 4485   1.337   0.340  12.528  0.1764 -0.4779 -0.3403
  294TMC3     C 4486   1.688   0.218  12.728 -0.1678  0.2636 -0.2114
  294TMC3     O 4487   1.750   0.313  12.770  0.2571  0.2710 -0.1191
  294TMC3     H 4488   1.446   0.087  12.729  2.3961 -0.8632 -0.9595
  294TMC3    H1 4489   1.666   0.409  12.561  0.2387 -0.2547  0.7416
  294TMC3    H2 4490   1.244   0.380  12.490  0.7580 -0.5679 -1.8549
  294TMC3    C7 4491   1.464   0.484  12.382 -0.1455 -0.3039 -0.0127
  294TMC3    C8 4492   1.224   0.163  12.638 -0.0097 -0.2520  0.0524
  294TMC3    O1 4493   1.359   0.528  12.341 -0.2825 -0.1454  0.0523
  294TMC3    O2 4494   1.123   0.230  12.646  0.2057  0.3856  0.0773
  295MPD2     C 4495   2.388   4.254   1.208 -0.1326 -0.5339  0.6248
  295MPD2    C1 4496   2.258   4.236   1.173 -0.4080  0.0312 -0.5269
  295MPD2    C2 4497   2.154   4.271   1.253 -0.2003 -0.0681  0.1768
  295MPD2    C3 4498   2.186   4.306   1.384  0.5881 -0.1762 -0.2503
  295MPD2    C4 4499   2.318   4.317   1.426 -0.2226  0.0138  0.0416
  295MPD2    C5 4500   2.418   4.291   1.339 -0.8104 -0.6137 -0.2363
  295MPD2     H 4501   2.054   4.251   1.217  0.3756  0.3503 -1.6405
  295MPD2    H1 4502   2.345   4.342   1.529  2.1935  0.7928 -0.7708
  295MPD2    H2 4503   2.480   4.227   1.156 -0.0988 -1.5073  1.1831
  295MPD2    H3 4504   2.522   4.289   1.370 -1.2019 -0.8519  1.0390
  295MPD2     N 4505   2.082   4.333   1.475 -0.2973 -0.4848 -0.4529
  295MPD2    H5 4506   2.112   4.367   1.566  1.9972 -2.1603 -0.5906
  295MPD2    N1 4507   2.218   4.199   1.047  0.4266  0.1021  0.8735
  295MPD2    H7 4508   2.119   4.190   1.026  0.4837  1.0259  0.1993
  296TMC3    C1 4509   1.864   4.328   1.565  0.2143 -0.8751  0.5065
  296TMC3    C2 4510   1.904   4.411   1.661  0.6717 -0.6228 -0.9570
  296TMC3    C3 4511   1.858   4.389   1.791  0.2998 -0.0845 -0.1781
  296TMC3    C4 4512   1.771   4.238   1.588 -0.0796  0.5679  0.2027
  296TMC3    C5 4513   1.725   4.217   1.711  0.0855  0.0473 -0.3107
  296TMC3    C6 4514   1.767   4.292   1.817  0.6631 -0.1273 -0.4429
  296TMC3     C 4515   1.949   4.305   1.449 -0.5653 -0.2309  0.4035
  296TMC3     O 4516   1.891   4.267   1.347  0.5435  0.1050  0.3965
  296TMC3     H 4517   1.957   4.501   1.636  0.4847 -0.2628 -0.0436
  296TMC3    H1 4518   1.745   4.177   1.502  0.0155  1.0955 -0.1948
  296TMC3    H2 4519   1.766   4.261   1.921 -0.5097 -1.5796 -0.8987
  296TMC3    C7 4520   1.657   4.091   1.745  0.1159 -0.6696 -0.3585
  296TMC3    C8 4521   1.874   4.489   1.892  0.3279 -0.3890  0.0928
  296TMC3    O1 4522   1.570   4.090   1.837 -0.5212  0.8730 -0.4043
  296TMC3    O2 4523   1.796   4.486   1.989  0.1514 -0.0561  0.3838
  297MPD2     C 4524   4.167   1.479  16.980 -0.0160 -0.5958  1.1355
  297MPD2    C1 4525   4.122   1.376  16.901  0.5946  0.2921 -0.4992
  297MPD2    C2 4526   4.179   1.356  16.775 -0.1136  0.4721  0.0234
  297MPD2    C3 4527   4.290   1.433  16.730 -0.4643 -0.7165 -0.4488
  297MPD2    C4 4528   4.332   1.534  16.816 -0.0375  0.0478 -0.5808
  297MPD2    C5 4529   4.269   1.562  16.933 -0.1478 -0.0820 -0.0256
  297MPD2     H 4530   4.129   1.288  16.706 -2.2425  1.6355  0.4343
  297MPD2    H1 4531   4.414   1.597  16.784 -0.4305  0.2747 -1.1379
  297MPD2    H2 4532   4.116   1.510  17.070 -0.2969 -0.2742  0.8627
  297MPD2    H3 4533   4.305   1.645  16.994 -1.1383  0.0615  0.3631
  297MPD2     N 4534   4.349   1.423  16.602  0.5156 -0.1382 -0.3252
  297MPD2    H5 4535   4.426   1.487  16.587 -0.1499  1.3769  2.7420
  297MPD2    N1 4536   4.008   1.305  16.940  0.9833 -0.7693 -0.1024
  297MPD2    H7 4537   3.976   1.241  16.868 -3.2715  0.0133  1.0718
  298TMC3    C1 4538   3.809   1.234  17.063  0.2175 -0.0952 -0.3639
  298TMC3    C2 4539   3.789   1.128  16.978  1.2819 -0.3265 -0.5632
  298TMC3    C3 4540   3.666   1.073  16.978  0.2416  0.9866 -0.1719
  298TMC3    C4 4541   3.704   1.296  17.126  0.0462  0.3555 -0.2987
  298TMC3    C5 4542   3.580   1.245  17.113 -0.3164 -0.0254  0.3342
  298TMC3    C6 4543   3.558   1.134  17.033  0.2641 -0.1531 -0.0597
  298TMC3     C 4544   3.925   1.318  17.053 -0.6086 -0.2043  0.2381
  298TMC3     O 4545   3.942   1.397  17.147  0.0974 -0.4568  0.5727
  298TMC3     H 4546   3.873   1.073  16.938  1.8008 -1.0109  1.4767
  298TMC3    H1 4547   3.722   1.387  17.182 -2.1895  0.7509 -0.2344
  298TMC3    H2 4548   3.460   1.090  17.029  0.2238  0.0748 -1.6173
  298TMC3    C7 4549   3.464   1.328  17.155  0.1963  0.2019 -0.1741
  298TMC3    C8 4550   3.648   0.979  16.864  0.4765 -0.3676 -0.5541
  298TMC3    O1 4551   3.475   1.401  17.249  0.2611 -0.2796  0.1356
  298TMC3    O2 4552   3.747   0.954  16.800  0.2077  0.0019  0.1235
  299MPD2     C 4553   0.426   0.357  10.792 -0.0694  0.1705 -0.9996
  299MPD2    C1 4554   0.458   0.411  10.668 -0.4909  0.0745  0.9748
  299MPD2    C2 4555   0.358   0.419  10.573  0.1808 -0.1542 -0.0037
  299MPD2    C3 4556   0.228   0.370  10.591 -0.1376 -0.2612 -0.1005
  299MPD2    C4 4557   0.198   0.321  10.713  0.3357 -0.9388  1.0574
  299MPD2    C5 4558   0.294   0.308  10.814 -0.7144 -0.1250  0.5560
  299MPD2     H 4559   0.372   0.477  10.483  0.0476  1.8607  1.2745
  299MPD2    H1 4560   0.099   0.292  10.745 -0.5815  0.3613 -0.6359
  299MPD2    H2 4561   0.507   0.350  10.864  0.1967 -0.7288 -1.3884
  299MPD2    H3 4562   0.262   0.270  10.910 -0.7774 -2.4631 -0.3831
  299MPD2     N 4563   0.128   0.391  10.492 -0.0323  0.5190 -0.5758
  299MPD2    H5 4564   0.033   0.375  10.526  0.0818  0.0095 -0.5009
  299MPD2    N1 4565   0.580   0.478  10.668 -0.1804  0.3897  0.2292
  299MPD2    H7 4566   0.642   0.473  10.748 -0.1981  0.9708  0.2782
  300TMC3    C1 4567   0.000   0.484  10.326 -0.0556 -0.3382 -0.2273
  300TMC3    C2 4568   4.699   0.619  10.307  0.1440 -0.2223  0.0945
  300TMC3    C3 4569   4.566   0.647  10.308 -0.6939 -0.1718 -0.4170
  300TMC3    C4 4570   4.645   0.385  10.356  0.2587  0.3417 -0.1167
  300TMC3    C5 4571   4.517   0.428  10.356  0.4035  0.8291 -0.2827
  300TMC3    C6 4572   4.473   0.554  10.328 -0.1983 -0.3262 -0.5676
  300TMC3     C 4573   0.139   0.455  10.372 -0.2943  0.3373  0.0727
  300TMC3     O 4574   0.230   0.525  10.329 -0.2004 -0.3772  0.8452
  300TMC3     H 4575   0.041   0.691  10.312 -0.6774  0.6352  0.8050
  300TMC3    H1 4576   4.653   0.279  10.377 -0.4163  0.5042  0.9714
  300TMC3    H2 4577   4.369   0.574  10.307  0.0663  0.7997 -0.8150
  300TMC3    C7 4578   4.423   0.342  10.407 -0.4459 -0.4381 -0.8852
  300TMC3    C8 4579   4.527   0.786  10.324  0.0285 -0.3860 -0.3042
  300TMC3    O1 4580   4.433   0.221  10.374 -0.2293 -0.4589  0.1110
  300TMC3    O2 4581   4.411   0.811  10.303 -0.0807  0.6959  0.3497
  301MPD2     C 4582   2.420   2.482   0.942  0.5877 -0.1061 -0.1443
  301MPD2    C1 4583   2.357   2.435   0.826 -0.1192  0.0165 -0.5690
  301MPD2    C2 4584   2.353   2.302   0.797 -0.8178  0.3882  0.4166
  301MPD2    C3 4585   2.404   2.206   0.891 -0.5438  0.3367  0.1563
  301MPD2    C4 4586   2.481   2.258   0.999 -0.2626 -0.3196 -0.3658
  301MPD2    C5 4587   2.488   2.390   1.014 -0.4892 -0.1989  0.0221
  301MPD2     H 4588   2.313   2.272   0.701  0.8518 -2.4173  0.5935
  301MPD2    H1 4589   2.536   2.188   1.061  1.4512 -0.9719 -2.6501
  301MPD2    H2 4590   2.418   2.586   0.969  1.4885 -0.2624  0.5319
  301MPD2    H3 4591   2.562   2.429   1.083  0.1283 -0.5620 -0.4275
  301MPD2     N 4592   2.392   2.070   0.884  0.7441 -0.2436  0.1514
  301MPD2    H5 4593   2.444   2.021   0.956  1.3452 -1.4721 -1.1383
  301MPD2    N1 4594   2.276   2.521   0.747 -0.4930 -0.5518  0.2859
  301MPD2    H7 4595   2.239   2.468   0.669 -0.6601  0.0722 -0.0615
  302TMC3    C1 4596   2.296   1.864   0.819  0.0700 -0.4566 -0.5694
  302TMC3    C2 4597   2.383   1.797   0.894 -0.3398  0.9929 -0.3644
  302TMC3    C3 4598   2.372   1.660   0.897  0.0002  0.4732 -0.5075
  302TMC3    C4 4599   2.215   1.797   0.730 -0.7038  0.2599 -0.0470
  302TMC3    C5 4600   2.213   1.659   0.729  0.3794 -0.3196  0.4412
  302TMC3    C6 4601   2.297   1.589   0.812  0.1736 -0.4033  0.2885
  302TMC3     C 4602   2.295   2.006   0.802  0.3676 -0.1057 -0.4593
  302TMC3     O 4603   2.216   2.053   0.717  0.2461  0.5102 -0.1288
  302TMC3     H 4604   2.460   1.844   0.956  0.5821  0.3594 -1.0263
  302TMC3    H1 4605   2.156   1.850   0.657  1.0308  1.6297 -0.4407
  302TMC3    H2 4606   2.285   1.482   0.824  3.4452 -0.9512 -1.4250
  302TMC3    C7 4607   2.093   1.587   0.692 -0.6210  0.1275  0.0181
  302TMC3    C8 4608   2.424   1.576   1.007  0.1560 -0.0209  0.0380
  302TMC3    O1 4609   2.097   1.466   0.695  0.0645 -0.2925 -0.0773
  302TMC3    O2 4610   2.409   1.454   1.007  0.2208 -0.0633 -1.2119
  303MPD2     C 4611   2.816   0.399  10.991 -0.3181 -0.4702 -0.4814
  303MPD2    C1 4612   2.803   0.265  10.973 -0.0375 -0.0077 -0.1584
  303MPD2    C2 4613   2.816   0.212  10.848  0.5916  0.3296  0.0899
  303MPD2    C3 4614   2.838   0.299  10.738  0.5216  0.2652  0.3305
  303MPD2    C4 4615   2.860   0.431  10.758  0.0048 -0.2731  0.2679
  303MPD2    C5 4616   2.859   0.474  10.887  1.0490 -0.7700  0.2905
  303MPD2     H 4617   2.800   0.108  10.822 -0.0970  0.1077  1.4292
  303MPD2    H1 4618   2.888   0.494  10.675 -1.4238 -0.9348 -0.6974
  303MPD2    H2 4619   2.800   0.448  11.087 -0.7979 -0.4711 -0.5617
  303MPD2    H3 4620   2.887   0.576  10.908  0.6887 -0.8905  1.3217
  303MPD2     N 4621   2.820   0.265  10.602  0.3666 -0.0784 -0.1414
  303MPD2    H5 4622   2.826   0.349  10.545  0.0203  1.3583  1.9253
  303MPD2    N1 4623   2.774   0.183  11.086 -0.1654  0.0697 -0.0123
  303MPD2    H7 4624   2.757   0.232  11.174  0.4212 -0.8295  0.6074
  304TMC3    C1 4625   2.733   4.723  11.209 -0.4043  0.2069  0.2510
  304TMC3    C2 4626   2.632   0.046  11.275 -0.0653  0.2367 -0.4167
  304TMC3    C3 4627   2.554   4.702  11.357  0.2225  0.2299 -0.1261
  304TMC3    C4 4628   2.763   4.590  11.220 -0.1643  0.2550 -0.4420
  304TMC3    C5 4629   2.691   4.514  11.303 -0.2757  0.2111 -0.3001
  304TMC3    C6 4630   2.583   4.572  11.371  0.0861  0.3706  0.3645
  304TMC3     C 4631   2.770   0.046  11.078 -0.4671 -0.0330  0.3200
  304TMC3     O 4632   2.793   4.700  10.992  0.5241  0.5209  0.1620
  304TMC3     H 4633   2.593   0.143  11.249 -1.4261  0.4674  2.4517
  304TMC3    H1 4634   2.842   4.550  11.158 -0.0753 -3.8701  2.3568
  304TMC3    H2 4635   2.523   4.516  11.441  1.2926 -1.5047 -0.0904
  304TMC3    C7 4636   2.638   4.397  11.243 -0.2432  0.2678  0.5342
  304TMC3    C8 4637   2.411   4.730  11.325 -0.3169  0.2781  0.5166
  304TMC3    O1 4638   2.521   4.373  11.268  0.3406  0.7216 -0.0179
  304TMC3    O2 4639   2.369   0.104  11.325 -0.2403 -0.0936 -0.1596
  305MPD2     C 4640   0.417   2.255  14.389 -0.6603 -0.6755 -0.2760
  305MPD2    C1 4641   0.518   2.166  14.375 -0.1686 -0.5512 -0.2339
  305MPD2    C2 4642   0.546   2.129  14.240  0.6136  0.5180 -0.0882
  305MPD2    C3 4643   0.480   2.172  14.124  0.1737  0.0623 -0.3518
  305MPD2    C4 4644   0.368   2.253  14.147 -0.1411 -0.1155  0.2526
  305MPD2    C5 4645   0.338   2.297  14.282 -0.2659  0.1995 -0.3872
  305MPD2     H 4646   0.637   2.074  14.223  0.8373  0.5505  1.0303
  305MPD2    H1 4647   0.297   2.284  14.071  0.1293  1.3511  0.6028
  305MPD2    H2 4648   0.403   2.304  14.485  1.3305 -0.7103  0.0195
  305MPD2    H3 4649   0.256   2.367  14.284 -0.1978  0.2737 -0.1587
  305MPD2     N 4650   0.505   2.129  13.990 -0.5123 -0.0679 -0.4105
  305MPD2    H5 4651   0.456   2.182  13.919 -1.3645  1.4371  1.2814
  305MPD2    N1 4652   0.596   2.130  14.485  0.4582 -0.0792 -0.3982
  305MPD2    H7 4653   0.561   2.172  14.571 -0.2113 -0.8117 -0.3116
  306TMC3    C1 4654   0.769   2.018  14.609  0.3451 -0.0149 -0.7839
  306TMC3    C2 4655   0.856   1.918  14.624 -0.0162  0.7969 -0.6082
  306TMC3    C3 4656   0.933   1.908  14.733 -0.2052  0.5085 -0.4778
  306TMC3    C4 4657   0.758   2.123  14.699 -1.2054 -0.5651 -0.3225
  306TMC3    C5 4658   0.845   2.120  14.811  0.1255 -0.0246  0.0234
  306TMC3    C6 4659   0.930   2.008  14.825 -0.0677 -0.9183  0.0872
  306TMC3     C 4660   0.710   2.046  14.475  0.2579  0.1009 -0.2891
  306TMC3     O 4661   0.760   1.980  14.385  0.0325  0.4976  0.2807
  306TMC3     H 4662   0.870   1.847  14.543  0.1672  2.4910 -2.0722
  306TMC3    H1 4663   0.697   2.211  14.679 -0.0950  0.1041 -0.7894
  306TMC3    H2 4664   1.003   2.003  14.905 -1.7061 -2.4744  1.5004
  306TMC3    C7 4665   0.815   2.210  14.918  0.1724  1.1033  0.4317
  306TMC3    C8 4666   1.046   1.819  14.724  0.2698 -0.0706  0.0687
  306TMC3    O1 4667   0.698   2.249  14.917  0.0494  0.3659 -0.4329
  306TMC3    O2 4668   1.039   1.739  14.630 -0.1257  1.0253  0.9472
  307MPD2     C 4669   3.092   0.209   0.939 -0.1064 -0.4058  0.0712
  307MPD2    C1 4670   2.996   0.274   0.866  0.4727  0.0226  0.1617
  307MPD2    C2 4671   2.928   0.383   0.918 -0.1508  0.2136 -0.0932
  307MPD2    C3 4672   2.954   0.416   1.055  0.2725  0.9816  0.1666
  307MPD2    C4 4673   3.047   0.356   1.131  0.0077 -0.3503  0.1807
  307MPD2    C5 4674   3.119   0.254   1.066  0.2096 -0.0003  0.6028
  307MPD2     H 4675   2.867   0.442   0.852  1.5941  1.1913 -0.8304
  307MPD2    H1 4676   3.085   0.390   1.226 -1.0434  2.2863 -0.3387
  307MPD2    H2 4677   3.150   0.125   0.903 -0.6931  0.0711 -1.9946
  307MPD2    H3 4678   3.207   0.207   1.109  1.2994  3.0198  1.6239
  307MPD2     N 4679   2.884   0.535   1.095 -0.5406 -0.5584 -0.5616
  307MPD2    H5 4680   2.817   0.568   1.026 -0.7885  0.8332  0.3248
  307MPD2    N1 4681   2.972   0.239   0.729  0.0382 -0.3227 -0.2749
  307MPD2    H7 4682   2.902   0.287   0.674  1.9565  2.2208 -0.4893
  308TMC3    C1 4683   2.578   0.753   1.173  0.8276 -0.1503 -0.0387
  308TMC3    C2 4684   2.612   0.881   1.149 -0.4956 -0.1387 -0.1170
  308TMC3    C3 4685   2.744   0.918   1.181 -0.7225 -0.0647 -0.6503
  308TMC3    C4 4686   2.671   0.663   1.211 -0.3810 -0.7134  0.2600
  308TMC3    C5 4687   2.801   0.705   1.226 -0.3520 -0.3453 -0.3209
  308TMC3    C6 4688   2.842   0.831   1.209  0.4282 -0.4392 -0.2981
  308TMC3     C 4689   2.446   0.705   1.157 -0.2322 -1.1328  0.4723
  308TMC3     O 4690   2.418   0.616   1.237 -0.6826 -0.6321 -0.2331
  308TMC3     H 4691   2.544   0.958   1.114 -2.4161 -0.8057  2.1654
  308TMC3    H1 4692   2.642   0.565   1.246 -0.8889 -1.0302 -1.0593
  308TMC3    H2 4693   2.948   0.855   1.202  0.8792 -1.6785  2.2073
  308TMC3    C7 4694   2.902   0.605   1.214  0.0112  0.2207  0.7648
  308TMC3    C8 4695   2.765   1.061   1.159 -0.2093  0.8529  0.0955
  308TMC3    O1 4696   2.970   0.583   1.312  0.4110  0.3761  0.6837
  308TMC3    O2 4697   2.685   1.134   1.219  0.1239  0.1395  0.0296
  309MPD2     C 4698   1.998   0.480  17.316  0.5046 -0.0856 -0.6064
  309MPD2    C1 4699   1.967   0.581  17.221  0.5106 -0.1596  0.3911
  309MPD2    C2 4700   1.855   0.657  17.237 -0.4590  0.6067 -0.5158
  309MPD2    C3 4701   1.778   0.650  17.352  0.0559 -1.1845  0.5099
  309MPD2    C4 4702   1.818   0.559  17.454  0.8580  0.3700 -0.3051
  309MPD2    C5 4703   1.920   0.471  17.430 -0.2082 -0.9614  0.1292
  309MPD2     H 4704   1.828   0.717  17.151  0.1584 -0.6749 -1.6056
  309MPD2    H1 4705   1.765   0.542  17.547  3.1179  0.1844  0.9635
  309MPD2    H2 4706   2.082   0.411  17.315 -0.3367 -1.1663  1.0296
  309MPD2    H3 4707   1.947   0.397  17.504  0.9758 -0.1565  0.5034
  309MPD2     N 4708   1.666   0.727  17.366  0.4466 -0.1345 -0.0393
  309MPD2    H5 4709   1.632   0.781  17.287  1.1738  0.6857  0.1966
  309MPD2    N1 4710   2.038   0.599  17.101  0.2645  0.2300 -0.6200
  309MPD2    H7 4711   2.010   0.669  17.033 -0.3707 -0.0845 -0.6820
  310TMC3    C1 4712   2.223   0.591  16.943 -0.2838 -0.2200 -0.0753
  310TMC3    C2 4713   2.143   0.664  16.857  0.6355 -0.4832  0.5212
  310TMC3    C3 4714   2.208   0.731  16.751  0.5850 -0.0877  0.5891
  310TMC3    C4 4715   2.358   0.576  16.936 -0.3166  0.2976 -0.1247
  310TMC3    C5 4716   2.415   0.643  16.835  0.5329  0.2682  0.2007
  310TMC3    C6 4717   2.346   0.719  16.738 -0.2157 -0.4534 -0.4527
  310TMC3     C 4718   2.156   0.530  17.056 -0.6150  0.4658  0.0521
  310TMC3     O 4719   2.220   0.443  17.116  0.3586 -0.0576  0.5316
  310TMC3     H 4720   2.035   0.673  16.867  0.7249  2.5209 -1.2064
  310TMC3    H1 4721   2.408   0.513  17.008  1.1826  0.7391 -0.7693
  310TMC3    H2 4722   2.400   0.770  16.660  0.7832 -0.5061  0.2004
  310TMC3    C7 4723   2.549   0.598  16.789  0.0008 -0.2832  0.4028
  310TMC3    C8 4724   2.130   0.797  16.646 -0.6366  0.4312  0.4146
  310TMC3    O1 4725   2.588   0.637  16.679 -0.1355  0.8615  0.1682
  310TMC3    O2 4726   2.013   0.809  16.674 -0.1682 -0.6610 -0.6410
  311MPD2     C 4727   4.649   2.025  12.558 -0.2572 -0.3248  0.4819
  311MPD2    C1 4728   4.692   2.053  12.688 -0.6117  0.0640 -0.0727
  311MPD2    C2 4729   4.584   2.075  12.779 -0.0823 -0.2911  0.1945
  311MPD2    C3 4730   4.448   2.086  12.736  0.5035 -0.4784 -0.4164
  311MPD2    C4 4731   4.425   2.075  12.600 -0.0260  0.2672  0.0649
  311MPD2    C5 4732   4.524   2.038  12.517 -0.3544 -0.1080  0.1320
  311MPD2     H 4733   4.607   2.097  12.882 -0.0185  2.5414 -0.4234
  311MPD2    H1 4734   4.325   2.078  12.558  0.2013 -3.4274 -0.8153
  311MPD2    H2 4735   4.718   2.008  12.476 -0.3575 -1.1476  0.5701
  311MPD2    H3 4736   4.497   2.020  12.414  0.3433 -2.0203  0.2750
  311MPD2     N 4737   4.346   2.109  12.827 -0.0810 -0.1264  0.2528
  311MPD2    H5 4738   4.371   2.091  12.924 -0.1649  1.9355  0.6573
  311MPD2    N1 4739   0.092   2.070  12.720  0.3090  0.0295 -0.4981
  311MPD2    H7 4740   0.115   2.117  12.807  1.9919 -0.4508 -0.6656
  312TMC3    C1 4741   4.136   2.111  12.927 -0.8730  0.1837  0.5175
  312TMC3    C2 4742   4.009   2.054  12.933  0.1339 -0.5262  0.3283
  312TMC3    C3 4743   3.932   2.081  13.040 -0.0228  0.9561  0.3580
  312TMC3    C4 4744   4.178   2.200  13.020  0.4952 -0.0482 -0.8516
  312TMC3    C5 4745   4.091   2.227  13.125 -1.2102 -0.5305 -0.0374
  312TMC3    C6 4746   3.968   2.174  13.139 -0.1934  0.1533  0.2945
  312TMC3     C 4747   4.212   2.114  12.803 -0.6492 -0.1176  0.7164
  312TMC3     O 4748   4.149   2.131  12.704  0.1490 -0.4988 -0.6591
  312TMC3     H 4749   3.975   1.989  12.853  1.4256  1.4404 -1.8333
  312TMC3    H1 4750   4.275   2.248  13.029  1.1846 -1.4939 -0.6185
  312TMC3    H2 4751   3.901   2.202  13.220  1.0600 -0.2593  1.4711
  312TMC3    C7 4752   4.145   2.290  13.237  0.2200 -0.2411 -0.0094
  312TMC3    C8 4753   3.790   2.071  13.015 -0.1519 -0.0011 -0.6436
  312TMC3    O1 4754   4.233   2.370  13.215  0.4379  0.1302  0.6474
  312TMC3    O2 4755   3.729   1.966  13.035 -0.2342 -0.6152 -0.0171
  313MPD2     C 4756   3.650   1.065  11.197 -0.0760  0.3329  0.0182
  313MPD2    C1 4757   3.748   1.158  11.167  0.1254 -0.1075  0.0957
  313MPD2    C2 4758   3.851   1.125  11.079  0.1166  0.6589  0.4929
  313MPD2    C3 4759   3.843   1.013  11.009  0.2376  0.2804 -0.0380
  313MPD2    C4 4760   3.729   0.934  11.020  0.5435  0.2452  0.3061
  313MPD2    C5 4761   3.644   0.948  11.124 -0.1114  0.0352  0.2526
  313MPD2     H 4762   3.938   1.187  11.059 -1.3324  2.0745 -1.4073
  313MPD2    H1 4763   3.725   0.833  10.980  0.3559  0.5979 -0.5588
  313MPD2    H2 4764   3.580   1.072  11.279  0.8437  1.3098  0.7143
  313MPD2    H3 4765   3.563   0.879  11.142 -2.2621  2.6277  0.5075
  313MPD2     N 4766   3.952   0.984  10.920 -0.0071  0.2326  0.1108
  313MPD2    H5 4767   4.013   1.061  10.895  0.1924  0.7982  2.3941
  313MPD2    N1 4768   3.749   1.288  11.220 -0.3463  0.1595 -0.3295
  313MPD2    H7 4769   3.807   1.361  11.181  2.2018 -1.0080  1.2716
  314TMC3    C1 4770   3.646   1.477  11.295  0.1326  0.0621  0.6752
  314TMC3    C2 4771   3.766   1.533  11.288 -0.5361 -0.6621  0.2933
  314TMC3    C3 4772   3.787   1.635  11.191  0.0597  0.0851  0.4469
  314TMC3    C4 4773   3.543   1.518  11.218 -0.1438 -0.0065 -0.5219
  314TMC3    C5 4774   3.583   1.603  11.111 -0.2791 -0.0487  0.0871
  314TMC3    C6 4775   3.706   1.656  11.090  0.0713 -0.0533  0.2358
  314TMC3     C 4776   3.649   1.331  11.305 -0.2152  0.4728 -0.3914
  314TMC3     O 4777   3.558   1.280  11.373 -0.1848 -0.5221 -0.5221
  314TMC3     H 4778   3.850   1.489  11.339 -0.0614 -0.8651 -0.6710
  314TMC3    H1 4779   3.455   1.455  11.211 -1.5971  2.1765 -1.6192
  314TMC3    H2 4780   3.724   1.731  11.014 -2.2236 -0.1192 -0.3769
  314TMC3    C7 4781   3.493   1.580  10.994 -0.4149  0.3213 -0.1268
  314TMC3    C8 4782   3.892   1.738  11.217  0.0039 -0.4706  0.1066
  314TMC3    O1 4783   3.379   1.536  11.002 -0.8698 -0.6117 -0.5600
  314TMC3    O2 4784   3.940   1.806  11.125  0.2863  0.0455 -0.7858
  315MPD2     C 4785   3.299   0.437   0.789 -0.4373  0.6628  0.4686
  315MPD2    C1 4786   3.415   0.487   0.859 -0.5510  0.3385  0.0074
  315MPD2    C2 4787   3.430   0.624   0.869 -0.1586 -0.2379  0.2874
  315MPD2    C3 4788   3.340   0.714   0.804 -0.0034  0.3932 -0.7181
  315MPD2    C4 4789   3.236   0.661   0.728 -0.8698  0.4000 -0.1713
  315MPD2    C5 4790   3.210   0.524   0.737 -0.0343 -0.2919 -0.0248
  315MPD2     H 4791   3.510   0.665   0.930  0.1514 -1.1682  0.5182
  315MPD2    H1 4792   3.166   0.727   0.678 -0.9071  0.4482 -0.0562
  315MPD2    H2 4793   3.280   0.330   0.784 -0.6521  0.5635  3.7162
  315MPD2    H3 4794   3.116   0.495   0.692  0.8378 -2.0021 -0.7581
  315MPD2     N 4795   3.363   0.852   0.811 -0.8373  0.0906  0.2332
  315MPD2    H5 4796   3.439   0.880   0.872  0.3002  0.1344 -1.1801
  315MPD2    N1 4797   3.515   0.405   0.917 -0.3088  0.2691  0.1425
  315MPD2    H7 4798   3.593   0.459   0.954 -2.4670  2.0139  2.1629
  316TMC3    C1 4799   3.336   1.079   0.789  0.3011 -0.1221 -0.2707
  316TMC3    C2 4800   3.458   1.087   0.855  0.0018 -0.0963 -0.0064
  316TMC3    C3 4801   3.498   1.215   0.878  0.6974  0.5008 -0.7019
  316TMC3    C4 4802   3.254   1.184   0.753 -0.6934 -0.9370  0.5916
  316TMC3    C5 4803   3.307   1.309   0.784 -0.0473 -0.7021  0.1642
  316TMC3    C6 4804   3.424   1.323   0.858 -0.5662  0.0216  0.2886
  316TMC3     C 4805   3.292   0.947   0.739  1.2815 -1.0729 -0.0817
  316TMC3     O 4806   3.218   0.937   0.643 -0.1485  0.2730  0.2627
  316TMC3     H 4807   3.531   1.009   0.873 -0.7677 -0.5310  1.2546
  316TMC3    H1 4808   3.161   1.164   0.701 -1.1180  2.2453  0.1542
  316TMC3    H2 4809   3.474   1.418   0.867  2.0191 -1.2098 -1.3479
  316TMC3    C7 4810   3.239   1.430   0.745  0.1415 -0.0897  0.5650
  316TMC3    C8 4811   3.640   1.239   0.904  0.1212  0.7110  1.0762
  316TMC3    O1 4812   3.258   1.524   0.826 -0.0087 -0.0038 -0.2321
  316TMC3    O2 4813   3.667   1.341   0.962  0.0569 -0.2585  0.1035
  317MPD2     C 4814   0.396   3.984  13.461 -0.1320  0.0990 -0.3815
  317MPD2    C1 4815   0.449   3.905  13.369  0.7714 -0.3039 -0.8160
  317MPD2    C2 4816   0.548   3.813  13.420 -0.0320 -0.7573 -0.1012
  317MPD2    C3 4817   0.566   3.793  13.553  0.4856  0.9734 -0.5923
  317MPD2    C4 4818   0.496   3.867  13.642  0.3349 -0.1273 -0.6430
  317MPD2    C5 4819   0.417   3.968  13.592  0.1721  0.0471  0.1928
  317MPD2     H 4820   0.600   3.748  13.352 -0.2067 -1.2974  0.2799
  317MPD2    H1 4821   0.509   3.848  13.748 -1.9482 -0.8771 -0.4995
  317MPD2    H2 4822   0.324   4.064  13.450 -1.1216 -0.6369  0.6411
  317MPD2    H3 4823   0.366   4.030  13.665  1.8535  2.1992 -0.4663
  317MPD2     N 4824   0.644   3.674  13.586  0.3181  0.4411  0.1531
  317MPD2    H5 4825   0.702   3.628  13.516 -1.3216 -0.6041 -0.5199
  317MPD2    N1 4826   0.415   3.903  13.230  0.2673 -1.3247  0.7895
  317MPD2    H7 4827   0.458   3.828  13.176  3.3040  1.2299 -0.3339
  318TMC3    C1 4828   0.771   3.515  13.717  0.1694 -0.3134 -0.2165
  318TMC3    C2 4829   0.765   3.420  13.617 -0.4350 -0.4986  0.5259
  318TMC3    C3 4830   0.853   3.315  13.629 -0.0764 -0.7539  0.3734
  318TMC3    C4 4831   0.848   3.500  13.825  0.7178 -0.5883 -0.2270
  318TMC3    C5 4832   0.933   3.395  13.833  0.2670  0.5370 -0.8324
  318TMC3    C6 4833   0.942   3.300  13.735 -0.1699  0.4576 -0.0691
  318TMC3     C 4834   0.673   3.626  13.713  0.2181 -0.1956  0.0285
  318TMC3     O 4835   0.631   3.663  13.820  0.2243 -0.1409  0.2015
  318TMC3     H 4836   0.683   3.422  13.547  0.1476  0.5583 -0.1361
  318TMC3    H1 4837   0.846   3.571  13.907 -2.6204 -0.6376 -0.2700
  318TMC3    H2 4838   1.015   3.220  13.730 -0.3712  0.2492  0.2655
  318TMC3    C7 4839   1.037   3.400  13.929 -0.3758  0.4403  0.0905
  318TMC3    C8 4840   0.901   3.247  13.510  0.0292 -0.2328 -0.0821
  318TMC3    O1 4841   1.057   3.507  13.989 -0.1061 -0.6871 -0.2751
  318TMC3    O2 4842   0.980   3.150  13.521  0.1028  0.2156  0.0691
  319MPD2     C 4843   1.564   0.161  16.918 -0.2997  0.3899 -0.8923
  319MPD2    C1 4844   1.519   0.033  16.933  0.3256  0.2342  0.1208
  319MPD2    C2 4845   1.415   4.732  16.847  0.1810 -0.7922  0.0226
  319MPD2    C3 4846   1.350   0.078  16.758  0.1466  0.3624  0.6080
  319MPD2    C4 4847   1.399   0.207  16.747 -0.2293  0.4146  0.1442
  319MPD2    C5 4848   1.507   0.245  16.828 -0.3058  0.4291  0.4643
  319MPD2     H 4849   1.383   4.630  16.866  2.2717 -1.2985  0.8222
  319MPD2    H1 4850   1.362   0.284  16.681 -4.1176 -2.3144 -0.9092
  319MPD2    H2 4851   1.641   0.208  16.978 -1.0702 -0.0594  0.4385
  319MPD2    H3 4852   1.536   0.349  16.838  2.8366 -0.3577 -0.4908
  319MPD2     N 4853   1.229   0.046  16.690 -0.3471  0.4076  0.4216
  319MPD2    H5 4854   1.199   0.111  16.618 -1.7020 -2.5216 -1.6934
  319MPD2    N1 4855   1.558   4.689  17.042  0.5271 -0.8241 -0.1372
  319MPD2    H7 4856   1.525   4.593  17.051  0.3420 -0.5686  1.8070
  320TMC3    C1 4857   1.042   4.663  16.603  0.0453  0.1518  0.0063
  320TMC3    C2 4858   1.009   0.024  16.508  0.0319  0.4291 -0.2552
  320TMC3    C3 4859   0.903   0.002  16.424  0.3259  0.1815 -0.6334
  320TMC3    C4 4860   0.983   4.543  16.598  0.1574 -0.1253 -0.7476
  320TMC3    C5 4861   0.874   4.525  16.518 -0.1852 -0.2384  0.2369
  320TMC3    C6 4862   0.842   4.618  16.427  0.0718 -0.4720 -0.0759
  320TMC3     C 4863   1.155   4.669  16.700 -0.2681  0.4587 -0.2485
  320TMC3     O 4864   1.170   4.588  16.785 -0.6067 -0.2492 -0.1140
  320TMC3     H 4865   1.079   0.104  16.487  1.1941 -0.7548 -0.8969
  320TMC3    H1 4866   1.010   4.477  16.681  2.0719  1.0595 -0.4297
  320TMC3    H2 4867   0.752   4.605  16.367  0.7978  2.6269 -1.8530
  320TMC3    C7 4868   0.870   4.399  16.451  0.3058 -0.2891  0.7213
  320TMC3    C8 4869   0.904   0.073  16.297 -0.5553  0.5877 -0.1355
  320TMC3    O1 4870   0.780   4.381  16.378 -0.3867 -0.0672  0.0071
  320TMC3    O2 4871   0.860   0.012  16.203  0.0601  0.2976 -0.5432
  321TMC3    C1 4872   1.660   4.632  17.255  0.2785 -0.7085  0.4296
  321TMC3    C2 4873   1.594   4.515  17.245 -0.3010 -0.7590 -0.4960
  321TMC3    C3 4874   1.623   4.417  17.329  0.6587  0.2073  0.3327
  321TMC3    C4 4875   1.740   4.664  17.362  0.1992 -0.7766 -0.0032
  321TMC3    C5 4876   1.750   4.566  17.458 -0.3560 -0.4420  0.1202
  321TMC3    C6 4877   1.706   4.442  17.437  0.4790  0.0165  0.1638
  321TMC3     C 4878   1.646   4.726  17.144 -0.6045 -1.1280  0.1608
  321TMC3     O 4879   1.696   0.097  17.170 -0.3786 -0.4651 -0.0048
  321TMC3     H 4880   1.514   4.497  17.173  0.4911 -1.4878 -1.1939
  321TMC3    H1 4881   1.786   0.024  17.365 -0.3321 -0.4472 -2.6854
  321TMC3    H2 4882   1.709   4.367  17.516  1.4842  0.6742  0.7530
  321TMC3    C7 4883   1.708   4.620  17.588  0.4732  0.3950 -0.2379
  321TMC3    C8 4884   1.511   4.333  17.374 -0.2185  0.2809  1.2615
  321TMC3    O1 4885   1.667   4.536  17.665  0.2102 -0.8521 -0.3156
  321TMC3    O2 4886   1.488   4.234  17.311  0.3052 -0.5945 -0.3535
  322MPD2     C 4887   0.500   1.278  13.841  0.5808 -0.2180 -0.0149
  322MPD2    C1 4888   0.540   1.237  13.968 -0.0353 -0.1687  0.2158
  322MPD2    C2 4889   0.547   1.103  13.996  0.1325 -0.0434  0.6209
  322MPD2    C3 4890   0.522   1.006  13.900  0.5753  0.0055 -0.3873
  322MPD2    C4 4891   0.489   1.046  13.774 -0.0248 -0.1377  0.0781
  322MPD2    C5 4892   0.483   1.181  13.745  0.7839  0.0596 -0.4298
  322MPD2     H 4893   0.582   1.078  14.096  1.1004 -2.7215 -0.3855
  322MPD2    H1 4894   0.452   0.971  13.706 -1.2725  0.1308  0.4547
  322MPD2    H2 4895   0.487   1.384  13.823 -1.7043 -0.7169 -1.3790
  322MPD2    H3 4896   0.457   1.213  13.645  0.8777  0.2230 -0.4009
  322MPD2     N 4897   0.535   0.872  13.935  0.0031 -0.2487 -0.1377
  322MPD2    H5 4898   0.540   0.854  14.035 -0.1435 -0.8605 -0.2365
  322MPD2    N1 4899   0.580   1.347  14.047  0.3203  0.1449 -0.0375
  322MPD2    H7 4900   0.589   1.438  14.003  0.2325  0.7347  1.1396
  323TMC3    C1 4901   0.656   1.448  14.251  0.4255  0.0153 -0.0931
  323TMC3    C2 4902   0.733   1.534  14.184 -0.0623 -0.5148 -0.1359
  323TMC3    C3 4903   0.834   1.601  14.251 -0.1047  0.8174  0.5891
  323TMC3    C4 4904   0.680   1.422  14.382  0.4201 -0.8102  0.0466
  323TMC3    C5 4905   0.789   1.481  14.443  0.0891  0.1491 -0.3369
  323TMC3    C6 4906   0.867   1.570  14.378  0.0111  0.4053 -0.2044
  323TMC3     C 4907   0.605   1.331  14.180 -0.0626  0.1843  0.3641
  323TMC3     O 4908   0.591   1.233  14.254 -0.3032 -0.0805  0.0820
  323TMC3     H 4909   0.707   1.566  14.083  1.4978 -1.9906 -0.9940
  323TMC3    H1 4910   0.627   1.344  14.437 -0.1098  0.1213  0.8692
  323TMC3    H2 4911   0.952   1.618  14.425 -0.0297  0.3102 -0.0340
  323TMC3    C7 4912   0.870   1.390  14.521  1.0994  0.5683  0.2727
  323TMC3    C8 4913   0.925   1.680  14.178 -1.0571 -0.5891  0.3326
  323TMC3    O1 4914   0.862   1.276  14.485 -0.3821 -0.0781 -0.3245
  323TMC3    O2 4915   1.020   1.712  14.246  0.4370  0.2186  0.0177
  324MPD2     C 4916   2.370   2.449  14.718  0.6470 -0.2718  1.0223
  324MPD2    C1 4917   2.343   2.580  14.678  0.8340 -0.0455  0.0194
  324MPD2    C2 4918   2.214   2.621  14.660 -0.2921  0.1759 -0.3190
  324MPD2    C3 4919   2.122   2.522  14.648  0.0871 -0.0623  0.1549
  324MPD2    C4 4920   2.149   2.397  14.693 -0.9186  0.7933  0.3342
  324MPD2    C5 4921   2.273   2.356  14.727 -0.0018 -0.0651  0.1408
  324MPD2     H 4922   2.194   2.726  14.644 -0.3312 -0.0648 -1.8128
  324MPD2    H1 4923   2.073   2.320  14.694 -1.1932  1.0446 -1.4441
  324MPD2    H2 4924   2.473   2.421  14.736  0.2293 -0.8762  2.5001
  324MPD2    H3 4925   2.308   2.257  14.752 -0.4239 -0.5556 -1.2129
  324MPD2     N 4926   1.985   2.551  14.608  0.7701  0.0079 -0.0869
  324MPD2    H5 4927   1.920   2.479  14.636  1.4287 -0.9947 -1.1310
  324MPD2    N1 4928   2.439   2.682  14.666 -0.3537  0.6427 -0.0027
  324MPD2    H7 4929   2.406   2.774  14.640 -0.4037  1.5324  3.2520
  325TMC3    C1 4930   1.806   2.672  14.528  0.0819 -0.1876  0.0940
  325TMC3    C2 4931   1.750   2.673  14.402  0.6917 -0.7027  0.5513
  325TMC3    C3 4932   1.619   2.634  14.392 -0.0290  0.1762  0.6728
  325TMC3    C4 4933   1.742   2.631  14.637 -0.4878 -0.3289 -0.4617
  325TMC3    C5 4934   1.613   2.589  14.622  1.1401 -0.4451  0.7195
  325TMC3    C6 4935   1.549   2.590  14.500 -0.0571 -0.7251  0.1224
  325TMC3     C 4936   1.943   2.665  14.542  0.0124 -0.5157 -0.3239
  325TMC3     O 4937   2.007   2.756  14.485 -0.4497  0.0175  0.1259
  325TMC3     H 4938   1.815   2.705  14.322 -0.1845 -1.0482 -0.2961
  325TMC3    H1 4939   1.781   2.642  14.737  1.7958  1.5232 -1.5503
  325TMC3    H2 4940   1.446   2.557  14.494 -0.9639  2.4146 -1.3258
  325TMC3    C7 4941   1.544   2.548  14.746 -0.3814 -1.2059 -0.4743
  325TMC3    C8 4942   1.565   2.632  14.261  0.5734 -0.1420  0.0791
  325TMC3    O1 4943   1.611   2.521  14.846 -0.2303 -0.2863 -0.6509
  325TMC3    O2 4944   1.635   2.615  14.161  0.1756 -0.5285 -0.5134
  326MPD2     C 4945   4.018   4.246  11.788  0.3819  1.0250  0.1247
  326MPD2    C1 4946   4.061   4.221  11.660 -0.1401 -0.4050 -0.7627
  326MPD2    C2 4947   4.191   4.233  11.621 -0.0293  0.3430 -0.1979
  326MPD2    C3 4948   4.284   4.266  11.716  0.2831  0.4652  0.2399
  326MPD2    C4 4949   4.243   4.282  11.842  0.6984 -0.1041 -0.1212
  326MPD2    C5 4950   4.114   4.277  11.876  0.3371 -0.4781 -0.5520
  326MPD2     H 4951   4.225   4.200  11.523  0.2224  0.0835 -0.0222
  326MPD2    H1 4952   4.318   4.306  11.917  1.4952 -0.1459 -0.9022
  326MPD2    H2 4953   3.916   4.253  11.824  0.5715  1.2746  0.6101
  326MPD2    H3 4954   4.078   4.292  11.977  1.1474  0.0460 -0.3481
  326MPD2     N 4955   4.425   4.280  11.690  0.1752  0.3760 -0.0504
  326MPD2    H5 4956   4.482   4.306  11.770  1.7202 -2.2009 -0.3161
  326MPD2    N1 4957   3.969   4.184  11.564 -0.5290 -0.5649  0.1935
  326MPD2    H7 4958   4.009   4.169  11.472  0.8497 -0.4281  0.7773
  327TMC3    C1 4959   3.770   4.154  11.456  0.2743  0.7994 -0.4544
  327TMC3    C2 4960   3.650   4.208  11.438 -0.3154  0.7463  0.0816
  327TMC3    C3 4961   3.603   4.207  11.304 -0.7089 -0.0465  0.0309
  327TMC3    C4 4962   3.848   4.100  11.358  0.7055 -0.2364 -0.0383
  327TMC3    C5 4963   3.799   4.110  11.228  0.2199 -0.3374 -0.4836
  327TMC3    C6 4964   3.677   4.161  11.201 -0.0425  0.0024 -0.8419
  327TMC3     C 4965   3.828   4.187  11.580  0.0189 -0.0643 -0.5666
  327TMC3     O 4966   3.755   4.213  11.674 -0.1704 -0.2162  0.3843
  327TMC3     H 4967   3.598   4.249  11.524 -0.5830 -1.5783  1.0424
  327TMC3    H1 4968   3.915   4.017  11.374 -2.4449 -3.1320 -1.8238
  327TMC3    H2 4969   3.643   4.165  11.098 -0.1083  0.3609 -0.8043
  327TMC3    C7 4970   3.854   4.031  11.123 -0.3254 -0.1011 -0.0133
  327TMC3    C8 4971   3.512   4.317  11.274 -0.7319 -0.3785  0.4695
  327TMC3    O1 4972   3.778   3.994  11.039 -0.7808 -0.3997  0.0314
  327TMC3    O2 4973   3.522   4.380  11.167 -0.0545  0.2758 -0.2579
  328MPD2     C 4974   1.097   3.920  17.283  0.6408 -0.3863  0.6308
  328MPD2    C1 4975   1.012   3.852  17.201 -0.6091 -0.2030 -0.4371
  328MPD2    C2 4976   0.988   3.907  17.079  0.0766 -0.0478 -0.2186
  328MPD2    C3 4977   1.051   4.023  17.034  0.0030 -0.8748  0.0230
  328MPD2    C4 4978   1.137   4.087  17.115  0.0460  0.2558  0.1044
  328MPD2    C5 4979   1.155   4.036  17.241  0.3667 -0.1846  0.2970
  328MPD2     H 4980   0.914   3.855  17.019  0.1553  0.0707 -0.4188
  328MPD2    H1 4981   1.189   4.180  17.093 -1.9986  0.8137 -2.3647
  328MPD2    H2 4982   1.120   3.881  17.382 -2.1261  2.2581  2.3349
  328MPD2    H3 4983   1.202   4.095  17.319 -0.0024  0.9110 -0.3028
  328MPD2     N 4984   1.010   4.089  16.906 -0.5277  0.3076  0.9902
  328MPD2    H5 4985   1.042   4.184  16.893  1.7012 -0.4346  0.9810
  328MPD2    N1 4986   0.929   3.748  17.253 -0.4368  0.8981  0.2938
  328MPD2    H7 4987   0.940   3.728  17.352 -0.2131  1.1943  0.3294
  329TMC3    C1 4988   0.745   3.615  17.270 -0.7413 -0.0070 -0.5960
  329TMC3    C2 4989   0.612   3.631  17.247 -0.3273  0.6934 -0.5723
  329TMC3    C3 4990   0.532   3.542  17.319  0.8345  0.3847 -0.7547
  329TMC3    C4 4991   0.801   3.531  17.359  0.3553  0.1491  0.8080
  329TMC3    C5 4992   0.719   3.447  17.434 -0.5684 -1.1210  0.1859
  329TMC3    C6 4993   0.579   3.456  17.412 -1.3496 -0.3172  0.4161
  329TMC3     C 4994   0.834   3.678  17.183 -0.1480 -0.2506 -0.2018
  329TMC3     O 4995   0.775   3.694  17.074 -0.3031 -0.3992 -0.3501
  329TMC3     H 4996   0.570   3.698  17.173 -2.1758  0.1481 -0.0234
  329TMC3    H1 4997   0.908   3.515  17.366  0.3703 -0.4440 -0.7430
  329TMC3    H2 4998   0.505   3.395  17.461  0.0169 -1.5714  0.9204
  329TMC3    C7 4999   0.773   3.388  17.556 -0.2497  0.4276 -0.3064
  329TMC3    C8 5000   0.395   3.573  17.320  0.0796 -0.6983  0.3654
  329TMC3    O1 5001   0.897   3.377  17.566  0.0827  0.4741 -0.3439
  329TMC3    O2 5002   0.322   3.472  17.336 -0.0533 -0.1415  0.0249
  330TMC3    C1 5003   3.668   3.741   9.928  0.4034 -0.1140 -0.5961
  330TMC3    C2 5004   3.624   3.639   9.841  0.4981  0.7001  0.3115
  330TMC3    C3 5005   3.702   3.529   9.818 -0.2837  0.2371  0.5738
  330TMC3    C4 5006   3.788   3.728   9.990  0.1143 -0.2550  0.1879
  330TMC3    C5 5007   3.853   3.610   9.974 -0.6489  0.3334 -0.2221
  330TMC3    C6 5008   3.815   3.506   9.891 -0.7043 -0.3097 -0.1244
  330TMC3     C 5009   3.597   3.863   9.946 -0.2913 -0.2300 -0.4191
  330TMC3     O 5010   3.640   3.941  10.028  0.0969  0.0869 -0.3306
  330TMC3     H 5011   3.528   3.627   9.791  0.9845  1.0663 -0.7034
  330TMC3    H1 5012   3.833   3.815  10.037 -0.1624 -1.2203  2.2406
  330TMC3    H2 5013   3.875   3.416   9.878 -0.2761  0.0548 -0.7221
  330TMC3    C7 5014   3.952   3.579  10.075 -0.1515 -0.0509 -0.1520
  330TMC3    C8 5015   3.656   3.432   9.721  0.1950 -0.0235 -0.5972
  330TMC3    O1 5016   4.006   3.680  10.112  0.5996 -0.1817  0.3134
  330TMC3    O2 5017   3.636   3.481   9.609 -0.0326 -0.3979  0.8666
  331MPD2     C 5018   1.796   2.853  12.263 -0.4693 -0.2290 -0.0458
  331MPD2    C1 5019   1.814   2.821  12.130 -0.5103 -0.3068  0.5015
  331MPD2    C2 5020   1.905   2.731  12.097  0.1930  0.2516  0.0379
  331MPD2    C3 5021   1.977   2.656  12.192 -0.5337 -0.1829 -0.6647
  331MPD2    C4 5022   1.949   2.681  12.324 -0.3837  0.1508  0.1766
  331MPD2    C5 5023   1.876   2.791  12.354 -0.1113 -0.1418 -0.4033
  331MPD2     H 5024   1.932   2.703  11.996 -0.2885  1.6172 -0.4698
  331MPD2    H1 5025   1.993   2.620  12.402  2.0742  0.5458 -0.9196
  331MPD2    H2 5026   1.734   2.932  12.303 -2.3213 -1.2827 -0.8097
  331MPD2    H3 5027   1.874   2.827  12.456  0.9155 -0.1130 -0.3945
  331MPD2     N 5028   2.058   2.551  12.134 -0.2458  0.2741 -0.1765
  331MPD2    H5 5029   2.050   2.544  12.033  2.1070  0.4755 -0.3707
  331MPD2    N1 5030   1.734   2.889  12.034 -0.5627  0.3265 -0.3149
  331MPD2    H7 5031   1.662   2.950  12.071 -0.1064 -0.3634  1.6914
  332TMC3    C1 5032   2.208   2.367  12.128 -0.5636  0.0146 -0.4719
  332TMC3    C2 5033   2.229   2.392  11.998 -0.4820 -0.1392 -0.6736
  332TMC3    C3 5034   2.264   2.299  11.907  0.7279 -0.0901  0.5691
  332TMC3    C4 5035   2.245   2.251  12.184  0.6030  0.4552  0.2528
  332TMC3    C5 5036   2.300   2.159  12.099 -0.8615  0.3116 -0.0132
  332TMC3    C6 5037   2.312   2.181  11.962  0.4550  0.4861  0.0875
  332TMC3     C 5038   2.142   2.466  12.205 -0.0898  0.1603  0.6509
  332TMC3     O 5039   2.159   2.461  12.326 -0.1235  0.4716  0.2704
  332TMC3     H 5040   2.206   2.492  11.963 -0.4769 -0.3703 -1.3369
  332TMC3    H1 5041   2.238   2.234  12.291 -1.2158  2.1920  0.4115
  332TMC3    H2 5042   2.323   2.094  11.898  1.0937 -0.1397  1.0398
  332TMC3    C7 5043   2.312   2.022  12.155 -0.5412  0.4365 -0.2522
  332TMC3    C8 5044   2.296   2.340  11.774  0.5338 -0.4582 -0.1848
  332TMC3    O1 5045   2.286   1.929  12.079 -0.8403 -0.3394  0.0217
  332TMC3    O2 5046   2.236   2.437  11.725 -0.3348  0.2644 -0.8594
  333MPD2     C 5047   2.259   2.209  11.211 -0.6090 -0.5370  0.0481
  333MPD2    C1 5048   2.348   2.111  11.177  0.2930 -0.5578 -0.2357
  333MPD2    C2 5049   2.339   1.995  11.253  0.0465  0.4128  0.3243
  333MPD2    C3 5050   2.256   1.984  11.361 -0.6846 -0.1089  0.3806
  333MPD2    C4 5051   2.178   2.086  11.403 -0.3789  0.6132  0.5029
  333MPD2    C5 5052   2.178   2.198  11.322  0.4393  0.4523 -0.2838
  333MPD2     H 5053   2.408   1.913  11.236  0.1898  0.4131  0.8986
  333MPD2    H1 5054   2.126   2.093  11.498 -0.1894  1.5090  0.5404
  333MPD2    H2 5055   2.247   2.303  11.159  0.9357 -1.5278 -2.0911
  333MPD2    H3 5056   2.118   2.287  11.341  0.0311  0.7252 -2.8452
  333MPD2     N 5057   2.277   1.873  11.447  0.3986  0.6606  0.1552
  333MPD2    H5 5058   2.350   1.807  11.420 -0.8321  0.1727 -1.9291
  333MPD2    N1 5059   2.435   2.140  11.070 -0.0201  0.3483  0.0384
  333MPD2    H7 5060   2.408   2.230  11.032 -2.9918 -0.6241 -0.1518
  334TMC3    C1 5061   2.590   2.102  10.900  0.4094 -0.5603 -0.8067
  334TMC3    C2 5062   2.692   2.022  10.849 -0.0296  0.2442 -0.2899
  334TMC3    C3 5063   2.757   2.059  10.738  0.4759  0.4011  0.0898
  334TMC3    C4 5064   2.546   2.216  10.840 -0.6845 -0.3459 -0.3941
  334TMC3    C5 5065   2.614   2.245  10.726  0.0523 -0.0104  0.1172
  334TMC3    C6 5066   2.721   2.176  10.678  0.3902  0.1181  0.1380
  334TMC3     C 5067   2.522   2.048  11.016  0.8561 -0.5782 -0.4871
  334TMC3     O 5068   2.567   1.947  11.063  0.1551  0.4811  0.3739
  334TMC3     H 5069   2.710   1.929  10.901 -0.3212  1.6618  2.3488
  334TMC3    H1 5070   2.455   2.274  10.849  0.8432  1.8554  0.7301
  334TMC3    H2 5071   2.777   2.212  10.592 -0.8813  3.5017  0.7250
  334TMC3    C7 5072   2.588   2.370  10.668 -0.0517  0.5134 -0.1597
  334TMC3    C8 5073   2.867   1.977  10.695  0.1352  0.0860 -0.5320
  334TMC3    O1 5074   2.534   2.450  10.740  0.4384 -0.3543  0.0349
  334TMC3    O2 5075   2.867   1.858  10.724  0.1459  0.3159  0.2850
  335TMC3    C1 5076   1.561   3.744  17.358  0.5126  0.2058  0.0042
  335TMC3    C2 5077   1.500   3.687  17.249  0.0927 -0.6554  0.0186
  335TMC3    C3 5078   1.589   3.646  17.154  0.3299  0.7614 -0.1735
  335TMC3    C4 5079   1.690   3.789  17.362 -1.0304 -0.0484  0.3743
  335TMC3    C5 5080   1.773   3.745  17.265 -0.4020 -0.3324 -0.6787
  335TMC3    C6 5081   1.722   3.673  17.164  0.6250 -0.7255 -0.1621
  335TMC3     C 5082   1.473   3.782  17.463  0.6203  0.2966  0.2721
  335TMC3     O 5083   1.504   3.878  17.534  0.2489 -0.2568 -0.0953
  335TMC3     H 5084   1.393   3.673  17.237  0.4683 -1.8513 -1.8575
  335TMC3    H1 5085   1.728   3.835  17.452  4.0789  0.1863 -1.8986
  335TMC3    H2 5086   1.789   3.629  17.091  0.4073  1.7156 -1.8322
  335TMC3    C7 5087   1.913   3.786  17.261  0.7028  0.7960  0.3538
  335TMC3    C8 5088   1.547   3.597  17.026 -0.0229 -0.1329  1.0858
  335TMC3    O1 5089   1.987   3.722  17.187 -0.0180  1.2399  0.8219
  335TMC3    O2 5090   1.624   3.619  16.933  0.2700  0.6071 -0.6351
  336MPD2     C 5091   1.128   1.283  16.271 -0.3566 -0.9210 -0.1480
  336MPD2    C1 5092   1.119   1.199  16.167  0.6735 -0.4018 -1.0131
  336MPD2    C2 5093   1.130   1.066  16.194  0.5506  0.0251 -0.4120
  336MPD2    C3 5094   1.161   1.017  16.314 -0.3680  0.1691 -0.4418
  336MPD2    C4 5095   1.190   1.103  16.415 -0.2936 -0.5089  0.5224
  336MPD2    C5 5096   1.170   1.235  16.390  0.1752  0.3556 -0.4631
  336MPD2     H 5097   1.115   1.002  16.108  2.2526  2.9523 -2.8906
  336MPD2    H1 5098   1.214   1.072  16.516  0.1109 -1.0697  0.2526
  336MPD2    H2 5099   1.119   1.390  16.256  0.6960 -0.9235 -0.7728
  336MPD2    H3 5100   1.178   1.309  16.469  1.3490  0.8467 -1.0556
  336MPD2     N 5101   1.175   0.877  16.349 -0.5883  0.0365  0.0199
  336MPD2    H5 5102   1.219   0.867  16.440 -0.6642 -2.4967 -0.2214
  336MPD2    N1 5103   1.084   1.237  16.034 -0.0437  0.5011 -0.3293
  336MPD2    H7 5104   1.082   1.168  15.959 -2.6082  0.0258  0.1646
  337TMC3    C1 5105   1.006   1.372  15.861  0.8536 -0.6097 -0.1384
  337TMC3    C2 5106   0.920   1.266  15.822 -1.1015  0.2052 -0.4997
  337TMC3    C3 5107   0.867   1.282  15.698 -0.3096  0.1757  0.2791
  337TMC3    C4 5108   1.029   1.486  15.790  1.6203  0.0022 -0.4221
  337TMC3    C5 5109   0.979   1.487  15.663  0.2662 -0.3225 -0.3181
  337TMC3    C6 5110   0.890   1.388  15.621  0.8405 -0.4992 -0.5725
  337TMC3     C 5111   1.063   1.368  15.995  0.4241 -0.0348 -0.0257
  337TMC3     O 5112   1.074   1.471  16.056  0.1280  0.2698 -0.1841
  337TMC3     H 5113   0.896   1.183  15.889  0.7745  0.3919  0.3917
  337TMC3    H1 5114   1.095   1.560  15.834  1.3300  0.9398 -1.5897
  337TMC3    H2 5115   0.836   1.412  15.531  0.6983 -2.1133 -0.9220
  337TMC3    C7 5116   0.973   1.605  15.587 -0.5532 -0.0912 -0.2410
  337TMC3    C8 5117   0.747   1.202  15.682  0.1981  0.1199 -0.3418
  337TMC3    O1 5118   0.985   1.584  15.466 -0.1300 -0.0428 -0.0452
  337TMC3    O2 5119   0.742   1.102  15.749  0.7213 -0.0043 -0.1782
  338MPD2     C 5120   1.645   1.596   0.999 -0.2504  0.1860 -0.4316
  338MPD2    C1 5121   1.561   1.486   0.970 -0.1421  0.6043  0.0539
  338MPD2    C2 5122   1.427   1.494   1.010  0.2589  0.4803 -0.1493
  338MPD2    C3 5123   1.386   1.599   1.091 -0.4164  0.1353 -0.2158
  338MPD2    C4 5124   1.474   1.703   1.119 -0.2592  0.1575  0.6744
  338MPD2    C5 5125   1.598   1.700   1.069 -0.0784  0.1122  0.3877
  338MPD2     H 5126   1.354   1.419   0.980  0.6456  0.7105 -1.6859
  338MPD2    H1 5127   1.450   1.789   1.181 -1.9403 -0.8253  1.4066
  338MPD2    H2 5128   1.750   1.596   0.973  0.2339 -0.2087  1.5035
  338MPD2    H3 5129   1.662   1.782   1.101  0.3147  0.4793 -1.3375
  338MPD2     N 5130   1.253   1.597   1.133 -0.0227  0.0741 -0.5748
  338MPD2    H5 5131   1.195   1.516   1.113 -0.7075  0.0901  1.4565
  338MPD2    N1 5132   1.595   1.380   0.885 -0.0786  0.0533 -0.3547
  338MPD2    H7 5133   1.523   1.320   0.847 -0.9616 -0.4432  2.1280
  339TMC3    C1 5134   1.049   1.673   1.213  0.1762 -0.9860 -0.3462
  339TMC3    C2 5135   0.976   1.724   1.315  0.6435  0.2518  0.0432
  339TMC3    C3 5136   0.846   1.686   1.321  0.2271 -0.0939  0.7605
  339TMC3    C4 5137   0.990   1.612   1.108  0.8938 -0.5554  0.1686
  339TMC3    C5 5138   0.854   1.592   1.111  0.3897  0.4315  0.2869
  339TMC3    C6 5139   0.782   1.623   1.219  1.1087 -0.5232  0.1789
  339TMC3     C 5140   1.192   1.699   1.204  0.5563 -0.2544  0.1933
  339TMC3     O 5141   1.236   1.794   1.270  0.1819 -0.2440 -0.3078
  339TMC3     H 5142   1.025   1.775   1.397 -2.7113  3.9793 -0.2820
  339TMC3    H1 5143   1.042   1.593   1.015 -1.9900 -0.8153 -1.4074
  339TMC3    H2 5144   0.677   1.597   1.232  0.9359  1.1468  2.1307
  339TMC3    C7 5145   0.801   1.582   0.976 -0.6100  0.0209 -0.0493
  339TMC3    C8 5146   0.787   1.697   1.456 -0.7268 -0.0626  0.0112
  339TMC3    O1 5147   0.871   1.533   0.888  0.1678 -0.6247 -0.5093
  339TMC3    O2 5148   0.827   1.785   1.539  0.0287  0.2778 -0.2023
  340MPD2     C 5149   1.948   4.117   9.772  0.2288  0.0451  0.0171
  340MPD2    C1 5150   1.963   4.000   9.841  0.2548 -0.3452 -0.3733
  340MPD2    C2 5151   2.054   3.986   9.945  0.1324 -0.3885  0.2577
  340MPD2    C3 5152   2.139   4.091   9.971 -0.2126 -0.6893 -0.0359
  340MPD2    C4 5153   2.124   4.209   9.902  0.7385 -0.6850 -0.4321
  340MPD2    C5 5154   2.028   4.219   9.804  0.5436  0.1215 -0.0009
  340MPD2     H 5155   2.059   3.895  10.004 -0.6422 -1.1921 -0.9219
  340MPD2    H1 5156   2.189   4.295   9.916 -2.3630  2.0215 -2.5323
  340MPD2    H2 5157   1.875   4.124   9.693 -1.1003 -2.9566  1.0060
  340MPD2    H3 5158   2.011   4.310   9.748 -0.8265  0.1871  0.5117
  340MPD2     N 5159   2.241   4.087  10.069 -0.1284 -0.3108  0.7605
  340MPD2    H5 5160   2.284   4.175  10.097  0.4160 -0.1653 -0.5226
  340MPD2    N1 5161   1.886   3.890   9.799  0.3003 -0.0193 -0.3492
  340MPD2    H7 5162   1.820   3.913   9.726  1.2808  0.1804 -1.1781
  341TMC3    C1 5163   1.795   3.686   9.765 -0.0253  0.1976  0.6642
  341TMC3    C2 5164   1.723   3.582   9.822  0.3572 -0.2995 -0.5010
  341TMC3    C3 5165   1.655   3.504   9.731 -0.5905 -0.5747 -0.1660
  341TMC3    C4 5166   1.818   3.701   9.626 -1.0236  0.2952  0.1215
  341TMC3    C5 5167   1.753   3.613   9.548  0.1438 -0.1626  0.7770
  341TMC3    C6 5168   1.665   3.519   9.595  0.2017 -0.0649  0.1003
  341TMC3     C 5169   1.875   3.765   9.850  0.0427  0.7238  1.2791
  341TMC3     O 5170   1.915   3.712   9.953  0.1460 -0.0137  0.0007
  341TMC3     H 5171   1.710   3.572   9.929 -3.1315 -1.4056 -1.0337
  341TMC3    H1 5172   1.898   3.760   9.583  0.1753 -0.6796  1.0203
  341TMC3    H2 5173   1.613   3.460   9.521 -2.0714  1.9234  0.1011
  341TMC3    C7 5174   1.820   3.561   9.431  0.3496 -0.0644  0.2010
  341TMC3    C8 5175   1.581   3.391   9.775  0.4417 -0.3180  0.2464
  341TMC3    O1 5176   1.792   3.446   9.407 -0.8459  0.0959  0.0475
  341TMC3    O2 5177   1.608   3.356   9.890  0.1313 -0.0646  0.1297
  342MPD2     C 5178   3.976   1.978  17.325  0.1562 -0.1052  0.5901
  342MPD2    C1 5179   4.112   1.988  17.359 -0.3735  0.0580 -0.0598
  342MPD2    C2 5180   4.159   2.110  17.403 -0.0794 -0.5238  0.4776
  342MPD2    C3 5181   4.078   2.221  17.410 -0.0651 -0.0490 -0.2497
  342MPD2    C4 5182   3.945   2.206  17.372 -0.2597 -0.2348  0.4845
  342MPD2    C5 5183   3.896   2.089  17.332 -0.2043 -0.3879 -0.4178
  342MPD2     H 5184   4.264   2.113  17.432 -0.2231  1.9948  0.7413
  342MPD2    H1 5185   3.880   2.292  17.368 -0.1232 -0.2361 -2.0090
  342MPD2    H2 5186   3.930   1.883  17.299  0.3708  0.0499 -0.3393
  342MPD2    H3 5187   3.790   2.072  17.312 -0.2094 -1.1628  0.2902
  342MPD2     N 5188   4.128   2.343  17.447  0.5710 -0.2846 -0.5273
  342MPD2    H5 5189   4.056   2.414  17.446 -0.2742 -1.1171  0.7298
  342MPD2    N1 5190   4.205   1.883  17.348  0.0933  0.3137  0.5017
  342MPD2    H7 5191   4.301   1.915  17.360 -0.3089  1.2361  1.3921
  343TMC3    C1 5192   4.274   1.647  17.346 -0.0793 -0.2887 -0.1819
  343TMC3    C2 5193   4.381   1.669  17.268  0.3568 -0.1388 -0.0892
  343TMC3    C3 5194   4.464   1.562  17.254 -0.2617 -0.6240 -0.6970
  343TMC3    C4 5195   4.241   1.526  17.399 -0.7625  0.7227  0.3270
  343TMC3    C5 5196   4.317   1.420  17.371  0.1382  0.7291 -0.1780
  343TMC3    C6 5197   4.436   1.436  17.303 -0.5879 -1.0632 -0.1565
  343TMC3     C 5198   4.167   1.750  17.347 -0.3468 -0.4548  0.0057
  343TMC3     O 5199   4.052   1.711  17.377 -0.7518  0.1064  0.1091
  343TMC3     H 5200   4.411   1.763  17.223  0.0190  0.3930  0.7922
  343TMC3    H1 5201   4.161   1.516  17.472 -2.8300  2.3807 -1.6995
  343TMC3    H2 5202   4.495   1.351  17.271 -0.5932 -1.3746  0.6647
  343TMC3    C7 5203   4.294   1.298  17.446  0.6591  0.4992 -0.0794
  343TMC3    C8 5204   4.574   1.580  17.150  0.0704 -0.1780 -0.3321
  343TMC3    O1 5205   4.326   1.192  17.389 -0.2797 -0.3722  0.1557
  343TMC3    O2 5206   4.607   1.698  17.133 -0.0680  0.4827  0.2386
  344MPD2     C 5207   0.833   0.964  10.087 -0.6957 -0.3320  0.7351
  344MPD2    C1 5208   0.893   0.995  10.206  0.4662 -0.0772 -0.0857
  344MPD2    C2 5209   0.957   1.115  10.221 -0.2528  0.0384 -0.2629
  344MPD2    C3 5210   0.975   1.203  10.110 -0.2990 -0.3533  0.7530
  344MPD2    C4 5211   0.922   1.163   9.987  0.8717  0.1812  0.7105
  344MPD2    C5 5212   0.849   1.048   9.978  0.5258 -0.3859  0.5432
  344MPD2     H 5213   0.990   1.152  10.318  1.5075  0.0784 -0.8675
  344MPD2    H1 5214   0.919   1.226   9.899 -2.6679  1.1280  1.5173
  344MPD2    H2 5215   0.772   0.875  10.074 -1.1868 -0.5953  4.7556
  344MPD2    H3 5216   0.794   1.029   9.887 -1.6857 -0.7598  1.9610
  344MPD2     N 5217   1.023   1.334  10.131  0.3548 -0.0783 -0.3257
  344MPD2    H5 5218   1.029   1.365  10.228 -0.1982 -1.2147  0.0663
  344MPD2    N1 5219   0.878   0.898  10.314  0.0160 -0.1081 -0.5117
  344MPD2    H7 5220   0.871   0.797  10.300  0.1394 -0.4618  1.9307
  345TMC3    C1 5221   1.123   1.543  10.059  1.3356 -0.3633  0.0047
  345TMC3    C2 5222   1.214   1.543  10.165 -0.1635 -0.8187 -0.4314
  345TMC3    C3 5223   1.255   1.665  10.207 -0.0985 -0.4482 -0.4275
  345TMC3    C4 5224   1.093   1.658   9.996 -0.4858 -0.1420  0.4539
  345TMC3    C5 5225   1.141   1.783  10.036 -0.3022  0.6913  0.0682
  345TMC3    C6 5226   1.217   1.784  10.154 -0.3422  0.0415  0.2259
  345TMC3     C 5227   1.059   1.418  10.024 -0.4729  1.0419  0.0126
  345TMC3     O 5228   1.035   1.409   9.902  0.2793 -0.2454  0.4924
  345TMC3     H 5229   1.226   1.449  10.219  1.6781 -0.3279  0.0195
  345TMC3    H1 5230   1.011   1.645   9.926 -1.1546  0.1269  1.1796
  345TMC3    H2 5231   1.261   1.877  10.188  2.7624 -0.5615 -2.1407
  345TMC3    C7 5232   1.069   1.912  10.009 -0.0185 -0.6802 -0.3827
  345TMC3    C8 5233   1.318   1.670  10.346 -0.5457  0.5783  0.1702
  345TMC3    O1 5234   1.092   2.007  10.087  0.3535 -0.2181  0.3025
  345TMC3    O2 5235   1.347   1.556  10.382  0.2525  0.4990 -0.0386
  346MPD2     C 5236   0.588   2.856  14.069 -0.1909 -0.4124 -0.0928
  346MPD2    C1 5237   0.724   2.848  14.089  0.0452  0.2207 -0.1305
  346MPD2    C2 5238   0.772   2.909  14.209 -0.5521 -0.5838 -0.2273
  346MPD2    C3 5239   0.682   2.955  14.302 -0.1936  0.2109 -0.3810
  346MPD2    C4 5240   0.545   2.955  14.278  0.1475 -0.5103  0.0202
  346MPD2    C5 5241   0.500   2.904  14.160 -0.3690  0.0105 -0.2747
  346MPD2     H 5242   0.878   2.912  14.233 -0.5941  0.0097 -0.1073
  346MPD2    H1 5243   0.475   2.988  14.354  2.1678  0.7132  1.3625
  346MPD2    H2 5244   0.540   2.812  13.982  0.0551  0.9224 -0.9054
  346MPD2    H3 5245   0.393   2.902  14.142 -0.3163 -0.4672 -0.5464
  346MPD2     N 5246   0.740   2.998  14.427  0.9170 -0.6193 -0.4015
  346MPD2    H5 5247   0.835   2.964  14.442  1.2266 -0.3638 -1.7928
  346MPD2    N1 5248   0.814   2.788  14.002 -0.1647  0.2437 -0.2778
  346MPD2    H7 5249   0.912   2.808  14.021  0.4011 -1.3894 -1.4995
  347TMC3    C1 5250   0.730   3.013  14.658  0.0342 -0.4404 -0.2138
  347TMC3    C2 5251   0.790   2.884  14.652 -0.5954  0.5011  0.7143
  347TMC3    C3 5252   0.845   2.844  14.771  0.0462 -0.4583  0.3932
  347TMC3    C4 5253   0.732   3.095  14.766  1.3886 -0.2167 -0.2859
  347TMC3    C5 5254   0.799   3.045  14.874  0.6818 -1.2010 -0.3984
  347TMC3    C6 5255   0.859   2.922  14.885  0.5481 -0.0896  1.0181
  347TMC3     C 5256   0.669   3.063  14.533 -0.4493  0.5689  0.0376
  347TMC3     O 5257   0.563   3.126  14.533 -0.1221 -0.1105  0.0071
  347TMC3     H 5258   0.783   2.810  14.572 -0.7554  1.3024 -0.0140
  347TMC3    H1 5259   0.685   3.192  14.767 -0.1950 -0.9790  0.3789
  347TMC3    H2 5260   0.913   2.898  14.976 -0.3373  0.5141  1.7118
  347TMC3    C7 5261   0.826   3.130  14.986  0.7608 -0.1673 -0.1325
  347TMC3    C8 5262   0.949   2.741  14.755 -0.9465  0.0874 -0.1523
  347TMC3    O1 5263   0.862   3.077  15.090  0.4562  0.0545 -0.0326
  347TMC3    O2 5264   0.978   2.713  14.640 -0.5120  0.2678  0.7515
  348MPD2     C 5265   4.420   2.748  12.153 -0.6094 -0.3283 -0.5058
  348MPD2    C1 5266   4.492   2.737  12.033  0.4582  0.5814 -0.5207
  348MPD2    C2 5267   4.483   2.835  11.940  0.3840 -0.0610  0.3489
  348MPD2    C3 5268   4.381   2.932  11.945  0.9479 -0.1355 -0.3064
  348MPD2    C4 5269   4.305   2.936  12.064  0.5461  0.1831  0.3661
  348MPD2    C5 5270   4.338   2.859  12.171  0.1913 -0.6417 -0.2096
  348MPD2     H 5271   4.550   2.826  11.854  2.9833  5.5676  1.7678
  348MPD2    H1 5272   4.233   3.015  12.082  0.2470  0.0720 -0.3109
  348MPD2    H2 5273   4.429   2.669  12.227  0.4096 -0.5901 -0.9012
  348MPD2    H3 5274   4.287   2.861  12.266  0.2661 -1.2796 -0.1518
  348MPD2     N 5275   4.355   3.010  11.829  0.0171 -0.4557 -0.3739
  348MPD2    H5 5276   4.425   3.003  11.755 -0.1031 -2.2440 -0.3165
  348MPD2    N1 5277   4.569   2.627  12.006  0.2521  0.2655 -0.0949
  348MPD2    H7 5278   4.598   2.622  11.909  0.1530  0.3468 -0.1289
  349TMC3    C1 5279   4.625   2.399  12.001 -0.1781 -0.4818 -0.6590
  349TMC3    C2 5280   4.685   2.293  12.067 -0.7443  0.2631 -0.0209
  349TMC3    C3 5281   4.667   2.169  12.018 -0.4078 -0.5577 -0.0161
  349TMC3    C4 5282   4.558   2.381  11.878  0.2210  0.5558  0.1935
  349TMC3    C5 5283   4.547   2.251  11.831  0.1076  0.4231 -0.1009
  349TMC3    C6 5284   4.598   2.145  11.902 -0.5726 -0.3182  0.6415
  349TMC3     C 5285   4.589   2.517  12.080 -0.3843 -0.5843  0.3065
  349TMC3     O 5286   4.587   2.504  12.204 -0.0025  0.2800 -0.0865
  349TMC3     H 5287   0.001   2.306  12.160 -1.3907 -1.0649  0.5511
  349TMC3    H1 5288   4.501   2.460  11.830  0.4972 -0.6164 -2.0677
  349TMC3    H2 5289   4.590   2.045  11.861 -0.6508 -0.5819  1.2928
  349TMC3    C7 5290   4.467   2.223  11.713 -0.0768  0.2441  0.6159
  349TMC3    C8 5291   4.706   2.056  12.104 -0.8012  1.0516  0.3098
  349TMC3    O1 5292   4.390   2.130  11.720 -0.1249  0.7841 -0.0066
  349TMC3    O2 5293   0.074   2.065  12.158 -0.1920 -0.2928  0.0850
  350MPD2     C 5294   3.621   0.960  10.332 -0.0389  0.0468 -0.3598
  350MPD2    C1 5295   3.708   0.920  10.237  0.0454 -0.5556 -0.2799
  350MPD2    C2 5296   3.840   0.953  10.263 -0.1312 -0.2234 -0.5868
  350MPD2    C3 5297   3.890   1.016  10.375  0.9361  0.3039  0.5103
  350MPD2    C4 5298   3.798   1.071  10.461  0.9763  0.7109  0.4576
  350MPD2    C5 5299   3.665   1.041  10.437  0.2404 -0.2231 -0.0308
  350MPD2     H 5300   3.914   0.917  10.193 -0.1603 -1.9139  0.2552
  350MPD2    H1 5301   3.823   1.136  10.544  0.3181 -0.5224  1.6281
  350MPD2    H2 5302   3.516   0.934  10.334 -0.2001  0.6429 -1.4412
  350MPD2    H3 5303   3.587   1.088  10.496  1.9109  1.3629  0.9186
  350MPD2     N 5304   4.029   1.022  10.388 -0.8312 -0.2130 -0.3114
  350MPD2    H5 5305   4.083   0.953  10.337  0.0304  0.8137 -0.7895
  350MPD2    N1 5306   3.670   0.833  10.134 -0.2308  0.5718 -0.7397
  350MPD2    H7 5307   3.743   0.795  10.074 -2.1273 -1.9284 -1.4625
  351TMC3    C1 5308   3.528   0.678  10.013 -0.9248  0.1045  0.4994
  351TMC3    C2 5309   3.635   0.608   9.971 -0.3622 -0.2244 -0.6111
  351TMC3    C3 5310   3.612   0.482   9.923 -0.0160  0.4388 -0.1779
  351TMC3    C4 5311   3.400   0.626  10.010  0.1637 -0.5000 -0.7038
  351TMC3    C5 5312   3.382   0.496   9.971  0.4014  0.5719  0.9357
  351TMC3    C6 5313   3.485   0.417   9.925  0.0426  0.4262  0.6881
  351TMC3     C 5314   3.542   0.790  10.104  0.4105  0.5784  0.2854
  351TMC3     O 5315   3.441   0.857  10.126  0.6590  0.5576 -0.0991
  351TMC3     H 5316   3.738   0.642   9.968 -0.8943  1.3215 -1.1571
  351TMC3    H1 5317   3.316   0.673  10.059  1.0059  0.9041 -0.5992
  351TMC3    H2 5318   3.479   0.309   9.924  0.4417  0.4095 -2.0984
  351TMC3    C7 5319   3.258   0.474   9.904  0.2564  0.5256  0.2199
  351TMC3    C8 5320   3.723   0.388   9.906 -0.4148  0.6019  1.0190
  351TMC3    O1 5321   3.177   0.563   9.925  0.4838 -0.1596  0.1253
  351TMC3    O2 5322   3.698   0.293   9.835  0.0303 -0.3306 -0.0990
  352MPD2     C 5323   1.878   3.452   0.923  0.0496 -0.0050 -0.2076
  352MPD2    C1 5324   1.789   3.376   0.851 -0.2434  0.4696  0.3704
  352MPD2    C2 5325   1.831   3.264   0.786 -0.0760  0.4070 -0.1111
  352MPD2    C3 5326   1.961   3.227   0.782 -0.2753  0.3531  0.3598
  352MPD2    C4 5327   2.055   3.313   0.830 -0.5174 -0.1648  0.1959
  352MPD2    C5 5328   2.009   3.427   0.909 -0.1550  0.3999 -0.4361
  352MPD2     H 5329   1.761   3.196   0.739  0.2955  0.9301 -1.4246
  352MPD2    H1 5330   2.161   3.307   0.807 -0.3848  2.2128  0.1651
  352MPD2    H2 5331   1.844   3.537   0.981  1.0855 -0.3906  0.9546
  352MPD2    H3 5332   2.078   3.486   0.968 -0.4079  0.0063  0.2593
  352MPD2     N 5333   2.008   3.112   0.720 -0.1857  0.0134  0.4585
  352MPD2    H5 5334   2.109   3.098   0.714 -0.4487 -1.1639 -0.9869
  352MPD2    N1 5335   1.654   3.415   0.841 -0.2917 -0.2230  0.1513
  352MPD2    H7 5336   1.624   3.492   0.901  1.0341  0.3662  0.0653
  353TMC3    C1 5337   1.994   2.877   0.636 -0.0679  0.4691  0.3477
  353TMC3    C2 5338   2.112   2.840   0.700 -0.2356 -0.7903 -0.0933
  353TMC3    C3 5339   2.159   2.711   0.677 -0.0839 -0.2119  0.6345
  353TMC3    C4 5340   1.917   2.788   0.562 -0.1475  0.7003 -0.0487
  353TMC3    C5 5341   1.961   2.659   0.556 -0.0583 -0.6754  0.4994
  353TMC3    C6 5342   2.080   2.626   0.605  0.2305 -0.9839  0.3264
  353TMC3     C 5343   1.924   3.003   0.671  0.3463  0.5449  0.4161
  353TMC3     O 5344   1.802   2.993   0.655 -0.2273 -0.3428 -0.4553
  353TMC3     H 5345   2.168   2.913   0.758 -0.4265  0.2660 -1.2288
  353TMC3    H1 5346   1.830   2.820   0.506 -0.3243 -3.8118 -2.3524
  353TMC3    H2 5347   2.123   2.529   0.583 -0.3455 -1.4297  1.1576
  353TMC3    C7 5348   1.865   2.551   0.534  0.2293  0.6539  0.1780
  353TMC3    C8 5349   2.268   2.661   0.767  0.1779 -0.2586 -0.6184
  353TMC3    O1 5350   1.889   2.442   0.586  0.1071  0.7073 -0.0122
  353TMC3    O2 5351   2.318   2.739   0.846 -0.3783  0.2296  0.2691
  354TMC3    C1 5352   3.230   4.046  13.433  0.3018 -0.3833 -0.9914
  354TMC3    C2 5353   3.237   4.175  13.398 -0.6989 -0.0377  0.2783
  354TMC3    C3 5354   3.266   4.208  13.270  0.8963 -0.2005 -0.0124
  354TMC3    C4 5355   3.251   3.950  13.344  0.5638  0.5943  0.1145
  354TMC3    C5 5356   3.294   3.983  13.216  0.5152  0.2741  0.8368
  354TMC3    C6 5357   3.298   4.118  13.182 -0.1250  0.0403 -0.4801
  354TMC3     C 5358   3.247   3.999  13.568 -0.2717 -0.0281  0.0884
  354TMC3     O 5359   3.235   3.880  13.592  0.5374  0.5069 -0.3395
  354TMC3     H 5360   3.229   4.246  13.479 -1.1109 -0.1430  0.3330
  354TMC3    H1 5361   3.252   3.843  13.361 -1.6533  0.4846 -0.4312
  354TMC3    H2 5362   3.321   4.145  13.080 -1.7867  0.4267 -0.7465
  354TMC3    C7 5363   3.316   3.881  13.118  0.5054  0.0126  0.2528
  354TMC3    C8 5364   3.283   4.350  13.246  0.6171 -0.3438 -0.5734
  354TMC3    O1 5365   3.235   3.787  13.108  0.6409 -0.0007  0.4655
  354TMC3    O2 5366   3.251   4.425  13.337 -0.0564  0.2536 -0.2278
  355MPD2     C 5367   3.915   0.142  11.384 -0.3014 -0.3841  0.3533
  355MPD2    C1 5368   4.046   0.118  11.337 -0.0661  0.4095  0.5568
  355MPD2    C2 5369   4.151   0.143  11.426 -0.4924 -0.4343  0.3307
  355MPD2    C3 5370   4.139   0.215  11.545 -0.4915 -0.0759  0.4315
  355MPD2    C4 5371   4.009   0.242  11.585 -0.2660 -0.3301  0.6120
  355MPD2    C5 5372   3.907   0.204  11.505 -0.7133 -0.2688 -0.2187
  355MPD2     H 5373   4.251   0.108  11.400 -1.9397 -1.0272 -4.5371
  355MPD2    H1 5374   3.992   0.298  11.676 -1.4759 -1.7871  1.2744
  355MPD2    H2 5375   3.818   0.140  11.335  0.5145  1.5241 -1.3213
  355MPD2    H3 5376   3.806   0.228  11.537 -0.4149 -0.3537  0.7793
  355MPD2     N 5377   4.252   0.277  11.612  0.4023  0.5780 -0.6006
  355MPD2    H5 5378   4.233   0.327  11.698 -1.7595  0.5175 -1.0421
  355MPD2    N1 5379   4.057   0.085  11.202 -0.2461  0.2777 -0.3934
  355MPD2    H7 5380   3.969   0.051  11.163  0.8616 -0.5068 -2.1760
  356TMC3    C1 5381   4.457   0.402  11.620  0.2848  0.7434  0.6198
  356TMC3    C2 5382   4.551   0.464  11.542 -0.3806  0.3107 -0.6684
  356TMC3    C3 5383   4.623   0.571  11.590 -0.0745 -0.0761  0.4204
  356TMC3    C4 5384   4.427   0.451  11.745 -0.5316 -0.8174  0.3998
  356TMC3    C5 5385   4.497   0.567  11.787  0.0009  0.7240  0.1959
  356TMC3    C6 5386   4.590   0.625  11.711 -0.2249  0.2886 -0.2979
  356TMC3     C 5387   4.375   0.296  11.552 -0.3802  0.4894 -0.6517
  356TMC3     O 5388   4.420   0.244  11.453  0.0748 -0.6901  0.3670
  356TMC3     H 5389   4.574   0.422  11.444 -0.5988  2.1935 -1.5271
  356TMC3    H1 5390   4.349   0.411  11.808 -1.0995  1.3286  1.0885
  356TMC3    H2 5391   4.630   0.723  11.734  1.1004 -0.4560  0.6044
  356TMC3    C7 5392   4.484   0.602  11.929  0.1138  0.3188  0.6377
  356TMC3    C8 5393   4.676   0.652  11.482  0.1542  0.2490 -0.7757
  356TMC3    O1 5394   4.412   0.531  11.997 -0.6287 -0.5187  0.1875
  356TMC3    O2 5395   4.656   0.610  11.367 -0.3799 -0.0776 -0.4341
  357MPD2     C 5396   2.329   4.383   0.594  0.5042  0.2157  0.1780
  357MPD2    C1 5397   2.424   4.361   0.688  0.7813  0.1015  0.0567
  357MPD2    C2 5398   2.426   4.432   0.806  0.6761 -0.0990  0.4326
  357MPD2    C3 5399   2.322   4.517   0.832 -0.5849  0.4405 -0.7464
  357MPD2    C4 5400   2.233   4.549   0.729  0.5846 -0.4628  0.0817
  357MPD2    C5 5401   2.245   4.492   0.606  0.0588  0.1302 -0.0614
  357MPD2     H 5402   2.485   4.384   0.883 -0.9774 -1.9643  0.5366
  357MPD2    H1 5403   2.159   4.628   0.736  0.9328 -0.1485  0.2098
  357MPD2    H2 5404   2.316   4.314   0.512  0.1396 -0.5228  0.8682
  357MPD2    H3 5405   2.177   4.520   0.527  0.2408  0.0642 -0.2422
  357MPD2     N 5406   2.303   4.578   0.955  0.4095  0.0281 -0.0389
  357MPD2    H5 5407   2.214   4.628   0.963  1.1043  1.2925 -0.2329
  357MPD2    N1 5408   2.508   4.245   0.663  0.2306 -0.1998  1.2861
  357MPD2    H7 5409   2.481   4.181   0.589  1.8837  2.6804 -1.8558
  358TMC3    C1 5410   2.699   4.105   0.685  0.5537 -0.2871  0.1402
  358TMC3    C2 5411   2.623   3.999   0.671  0.2691 -0.1684  0.3113
  358TMC3    C3 5412   2.677   3.893   0.613 -0.1136 -0.1331 -0.2121
  358TMC3    C4 5413   2.833   4.110   0.658 -0.8532  0.2385 -0.0359
  358TMC3    C5 5414   2.884   3.995   0.605 -0.6888 -0.0204  0.2646
  358TMC3    C6 5415   2.807   3.893   0.579 -0.2402 -0.5372  0.7846
  358TMC3     C 5416   2.625   4.219   0.736  0.1032  0.3015  0.0950
  358TMC3     O 5417   2.692   4.293   0.813  0.2863  0.2495 -0.2281
  358TMC3     H 5418   2.519   3.996   0.701 -0.1124  2.2354 -0.7474
  358TMC3    H1 5419   2.888   4.203   0.658  0.7566 -0.7120  3.4574
  358TMC3    H2 5420   2.849   3.797   0.549 -1.7276 -0.5489 -1.2595
  358TMC3    C7 5421   3.018   3.977   0.556 -0.2757 -0.0387 -0.0818
  358TMC3    C8 5422   2.583   3.833   0.523 -0.0649  0.1447 -0.6764
  358TMC3    O1 5423   3.073   3.869   0.572  0.3878  0.6639 -0.0126
  358TMC3    O2 5424   2.484   3.900   0.514  0.1110  0.3082  0.1295
  359MPD2     C 5425   4.019   3.099  12.565  0.1815 -0.3443  0.0035
  359MPD2    C1 5426   4.052   3.111  12.431  0.2072  0.0933  0.0439
  359MPD2    C2 5427   3.950   3.087  12.343 -0.3954  0.5348 -0.2775
  359MPD2    C3 5428   3.816   3.062  12.373  0.0716 -0.5699  0.5049
  359MPD2    C4 5429   3.783   3.050  12.502  0.2778 -0.3288 -0.5310
  359MPD2    C5 5430   3.885   3.072  12.597 -0.4172 -1.0538 -0.2575
  359MPD2     H 5431   3.976   3.106  12.240  0.1733  0.0233 -0.2239
  359MPD2    H1 5432   3.684   3.027  12.538 -0.9306  4.1691 -1.0494
  359MPD2    H2 5433   4.086   3.135  12.643 -1.2629  0.4664  0.8631
  359MPD2    H3 5434   3.848   3.065  12.699  1.9623 -0.0302  0.6939
  359MPD2     N 5435   3.725   3.058  12.271 -0.0406  0.3117 -0.1610
  359MPD2    H5 5436   3.628   3.053  12.299  0.4323 -2.0362  1.0249
  359MPD2    N1 5437   4.178   3.149  12.388  0.7251  0.2562 -0.3145
  359MPD2    H7 5438   4.187   3.168  12.288 -0.3085 -1.6930 -0.7698
  360TMC3    C1 5439   4.401   3.176  12.372 -0.2199 -0.9123  0.4517
  360TMC3    C2 5440   4.510   3.093  12.385 -0.4857 -0.1575 -0.7123
  360TMC3    C3 5441   4.599   3.089  12.284 -0.1841 -0.5225 -0.4227
  360TMC3    C4 5442   4.380   3.254  12.261 -0.1269 -0.5319  0.2413
  360TMC3    C5 5443   4.478   3.253  12.163  0.0419 -0.3418  0.0479
  360TMC3    C6 5444   4.594   3.174  12.170 -0.0525 -0.8888 -0.3816
  360TMC3     C 5445   4.295   3.158  12.465  0.2475  0.1569 -0.3038
  360TMC3     O 5446   4.325   3.110  12.575 -0.0253 -0.1948  0.2215
  360TMC3     H 5447   4.510   3.026  12.470  1.0547 -0.1253 -0.6822
  360TMC3    H1 5448   4.300   3.326  12.256  1.3594  1.1608  0.9981
  360TMC3    H2 5449   4.667   3.176  12.090  0.4324  0.2499  0.0931
  360TMC3    C7 5450   4.479   3.356  12.058  0.0713 -0.4065 -0.1337
  360TMC3    C8 5451   4.676   2.963  12.285  0.7296  1.3534 -0.2384
  360TMC3    O1 5452   4.580   3.369  11.987 -0.0170  0.3974  0.1201
  360TMC3    O2 5453   4.667   2.899  12.392 -0.5644 -0.3127 -0.1030
  361MPD2     C 5454   0.692   2.199  16.447 -0.9464  0.6478 -0.1294
  361MPD2    C1 5455   0.641   2.204  16.574  0.2883 -0.2514 -0.0803
  361MPD2    C2 5456   0.711   2.148  16.683 -0.5426  0.5536  0.6182
  361MPD2    C3 5457   0.826   2.077  16.651 -0.8422 -0.0209  0.3738
  361MPD2    C4 5458   0.888   2.089  16.527 -0.4830  1.0277  0.0190
  361MPD2    C5 5459   0.821   2.151  16.426 -0.6306 -0.0040  0.5868
  361MPD2     H 5460   0.668   2.146  16.783  1.3863 -0.3967  1.4271
  361MPD2    H1 5461   0.990   2.058  16.509 -0.2397  1.0320  1.3659
  361MPD2    H2 5462   0.642   2.252  16.366 -0.4603 -1.9195 -2.1106
  361MPD2    H3 5463   0.857   2.153  16.324 -0.2602 -2.1794  0.6837
  361MPD2     N 5464   0.891   1.995  16.738 -0.1989 -0.2170  0.0171
  361MPD2    H5 5465   0.968   1.939  16.702 -0.5747 -1.2031  0.7543
  361MPD2    N1 5466   0.514   2.266  16.590  0.6044 -0.4260  0.4760
  361MPD2    H7 5467   0.472   2.295  16.503 -1.9631 -2.4585  1.0537
  362TMC3    C1 5468   0.324   2.352  16.683 -0.5440  0.0564 -0.3577
  362TMC3    C2 5469   0.239   2.339  16.785 -0.1435 -0.0105  0.3607
  362TMC3    C3 5470   0.141   2.425  16.795  0.7851  0.1949  0.2370
  362TMC3    C4 5471   0.323   2.455  16.595  0.3731  0.3744  0.5139
  362TMC3    C5 5472   0.216   2.542  16.605 -0.0389 -0.2456 -0.0311
  362TMC3    C6 5473   0.116   2.526  16.699  0.2734  0.9287  0.0149
  362TMC3     C 5474   0.449   2.291  16.707 -0.0301  0.3506 -1.0682
  362TMC3     O 5475   0.480   2.255  16.819 -0.4443 -0.1869  0.3745
  362TMC3     H 5476   0.251   2.263  16.862 -0.0103  1.0304  1.3601
  362TMC3    H1 5477   0.405   2.462  16.525  2.4072 -1.0731  2.7460
  362TMC3    H2 5478   0.036   2.598  16.699 -1.9609 -1.5754 -1.8459
  362TMC3    C7 5479   0.193   2.630  16.495 -0.1699  0.0224 -0.2235
  362TMC3    C8 5480   0.028   2.378  16.877 -0.0647  0.4893 -0.3183
  362TMC3    O1 5481   0.129   2.738  16.520  0.0544  0.5589 -0.6977
  362TMC3    O2 5482   0.034   2.261  16.910 -0.5487 -0.0116  0.1674
  363TMC3    C1 5483   3.811   4.470   9.026 -0.0233  0.0929 -0.0724
  363TMC3    C2 5484   3.896   4.523   9.120  0.3020 -0.1558 -0.0860
  363TMC3    C3 5485   3.996   4.437   9.172  0.1245  0.1798  0.5863
  363TMC3    C4 5486   3.823   4.338   8.984 -0.3079  0.1297  0.1260
  363TMC3    C5 5487   3.919   4.255   9.044  0.6193  0.2089 -0.1309
  363TMC3    C6 5488   4.005   4.302   9.137 -0.2588 -0.8577  0.1517
  363TMC3     C 5489   3.714   4.558   8.957 -0.5937  0.7712 -0.3854
  363TMC3     O 5490   3.645   4.498   8.875 -0.4932 -0.5680  0.2997
  363TMC3     H 5491   3.898   4.627   9.152  0.5014 -0.1993  0.0399
  363TMC3    H1 5492   3.752   4.293   8.915 -0.6451  0.0674  0.5087
  363TMC3    H2 5493   4.090   4.249   9.178 -0.0483  0.0179  0.8457
  363TMC3    C7 5494   3.903   4.112   9.019  0.1543  0.1739  0.0209
  363TMC3    C8 5495   4.086   4.496   9.273  0.0787 -0.1411 -0.7258
  363TMC3    O1 5496   3.816   4.075   8.937  0.3024  0.4223 -0.0843
  363TMC3    O2 5497   4.064   4.606   9.313 -0.0809  0.3844 -0.5877
  364MPD2     C 5498   3.129   4.615  11.433  0.2445  0.1102 -0.1896
  364MPD2    C1 5499   3.203   4.628  11.320 -0.2653 -0.4196  0.1150
  364MPD2    C2 5500   3.292   4.527  11.295  0.4433  0.2037 -0.4080
  364MPD2    C3 5501   3.306   4.417  11.377  0.2950 -0.1849 -0.2512
  364MPD2    C4 5502   3.221   4.400  11.484  0.4990 -1.3021 -0.2793
  364MPD2    C5 5503   3.142   4.509  11.519 -0.1033 -0.4920 -0.6359
  364MPD2     H 5504   3.360   4.529  11.210  0.0913 -0.0680 -0.6939
  364MPD2    H1 5505   3.215   4.314  11.549 -0.7974 -0.3610  0.8426
  364MPD2    H2 5506   3.065   4.695  11.468 -0.5190 -1.1610  1.2939
  364MPD2    H3 5507   3.086   4.504  11.612  0.4321  1.4566 -0.2140
  364MPD2     N 5508   3.410   4.323  11.367  0.6510 -0.2775 -0.1431
  364MPD2    H5 5509   3.399   4.249  11.435  0.6239 -0.8111 -0.7268
  364MPD2    N1 5510   3.197   0.010  11.250  0.3386 -0.4910 -1.0736
  364MPD2    H7 5511   3.131   0.075  11.291  1.5364 -0.4339  0.7856
  365TMC3    C1 5512   3.277   0.186  11.106 -0.4902  0.5166  0.1849
  365TMC3    C2 5513   3.294   0.207  10.969  0.2909  0.1110  0.1675
  365TMC3    C3 5514   3.232   0.314  10.916 -0.3016 -0.6051 -0.4167
  365TMC3    C4 5515   3.212   0.275  11.188 -0.3775  0.1858 -0.2549
  365TMC3    C5 5516   3.166   0.389  11.128  0.4717 -0.0819  0.1149
  365TMC3    C6 5517   3.186   0.420  10.995 -0.3064  0.1156  1.0633
  365TMC3     C 5518   3.289   0.047  11.152 -0.7983  0.6439  0.0927
  365TMC3     O 5519   3.349   4.710  11.078  0.0715  0.4052 -0.2869
  365TMC3     H 5520   3.345   0.134  10.907  1.5904 -0.6492  2.1364
  365TMC3    H1 5521   3.202   0.252  11.293  1.4566 -0.2326 -0.1751
  365TMC3    H2 5522   3.166   0.518  10.955 -2.7860 -0.5014  0.8283
  365TMC3    C7 5523   3.145   0.506  11.219 -0.4483 -0.0460  0.2851
  365TMC3    C8 5524   3.204   0.309  10.771  0.7647 -0.3176  0.3932
  365TMC3    O1 5525   3.181   0.615  11.175 -0.1192 -0.7142  0.2583
  365TMC3    O2 5526   3.256   0.400  10.706  0.5088  0.2275  0.1565
  366MPD2     C 5527   1.057   0.513  15.090  0.0709 -0.3575  0.1387
  366MPD2    C1 5528   1.176   0.580  15.110  0.3284 -0.2564 -0.3738
  366MPD2    C2 5529   1.284   0.507  15.155 -0.3203 -0.3369 -0.3242
  366MPD2    C3 5530   1.267   0.380  15.201  0.4959 -0.2868  0.1893
  366MPD2    C4 5531   1.143   0.316  15.192 -0.3459 -0.6732  0.0462
  366MPD2    C5 5532   1.049   0.384  15.128 -0.0590 -0.0608 -0.0218
  366MPD2     H 5533   1.377   0.562  15.163  0.2765 -1.6526  1.7541
  366MPD2    H1 5534   1.124   0.218  15.235 -1.7069 -0.0274  0.8942
  366MPD2    H2 5535   0.967   0.558  15.050  1.3622  1.6045 -0.5847
  366MPD2    H3 5536   0.962   0.330  15.094  0.1515 -1.1988  1.2543
  366MPD2     N 5537   1.379   0.323  15.257 -0.0498 -0.4180  0.2705
  366MPD2    H5 5538   1.460   0.384  15.266  0.6312 -1.3974  0.7251
  366MPD2    N1 5539   1.188   0.719  15.091 -0.2665 -0.4514 -0.4182
  366MPD2    H7 5540   1.276   0.763  15.116 -1.0974  0.1250  1.4952
  367TMC3    C1 5541   1.086   0.926  15.129 -0.9660  0.0550 -0.9633
  367TMC3    C2 5542   1.113   0.940  15.260 -0.8379  0.2515  0.3370
  367TMC3    C3 5543   1.078   1.051  15.328 -0.1748 -0.5357  0.1668
  367TMC3    C4 5544   1.004   1.023  15.074 -0.1101 -0.0717  0.3837
  367TMC3    C5 5545   0.966   1.130  15.149  0.0931 -0.0366  0.0689
  367TMC3    C6 5546   0.997   1.145  15.279 -0.0160  0.2085  0.0389
  367TMC3     C 5547   1.083   0.796  15.065 -0.6648 -0.7410 -0.5941
  367TMC3     O 5548   0.985   0.782  14.990 -0.2878  0.1314  0.1005
  367TMC3     H 5549   1.197   0.882  15.296 -0.9101  0.0955  0.2516
  367TMC3    H1 5550   0.983   1.012  14.968 -2.0126 -0.0155  0.7592
  367TMC3    H2 5551   0.955   1.228  15.335 -3.5344 -1.4210 -0.1947
  367TMC3    C7 5552   0.840   1.193  15.106  0.6645  0.1340  0.5933
  367TMC3    C8 5553   1.166   1.073  15.439 -0.5969 -0.7619  0.0681
  367TMC3    O1 5554   0.767   1.215  15.203  0.5464  0.2589  0.3420
  367TMC3    O2 5555   1.225   0.980  15.494 -0.3641  0.0468  0.0122
  368MPD2     C 5556   2.272   2.333  12.738  0.4466  0.0363  0.4778
  368MPD2    C1 5557   2.295   2.472  12.722 -0.1872  0.3555  0.1924
  368MPD2    C2 5558   2.427   2.521  12.724 -0.3269 -0.9345  0.0688
  368MPD2    C3 5559   2.530   2.436  12.728 -0.3844 -0.0459 -0.8356
  368MPD2    C4 5560   2.513   2.300  12.739  0.0319  0.3509  0.9127
  368MPD2    C5 5561   2.382   2.252  12.745  0.0349 -0.4995 -0.1853
  368MPD2     H 5562   2.441   2.628  12.714 -3.1847 -0.6257 -0.5177
  368MPD2    H1 5563   2.591   2.226  12.751 -1.6027 -1.6130 -0.4325
  368MPD2    H2 5564   2.174   2.291  12.753  0.9679 -1.9802 -1.8169
  368MPD2    H3 5565   2.358   2.147  12.755  1.0916 -0.7141  0.0837
  368MPD2     N 5566   2.662   2.485  12.724 -0.0103 -0.1964 -0.1710
  368MPD2    H5 5567   2.743   2.425  12.707  0.8182  0.3327  1.9302
  368MPD2    N1 5568   2.191   2.560  12.717 -0.7907  0.2365  0.6294
  368MPD2    H7 5569   2.111   2.531  12.771  0.4856 -0.0026  2.3956
  369TMC3    C1 5570   2.099   2.776  12.659 -0.2818 -0.8322 -0.0233
  369TMC3    C2 5571   2.121   2.902  12.599  0.1779  0.3869 -0.0751
  369TMC3    C3 5572   2.035   3.000  12.640 -0.0689  0.2666 -0.1432
  369TMC3    C4 5573   1.998   2.764  12.753  0.3631  0.3731  0.4599
  369TMC3    C5 5574   1.900   2.858  12.769  0.6163  0.5248 -0.3616
  369TMC3    C6 5575   1.918   2.983  12.713 -0.1823 -0.0788 -0.2449
  369TMC3     C 5576   2.207   2.678  12.644 -0.2648  0.0827  0.1094
  369TMC3     O 5577   2.292   2.703  12.557 -0.2394  0.1902  0.2277
  369TMC3     H 5578   2.215   2.921  12.549  0.3498 -0.1066  0.0636
  369TMC3    H1 5579   1.997   2.668  12.804  1.0256  0.1020 -0.0389
  369TMC3    H2 5580   1.856   3.068  12.738  1.0762  0.1686  2.0342
  369TMC3    C7 5581   1.810   2.834  12.883 -0.3571  0.2902  0.4312
  369TMC3    C8 5582   2.092   3.136  12.618 -0.2739 -0.2324 -0.1473
  369TMC3    O1 5583   1.838   2.742  12.957  0.7777 -0.0212  0.1720
  369TMC3    O2 5584   2.161   3.149  12.516  0.2834 -0.3464  0.0999
  370TMC3    C1 5585   1.838   3.147  16.143  0.2972  0.0815 -1.2054
  370TMC3    C2 5586   1.777   3.057  16.224 -0.2206  0.1831  0.5312
  370TMC3    C3 5587   1.757   2.930  16.173 -0.2780 -0.7175 -1.1892
  370TMC3    C4 5588   1.890   3.115  16.022 -0.1256  0.3409  0.2077
  370TMC3    C5 5589   1.870   2.988  15.980  0.2930 -0.3853  0.6657
  370TMC3    C6 5590   1.806   2.891  16.055 -0.5980  0.2698  0.4190
  370TMC3     C 5591   1.900   3.246  16.221  1.1713  0.1073 -0.3064
  370TMC3     O 5592   1.903   3.226  16.339 -0.2278 -0.5550  0.1812
  370TMC3     H 5593   1.726   3.084  16.316 -1.4097  0.2779 -0.1501
  370TMC3    H1 5594   1.957   3.175  15.962  3.5209 -0.4671  3.4448
  370TMC3    H2 5595   1.800   2.789  16.016  1.5032 -0.3663  1.7874
  370TMC3    C7 5596   1.966   2.935  15.878 -0.2943 -0.3800  0.8209
  370TMC3    C8 5597   1.708   2.825  16.266 -0.1068 -0.5176 -0.1200
  370TMC3    O1 5598   1.997   3.014  15.793 -0.7401 -0.0161  0.4527
  370TMC3    O2 5599   1.738   2.709  16.245  0.3903  0.4571  0.3388
  371TMC3    C1 5600   3.516   1.736  15.593 -0.5147  0.1457 -0.1570
  371TMC3    C2 5601   3.404   1.692  15.650  0.5344  0.2602 -0.3655
  371TMC3    C3 5602   3.285   1.761  15.642 -0.1225 -0.4575 -0.1557
  371TMC3    C4 5603   3.507   1.848  15.510 -0.0091  0.1624 -0.3448
  371TMC3    C5 5604   3.385   1.910  15.495  0.5034 -0.0917  0.5260
  371TMC3    C6 5605   3.275   1.872  15.562  0.3471 -1.1220 -0.1421
  371TMC3     C 5606   3.636   1.648  15.584  0.8644 -0.1901 -0.0955
  371TMC3     O 5607   3.740   1.694  15.544  0.3033  0.2836  0.6678
  371TMC3     H 5608   3.398   1.599  15.704  3.3789  0.1977 -0.1861
  371TMC3    H1 5609   3.588   1.872  15.442  1.0770  0.6008  1.0772
  371TMC3    H2 5610   3.184   1.927  15.540  1.4301  0.4878 -0.5607
  371TMC3    C7 5611   3.369   2.036  15.411  0.0051 -0.0522 -0.1926
  371TMC3    C8 5612   3.167   1.702  15.694 -0.1785 -0.7896 -0.2785
  371TMC3    O1 5613   3.275   2.110  15.439 -0.2974 -0.6742 -0.0279
  371TMC3    O2 5614   3.163   1.579  15.717  0.5010  0.0844  0.3262
  372MPD2     C 5615   2.699   2.418  13.059  0.8310  0.0873 -0.0107
  372MPD2    C1 5616   2.796   2.404  13.155 -0.8744 -0.3867  0.9665
  372MPD2    C2 5617   2.766   2.354  13.281  0.8435  0.0802  0.2450
  372MPD2    C3 5618   2.638   2.310  13.309 -0.2384  0.2724 -0.4279
  372MPD2    C4 5619   2.543   2.320  13.204  0.2635 -0.3836 -0.0669
  372MPD2    C5 5620   2.572   2.372  13.083 -0.1116  0.2464  0.0811
  372MPD2     H 5621   2.838   2.363  13.362  1.7791 -0.2020 -0.5483
  372MPD2    H1 5622   2.446   2.275  13.221 -0.5768  1.6522  0.4722
  372MPD2    H2 5623   2.717   2.476  12.970  1.0667 -1.1369 -0.7556
  372MPD2    H3 5624   2.497   2.371  13.005  0.5186 -0.8921 -0.5053
  372MPD2     N 5625   2.617   2.239  13.431  0.2244  0.0084  0.1766
  372MPD2    H5 5626   2.694   2.261  13.493 -1.6429 -1.6704  3.0585
  372MPD2    N1 5627   2.930   2.450  13.141 -0.4109  0.5431  0.7291
  372MPD2    H7 5628   2.989   2.431  13.222  1.1648 -1.9129 -0.9608
  373TMC3    C1 5629   2.519   2.139  13.619  0.4714  0.3271  0.1602
  373TMC3    C2 5630   2.446   2.204  13.709 -0.5166  0.5357 -0.6683
  373TMC3    C3 5631   2.497   2.203  13.838 -0.2144 -0.5439 -0.0486
  373TMC3    C4 5632   2.637   2.074  13.636  0.2525 -0.0589  0.4981
  373TMC3    C5 5633   2.676   2.062  13.768  0.4610  0.4296 -0.0607
  373TMC3    C6 5634   2.606   2.129  13.869 -0.0538 -0.1534  0.4742
  373TMC3     C 5635   2.502   2.183  13.476  0.2114 -0.1612  0.0536
  373TMC3     O 5636   2.388   2.174  13.433 -1.0020  0.2512 -0.2255
  373TMC3     H 5637   2.382   2.285  13.675  0.4872  1.5994 -0.0526
  373TMC3    H1 5638   2.678   2.012  13.557  0.5132  0.6176  0.1046
  373TMC3    H2 5639   2.639   2.139  13.971 -0.7644  1.1586  0.5691
  373TMC3    C7 5640   2.817   2.019  13.784  0.2358  0.5965  0.2360
  373TMC3    C8 5641   2.494   2.338  13.894 -0.0167 -0.1529  0.1148
  373TMC3    O1 5642   2.880   2.043  13.683  0.2469  0.7797 -0.2791
  373TMC3    O2 5643   2.481   2.440  13.828 -0.3116  0.5186 -0.3974
  374TMC3    C1 5644   3.287   3.070   9.828  0.3077  0.4036 -0.1465
  374TMC3    C2 5645   3.323   3.179   9.899  0.5075 -0.2666  0.2440
  374TMC3    C3 5646   3.332   3.298   9.823 -0.6653  0.0533  0.2846
  374TMC3    C4 5647   3.252   3.067   9.693 -0.3315 -0.3150  0.4318
  374TMC3    C5 5648   3.262   3.188   9.627  0.0011 -0.1284  0.0144
  374TMC3    C6 5649   3.298   3.308   9.686 -0.2336  0.3282  0.0670
  374TMC3     C 5650   3.288   2.946   9.906 -0.3842 -0.0265 -0.2101
  374TMC3     O 5651   3.362   2.953  10.002 -0.2555 -0.0232 -0.5334
  374TMC3     H 5652   3.350   3.172  10.003  2.3944 -0.8638 -0.2839
  374TMC3    H1 5653   3.201   2.982   9.647  1.0694 -0.5704 -0.6560
  374TMC3    H2 5654   3.299   3.404   9.635  0.8260  0.1162 -0.3045
  374TMC3    C7 5655   3.237   3.185   9.482 -0.3739 -0.2433 -0.2154
  374TMC3    C8 5656   3.365   3.422   9.888  0.4685 -0.0765  0.8262
  374TMC3    O1 5657   3.257   3.294   9.429  0.2038 -0.0985  0.1360
  374TMC3    O2 5658   3.322   3.527   9.835 -0.0506 -0.0680 -0.3166
  375MPD2     C 5659   3.211   3.606  17.212 -0.5562  0.1923 -0.4380
  375MPD2    C1 5660   3.121   3.606  17.107 -0.1551 -0.0498 -0.9542
  375MPD2    C2 5661   3.152   3.522  17.000 -0.2605 -0.1676  0.3257
  375MPD2    C3 5662   3.260   3.443  17.003  0.2766 -0.2725 -0.2503
  375MPD2    C4 5663   3.344   3.441  17.108  0.4069 -0.2421 -0.0244
  375MPD2    C5 5664   3.319   3.524  17.213 -0.8240  0.7268 -0.3776
  375MPD2     H 5665   3.080   3.524  16.919  0.8982 -1.0203 -0.7388
  375MPD2    H1 5666   3.435   3.384  17.094  1.0266  1.2190 -1.7727
  375MPD2    H2 5667   3.197   3.665  17.301 -2.6733  1.0591 -1.3478
  375MPD2    H3 5668   3.389   3.540  17.293 -0.2744  0.4220 -0.8009
  375MPD2     N 5669   3.306   3.365  16.893  0.0654  0.0597 -0.0614
  375MPD2    H5 5670   3.386   3.303  16.907  1.5714  1.4599 -2.3540
  375MPD2    N1 5671   3.012   3.696  17.086  0.4353 -0.1353  0.1347
  375MPD2    H7 5672   2.965   3.696  16.995 -0.1045 -1.3249  0.4090
  376TMC3    C1 5673   3.304   3.269  16.679  0.6993 -0.5512 -0.5573
  376TMC3    C2 5674   3.423   3.198  16.693  0.0148 -0.4040  0.1016
  376TMC3    C3 5675   3.473   3.141  16.576  0.0052 -0.2015 -0.0176
  376TMC3    C4 5676   3.233   3.258  16.559 -0.1328  0.3273 -0.5288
  376TMC3    C5 5677   3.289   3.200  16.452 -0.4103 -0.1230 -0.2644
  376TMC3    C6 5678   3.405   3.141  16.459 -0.3451  0.1425 -0.0300
  376TMC3     C 5679   3.248   3.370  16.769 -0.4525 -0.1642 -0.0459
  376TMC3     O 5680   3.186   3.456  16.708 -0.1907 -0.3822 -0.4314
  376TMC3     H 5681   3.494   3.187  16.775  0.5241 -2.2513 -0.5808
  376TMC3    H1 5682   3.132   3.297  16.550  0.2307  1.4958  0.5523
  376TMC3    H2 5683   3.457   3.127  16.365 -1.2107 -0.2078 -0.4504
  376TMC3    C7 5684   3.282   3.293  16.346  0.6306  0.2188 -0.2949
  376TMC3    C8 5685   3.616   3.145  16.564  0.5183  0.3962  0.0107
  376TMC3    O1 5686   3.223   3.401  16.369  0.3085 -0.2213  0.3365
  376TMC3    O2 5687   3.654   3.186  16.453  1.0611 -0.1938 -0.3628
  377MPD2     C 5688   1.487   2.733  12.506  0.6522  0.6188  0.6145
  377MPD2    C1 5689   1.409   2.846  12.511 -0.4219 -0.4108 -1.0875
  377MPD2    C2 5690   1.326   2.866  12.621 -0.2170  0.3480  0.3606
  377MPD2    C3 5691   1.320   2.764  12.719  0.7118  0.2159  0.5715
  377MPD2    C4 5692   1.409   2.653  12.708  0.6184  0.0162 -0.3929
  377MPD2    C5 5693   1.497   2.644  12.609  0.2267  0.4872 -0.3936
  377MPD2     H 5694   1.264   2.954  12.637 -1.4093 -0.5513  0.7248
  377MPD2    H1 5695   1.410   2.571  12.779  2.7518 -0.7653 -1.3391
  377MPD2    H2 5696   1.551   2.710  12.422 -0.9277  3.2508 -1.3013
  377MPD2    H3 5697   1.560   2.556  12.603 -0.1872  0.1900 -0.3727
  377MPD2     N 5698   1.221   2.764  12.829  0.5244 -0.3247  0.1322
  377MPD2    H5 5699   1.221   2.676  12.880 -1.6762 -0.6547 -0.4357
  377MPD2    N1 5700   1.413   2.943  12.409 -0.8573 -0.3395 -0.3338
  377MPD2    H7 5701   1.465   2.930  12.323  0.5789 -1.3626  0.6756
  378TMC3    C1 5702   1.357   3.347  12.158 -0.5924 -0.5598 -0.1298
  378TMC3    C2 5703   1.308   3.251  12.247 -0.5809 -0.4890 -0.6327
  378TMC3    C3 5704   1.382   3.147  12.287  0.0380  0.0854 -0.1705
  378TMC3    C4 5705   1.489   3.340  12.123  0.1445  0.3190  0.6182
  378TMC3    C5 5706   1.565   3.240  12.169 -0.0886 -0.3480  0.0449
  378TMC3    C6 5707   1.511   3.143  12.246  1.2047  0.5693  0.1934
  378TMC3     C 5708   1.264   3.430  12.087  0.1751  0.2512 -0.6356
  378TMC3     O 5709   1.154   3.440  12.146  0.4726  0.8749  0.0528
  378TMC3     H 5710   1.204   3.245  12.277  0.0086  1.4951  1.8809
  378TMC3    H1 5711   1.530   3.426  12.070 -2.3614  0.2162 -1.5014
  378TMC3    H2 5712   1.588   3.077  12.285  0.3275  0.2165  1.3267
  378TMC3    C7 5713   1.704   3.219  12.130 -0.0720 -0.0409  0.8536
  378TMC3    C8 5714   1.343   3.057  12.401  0.3207  0.2575 -0.7460
  378TMC3    O1 5715   1.775   3.151  12.200 -0.0874 -0.1808 -0.0252
  378TMC3    O2 5716   1.236   3.090  12.454 -0.3715  0.2037 -0.2432
  379MPD2     C 5717   2.063   1.006  16.183  0.5387  0.0581  0.2392
  379MPD2    C1 5718   1.971   0.948  16.263  0.2301 -0.3678 -0.5719
  379MPD2    C2 5719   2.009   0.897  16.388 -0.0062  0.4392 -0.2086
  379MPD2    C3 5720   2.145   0.892  16.419  0.1283  0.5146 -0.2817
  379MPD2    C4 5721   2.241   0.947  16.333  0.1959  0.8027  0.1730
  379MPD2    C5 5722   2.194   1.003  16.218 -0.0855  0.3009 -0.1638
  379MPD2     H 5723   1.938   0.862  16.462  2.1345 -1.8929  0.7513
  379MPD2    H1 5724   2.346   0.932  16.355  0.1806  0.8233  0.2571
  379MPD2    H2 5725   2.033   1.043  16.086 -0.2534 -2.1490 -0.3414
  379MPD2    H3 5726   2.279   1.018  16.152  1.3760 -1.0943  1.3916
  379MPD2     N 5727   2.200   0.828  16.533 -0.5670 -0.0460  0.0172
  379MPD2    H5 5728   2.300   0.816  16.521 -0.2797  1.2202  1.2385
  379MPD2    N1 5729   1.835   0.964  16.227  0.0473  0.5853  0.1657
  379MPD2    H7 5730   1.815   1.011  16.140 -0.1871 -0.8731 -0.5569
  380TMC3    C1 5731   1.609   0.914  16.235 -0.1868  0.7360  0.1269
  380TMC3    C2 5732   1.603   0.802  16.154 -0.1903  0.3711 -0.2384
  380TMC3    C3 5733   1.522   0.804  16.045  1.1040 -0.5704  0.0402
  380TMC3    C4 5734   1.540   1.030  16.207  0.0685  0.4027 -0.3551
  380TMC3    C5 5735   1.464   1.033  16.094  0.0261 -0.2743 -0.5988
  380TMC3    C6 5736   1.445   0.919  16.022  0.4640 -0.3668  0.0553
  380TMC3     C 5737   1.731   0.917  16.306 -0.1487  0.1155  0.7051
  380TMC3     O 5738   1.729   0.840  16.401  0.2075  0.3893  0.1334
  380TMC3     H 5739   1.659   0.716  16.190 -0.9756  0.2054  0.5715
  380TMC3    H1 5740   1.559   1.126  16.254 -0.1058  0.1869  0.1495
  380TMC3    H2 5741   1.367   0.912  15.948 -0.2537 -0.0109  0.7725
  380TMC3    C7 5742   1.446   1.157  16.021  0.3423 -0.1709  0.0978
  380TMC3    C8 5743   1.595   0.758  15.927  0.0305 -0.1874  0.0654
  380TMC3    O1 5744   1.499   1.261  16.052  0.0004 -0.3746  0.3033
  380TMC3    O2 5745   1.715   0.747  15.934  0.3320 -0.2599 -0.2371
  381TMC3    C1 5746   1.821   2.167  16.132  0.1197  0.2971  0.0609
  381TMC3    C2 5747   1.920   2.259  16.137  0.4463 -0.2613  0.1689
  381TMC3    C3 5748   1.914   2.357  16.234  0.1149 -0.2072  0.2748
  381TMC3    C4 5749   1.713   2.171  16.214 -0.8089 -0.0566 -0.6615
  381TMC3    C5 5750   1.709   2.273  16.305 -0.0631  0.6053  0.7129
  381TMC3    C6 5751   1.806   2.374  16.315  0.3048  0.2838  0.2692
  381TMC3     C 5752   1.842   2.029  16.090  0.3209  0.2968 -0.2474
  381TMC3     O 5753   1.788   1.937  16.149 -0.0478 -0.0827  0.0048
  381TMC3     H 5754   2.013   2.252  16.082  0.8757 -1.3319  1.0420
  381TMC3    H1 5755   1.634   2.096  16.207 -0.6106 -0.3202 -0.0753
  381TMC3    H2 5756   1.799   2.441  16.399  0.2695  0.8255 -0.1686
  381TMC3    C7 5757   1.643   2.237  16.429 -0.4498 -0.2323  0.0393
  381TMC3    C8 5758   2.026   2.452  16.234 -0.4528 -0.5195  0.2395
  381TMC3    O1 5759   1.656   2.122  16.462 -0.0447  0.5079 -0.1651
  381TMC3    O2 5760   2.130   2.413  16.178 -0.8184 -0.2743 -0.0669
  382MPD2     C 5761   1.023   0.369  17.052  0.5285  0.1846 -0.3826
  382MPD2    C1 5762   0.928   0.377  17.153  0.1792 -0.5778 -0.2355
  382MPD2    C2 5763   0.901   0.268  17.223  0.0764 -0.0983  0.0054
  382MPD2    C3 5764   0.953   0.147  17.182  0.4546 -0.3192 -0.4941
  382MPD2    C4 5765   1.045   0.141  17.081 -0.5136 -0.2586 -0.2202
  382MPD2    C5 5766   1.075   0.252  17.016 -0.0651  0.1385 -0.7257
  382MPD2     H 5767   0.830   0.280  17.305 -1.5885  0.7068 -1.5684
  382MPD2    H1 5768   1.079   0.044  17.047  2.2596  1.0712 -1.2884
  382MPD2    H2 5769   1.041   0.458  16.992 -0.1025  0.5119 -0.0809
  382MPD2    H3 5770   1.147   0.245  16.935 -0.3411  1.6810 -1.1071
  382MPD2     N 5771   0.904   0.022  17.233  0.1167 -0.0540  0.4862
  382MPD2    H5 5772   0.946   4.683  17.182  1.8018  1.2650 -0.1306
  382MPD2    N1 5773   0.872   0.500  17.189 -0.4973  0.3154  0.1556
  382MPD2    H7 5774   0.806   0.506  17.266 -1.2755 -2.0270 -0.3532
  383TMC3    C1 5775   0.750   4.617  17.354 -0.5308  0.5497  0.4963
  383TMC3    C2 5776   0.752   4.516  17.265  0.4568  0.4306 -0.1946
  383TMC3    C3 5777   0.666   4.410  17.276 -0.0752 -0.4468  0.3454
  383TMC3    C4 5778   0.666   4.609  17.466 -0.4725  0.1019  0.4032
  383TMC3    C5 5779   0.589   4.501  17.478 -0.3062 -0.5648  0.1689
  383TMC3    C6 5780   0.589   4.399  17.384  0.9407  0.2047  0.3288
  383TMC3     C 5781   0.805   0.011  17.329 -0.2270  0.3342  0.4187
  383TMC3     O 5782   0.761   0.101  17.402 -0.4211  0.2300 -0.0272
  383TMC3     H 5783   0.807   4.523  17.171  1.0922 -1.4074  0.0252
  383TMC3    H1 5784   0.664   4.685  17.544  0.4317 -0.9869  1.4889
  383TMC3    H2 5785   0.534   4.306  17.398  0.5102  0.2448 -1.0862
  383TMC3    C7 5786   0.509   4.475  17.600 -0.0877  0.4267 -0.9609
  383TMC3    C8 5787   0.665   4.303  17.180  0.3075  0.0592  0.6248
  383TMC3    O1 5788   0.466   4.358  17.618 -0.4186  0.8013 -0.3736
  383TMC3    O2 5789   0.773   4.264  17.139  0.0478 -0.0678 -0.5562
  384MPD2     C 5790   2.494   1.223  12.626 -0.0933  0.1617  0.1195
  384MPD2    C1 5791   2.546   1.233  12.753 -0.5778 -0.2626  0.6884
  384MPD2    C2 5792   2.659   1.155  12.791 -0.3469 -0.1705 -0.4432
  384MPD2    C3 5793   2.720   1.073  12.699 -0.1906  0.2922  0.0962
  384MPD2    C4 5794   2.666   1.062  12.570 -0.3040  1.0815 -0.3346
  384MPD2    C5 5795   2.563   1.142  12.539  0.3660 -0.6100 -0.1369
  384MPD2     H 5796   2.682   1.167  12.896 -1.8013 -1.3588  0.0243
  384MPD2    H1 5797   2.711   1.004  12.491 -0.1081 -1.3897  1.5543
  384MPD2    H2 5798   2.412   1.283  12.588 -1.0590 -0.0205  1.8970
  384MPD2    H3 5799   2.526   1.134  12.438  1.0787  1.1094 -0.5436
  384MPD2     N 5800   2.822   0.988  12.736 -0.3907  0.2783  0.4600
  384MPD2    H5 5801   2.837   0.900  12.688 -1.1119  0.8890 -0.8626
  384MPD2    N1 5802   2.475   1.319  12.842 -0.0564 -0.5566 -0.2430
  384MPD2    H7 5803   2.383   1.355  12.819 -1.7298 -2.7255  3.0213
  385TMC3    C1 5804   2.942   0.879  12.909 -0.3405 -0.6103  0.4591
  385TMC3    C2 5805   2.900   0.767  12.845  0.2363 -0.4200 -0.0716
  385TMC3    C3 5806   2.895   0.659  12.928  0.0832  0.0673  0.1998
  385TMC3    C4 5807   2.969   0.882  13.034  0.4525  0.1918 -0.4363
  385TMC3    C5 5808   2.940   0.781  13.119 -0.0693  0.4169  0.1099
  385TMC3    C6 5809   2.911   0.666  13.063  0.0692 -0.4269 -0.6574
  385TMC3     C 5810   2.886   0.999  12.857 -0.1346  0.0769  0.2409
  385TMC3     O 5811   2.911   1.103  12.920  0.0424  0.0927  0.1037
  385TMC3     H 5812   2.888   0.762  12.737  1.6276 -0.1612 -0.2334
  385TMC3    H1 5813   3.004   0.971  13.085  0.2236  0.7640 -1.2799
  385TMC3    H2 5814   2.877   0.588  13.130 -2.5039  2.1713  1.0763
  385TMC3    C7 5815   2.855   0.835  13.224  0.4425  0.2405 -0.6892
  385TMC3    C8 5816   2.834   0.530  12.879 -0.0572 -1.2465  0.5768
  385TMC3    O1 5817   2.877   0.950  13.260 -0.1920 -0.0896  0.4545
  385TMC3    O2 5818   2.748   0.468  12.944 -0.1107 -0.2089  0.2023
  386TMC3    C1 5819   3.388   3.569  11.586  0.2312  0.3147 -0.3203
  386TMC3    C2 5820   3.326   3.496  11.489  0.7166 -0.1639  0.2114
  386TMC3    C3 5821   3.194   3.527  11.456 -0.5855  0.1222 -0.2468
  386TMC3    C4 5822   3.315   3.668  11.648 -0.6294 -0.8691 -0.6016
  386TMC3    C5 5823   3.185   3.686  11.620  0.3750 -0.2407 -0.8050
  386TMC3    C6 5824   3.116   3.611  11.527 -0.2009  0.2534 -0.0571
  386TMC3     C 5825   3.505   3.506  11.648 -0.2755 -0.4222  0.3075
  386TMC3     O 5826   3.579   3.571  11.721 -0.5913 -0.3830 -0.5971
  386TMC3     H 5827   3.384   3.425  11.431  0.4953  1.7058 -2.2750
  386TMC3    H1 5828   3.353   3.728  11.729 -0.8920  2.2399 -2.7921
  386TMC3    H2 5829   3.009   3.617  11.512 -0.5400  0.0333  2.3531
  386TMC3    C7 5830   3.121   3.810  11.677 -0.1815  0.3271 -0.5520
  386TMC3    C8 5831   3.128   3.466  11.342 -0.7289  0.3296  0.2374
  386TMC3    O1 5832   3.191   3.909  11.685  0.3123  0.0166 -0.1568
  386TMC3    O2 5833   3.032   3.516  11.294 -0.4708  0.1281 -0.3428
  387MPD2     C 5834   0.635   3.422   9.996 -0.1229  0.6942 -0.2228
  387MPD2    C1 5835   0.707   3.366  10.099 -0.1247 -0.3926  0.0943
  387MPD2    C2 5836   0.689   3.231  10.127  0.4134  0.8862  0.1084
  387MPD2    C3 5837   0.620   3.142  10.053 -0.5821 -0.1279  0.8203
  387MPD2    C4 5838   0.552   3.199   9.947  0.6400  0.3501  0.0591
  387MPD2    C5 5839   0.560   3.336   9.915  0.3830  0.8502 -0.6823
  387MPD2     H 5840   0.743   3.193  10.213 -3.1600  0.7058  2.2813
  387MPD2    H1 5841   0.489   3.136   9.885  0.2920  1.5088 -0.7496
  387MPD2    H2 5842   0.635   3.527   9.969 -0.8597  0.2432 -1.9376
  387MPD2    H3 5843   0.498   3.382   9.838 -0.7898  1.5491  0.6806
  387MPD2     N 5844   0.636   3.006  10.068  0.0402  0.1081 -0.0613
  387MPD2    H5 5845   0.689   2.973  10.147 -1.1970  0.0701  0.7552
  387MPD2    N1 5846   0.787   3.442  10.187 -0.5033 -0.0022 -0.6323
  387MPD2    H7 5847   0.823   3.393  10.269 -1.5814  0.1082 -0.0999
  388TMC3    C1 5848   0.931   3.602  10.286  0.5069 -0.5503 -0.2440
  388TMC3    C2 5849   0.989   3.728  10.281 -0.2024 -0.2273 -0.6280
  388TMC3    C3 5850   1.123   3.741  10.317 -0.1187 -0.5753  0.4047
  388TMC3    C4 5851   0.994   3.495  10.347  0.3563 -0.6972 -0.0895
  388TMC3    C5 5852   1.124   3.518  10.392 -0.8129 -0.6667  0.2524
  388TMC3    C6 5853   1.197   3.634  10.373 -0.0954 -0.8540 -0.4388
  388TMC3     C 5854   0.831   3.572  10.184  0.3378 -0.1398  0.5486
  388TMC3     O 5855   0.805   3.660  10.102  0.4900 -0.0373  0.5417
  388TMC3     H 5856   0.940   3.817  10.243  1.0520  1.0801  0.8035
  388TMC3    H1 5857   0.949   3.399  10.370 -0.4595  0.0664  1.4928
  388TMC3    H2 5858   1.304   3.634  10.392  0.0546  3.4180 -1.4366
  388TMC3    C7 5859   1.208   3.398  10.405  0.1142  0.1901 -0.2416
  388TMC3    C8 5860   1.181   3.870  10.326 -0.4787  0.1529  0.6101
  388TMC3    O1 5861   1.292   3.390  10.489  0.4606 -0.0226  0.2912
  388TMC3    O2 5862   1.152   3.957  10.248 -0.0270  0.2941  0.6673
  389MPD2     C 5863   0.543   1.613  11.159  0.0806 -0.1053 -0.2510
  389MPD2    C1 5864   0.445   1.542  11.092 -0.1762  0.7043 -0.1231
  389MPD2    C2 5865   0.330   1.501  11.164  0.7341  0.5207 -0.3736
  389MPD2    C3 5866   0.323   1.521  11.302 -0.4674 -0.1423 -0.0692
  389MPD2    C4 5867   0.430   1.578  11.363 -0.3388  0.6674 -0.5234
  389MPD2    C5 5868   0.537   1.624  11.296 -0.3681  0.3977 -0.5890
  389MPD2     H 5869   0.249   1.454  11.110 -0.4901  0.2654  1.6685
  389MPD2    H1 5870   0.428   1.613  11.466 -0.4786 -1.0959  0.0673
  389MPD2    H2 5871   0.623   1.657  11.101  0.7067 -1.8243 -0.6938
  389MPD2    H3 5872   0.617   1.682  11.342  0.2087 -0.8500  0.0109
  389MPD2     N 5873   0.210   1.492  11.384 -0.4467 -0.2272  0.4174
  389MPD2    H5 5874   0.217   1.500  11.484 -1.4479 -0.6118  0.5198
  389MPD2    N1 5875   0.465   1.517  10.952  0.8739 -0.5074 -0.0010
  389MPD2    H7 5876   0.533   1.570  10.900 -0.0645  0.0854 -0.6346
  390TMC3    C1 5877   0.009   1.395  11.444 -0.2029  0.8229  0.3276
  390TMC3    C2 5878   4.676   1.294  11.399  0.9718  0.1876  0.4359
  390TMC3    C3 5879   4.616   1.215  11.491  0.1115 -0.3539  0.5508
  390TMC3    C4 5880   0.043   1.420  11.576 -0.4718 -0.8224 -0.1018
  390TMC3    C5 5881   4.721   1.338  11.665  0.0907  0.0015 -0.0233
  390TMC3    C6 5882   4.648   1.228  11.626 -1.2013  0.1092  0.2677
  390TMC3     C 5883   0.090   1.452  11.338  0.4997  0.3161  0.4103
  390TMC3     O 5884   0.056   1.439  11.222  0.3066 -0.3896  0.2072
  390TMC3     H 5885   4.653   1.268  11.296 -0.4775 -1.2889  1.1279
  390TMC3    H1 5886   0.076   1.521  11.600  1.0680 -1.1773 -0.7280
  390TMC3    H2 5887   4.616   1.161  11.705 -2.9678  1.1754  0.4656
  390TMC3    C7 5888   0.017   1.373  11.805 -0.5158 -0.4099  0.1271
  390TMC3    C8 5889   4.565   1.088  11.455 -0.6845  0.4071 -0.1755
  390TMC3    O1 5890   0.107   1.456  11.825  0.7820  0.5746  0.3133
  390TMC3    O2 5891   4.571   1.057  11.336  0.2708  0.2570  0.0378
  391MPD2     C 5892   4.003   2.800  11.169 -0.5386  0.5560  0.2401
  391MPD2    C1 5893   3.977   2.927  11.213 -0.7571 -0.6481 -0.0751
  391MPD2    C2 5894   3.922   3.018  11.130  0.4517 -0.2597  0.7149
  391MPD2    C3 5895   3.909   2.995  10.996  0.3136  0.3692 -0.7785
  391MPD2    C4 5896   3.955   2.875  10.951  0.7596  0.5257 -0.6295
  391MPD2    C5 5897   3.993   2.775  11.035  0.5134 -0.2108 -0.3703
  391MPD2     H 5898   3.886   3.115  11.160  0.1498 -0.6100  1.5000
  391MPD2    H1 5899   3.943   2.848  10.846 -0.3664 -0.6635 -0.1954
  391MPD2    H2 5900   4.044   2.729  11.240 -1.2541 -0.1743 -0.0840
  391MPD2    H3 5901   4.002   2.672  11.001  0.6647  0.2099 -1.6007
  391MPD2     N 5902   3.890   3.101  10.909 -0.3370  0.7117 -0.3233
  391MPD2    H5 5903   3.882   3.191  10.954 -0.9397 -0.0228  1.0144
  391MPD2    N1 5904   4.030   2.960  11.333 -0.8076 -0.2816 -0.1824
  391MPD2    H7 5905   4.077   2.879  11.372 -0.0538 -0.4652 -1.4739
  392TMC3    C1 5906   3.877   3.207  10.708  0.6856 -0.2365 -0.6473
  392TMC3    C2 5907   3.800   3.224  10.599  0.4677 -0.1850 -0.0433
  392TMC3    C3 5908   3.812   3.347  10.539 -0.1944 -0.5141 -0.2733
  392TMC3    C4 5909   3.976   3.288  10.750  0.0449  0.0383 -0.0246
  392TMC3    C5 5910   4.002   3.400  10.676 -0.3302 -0.2258 -0.2971
  392TMC3    C6 5911   3.902   3.440  10.590 -0.3275 -0.6444 -0.4189
  392TMC3     C 5912   3.856   3.086  10.779 -0.0895 -0.3865 -0.0815
  392TMC3     O 5913   3.818   2.984  10.714  0.4961  0.3367 -1.0289
  392TMC3     H 5914   3.727   3.150  10.567  1.5522 -1.1424 -0.3218
  392TMC3    H1 5915   4.059   3.260  10.814  1.1882 -2.5360 -2.5759
  392TMC3    H2 5916   3.905   3.530  10.530 -2.1279  0.9668  1.9115
  392TMC3    C7 5917   4.123   3.476  10.688 -0.0506 -0.1412  0.5285
  392TMC3    C8 5918   3.756   3.363  10.405 -0.1103  0.5658  0.6927
  392TMC3    O1 5919   4.207   3.436  10.765 -0.0610  0.4900 -0.1504
  392TMC3    O2 5920   3.734   3.267  10.335  0.0621 -0.0480 -0.3914
  393TMC3    C1 5921   3.102   0.839  10.284 -0.4959  0.3381  0.4120
  393TMC3    C2 5922   2.980   0.778  10.300 -0.0528  0.4494  0.1196
  393TMC3    C3 5923   2.976   0.655  10.352  0.5479  0.0197  0.5094
  393TMC3    C4 5924   3.217   0.777  10.328 -0.8924  0.4628 -0.5232
  393TMC3    C5 5925   3.216   0.644  10.365 -0.3722  0.5669  0.4816
  393TMC3    C6 5926   3.092   0.581  10.367 -0.1928 -0.2183  0.1999
  393TMC3     C 5927   3.114   0.972  10.238  0.2478  0.6470  0.4402
  393TMC3     O 5928   3.008   1.036  10.226 -0.3775  0.3101 -0.1265
  393TMC3     H 5929   2.893   0.837  10.273  1.3480  3.3269  1.9715
  393TMC3    H1 5930   3.312   0.828  10.342  0.6315 -2.4700 -0.1703
  393TMC3    H2 5931   3.082   0.475  10.387 -0.7558 -0.2340 -0.1663
  393TMC3    C7 5932   3.339   0.569  10.337 -0.2112  0.6848 -0.0308
  393TMC3    C8 5933   2.852   0.584  10.360 -0.0245  0.1181 -0.3931
  393TMC3    O1 5934   3.322   0.463  10.277 -0.2890  0.1024  1.0476
  393TMC3    O2 5935   2.827   0.502  10.445 -0.0741 -0.2868  0.6114
  394TMC3    C1 5936   0.416   1.395  10.746 -0.1236 -0.5099 -0.2308
  394TMC3    C2 5937   0.309   1.357  10.674  0.3808  0.8070 -0.1894
  394TMC3    C3 5938   0.336   1.305  10.553 -0.4681 -0.0902  0.0557
  394TMC3    C4 5939   0.541   1.396  10.697  0.6463  0.1787  0.2825
  394TMC3    C5 5940   0.569   1.339  10.575  0.1331  0.6845  0.2650
  394TMC3    C6 5941   0.463   1.290  10.505 -0.2175 -0.2966 -0.1688
  394TMC3     C 5942   0.389   1.413  10.890  0.2306  0.0650  0.0439
  394TMC3     O 5943   0.303   1.338  10.935 -0.1084 -0.4675 -0.0143
  394TMC3     H 5944   0.212   1.347  10.723 -0.8064  0.9011 -2.5248
  394TMC3    H1 5945   0.618   1.433  10.763 -0.2641 -0.0504  1.4811
  394TMC3    H2 5946   0.479   1.246  10.407  1.1414  1.6434 -0.8294
  394TMC3    C7 5947   0.659   1.418  10.501  0.1976  0.2714 -0.2246
  394TMC3    C8 5948   0.232   1.222  10.492  0.3373  0.0920  0.1333
  394TMC3    O1 5949   0.717   1.504  10.562  0.2604 -0.1446  0.3480
  394TMC3    O2 5950   0.262   1.159  10.393  0.4194 -0.9735  0.1021
  395TMC3    C1 5951   4.456   2.856  14.573  0.2578 -0.4813 -0.0966
  395TMC3    C2 5952   4.318   2.837  14.573  0.3650  0.7026 -0.6564
  395TMC3    C3 5953   4.231   2.944  14.563 -0.1245  0.7375 -0.2041
  395TMC3    C4 5954   4.504   2.980  14.571 -0.0426  0.0662  0.2261
  395TMC3    C5 5955   4.419   3.086  14.564 -0.4935 -0.9205  0.8115
  395TMC3    C6 5956   4.282   3.073  14.559  0.3564  0.5359 -0.4841
  395TMC3     C 5957   4.529   2.785  14.689  0.4042  0.2850  0.1648
  395TMC3     O 5958   4.608   2.862  14.744 -0.4096 -0.1699 -0.6352
  395TMC3     H 5959   4.277   2.744  14.609 -0.7951  1.7115  0.6267
  395TMC3    H1 5960   4.611   3.002  14.570  0.2095 -1.0905  1.3570
  395TMC3    H2 5961   4.224   3.164  14.563  0.4521  0.5560  0.4639
  395TMC3    C7 5962   4.462   3.202  14.644  0.5308  1.0793  0.5548
  395TMC3    C8 5963   4.115   2.933  14.647 -0.4437  0.2261 -0.4498
  395TMC3    O1 5964   4.422   3.311  14.623 -0.6484 -1.1051 -0.3495
  395TMC3    O2 5965   4.123   2.866  14.751 -0.2473 -0.5465  0.7537
  396MPD2     C 5966   3.595   4.250  16.936 -0.0578 -0.2656 -0.5603
  396MPD2    C1 5967   3.728   4.223  16.956 -0.1616  0.5110  0.0031
  396MPD2    C2 5968   3.823   4.322  16.930 -0.2924 -0.1340  0.0461
  396MPD2    C3 5969   3.778   4.448  16.890 -0.2664  0.2043 -0.3168
  396MPD2    C4 5970   3.645   4.470  16.878  0.0908  0.0829  0.8417
  396MPD2    C5 5971   3.556   4.375  16.898  0.6176  0.5906 -0.6930
  396MPD2     H 5972   3.928   4.309  16.955  0.3435  0.9514 -2.0314
  396MPD2    H1 5973   3.607   4.561  16.834  3.5687  0.6812 -0.9215
  396MPD2    H2 5974   3.515   4.180  16.960  0.4695 -0.8265 -0.4415
  396MPD2    H3 5975   3.451   4.397  16.883  0.5030  1.5159  1.4977
  396MPD2     N 5976   3.870   4.547  16.857 -0.1215  0.3041 -0.5433
  396MPD2    H5 5977   3.969   4.525  16.870 -0.6517 -0.2528  2.4575
  396MPD2    N1 5978   3.756   4.093  17.010  0.0131 -0.0351  0.5803
  396MPD2    H7 5979   3.674   4.039  17.034 -0.6102  0.9410  0.6433
  397TMC3    C1 5980   3.886   3.905  17.067 -0.8434  0.7347 -0.5552
  397TMC3    C2 5981   4.003   3.841  17.036  0.0849 -0.1708  0.2298
  397TMC3    C3 5982   4.100   3.819  17.135 -0.0357  0.5281  0.4627
  397TMC3    C4 5983   3.859   3.919  17.203  0.3697  1.1743 -0.3619
  397TMC3    C5 5984   3.938   3.863  17.295  1.5642 -0.3107  0.9732
  397TMC3    C6 5985   4.055   3.809  17.268 -0.0461  0.3094 -0.0937
  397TMC3     C 5986   3.884   4.036  17.008  0.3124  0.7235 -0.6620
  397TMC3     O 5987   3.988   4.066  16.947  0.4846  0.2648 -0.0154
  397TMC3     H 5988   4.033   3.842  16.932 -1.7118 -0.1466 -0.2951
  397TMC3    H1 5989   3.781   3.988  17.233  0.2911  0.0707  2.0104
  397TMC3    H2 5990   4.119   3.789  17.354 -0.8023 -1.6447  0.0132
  397TMC3    C7 5991   3.895   3.879  17.431  0.4410 -0.4383 -0.1053
  397TMC3    C8 5992   4.234   3.880  17.113  0.0896 -1.0831  0.0992
  397TMC3    O1 5993   3.826   3.976  17.462  0.4960 -0.2580  0.4498
  397TMC3    O2 5994   4.315   3.879  17.200  0.1690  0.0021 -0.2752
  398MPD2     C 5995   2.029   1.307   0.316  0.5545 -0.2363 -0.3525
  398MPD2    C1 5996   2.100   1.189   0.329 -0.0424 -0.3001  0.0436
  398MPD2    C2 5997   2.238   1.189   0.312  0.0188  0.6113  0.3338
  398MPD2    C3 5998   2.304   1.306   0.288  0.3361  0.2145 -0.3360
  398MPD2    C4 5999   2.232   1.426   0.277  0.0055  0.7286  0.4328
  398MPD2    C5 6000   2.095   1.423   0.296 -0.2207 -0.0327  0.4516
  398MPD2     H 6001   2.284   1.092   0.322  1.9322  1.3495 -1.2008
  398MPD2    H1 6002   2.275   1.518   0.237 -1.6343  1.8491  1.2567
  398MPD2    H2 6003   1.921   1.302   0.320  0.4832  0.6430 -1.0421
  398MPD2    H3 6004   2.036   1.514   0.288 -0.7701 -0.3606  0.8026
  398MPD2     N 6005   2.444   1.309   0.279 -0.4386  0.0512  0.1517
  398MPD2    H5 6006   2.488   1.218   0.285 -0.2388  0.1671  0.4757
  398MPD2    N1 6007   2.033   1.062   0.343 -0.0055 -0.3400  0.5782
  398MPD2    H7 6008   2.092   0.981   0.325  0.8121  0.8470 -2.0391
  399TMC3    C1 6009   1.869   0.908   0.402 -0.9231  0.2834  0.0718
  399TMC3    C2 6010   1.947   0.832   0.487 -0.1615 -0.3188 -0.3676
  399TMC3    C3 6011   1.919   0.700   0.507 -0.3654 -0.1575  0.2329
  399TMC3    C4 6012   1.749   0.863   0.351  0.3541 -0.3901 -0.3641
  399TMC3    C5 6013   1.722   0.733   0.376  0.2393 -0.6171 -0.7022
  399TMC3    C6 6014   1.808   0.651   0.448  0.5660  0.0742  0.6079
  399TMC3     C 6015   1.902   1.046   0.386  0.1739 -0.2297 -0.3104
  399TMC3     O 6016   1.814   1.129   0.414  0.5881 -0.0562 -0.3407
  399TMC3     H 6017   2.032   0.883   0.532 -0.3116 -0.7899  0.4537
  399TMC3    H1 6018   1.692   0.923   0.282  0.4220 -0.0118 -0.0896
  399TMC3    H2 6019   1.766   0.556   0.480 -2.3034  1.6554  1.5248
  399TMC3    C7 6020   1.616   0.668   0.312  0.6568 -0.4978 -0.4536
  399TMC3    C8 6021   2.026   0.615   0.551 -0.6286  0.1892 -0.8321
  399TMC3    O1 6022   1.629   0.546   0.294 -0.5198 -0.1414 -0.1656
  399TMC3    O2 6023   2.109   0.666   0.632  0.0261  0.1072  0.0385
  400TMC3    C1 6024   0.842   4.131  16.743 -0.1743 -0.2280 -0.8395
  400TMC3    C2 6025   0.734   4.081  16.672 -0.4370  0.2264 -0.7179
  400TMC3    C3 6026   0.610   4.146  16.674  0.0970  0.8522  0.1802
  400TMC3    C4 6027   0.834   4.259  16.803 -0.1535  0.4174 -0.7680
  400TMC3    C5 6028   0.707   4.313  16.797  0.4975  0.2096  0.1173
  400TMC3    C6 6029   0.597   4.271  16.721  0.2834  0.3203  0.3806
  400TMC3     C 6030   0.926   4.033  16.807  0.2703  0.2023  0.2371
  400TMC3     O 6031   0.901   3.915  16.802  0.3599  0.2891  0.1051
  400TMC3     H 6032   0.746   3.989  16.615  1.3992 -0.4613  0.7790
  400TMC3    H1 6033   0.893   4.290  16.889 -0.7935  1.1539 -0.5917
  400TMC3    H2 6034   0.501   4.322  16.721 -0.0154 -0.2203  3.2267
  400TMC3    C7 6035   0.713   4.449  16.824 -0.2749  0.2397 -0.0583
  400TMC3    C8 6036   0.488   4.073  16.635 -0.1147 -0.0254  1.0217
  400TMC3    O1 6037   0.824   4.497  16.835 -0.1044 -0.1448  0.1844
  400TMC3    O2 6038   0.385   4.135  16.665  0.2189 -0.8131  0.5348
  401MPD2     C 6039   3.708   3.088   1.455  0.3815 -0.0557  0.0480
  401MPD2    C1 6040   3.790   2.979   1.446  1.3291  0.2702  0.2094
  401MPD2    C2 6041   3.733   2.856   1.462 -0.5519  0.0628 -0.0591
  401MPD2    C3 6042   3.595   2.836   1.478  0.1046 -0.5762 -0.0463
  401MPD2    C4 6043   3.519   2.950   1.484  0.1238 -0.2140  0.0460
  401MPD2    C5 6044   3.578   3.077   1.478  0.4646  0.1628 -0.2261
  401MPD2     H 6045   3.794   2.767   1.463  0.8827  1.0594  2.2662
  401MPD2    H1 6046   3.410   2.950   1.482  0.0798  3.1153  2.2659
  401MPD2    H2 6047   3.752   3.187   1.446 -0.0216  0.0711 -0.5316
  401MPD2    H3 6048   3.515   3.165   1.482  1.3815  0.7130  2.1218
  401MPD2     N 6049   3.542   2.707   1.484 -0.1040 -0.0744 -0.5668
  401MPD2    H5 6050   3.602   2.625   1.479  2.6387  1.9172 -0.2553
  401MPD2    N1 6051   3.928   2.979   1.423 -0.7659  0.3949  0.1273
  401MPD2    H7 6052   3.963   2.890   1.390  2.1293  0.8615  1.9631
  402TMC3    C1 6053   3.394   2.532   1.443 -0.2783 -0.0309  0.2203
  402TMC3    C2 6054   3.456   2.447   1.527  0.1750  0.7448  0.4397
  402TMC3    C3 6055   3.450   2.316   1.512  0.2447 -1.3718 -0.1180
  402TMC3    C4 6056   3.312   2.487   1.343 -0.0859  0.4831  0.1524
  402TMC3    C5 6057   3.321   2.352   1.326  0.5295 -0.0182  0.4382
  402TMC3    C6 6058   3.395   2.265   1.404 -0.3497 -0.8530 -0.1684
  402TMC3     C 6059   3.413   2.672   1.470  0.0210  0.7050 -0.5758
  402TMC3     O 6060   3.321   2.746   1.444  0.1609 -0.7301  0.4795
  402TMC3     H 6061   3.516   2.490   1.607  1.0884 -0.1103  0.2117
  402TMC3    H1 6062   3.260   2.552   1.274 -0.3929 -0.5652 -0.6029
  402TMC3    H2 6063   3.380   2.158   1.391 -0.3677 -0.5637 -2.5556
  402TMC3    C7 6064   3.280   2.299   1.198  0.1306  0.6176 -0.0528
  402TMC3    C8 6065   3.559   2.243   1.561  0.9174  0.2732 -0.2573
  402TMC3    O1 6066   3.216   2.372   1.120  1.0486  0.2655  0.2223
  402TMC3    O2 6067   3.616   2.167   1.486  0.4463  0.5874 -0.4622
  403MPD2     C 6068   1.952   0.667  13.254  0.4254 -0.3259  0.1905
  403MPD2    C1 6069   1.959   0.615  13.380 -0.2280 -0.0240  0.1090
  403MPD2    C2 6070   1.986   0.705  13.486 -0.1206  0.3090  0.9296
  403MPD2    C3 6071   2.029   0.835  13.463 -0.0397 -0.9486  0.2283
  403MPD2    C4 6072   2.013   0.881  13.335 -1.1237 -0.9472 -0.1829
  403MPD2    C5 6073   1.974   0.795  13.232  0.2865  0.2255 -0.2045
  403MPD2     H 6074   1.987   0.670  13.588  3.4810  3.6635  2.0178
  403MPD2    H1 6075   2.029   0.986  13.313  0.5768 -0.9907  0.8172
  403MPD2    H2 6076   1.949   0.604  13.165  1.6331 -0.5880  0.3358
  403MPD2    H3 6077   1.954   0.837  13.134 -1.8283  0.0999  0.1923
  403MPD2     N 6078   2.073   0.919  13.571 -0.1940  1.2714  0.2133
  403MPD2    H5 6079   2.084   0.876  13.662 -1.5768 -0.4204 -0.4279
  403MPD2    N1 6080   1.921   0.478  13.398 -0.2178 -0.4371  0.7927
  403MPD2    H7 6081   1.882   0.434  13.315  2.4201  0.1960 -0.7821
  404TMC3    C1 6082   1.915   0.271  13.517  0.3909 -0.3126  0.4297
  404TMC3    C2 6083   1.965   0.209  13.630 -0.5234  0.0369 -0.2618
  404TMC3    C3 6084   2.039   0.095  13.616  0.2141  0.4427  0.4658
  404TMC3    C4 6085   1.938   0.208  13.397 -0.1699 -0.4740 -0.0996
  404TMC3    C5 6086   2.026   0.107  13.382  0.1808 -0.2854  0.1269
  404TMC3    C6 6087   2.073   0.047  13.493  0.2602 -0.5783  0.5336
  404TMC3     C 6088   1.931   0.410  13.520  0.3789  0.1793  1.0812
  404TMC3     O 6089   1.944   0.454  13.631  0.2753  0.0850 -0.6360
  404TMC3     H 6090   1.954   0.259  13.726 -0.5608 -2.1781  0.8705
  404TMC3    H1 6091   1.862   0.231  13.324 -1.0122 -1.1975  0.5362
  404TMC3    H2 6092   2.144   4.703  13.494  0.0085 -0.8064 -0.0013
  404TMC3    C7 6093   2.047   0.039  13.249  0.8005 -0.6428 -0.0413
  404TMC3    C8 6094   2.132   0.066  13.719 -0.5825  0.6524  0.4389
  404TMC3    O1 6095   2.115   4.677  13.256  0.4724  0.1917  0.1355
  404TMC3    O2 6096   2.244   0.022  13.686  0.4134 -0.4306  0.4245
  405MPD2     C 6097   2.191   1.943  15.402  0.2019  0.1023  0.5923
  405MPD2    C1 6098   2.260   1.892  15.288  0.2029  0.3398  0.1993
  405MPD2    C2 6099   2.225   1.939  15.166  0.2843  0.1207  0.0475
  405MPD2    C3 6100   2.116   2.029  15.141  0.1652 -0.1633  0.3693
  405MPD2    C4 6101   2.057   2.082  15.254 -0.5323 -0.4823  0.3609
  405MPD2    C5 6102   2.104   2.048  15.381  0.3218 -0.2034  0.2665
  405MPD2     H 6103   2.270   1.900  15.076  0.3364 -0.1050  0.1705
  405MPD2    H1 6104   1.982   2.157  15.231  0.7846  1.3742  2.0697
  405MPD2    H2 6105   2.215   1.917  15.504 -4.4161 -2.0748  1.1296
  405MPD2    H3 6106   2.063   2.098  15.469 -1.3541 -0.3931 -0.4092
  405MPD2     N 6107   2.089   2.059  15.007  0.3946  0.3781 -0.2162
  405MPD2    H5 6108   2.153   2.009  14.946 -0.2342 -0.5502 -0.1060
  405MPD2    N1 6109   2.366   1.792  15.315 -0.2718  0.0627  0.6961
  405MPD2    H7 6110   2.377   1.765  15.412  1.5667  1.8622  0.9778
  406TMC3    C1 6111   1.814   2.056  14.645  0.4235  0.1100 -0.3627
  406TMC3    C2 6112   1.913   1.989  14.574  0.1450  0.6224 -0.4247
  406TMC3    C3 6113   2.047   1.997  14.612 -0.6201  0.7000  0.6323
  406TMC3    C4 6114   1.839   2.116  14.763  0.1949  0.5422 -0.7140
  406TMC3    C5 6115   1.966   2.102  14.814  0.0586 -0.8427 -0.0679
  406TMC3    C6 6116   2.071   2.048  14.739  0.3660  0.3931 -0.1736
  406TMC3     C 6117   1.670   2.024  14.612  0.5809 -0.1379 -0.0756
  406TMC3     O 6118   1.587   2.039  14.697  0.2579 -0.5106 -0.5060
  406TMC3     H 6119   1.893   1.953  14.474  0.5935 -0.3337 -0.1668
  406TMC3    H1 6120   1.762   2.166  14.820  1.4518 -0.4926  1.9477
  406TMC3    H2 6121   2.174   2.048  14.775 -0.5860  0.9749  2.5434
  406TMC3    C7 6122   1.984   2.129  14.955 -0.2067  0.2925 -0.0885
  406TMC3    C8 6123   2.124   1.886  14.562  0.3689  0.0700  0.3843
  406TMC3    O1 6124   1.887   2.178  15.019  0.0071 -0.5509  0.0601
  406TMC3    O2 6125   2.075   1.819  14.471  0.0063  0.3714  0.4175
  407MPD2     C 6126   0.251   2.569  10.124 -0.1693  0.4617 -0.1580
  407MPD2    C1 6127   0.273   2.678  10.034  0.3568 -0.1787 -0.3037
  407MPD2    C2 6128   0.289   2.800  10.088 -0.1673 -0.1363  0.2179
  407MPD2    C3 6129   0.282   2.815  10.225  0.1515  0.0843 -0.7008
  407MPD2    C4 6130   0.258   2.705  10.310 -0.1177  0.0775 -0.1109
  407MPD2    C5 6131   0.240   2.581  10.258  0.1068 -0.0435 -0.3674
  407MPD2     H 6132   0.311   2.891  10.032  3.6113  1.0085  3.5095
  407MPD2    H1 6133   0.244   2.718  10.416 -0.1960  0.9805 -0.2311
  407MPD2    H2 6134   0.234   2.471  10.081  0.1381  0.1912  0.3291
  407MPD2    H3 6135   0.207   2.495  10.315 -0.6222  0.7389  0.3809
  407MPD2     N 6136   0.293   2.948  10.271  0.6066 -0.1489 -0.1126
  407MPD2    H5 6137   0.298   3.026  10.206 -1.3935  1.1804  1.2992
  407MPD2    N1 6138   0.281   2.669   9.896 -0.5571 -0.1050  0.7002
  407MPD2    H7 6139   0.281   2.751   9.837 -1.9861 -0.5140  0.1238
  408TMC3    C1 6140   0.303   2.573   9.687 -0.3497 -0.3090  0.2251
  408TMC3    C2 6141   0.407   2.494   9.641 -0.5600  0.0232 -0.6818
  408TMC3    C3 6142   0.464   2.538   9.526  0.0029 -0.0050 -0.3444
  408TMC3    C4 6143   0.262   2.693   9.636 -0.1800 -0.0807  0.2289
  408TMC3    C5 6144   0.325   2.731   9.524  0.6007  0.3854 -0.0885
  408TMC3    C6 6145   0.421   2.659   9.473  0.4836  0.1423  1.1865
  408TMC3     C 6146   0.272   2.550   9.825 -0.2810  0.1682 -0.7761
  408TMC3     O 6147   0.283   2.437   9.868 -0.6528  0.1636  0.0191
  408TMC3     H 6148   0.458   2.420   9.701  1.6609  0.9573 -1.4219
  408TMC3    H1 6149   0.162   2.724   9.664  0.2575  0.9802  0.5917
  408TMC3    H2 6150   0.470   2.692   9.382  0.4987 -3.1127  0.0138
  408TMC3    C7 6151   0.264   2.839   9.439 -0.0078 -0.5444 -0.1641
  408TMC3    C8 6152   0.609   2.541   9.545 -0.4154 -1.0775  0.5771
  408TMC3    O1 6153   0.302   2.858   9.324 -0.2846  0.4294 -0.4757
  408TMC3    O2 6154   0.670   2.434   9.544  0.4386 -0.0422  0.5938
  409MPD2     C 6155   4.056   3.465  16.853 -0.4677 -0.3966  0.3371
  409MPD2    C1 6156   4.181   3.425  16.908  0.4891  0.1590 -0.6141
  409MPD2    C2 6157   4.293   3.506  16.886  0.2265  0.7868 -0.2136
  409MPD2    C3 6158   4.279   3.616  16.811 -0.0453  0.0786 -0.7739
  409MPD2    C4 6159   4.160   3.649  16.758  0.3146  0.5405  0.2850
  409MPD2    C5 6160   4.039   3.577  16.780  0.5359  0.2835  0.1931
  409MPD2     H 6161   4.386   3.477  16.933 -0.0171 -1.1458 -0.9121
  409MPD2    H1 6162   4.153   3.741  16.700  0.8851 -0.3332 -1.1554
  409MPD2    H2 6163   3.968   3.403  16.863 -0.2659 -0.4204  1.8309
  409MPD2    H3 6164   3.947   3.606  16.731  1.3113  1.3533 -0.6356
  409MPD2     N 6165   4.384   3.711  16.793  0.6609 -0.4206 -0.0112
  409MPD2    H5 6166   4.361   3.785  16.727 -3.0256  0.8569  2.7521
  409MPD2    N1 6167   4.186   3.297  16.983 -0.1693  0.2276 -0.0520
  409MPD2    H7 6168   4.281   3.278  17.013 -1.0993 -4.8347 -0.2979
  410TMC3    C1 6169   4.589   3.827  16.810  0.0715 -0.0811 -0.4474
  410TMC3    C2 6170   4.674   3.886  16.900  0.4768  0.2415  0.5189
  410TMC3    C3 6171   0.003   3.995  16.849 -0.0603 -0.1296 -0.6561
  410TMC3    C4 6172   4.573   3.883  16.686  0.2902 -0.7121  0.2323
  410TMC3    C5 6173   4.631   3.997  16.648 -0.4217  0.2216  0.5411
  410TMC3    C6 6174   4.721   4.062  16.725  0.5355  0.1088 -0.2726
  410TMC3     C 6175   4.504   3.714  16.854  0.4324 -0.2482  0.6459
  410TMC3     O 6176   4.546   3.644  16.943  0.0440 -0.2671  0.0253
  410TMC3     H 6177   4.675   3.852  17.003 -1.9730  2.4337  1.2710
  410TMC3    H1 6178   4.511   3.833  16.613  0.7224 -1.2203  0.2132
  410TMC3    H2 6179   0.055   4.138  16.697  1.5424 -1.1190 -0.9848
  410TMC3    C7 6180   4.589   4.053  16.517  0.3469  0.0355 -0.5719
  410TMC3    C8 6181   0.105   4.056  16.933 -0.7058  0.8784 -0.3043
  410TMC3    O1 6182   4.506   3.987  16.458  0.5672 -0.0966  0.0790
  410TMC3    O2 6183   0.109   4.179  16.932  0.0309  0.5616  0.0445
  411MPD2     C 6184   4.605   3.875  14.656 -0.0073 -0.8795  0.0908
  411MPD2    C1 6185   4.484   3.924  14.613  0.1015 -0.0615 -0.3407
  411MPD2    C2 6186   4.390   3.834  14.582 -0.1457 -0.4455 -0.6228
  411MPD2    C3 6187   4.412   3.698  14.593 -0.3147 -0.2491 -0.7816
  411MPD2    C4 6188   4.529   3.644  14.645  0.7104 -0.2360 -0.0035
  411MPD2    C5 6189   4.624   3.741  14.671 -0.3604  0.4203  1.0905
  411MPD2     H 6190   4.291   3.868  14.553 -0.2940 -0.1512  0.2496
  411MPD2    H1 6191   4.542   3.537  14.661 -0.6115 -0.6726 -1.8629
  411MPD2    H2 6192   4.683   3.937  14.699 -0.7827  0.9259 -1.1052
  411MPD2    H3 6193   4.719   3.703  14.706  0.0549  0.6404  0.1689
  411MPD2     N 6194   4.312   3.602  14.552 -0.4044  0.9247 -0.6830
  411MPD2    H5 6195   4.339   3.504  14.550  0.6167  1.1764  0.9980
  411MPD2    N1 6196   4.463   4.058  14.582 -0.1726 -0.0788  0.6381
  411MPD2    H7 6197   4.373   4.076  14.541  0.1668  1.2092  0.4617
  412TMC3    C1 6198   4.079   3.526  14.508  0.0103  0.1708 -0.4609
  412TMC3    C2 6199   3.944   3.551  14.508 -0.1322 -0.2698  0.0043
  412TMC3    C3 6200   3.855   3.451  14.490  0.2495 -0.2673  0.1155
  412TMC3    C4 6201   4.119   3.398  14.473  0.2854  0.7025  0.0800
  412TMC3    C5 6202   4.028   3.305  14.442 -0.0533  0.1879  0.0428
  412TMC3    C6 6203   3.892   3.322  14.459  0.1972 -0.0084 -0.1672
  412TMC3     C 6204   4.175   3.629  14.539 -0.5537  0.4694 -0.5848
  412TMC3     O 6205   4.125   3.738  14.544 -0.4386  0.0083  0.1907
  412TMC3     H 6206   3.905   3.652  14.521 -0.3606 -0.3563 -0.0145
  412TMC3    H1 6207   4.223   3.389  14.445 -0.1594 -1.2482 -0.9186
  412TMC3    H2 6208   3.827   3.248  14.415  1.5860 -1.5649  0.4058
  412TMC3    C7 6209   4.062   3.235  14.316 -0.1057  0.1011 -0.2334
  412TMC3    C8 6210   3.739   3.488  14.417  0.4443  0.0751  0.1449
  412TMC3    O1 6211   4.094   3.115  14.322 -0.4362  0.3839  0.1120
  412TMC3    O2 6212   3.649   3.406  14.426  0.2421  0.3510 -0.5210
  413MPD2     C 6213   1.847   2.483  15.461  0.1401 -0.1429  0.0287
  413MPD2    C1 6214   1.829   2.380  15.550 -0.2252 -0.1770  0.0513
  413MPD2    C2 6215   1.937   2.333  15.620  0.1631 -0.3281 -0.3376
  413MPD2    C3 6216   2.069   2.374  15.586 -0.2492 -0.5747  0.3936
  413MPD2    C4 6217   2.084   2.478  15.498 -0.0498  0.0864  0.1976
  413MPD2    C5 6218   1.972   2.535  15.443  0.1200  0.3005  0.7416
  413MPD2     H 6219   1.922   2.261  15.699  1.9288  1.6627  1.8289
  413MPD2    H1 6220   2.180   2.523  15.479 -0.4849  1.7182  1.9451
  413MPD2    H2 6221   1.769   2.532  15.404 -0.9412 -1.9962 -0.0948
  413MPD2    H3 6222   1.995   2.614  15.373 -0.1877  0.0647  0.3710
  413MPD2     N 6223   2.182   2.308  15.636  0.3462 -0.0247  0.3756
  413MPD2    H5 6224   2.267   2.323  15.583 -0.9359  1.3191 -1.3498
  413MPD2    N1 6225   1.694   2.324  15.565 -0.0545  0.1489 -0.1514
  413MPD2    H7 6226   1.620   2.377  15.519 -0.7308 -0.5491  0.1182
  414TMC3    C1 6227   2.325   2.160  15.742  0.3652  0.0779 -0.0013
  414TMC3    C2 6228   2.340   2.025  15.774 -0.2020 -0.1785  0.4273
  414TMC3    C3 6229   2.415   1.948  15.690  0.0901 -0.8625  0.0374
  414TMC3    C4 6230   2.408   2.212  15.644  0.0882 -0.9222 -0.6264
  414TMC3    C5 6231   2.494   2.125  15.573  0.9079 -0.5840  0.6373
  414TMC3    C6 6232   2.492   1.993  15.590  0.6261 -0.2485 -0.0025
  414TMC3     C 6233   2.185   2.218  15.737  0.6981  0.0908  0.0179
  414TMC3     O 6234   2.110   2.200  15.835 -0.1022  0.6542  0.5132
  414TMC3     H 6235   2.271   1.991  15.850  1.1123 -0.5630  1.4510
  414TMC3    H1 6236   2.415   2.320  15.633 -0.2342 -0.8343  0.1164
  414TMC3    H2 6237   2.555   1.928  15.531  0.4415  0.3082 -0.8182
  414TMC3    C7 6238   2.506   2.165  15.436  0.2654 -0.1109 -0.6079
  414TMC3    C8 6239   2.406   1.801  15.687  0.2053 -0.0431 -0.2336
  414TMC3    O1 6240   2.420   2.245  15.397  0.2841 -0.3925  0.1034
  414TMC3    O2 6241   2.406   1.748  15.576 -0.0789 -0.4902 -0.3502
  415TMC3    C1 6242   2.722   0.152  10.421 -0.6369  0.0236 -0.3726
  415TMC3    C2 6243   2.799   0.219  10.322  0.7002 -0.7201 -0.6298
  415TMC3    C3 6244   2.752   0.211  10.185  0.3965  0.5762 -0.4687
  415TMC3    C4 6245   2.616   0.079  10.378 -0.5012  0.1721 -0.6631
  415TMC3    C5 6246   2.568   0.080  10.247  0.5328 -0.1271 -0.2829
  415TMC3    C6 6247   2.632   0.154  10.149 -0.0325 -0.7851 -0.3260
  415TMC3     C 6248   2.757   0.146  10.555  0.2404 -0.1264 -1.0386
  415TMC3     O 6249   2.731   0.038  10.608  0.2033  0.0432 -0.0426
  415TMC3     H 6250   2.882   0.279  10.357  0.2548 -0.6799  0.3491
  415TMC3    H1 6251   2.563   0.025  10.456  0.1951 -0.2433 -0.4798
  415TMC3    H2 6252   2.595   0.138  10.048  0.7879 -1.8933 -0.4453
  415TMC3    C7 6253   2.446   0.005  10.219 -0.4173 -0.7910  0.1545
  415TMC3    C8 6254   2.810   0.322  10.111 -0.3026 -0.4198 -0.2843
  415TMC3    O1 6255   2.373   0.048  10.129  0.2415  0.2576  0.0238
  415TMC3    O2 6256   2.927   0.352  10.122 -0.2585  0.5306  0.2906
  416MPD2     C 6257   0.218   4.231  11.793  0.0400  0.1152  0.5261
  416MPD2    C1 6258   0.094   4.177  11.830 -0.2199  0.7832 -0.0790
  416MPD2    C2 6259   0.042   4.070  11.757  0.4734 -0.7876  0.4686
  416MPD2    C3 6260   0.117   4.018  11.652 -0.2089 -1.1540  0.1323
  416MPD2    C4 6261   0.244   4.066  11.628 -0.4634 -0.0797  0.1502
  416MPD2    C5 6262   0.284   4.184  11.685  0.0312  0.3760 -0.4430
  416MPD2     H 6263   4.681   4.030  11.774 -0.0144 -0.2393 -1.0977
  416MPD2    H1 6264   0.303   4.034  11.543  1.2052 -1.1772  1.7357
  416MPD2    H2 6265   0.269   4.311  11.846 -0.2078  0.6573 -0.0558
  416MPD2    H3 6266   0.377   4.230  11.655  0.5570 -1.2485 -1.2564
  416MPD2     N 6267   0.065   3.908  11.578  0.1554  0.1472 -0.5479
  416MPD2    H5 6268   4.718   3.862  11.608  0.9862 -0.0378  1.5240
  416MPD2    N1 6269   0.034   4.238  11.940  0.0406  0.6883 -0.7534
  416MPD2    H7 6270   0.086   4.313  11.982  0.3928 -1.0843  1.9386
  417TMC3    C1 6271   4.602   4.318  12.070 -0.0781  0.0695 -0.7325
  417TMC3    C2 6272   4.513   4.284  12.161  0.2998  0.3305 -0.3795
  417TMC3    C3 6273   4.475   4.388  12.248 -0.6461 -0.1478  0.5402
  417TMC3    C4 6274   4.650   4.440  12.055 -0.2509 -0.5119  0.0848
  417TMC3    C5 6275   4.590   4.545  12.113 -0.4380 -0.0577 -0.0460
  417TMC3    C6 6276   4.524   4.516  12.231  0.6406  0.2525  0.2053
  417TMC3     C 6277   4.644   4.211  11.982  0.3432 -0.7887  0.1611
  417TMC3     O 6278   4.562   4.125  11.944  0.1195  0.4900 -0.0784
  417TMC3     H 6279   4.478   4.182  12.160  2.0535 -0.2624 -0.2495
  417TMC3    H1 6280   4.698   4.465  11.961  1.4579 -0.2473  1.0248
  417TMC3    H2 6281   4.493   4.594  12.299 -1.4427 -2.1388  2.0100
  417TMC3    C7 6282   4.489   4.591  12.026  0.6220  0.4287 -0.0740
  417TMC3    C8 6283   4.331   4.379  12.291 -0.0374 -0.4986 -0.3263
  417TMC3    O1 6284   4.484   4.529  11.919  0.0967  0.4578  0.0960
  417TMC3    O2 6285   4.279   4.483  12.336  0.1404 -0.5152  0.0485
  418TMC3    C1 6286   2.804   1.211   0.200  0.3919  0.8250 -0.1407
  418TMC3    C2 6287   2.706   1.295   0.162  1.0165 -1.0388 -0.1143
  418TMC3    C3 6288   2.665   1.379   0.262 -0.7710 -0.6889  0.1361
  418TMC3    C4 6289   2.866   1.209   0.323 -0.2033  0.0516  0.6632
  418TMC3    C5 6290   2.828   1.305   0.409  0.2288  0.2330 -0.4202
  418TMC3    C6 6291   2.730   1.398   0.385 -0.4015 -0.1496 -0.1745
  418TMC3     C 6292   2.857   1.115   0.095 -0.2242 -0.2984 -0.0200
  418TMC3     O 6293   2.864   1.156  17.736 -0.2317  0.2498  0.3808
  418TMC3     H 6294   2.646   1.280   0.074  0.5244 -1.7749  0.3533
  418TMC3    H1 6295   2.945   1.142   0.354 -0.9034 -0.5191  1.2170
  418TMC3    H2 6296   2.670   1.451   0.458 -1.7193 -1.1480 -0.5394
  418TMC3    C7 6297   2.843   1.257   0.548 -0.0714  0.2991 -0.2549
  418TMC3    C8 6298   2.530   1.420   0.270  0.0953 -0.2982  0.1774
  418TMC3    O1 6299   2.843   1.134   0.555 -0.1288  0.0740 -0.1031
  418TMC3    O2 6300   2.515   1.541   0.262  0.0612 -0.1657  0.4479
  419MPD2     C 6301   1.390   3.761  13.043  0.0332  0.2434  0.1550
  419MPD2    C1 6302   1.294   3.861  13.012 -0.0211  0.0871  0.1956
  419MPD2    C2 6303   1.254   3.944  13.121 -0.2484 -0.1676 -0.5495
  419MPD2    C3 6304   1.307   3.930  13.248  0.5114 -0.0100 -0.6623
  419MPD2    C4 6305   1.400   3.830  13.275 -1.0156  0.8144 -0.1271
  419MPD2    C5 6306   1.435   3.742  13.172  0.3245  0.5233  0.2407
  419MPD2     H 6307   1.176   4.013  13.091  0.9659  1.8930  1.0368
  419MPD2    H1 6308   1.459   3.817  13.365 -0.3313 -1.7873 -0.9316
  419MPD2    H2 6309   1.427   3.698  12.963  0.1050 -1.3606  1.4487
  419MPD2    H3 6310   1.512   3.670  13.195 -1.6482 -0.6929  3.0464
  419MPD2     N 6311   1.264   4.027  13.344 -0.0146  0.7815  0.1219
  419MPD2    H5 6312   1.190   4.091  13.318 -1.0071 -1.0411 -1.5625
  419MPD2    N1 6313   1.249   3.891  12.885 -0.1366  0.1785  0.1664
  419MPD2    H7 6314   1.191   3.974  12.889  0.1771  0.2603  2.7779
  420TMC3    C1 6315   1.206   4.119  13.541 -0.3477  0.4576 -0.5363
  420TMC3    C2 6316   1.140   4.208  13.464 -0.3954 -0.6519  0.1522
  420TMC3    C3 6317   1.034   4.270  13.519  0.1814 -0.2441 -0.2675
  420TMC3    C4 6318   1.165   4.082  13.668 -0.1454 -0.2746  0.3015
  420TMC3    C5 6319   1.044   4.132  13.705  0.3770 -0.6175  0.2350
  420TMC3    C6 6320   0.974   4.231  13.635  0.2151  0.6389 -0.6724
  420TMC3     C 6321   1.290   4.023  13.476 -0.3184  0.4270  0.1270
  420TMC3     O 6322   1.342   3.933  13.541 -0.2070  0.2001  0.1622
  420TMC3     H 6323   1.179   4.239  13.367 -1.0222  0.8312  0.3618
  420TMC3    H1 6324   1.216   3.999  13.714 -0.4276 -1.0465 -0.7712
  420TMC3    H2 6325   0.890   4.286  13.675 -0.1930 -0.6093  0.1671
  420TMC3    C7 6326   0.968   4.049  13.799 -0.6206 -0.4493 -0.3454
  420TMC3    C8 6327   0.974   4.371  13.437 -0.2312 -0.9389  0.2044
  420TMC3    O1 6328   1.017   3.948  13.851  0.0862  0.2792 -0.1217
  420TMC3    O2 6329   1.044   4.436  13.358  0.3928  0.6054  0.1423
  421TMC3    C1 6330   2.188   1.093  13.676 -0.5168 -0.5728  0.1414
  421TMC3    C2 6331   2.197   1.226  13.698  0.4259 -0.7215 -0.2390
  421TMC3    C3 6332   2.316   1.277  13.755  0.0564  0.2498 -0.0969
  421TMC3    C4 6333   2.292   1.016  13.717  0.3654  0.6668  0.3171
  421TMC3    C5 6334   2.407   1.066  13.769  0.8580 -0.5728 -0.3093
  421TMC3    C6 6335   2.422   1.195  13.796 -0.4372  0.4417  0.5979
  421TMC3     C 6336   2.117   1.052  13.555  0.0553  0.0085 -0.8019
  421TMC3     O 6337   2.137   1.125  13.461 -0.1870 -0.2914  0.5816
  421TMC3     H 6338   2.140   1.296  13.639 -3.2013 -2.3428  1.3703
  421TMC3    H1 6339   2.287   0.913  13.683 -0.9147  1.1042 -0.8275
  421TMC3    H2 6340   2.511   1.242  13.836 -1.9848  3.7979  0.1164
  421TMC3    C7 6341   2.507   0.983  13.833  0.0270 -0.5901  0.1981
  421TMC3    C8 6342   2.322   1.411  13.807  0.8103 -0.0233 -0.2522
  421TMC3    O1 6343   2.618   1.031  13.852  0.2826  0.2780 -0.0586
  421TMC3    O2 6344   2.429   1.466  13.799  0.0314 -0.8047 -0.1551
  422TMC3    C1 6345   0.538   2.161  12.599 -0.3341 -0.2227  0.1899
  422TMC3    C2 6346   0.531   2.286  12.658  0.9667  0.2118  0.4509
  422TMC3    C3 6347   0.413   2.337  12.706 -0.5765 -0.7520  0.6629
  422TMC3    C4 6348   0.426   2.079  12.606  0.1665  0.1733  0.3207
  422TMC3    C5 6349   0.312   2.132  12.665 -0.8465  0.2334 -0.5547
  422TMC3    C6 6350   0.301   2.259  12.710 -0.3194 -0.4549 -0.0786
  422TMC3     C 6351   0.643   2.134  12.503 -0.0649  0.8806  0.0934
  422TMC3     O 6352   0.749   2.193  12.523 -0.0615 -0.1089 -0.0013
  422TMC3     H 6353   0.622   2.344  12.664  0.7490  0.9219 -2.9958
  422TMC3    H1 6354   0.427   1.981  12.560 -1.5959  0.7017 -0.8618
  422TMC3    H2 6355   0.207   2.304  12.740 -0.6542 -1.3943  0.2733
  422TMC3    C7 6356   0.195   2.057  12.628 -0.5053  0.3580 -0.1898
  422TMC3    C8 6357   0.410   2.478  12.747  0.1593 -0.1275 -0.7032
  422TMC3    O1 6358   0.197   1.996  12.520 -0.1572 -0.4938 -0.1746
  422TMC3    O2 6359   0.514   2.540  12.744  0.4584 -0.3612  0.3017
  423MPD2     C 6360   0.934   3.062   0.579  0.0155 -0.5739 -0.0892
  423MPD2    C1 6361   1.052   3.101   0.526  0.0427  0.1753  0.9183
  423MPD2    C2 6362   1.096   3.039   0.412 -0.6482 -0.3799 -0.7965
  423MPD2    C3 6363   1.031   2.937   0.353 -0.2498  0.0239  0.3830
  423MPD2    C4 6364   0.911   2.899   0.405  0.0294 -0.6986  0.0502
  423MPD2    C5 6365   0.866   2.962   0.514 -0.3675 -0.2172 -0.3064
  423MPD2     H 6366   1.191   3.083   0.385 -1.3220  1.4761 -0.1026
  423MPD2    H1 6367   0.854   2.814   0.369  0.9694 -0.9895 -0.7435
  423MPD2    H2 6368   0.883   3.100   0.667 -1.3769 -0.4040 -0.9715
  423MPD2    H3 6369   0.775   2.924   0.558  0.4665 -1.3763  0.4153
  423MPD2     N 6370   1.067   2.880   0.237 -0.2015 -0.7173  0.0523
  423MPD2    H5 6371   1.019   2.800   0.196 -1.3567 -1.4705  2.8720
  423MPD2    N1 6372   1.130   3.203   0.583 -0.1116 -0.1776  0.2878
  423MPD2    H7 6373   1.222   3.217   0.544  0.5985 -2.2232  1.2120
  424TMC3    C1 6374   1.195   3.359   0.756  0.1170  0.3368  0.1122
  424TMC3    C2 6375   1.325   3.324   0.750 -0.0641  0.0048  0.4449
  424TMC3    C3 6376   1.427   3.409   0.789  0.2607 -0.2859 -0.0276
  424TMC3    C4 6377   1.156   3.474   0.825 -0.2367  0.2142 -0.2262
  424TMC3    C5 6378   1.259   3.538   0.891  0.3474 -0.1952 -0.9484
  424TMC3    C6 6379   1.395   3.511   0.881  0.4026 -0.3213 -0.2991
  424TMC3     C 6380   1.091   3.278   0.696  0.4656  0.0725  0.8479
  424TMC3     O 6381   0.977   3.296   0.744  0.2596  0.3879 -0.2475
  424TMC3     H 6382   1.351   3.236   0.692 -0.2523 -0.0466  0.4390
  424TMC3    H1 6383   1.050   3.492   0.839 -0.3548 -1.8535  1.6049
  424TMC3    H2 6384   1.463   3.567   0.944  1.4124 -1.6341 -0.1993
  424TMC3    C7 6385   1.225   3.647   0.982 -0.1758 -0.1347  0.4255
  424TMC3    C8 6386   1.561   3.361   0.756 -0.1450  0.1091 -0.4066
  424TMC3    O1 6387   1.317   3.709   1.035 -0.1312 -0.0593 -0.3808
  424TMC3    O2 6388   1.566   3.289   0.661 -0.2666 -0.0755 -0.6906
  425MPD2     C 6389   0.168   2.579  17.219  0.0821 -0.3995 -0.0825
  425MPD2    C1 6390   0.090   2.469  17.260 -0.2808 -0.1713  0.2188
  425MPD2    C2 6391   4.701   2.488  17.317  0.1959 -0.2241  0.2371
  425MPD2    C3 6392   4.658   2.614  17.350 -0.5246 -0.7153 -0.8532
  425MPD2    C4 6393   4.735   2.723  17.309 -0.7273 -0.6533  0.1399
  425MPD2    C5 6394   0.107   2.704  17.232 -0.1412 -0.5308 -0.2793
  425MPD2     H 6395   4.637   2.406  17.345  0.6789 -0.7847 -0.3002
  425MPD2    H1 6396   4.696   2.823  17.321 -0.4825 -0.6882  1.2252
  425MPD2    H2 6397   0.267   2.574  17.175 -0.3004 -2.1316 -0.7641
  425MPD2    H3 6398   0.152   2.793  17.191 -1.3654 -0.4910 -1.5610
  425MPD2     N 6399   4.540   2.618  17.428 -0.6750  0.0349  0.0732
  425MPD2    H5 6400   4.496   2.527  17.443 -2.9792  0.9759 -1.0254
  425MPD2    N1 6401   0.133   2.341  17.239  0.3372 -0.9112  0.6750
  425MPD2    H7 6402   0.224   2.330  17.196  0.0864 -2.1622  0.4681
  426TMC3    C1 6403   0.173   2.112  17.252 -0.3130 -0.1315  0.6220
  426TMC3    C2 6404   0.212   2.096  17.121  0.6712  0.1080 -0.5797
  426TMC3    C3 6405   0.265   1.979  17.083  0.1148  0.1081  0.0526
  426TMC3    C4 6406   0.180   2.005  17.336  0.0932  0.0049  0.0459
  426TMC3    C5 6407   0.241   1.888  17.295  0.1814  0.5714  0.0610
  426TMC3    C6 6408   0.266   1.869  17.165 -0.3795 -0.3653 -0.0390
  426TMC3     C 6409   0.089   2.224  17.289 -0.0318  0.0762 -0.3288
  426TMC3     O 6410   0.001   2.197  17.364 -0.7637  0.0107  0.0986
  426TMC3     H 6411   0.196   2.177  17.052  0.4917  0.3311 -0.2789
  426TMC3    H1 6412   0.172   2.027  17.442 -1.1822 -2.6459  0.5014
  426TMC3    H2 6413   0.303   1.775  17.126 -0.4195 -0.1080 -0.6901
  426TMC3    C7 6414   0.196   1.769  17.361  0.2286  0.5022  0.5479
  426TMC3    C8 6415   0.246   1.939  16.940 -0.0990  0.3896  0.3132
  426TMC3    O1 6416   0.267   1.670  17.359 -0.1256  0.0613 -0.3548
  426TMC3    O2 6417   0.315   1.842  16.906 -0.2781  0.0377 -0.5606
  427MPD2     C 6418   3.961   4.312  14.625  0.6331 -0.3349 -0.3497
  427MPD2    C1 6419   3.962   4.307  14.760 -0.3858 -0.1514  0.2968
  427MPD2    C2 6420   3.861   4.366  14.836 -0.2443 -0.6846 -0.4017
  427MPD2    C3 6421   3.769   4.444  14.776  0.3118 -0.1843  0.3445
  427MPD2    C4 6422   3.769   4.453  14.638 -0.3676 -0.2652  0.4518
  427MPD2    C5 6423   3.866   4.388  14.568 -0.2666  0.1177  0.0667
  427MPD2     H 6424   3.872   4.364  14.943  0.3745 -0.2705 -0.4618
  427MPD2    H1 6425   3.702   4.528  14.596  0.9982  1.0047  0.5372
  427MPD2    H2 6426   4.025   4.263  14.552  2.3439  3.0021 -1.0991
  427MPD2    H3 6427   3.872   4.401  14.461 -0.6785 -0.7369 -0.0577
  427MPD2     N 6428   3.654   4.505  14.844 -0.0066 -0.0003  0.1412
  427MPD2    H5 6429   3.592   4.563  14.789 -0.8378 -1.4724 -0.4786
  427MPD2    N1 6430   4.046   4.215  14.827  0.1348  0.0597 -0.7153
  427MPD2    H7 6431   4.032   4.219  14.928  0.5480  2.6312 -0.7714
  428TMC3    C1 6432   4.215   4.067  14.872 -0.7846  0.3780  0.2417
  428TMC3    C2 6433   4.223   3.932  14.874  0.3049 -0.6060  0.2479
  428TMC3    C3 6434   4.270   3.870  14.986  0.8497  0.3206  0.1601
  428TMC3    C4 6435   4.255   4.141  14.984  0.3745  0.1858 -0.3847
  428TMC3    C5 6436   4.293   4.076  15.094 -0.5722 -0.3339 -0.0618
  428TMC3    C6 6437   4.318   3.943  15.087  0.3802 -1.3140  0.1048
  428TMC3     C 6438   4.131   4.126  14.771 -0.5595 -0.2505  0.3281
  428TMC3     O 6439   4.154   4.098  14.655  0.3018 -0.4494  0.0290
  428TMC3     H 6440   4.186   3.878  14.788  0.0155  0.8835 -0.5550
  428TMC3    H1 6441   4.240   4.248  14.987  0.1408  0.1150  1.1178
  428TMC3    H2 6442   4.365   3.902  15.175  0.8738  1.4938  1.1459
  428TMC3    C7 6443   4.374   4.143  15.184 -0.1317 -0.2487  0.3775
  428TMC3    C8 6444   4.284   3.732  14.996 -0.0926 -0.3131 -0.0280
  428TMC3    O1 6445   4.373   4.105  15.299  0.3199  0.4157  0.5624
  428TMC3    O2 6446   4.390   3.697  15.051 -0.1320 -0.5615 -0.1605
  429MPD2     C 6447   4.169   4.331  17.332  0.4430  0.2503 -0.2273
  429MPD2    C1 6448   4.303   4.300  17.341  0.2653 -0.4871 -0.2745
  429MPD2    C2 6449   4.396   4.382  17.287 -0.8142 -1.2989  0.8139
  429MPD2    C3 6450   4.363   4.506  17.236  0.9651  0.4512 -0.0783
  429MPD2    C4 6451   4.232   4.542  17.235 -0.1249  0.8550  0.1062
  429MPD2    C5 6452   4.136   4.459  17.285  0.7926 -0.3909  0.2791
  429MPD2     H 6453   4.501   4.354  17.293 -0.2790  0.3298 -0.9180
  429MPD2    H1 6454   4.200   4.636  17.192 -0.9065  1.0761  1.1686
  429MPD2    H2 6455   4.087   4.265  17.353  1.5388 -0.3791  2.0083
  429MPD2    H3 6456   4.032   4.486  17.271  1.2141  0.0740 -1.9294
  429MPD2     N 6457   4.463   4.589  17.193 -0.7549 -0.3990  0.0912
  429MPD2    H5 6458   4.547   4.536  17.171  0.3575  1.1183  0.6596
  429MPD2    N1 6459   4.347   4.170  17.389  0.6345  0.1090 -0.4044
  429MPD2    H7 6460   4.443   4.146  17.365  0.5415  0.6601 -1.3321
  430TMC3    C1 6461   4.586   0.055  17.145 -0.1934 -0.3375  0.6930
  430TMC3    C2 6462   4.569   0.173  17.083 -0.1494  0.0829  0.2282
  430TMC3    C3 6463   4.675   0.245  17.043  0.5245 -0.5447 -0.0023
  430TMC3    C4 6464   4.717   0.015  17.181 -0.1975 -0.4216 -0.0507
  430TMC3    C5 6465   0.082   0.099  17.146 -0.0140  0.1054  0.3147
  430TMC3    C6 6466   0.062   0.209  17.074  0.3168 -0.3845  0.5656
  430TMC3     C 6467   4.464   4.726  17.189  0.1182  0.4741 -0.3421
  430TMC3     O 6468   4.372   0.057  17.236 -0.1763 -0.2240  0.4096
  430TMC3     H 6469   4.466   0.207  17.072 -0.6926 -1.8714 -0.7111
  430TMC3    H1 6470   0.003   4.655  17.219  0.8428  1.0790  3.1635
  430TMC3    H2 6471   0.146   0.271  17.046 -1.2255  1.6827  0.4458
  430TMC3    C7 6472   0.211   0.030  17.116  0.3282  0.4754 -0.5443
  430TMC3    C8 6473   4.661   0.326  16.920 -0.2644  0.2234 -0.4515
  430TMC3    O1 6474   0.204   4.644  17.111 -0.6346  0.3280 -0.2414
  430TMC3    O2 6475   4.561   0.394  16.901  0.4724 -0.0785 -0.4645
  431MPD2     C 6476   1.032   4.701  12.727 -1.2559  0.6733  0.0263
  431MPD2    C1 6477   1.139   4.670  12.654 -0.4014  0.3680 -0.3837
  431MPD2    C2 6478   1.164   4.537  12.612 -0.9020 -0.1473 -0.1161
  431MPD2    C3 6479   1.072   4.442  12.648 -1.3805 -0.1283  0.1385
  431MPD2    C4 6480   0.961   4.470  12.723 -0.5369  0.2631  0.5283
  431MPD2    C5 6481   0.945   4.601  12.765 -0.3575 -0.3789 -0.0883
  431MPD2     H 6482   1.257   4.526  12.557 -1.1600  0.1353 -0.6065
  431MPD2    H1 6483   0.892   4.390  12.746 -2.0516  0.3393 -3.7571
  431MPD2    H2 6484   1.004   0.059  12.767 -1.1640  0.4764  0.5664
  431MPD2    H3 6485   0.850   4.614  12.814 -0.5395  2.6938 -1.3014
  431MPD2     N 6486   1.095   4.304  12.623  0.0616 -0.5008  0.0789
  431MPD2    H5 6487   1.023   4.242  12.658 -0.9945  0.1210 -0.9448
  431MPD2    N1 6488   1.238   0.025  12.625 -0.0892  0.6916  0.5652
  431MPD2    H7 6489   1.327   4.728  12.593 -1.2791 -1.0818 -0.7447
  432TMC3    C1 6490   1.201   4.113  12.538 -0.2882 -0.3187 -0.5522
  432TMC3    C2 6491   1.252   4.070  12.422 -0.0033  0.9296  0.0806
  432TMC3    C3 6492   1.297   3.938  12.420 -0.2978  0.6937 -0.0907
  432TMC3    C4 6493   1.200   4.040  12.653  0.3919  0.0241  0.5401
  432TMC3    C5 6494   1.255   3.914  12.650  0.2729  0.1409 -0.2739
  432TMC3    C6 6495   1.301   3.860  12.532 -0.2712  0.3650 -0.5312
  432TMC3     C 6496   1.200   4.257  12.542  0.4279  0.2323  0.4116
  432TMC3     O 6497   1.285   4.311  12.470  0.1968  0.1944 -0.6016
  432TMC3     H 6498   1.257   4.124  12.329 -1.1229  1.4610  0.3414
  432TMC3    H1 6499   1.166   4.095  12.740  0.2431 -0.2655  0.6650
  432TMC3    H2 6500   1.351   3.765  12.521 -1.5930 -0.5709  1.6465
  432TMC3    C7 6501   1.277   3.827  12.763 -0.1945 -0.1313 -0.1780
  432TMC3    C8 6502   1.370   3.878  12.314  0.2722 -0.3448 -0.4509
  432TMC3    O1 6503   1.322   3.717  12.737  0.2199 -0.1871  0.1448
  432TMC3    O2 6504   1.359   3.756  12.298  0.1601  0.2440 -0.2963
  433MPD2     C 6505   0.245   2.483  10.779 -0.4093 -0.1477  0.4472
  433MPD2    C1 6506   0.371   2.481  10.834  0.0628 -0.7512 -0.0332
  433MPD2    C2 6507   0.390   2.560  10.948  0.2406  1.4249  0.2351
  433MPD2    C3 6508   0.285   2.601  11.034  0.2817  0.2451  0.4376
  433MPD2    C4 6509   0.163   2.573  10.989  0.1001 -0.4560 -0.4122
  433MPD2    C5 6510   0.142   2.536  10.856 -0.0604 -0.2959  0.0739
  433MPD2     H 6511   0.493   2.580  10.978  0.7847  0.3866 -0.9407
  433MPD2    H1 6512   0.081   2.600  11.055  2.2031  2.4530  1.0042
  433MPD2    H2 6513   0.220   2.436  10.684 -0.6509  1.4769 -0.2950
  433MPD2    H3 6514   0.040   2.523  10.822 -0.4136  1.3057  0.5180
  433MPD2     N 6515   0.331   2.657  11.157 -0.2871 -0.2596  0.5406
  433MPD2    H5 6516   0.428   2.687  11.167 -0.4627  0.8709 -1.1742
  433MPD2    N1 6517   0.470   2.395  10.772 -0.3969 -0.1267 -0.0865
  433MPD2    H7 6518   0.441   2.337  10.694 -1.0715  2.6820 -1.9357
  434TMC3    C1 6519   0.689   2.294  10.755  0.5061  0.3820 -0.2446
  434TMC3    C2 6520   0.825   2.296  10.778 -0.9958  0.0564  0.7096
  434TMC3    C3 6521   0.901   2.187  10.746  0.2863 -0.3010 -0.6605
  434TMC3    C4 6522   0.637   2.190  10.685  0.3236 -0.2243 -0.0933
  434TMC3    C5 6523   0.718   2.097  10.641  0.5367 -0.9773 -0.1284
  434TMC3    C6 6524   0.848   2.082  10.675  0.2400 -0.0075  0.0025
  434TMC3     C 6525   0.597   2.396  10.817 -0.5087 -0.5151  0.1985
  434TMC3     O 6526   0.662   2.463  10.895 -0.5973  0.2813  0.0005
  434TMC3     H 6527   0.867   2.375  10.840 -2.2536  1.6076 -0.4117
  434TMC3    H1 6528   0.531   2.187  10.666  0.3291 -0.8223 -0.0325
  434TMC3    H2 6529   0.899   1.994  10.638 -0.5852 -0.3478 -0.3153
  434TMC3    C7 6530   0.659   1.986  10.574  0.6345 -0.5981  0.1709
  434TMC3    C8 6531   1.035   2.169  10.810  0.2163  0.2801 -0.5640
  434TMC3    O1 6532   0.714   1.928  10.483 -0.5943  0.1896 -0.5441
  434TMC3    O2 6533   1.071   2.268  10.867 -0.1126 -0.4779  0.1207
  435MPD2     C 6534   2.243   3.161  15.395 -0.2325  1.3155 -0.2893
  435MPD2    C1 6535   2.189   3.142  15.519  0.7714 -0.1009  0.0211
  435MPD2    C2 6536   2.268   3.104  15.621 -0.3328  1.0646  0.2440
  435MPD2    C3 6537   2.397   3.067  15.600  0.4616 -0.8386  0.2008
  435MPD2    C4 6538   2.447   3.080  15.477  0.2417 -0.5152 -0.6472
  435MPD2    C5 6539   2.371   3.131  15.377  0.0354 -0.2057 -0.3272
  435MPD2     H 6540   2.225   3.080  15.717  0.7933  0.5342  0.6128
  435MPD2    H1 6541   2.551   3.059  15.459  0.1531  0.1149 -1.9185
  435MPD2    H2 6542   2.182   3.185  15.308  0.3216  0.8842 -0.8022
  435MPD2    H3 6543   2.415   3.147  15.279 -1.0779  0.8757 -0.6540
  435MPD2     N 6544   2.453   2.997  15.705  0.3902  0.1217 -0.0606
  435MPD2    H5 6545   2.396   3.003  15.789  1.1806  2.9902  0.2616
  435MPD2    N1 6546   2.056   3.174  15.556  0.7607 -0.4556  0.6067
  435MPD2    H7 6547   2.026   3.140  15.647 -0.8153  1.9308  0.9577
  436TMC3    C1 6548   1.689   3.292  15.706 -0.2008  0.3141  0.3085
  436TMC3    C2 6549   1.817   3.263  15.669  0.1343 -0.0124 -0.6939
  436TMC3    C3 6550   1.827   3.229  15.533  0.0898  0.6016  0.0771
  436TMC3    C4 6551   1.584   3.295  15.624 -0.7778 -0.3964 -0.0655
  436TMC3    C5 6552   1.597   3.276  15.491  0.5703  0.2636 -0.7141
  436TMC3    C6 6553   1.722   3.238  15.446 -0.3186 -0.0774  0.6625
  436TMC3     C 6554   1.672   3.355  15.839 -0.1528  0.2426 -0.3584
  436TMC3     O 6555   1.784   3.376  15.888 -0.8943  0.1392 -0.8895
  436TMC3     H 6556   1.906   3.262  15.731  1.0405  1.4473 -1.9648
  436TMC3    H1 6557   1.483   3.316  15.656 -0.5217 -0.0364  0.5143
  436TMC3    H2 6558   1.730   3.199  15.345  0.0974  2.4609 -0.2887
  436TMC3    C7 6559   1.478   3.269  15.408 -0.0005  0.2765 -0.0266
  436TMC3    C8 6560   1.965   3.224  15.469  0.0705  0.1648  0.7329
  436TMC3    O1 6561   1.371   3.250  15.470  0.3367 -0.4040 -0.1113
  436TMC3    O2 6562   1.970   3.234  15.347 -0.4714 -0.3436 -0.6094
  437TMC3    C1 6563   0.850   0.853  12.291 -0.3736  0.0882 -0.2470
  437TMC3    C2 6564   0.805   0.761  12.204 -0.0145  0.4259 -0.5733
  437TMC3    C3 6565   0.862   0.747  12.082 -0.3675  0.1541  0.7908
  437TMC3    C4 6566   0.942   0.942  12.255 -0.0560 -0.0098  0.0482
  437TMC3    C5 6567   0.997   0.938  12.136 -0.3508  0.5981 -0.3873
  437TMC3    C6 6568   0.952   0.845  12.046  0.4485  0.1887  0.3637
  437TMC3     C 6569   0.821   0.840  12.438 -0.0818  0.4075  0.3913
  437TMC3     O 6570   0.836   0.934  12.514 -0.6582  0.0342 -0.1160
  437TMC3     H 6571   0.709   0.711  12.218  0.8911 -0.4755  2.6042
  437TMC3    H1 6572   0.991   1.009  12.325  2.3989  0.2351 -1.8912
  437TMC3    H2 6573   1.005   0.824  11.954  0.9013 -0.1270  0.6930
  437TMC3    C7 6574   1.131   0.984  12.123 -0.0802 -0.1150  0.1842
  437TMC3    C8 6575   0.807   0.663  11.980 -1.0492  0.3089 -0.4452
  437TMC3    O1 6576   1.172   1.014  12.011  0.3048  0.1086  0.2202
  437TMC3    O2 6577   0.822   0.695  11.861  0.1260  0.5345  0.4211
  438MPD2     C 6578   2.970   0.820  17.025  0.0577  0.4044 -0.5458
  438MPD2    C1 6579   2.976   0.689  17.078 -0.0883 -0.2945 -0.2312
  438MPD2    C2 6580   2.915   0.664  17.200  0.1475 -0.1930  0.5048
  438MPD2    C3 6581   2.846   0.767  17.271  0.5642 -0.0750  0.2864
  438MPD2    C4 6582   2.849   0.893  17.218 -0.4880  0.0400 -0.1173
  438MPD2    C5 6583   2.897   0.915  17.088  0.7044 -0.4956 -0.3388
  438MPD2     H 6584   2.931   0.564  17.240 -1.6135 -0.2061  1.1812
  438MPD2    H1 6585   2.797   0.969  17.274  1.8439  1.5593 -0.0131
  438MPD2    H2 6586   3.018   0.844  16.931  2.1558 -0.0550  0.4085
  438MPD2    H3 6587   2.892   1.017  17.049 -0.3127  0.2248  1.6706
  438MPD2     N 6588   2.788   0.749  17.401  0.2424 -0.0002  0.1519
  438MPD2    H5 6589   2.766   0.837  17.446  0.8130 -0.6792  1.7641
  438MPD2    N1 6590   3.058   0.593  17.017  0.2740  0.0715 -0.2117
  438MPD2    H7 6591   3.087   0.508  17.064 -0.4987  0.5367  1.0809
  439TMC3    C1 6592   3.189   0.493  16.861 -0.5118  0.6698 -0.2483
  439TMC3    C2 6593   3.206   0.445  16.733 -0.1428 -0.0287  0.1139
  439TMC3    C3 6594   3.318   0.372  16.704 -0.3714  0.2344 -0.4609
  439TMC3    C4 6595   3.296   0.475  16.956  0.3518 -0.5168 -0.2656
  439TMC3    C5 6596   3.407   0.405  16.921 -0.6021  0.2077 -0.7466
  439TMC3    C6 6597   3.421   0.356  16.797  0.1957 -0.0952 -0.0310
  439TMC3     C 6598   3.088   0.594  16.888  0.5717 -0.5683 -0.1450
  439TMC3     O 6599   3.037   0.652  16.795  0.1331 -0.8371  0.1670
  439TMC3     H 6600   3.122   0.455  16.666 -0.2592  1.1669  0.4405
  439TMC3    H1 6601   3.282   0.512  17.057  1.0721  0.3021 -0.4656
  439TMC3    H2 6602   3.512   0.304  16.770 -0.2130 -0.4607 -0.7394
  439TMC3    C7 6603   3.509   0.388  17.022 -0.2605 -0.5985  0.0083
  439TMC3    C8 6604   3.365   0.366  16.567 -0.1719  0.3411 -0.1029
  439TMC3    O1 6605   3.520   0.482  17.100  0.1475 -0.0488 -0.0217
  439TMC3    O2 6606   3.452   0.286  16.535  0.2810  0.0490 -0.5250
  440MPD2     C 6607   1.984   1.696  15.002  0.2922 -0.5930 -0.3757
  440MPD2    C1 6608   1.880   1.648  15.082  0.0546 -0.9318 -0.6758
  440MPD2    C2 6609   1.892   1.522  15.146  0.3268  0.5177  0.0838
  440MPD2    C3 6610   2.012   1.453  15.136 -0.1761 -0.3921 -0.3545
  440MPD2    C4 6611   2.118   1.514  15.062  0.2442 -0.3139  0.5685
  440MPD2    C5 6612   2.099   1.625  14.993  0.0456  0.4116 -0.5564
  440MPD2     H 6613   1.811   1.479  15.205 -1.1591  1.0260 -1.5963
  440MPD2    H1 6614   2.220   1.475  15.062  1.0332  1.7444  0.1389
  440MPD2    H2 6615   1.973   1.781  14.935 -1.9154 -0.0316  0.6894
  440MPD2    H3 6616   2.187   1.661  14.942  0.0885  1.6391  0.3918
  440MPD2     N 6617   2.041   1.325  15.196 -0.0558  0.0529  0.1701
  440MPD2    H5 6618   2.129   1.282  15.170 -0.8574 -2.5286  1.7772
  440MPD2    N1 6619   1.763   1.723  15.106 -0.3974  0.0461  0.2211
  440MPD2    H7 6620   1.685   1.689  15.162  1.2136 -0.5516  2.0749
  441TMC3    C1 6621   2.020   1.152  15.351  0.4290 -0.0832 -0.6415
  441TMC3    C2 6622   2.125   1.186  15.435  0.1774 -0.6845 -0.1453
  441TMC3    C3 6623   2.177   1.100  15.532  0.9858  0.6971 -0.5491
  441TMC3    C4 6624   1.959   1.028  15.367 -0.3348 -0.0408 -0.3232
  441TMC3    C5 6625   2.002   0.944  15.467 -0.4396 -0.3694 -0.1691
  441TMC3    C6 6626   2.116   0.982  15.542  0.3793 -0.6413  0.1304
  441TMC3     C 6627   1.957   1.250  15.270  0.3994  0.1569 -0.4804
  441TMC3     O 6628   1.840   1.268  15.301 -0.0888 -0.1687 -0.2441
  441TMC3     H 6629   2.159   1.288  15.445  1.2184 -1.0388 -0.0416
  441TMC3    H1 6630   1.866   1.016  15.314 -0.5285 -0.5596  0.1342
  441TMC3    H2 6631   2.156   0.918  15.619  1.9786  0.4140  0.1860
  441TMC3    C7 6632   1.913   0.859  15.537 -0.6349 -0.1754  0.1038
  441TMC3    C8 6633   2.219   1.160  15.658  1.2146  0.0363 -0.1088
  441TMC3    O1 6634   1.945   0.822  15.652 -0.7612 -0.4386  0.1503
  441TMC3    O2 6635   2.219   1.083  15.753  0.2855 -0.3651 -0.7117
  442MPD2     C 6636   0.152   2.014  16.343  0.5234  0.6952  0.2327
  442MPD2    C1 6637   0.019   2.023  16.357 -0.6909  0.4059 -0.3129
  442MPD2    C2 6638   4.682   1.914  16.338 -0.2350  0.3704  0.4522
  442MPD2    C3 6639   4.735   1.807  16.270 -0.2057 -0.1823 -0.5493
  442MPD2    C4 6640   0.134   1.797  16.246 -0.0585  1.1377  0.0285
  442MPD2    C5 6641   0.209   1.905  16.287 -0.7618 -0.2961  0.2523
  442MPD2     H 6642   4.578   1.917  16.366 -0.5320  0.6779 -0.6991
  442MPD2    H1 6643   0.184   1.710  16.205 -0.2826  1.1715 -0.3186
  442MPD2    H2 6644   0.214   2.101  16.360 -1.5603  1.8327  2.0849
  442MPD2    H3 6645   0.317   1.904  16.279 -0.8194  0.9160 -0.6703
  442MPD2     N 6646   4.656   1.690  16.238  0.1149 -0.3797  0.0443
  442MPD2    H5 6647   4.703   1.611  16.196  0.5555 -0.0064 -0.1603
  442MPD2    N1 6648   4.696   2.138  16.418  0.6112  0.6958  0.0228
  442MPD2    H7 6649   4.598   2.123  16.437  0.9020 -1.4768 -0.2454
  443TMC3    C1 6650   4.666   2.351  16.513 -0.4654 -0.2175 -0.7802
  443TMC3    C2 6651   4.644   2.462  16.441 -0.1401  0.1811 -0.4272
  443TMC3    C3 6652   4.530   2.533  16.454  0.5324 -0.0101 -0.9295
  443TMC3    C4 6653   4.577   2.305  16.601 -0.3376 -0.1178  0.4628
  443TMC3    C5 6654   4.461   2.379  16.623  0.5185  0.1016  1.5493
  443TMC3    C6 6655   4.440   2.494  16.554  0.6962 -0.3677 -0.7203
  443TMC3     C 6656   0.016   2.258  16.446  0.3566 -0.4195  0.1711
  443TMC3     O 6657   0.132   2.293  16.418 -0.2159 -0.1125 -0.1402
  443TMC3     H 6658   4.702   2.483  16.352 -0.4755  1.1699 -0.4166
  443TMC3    H1 6659   4.600   2.215  16.658  1.3689  0.8064  1.1970
  443TMC3    H2 6660   4.345   2.545  16.549 -0.2404 -1.9289  1.0499
  443TMC3    C7 6661   4.371   2.326  16.724  0.0236 -0.4377 -1.1310
  443TMC3    C8 6662   4.470   2.542  16.324  0.1453 -0.3977 -1.2035
  443TMC3    O1 6663   4.384   2.206  16.740 -0.1738  0.7265 -0.6493
  443TMC3    O2 6664   4.424   2.651  16.272 -0.0944  0.2571  0.3868
  444MPD2     C 6665   0.083   1.532  16.982  0.5057 -0.3297  0.0460
  444MPD2    C1 6666   4.731   1.435  17.011  0.3852  0.0028 -0.1355
  444MPD2    C2 6667   0.018   1.307  16.967 -0.8051  0.4336 -1.0365
  444MPD2    C3 6668   0.135   1.276  16.904 -0.2963 -0.4145 -0.4299
  444MPD2    C4 6669   0.219   1.377  16.854  0.2319  0.1024 -0.1726
  444MPD2    C5 6670   0.194   1.500  16.909  0.1595 -0.2932 -0.0263
  444MPD2     H 6671   4.690   1.229  17.002  0.1925 -0.4408 -1.0845
  444MPD2    H1 6672   0.315   1.363  16.807  0.7895 -1.0432  1.3031
  444MPD2    H2 6673   0.069   1.632  17.022  3.1364 -0.9600  2.5547
  444MPD2    H3 6674   0.269   1.577  16.892 -0.1834  0.0970  0.2023
  444MPD2     N 6675   0.158   1.142  16.883  0.2643 -0.2495  0.1119
  444MPD2    H5 6676   0.083   1.083  16.917 -0.5447  2.7706  3.6422
  444MPD2    N1 6677   4.621   1.460  17.096 -0.5078 -0.1338 -0.1494
  444MPD2    H7 6678   4.567   1.376  17.113 -0.0292 -0.1449  1.3073
  445TMC3    C1 6679   0.275   0.936  16.835  0.4865 -0.3534 -0.0167
  445TMC3    C2 6680   0.168   0.871  16.877 -0.2751 -0.0022  0.4194
  445TMC3    C3 6681   0.195   0.747  16.934 -0.1720  0.2545  0.0783
  445TMC3    C4 6682   0.403   0.892  16.846  0.0875 -0.0442 -0.9300
  445TMC3    C5 6683   0.424   0.761  16.890  0.6710 -0.5823  0.0433
  445TMC3    C6 6684   0.316   0.680  16.929  0.1129  0.7032  0.5312
  445TMC3     C 6685   0.267   1.084  16.821 -0.0942 -0.5110 -0.1068
  445TMC3     O 6686   0.365   1.139  16.774  0.9027 -0.3284  0.3929
  445TMC3     H 6687   0.068   0.914  16.868  0.1798  1.2753  1.3597
  445TMC3    H1 6688   0.487   0.953  16.816  1.7069 -1.5874  0.4396
  445TMC3    H2 6689   0.328   0.584  16.978  1.1416  0.7108  0.2957
  445TMC3    C7 6690   0.564   0.721  16.878  0.7203 -0.2711 -0.3806
  445TMC3    C8 6691   0.085   0.693  17.005  0.6469  0.3832  0.3442
  445TMC3    O1 6692   0.656   0.799  16.855 -0.3979 -0.5164 -0.2128
  445TMC3    O2 6693   4.715   0.727  16.965  0.2188  0.1422  0.2887
  446MPD2     C 6694   0.307   2.298  11.453 -0.2155 -0.2603  0.1555
  446MPD2    C1 6695   0.280   2.323  11.318  0.4723  0.3177  0.3857
  446MPD2    C2 6696   0.393   2.364  11.234 -0.3294 -0.5550  0.0776
  446MPD2    C3 6697   0.524   2.373  11.283 -0.2164 -0.4168 -0.7598
  446MPD2    C4 6698   0.539   2.359  11.425  0.1507 -0.2294  0.2298
  446MPD2    C5 6699   0.433   2.323  11.502 -0.3110  0.2763 -0.7786
  446MPD2     H 6700   0.373   2.377  11.129  4.5833 -2.1848 -1.0230
  446MPD2    H1 6701   0.638   2.370  11.468 -0.0698  1.2337  0.3679
  446MPD2    H2 6702   0.234   2.258  11.522 -0.1868  0.1827  0.4466
  446MPD2    H3 6703   0.456   2.298  11.605 -0.7056  4.1318  0.2377
  446MPD2     N 6704   0.619   2.418  11.199  0.8116 -0.7044  0.3396
  446MPD2    H5 6705   0.590   2.443  11.105 -0.3054 -2.9852  0.0922
  446MPD2    N1 6706   0.161   2.291  11.256 -0.8682  0.6926 -0.0693
  446MPD2    H7 6707   0.160   2.307  11.156 -1.1136 -2.3618 -0.5499
  447TMC3    C1 6708   0.843   2.505  11.143 -0.0963  0.6205  0.0706
  447TMC3    C2 6709   0.818   2.617  11.082  0.0711  0.3814  0.5726
  447TMC3    C3 6710   0.918   2.689  11.025  0.7902 -0.6230  0.4320
  447TMC3    C4 6711   0.973   2.454  11.152 -0.5248  0.5791  0.1080
  447TMC3    C5 6712   1.069   2.533  11.088 -0.6372 -0.2215  0.8177
  447TMC3    C6 6713   1.052   2.654  11.029 -0.1026  0.3751 -0.1917
  447TMC3     C 6714   0.753   2.427  11.236 -0.7451  0.1618 -0.3310
  447TMC3     O 6715   0.807   2.385  11.336 -0.1995  0.1264  0.0183
  447TMC3     H 6716   0.716   2.649  11.098 -0.7908 -2.9329  1.7189
  447TMC3    H1 6717   0.998   2.364  11.207  1.0027  0.1040 -1.3334
  447TMC3    H2 6718   1.124   2.717  10.978 -0.5537  2.0108  1.1708
  447TMC3    C7 6719   1.201   2.477  11.113  0.6757  0.3905 -0.6361
  447TMC3    C8 6720   0.874   2.799  10.939  0.4263 -0.0650  0.8202
  447TMC3    O1 6721   1.208   2.363  11.158 -0.3619 -0.0289  0.1115
  447TMC3    O2 6722   0.753   2.828  10.940 -0.2519  0.5133 -0.0349
  448TMC3    C1 6723   2.329   2.714  17.717  0.2515  0.2857 -0.5631
  448TMC3    C2 6724   2.352   2.580  17.685  1.0696 -0.4074  0.2432
  448TMC3    C3 6725   2.399   2.496   0.032  0.9450 -0.4378 -0.0925
  448TMC3    C4 6726   2.353   2.769   0.092 -0.0247 -0.1287  0.2862
  448TMC3    C5 6727   2.397   2.682   0.188 -0.3635  0.8757  0.7350
  448TMC3    C6 6728   2.425   2.549   0.157 -0.0377 -0.4114 -0.3579
  448TMC3     C 6729   2.255   2.805  17.637  0.0719  1.2193 -0.0535
  448TMC3     O 6730   2.176   2.873  17.697 -0.0016 -0.3172  0.4786
  448TMC3     H 6731   2.348   2.545  17.583  1.3989 -1.3878  0.5667
  448TMC3    H1 6732   2.341   2.876   0.107 -2.5011 -0.5932  1.6195
  448TMC3    H2 6733   2.441   2.480   0.239 -2.2599  0.5375  0.8802
  448TMC3    C7 6734   2.421   2.739   0.318 -0.2668  0.2755 -0.6093
  448TMC3    C8 6735   2.421   2.355   0.006  0.0582 -0.0342  1.1376
  448TMC3    O1 6736   2.385   2.854   0.341 -0.2196  0.5995  0.0283
  448TMC3    O2 6737   2.479   2.302   0.096  0.4946 -0.6197  0.1237
  449MPD2     C 6738   4.464   0.828  13.202  0.0858  0.0536 -0.7224
  449MPD2    C1 6739   4.503   0.828  13.334 -0.1271  0.0545  0.0891
  449MPD2    C2 6740   4.541   0.707  13.382 -0.3074  0.1339 -0.0170
  449MPD2    C3 6741   4.554   0.592  13.307  0.0123 -0.2388 -0.5673
  449MPD2    C4 6742   4.516   0.593  13.173 -0.1721  0.3289  0.4373
  449MPD2    C5 6743   4.470   0.714  13.130  0.0754  0.2865 -0.1465
  449MPD2     H 6744   4.570   0.696  13.486 -0.5962  0.1569  0.0661
  449MPD2    H1 6745   4.529   0.513  13.101  1.3186  0.6855  0.3222
  449MPD2    H2 6746   4.439   0.918  13.148  2.8994  0.4410 -1.4106
  449MPD2    H3 6747   4.426   0.704  13.031  1.0773 -0.9201 -0.4633
  449MPD2     N 6748   4.617   0.489  13.378 -0.8794  0.3168  0.1141
  449MPD2    H5 6749   4.622   0.504  13.478  1.3422  0.5525 -0.0347
  449MPD2    N1 6750   4.482   0.935  13.428 -0.6826  0.7246 -0.2612
  449MPD2    H7 6751   4.502   0.915  13.525  1.2295  1.6590 -0.4571
  450TMC3    C1 6752   4.454   1.149  13.506 -0.5525 -0.0071  1.0285
  450TMC3    C2 6753   4.543   1.253  13.505  0.2975 -1.2646  0.7675
  450TMC3    C3 6754   4.610   1.274  13.618 -0.5855  0.5234 -0.4694
  450TMC3    C4 6755   4.420   1.079  13.618 -0.0278  0.0434  0.0535
  450TMC3    C5 6756   4.493   1.106  13.735 -0.7987 -0.0957 -0.5202
  450TMC3    C6 6757   4.582   1.216  13.736 -0.0238 -1.2421  0.1199
  450TMC3     C 6758   4.460   1.063  13.389  0.9744  0.9225 -0.0596
  450TMC3     O 6759   4.444   1.106  13.275 -0.0852 -0.6481  0.2482
  450TMC3     H 6760   4.567   1.310  13.416 -1.3491 -1.8607 -0.0694
  450TMC3    H1 6761   4.346   1.002  13.631  1.2515 -1.5398 -1.9756
  450TMC3    H2 6762   4.630   1.241  13.830  0.4148  0.4430 -0.5607
  450TMC3    C7 6763   4.570   0.985  13.762 -0.4170 -0.5956 -0.0807
  450TMC3    C8 6764   4.727   1.362  13.616  0.3733 -0.3803  0.0981
  450TMC3    O1 6765   4.552   0.903  13.677  0.2749  0.3299 -0.2432
  450TMC3    O2 6766   4.714   1.475  13.655  0.8508 -0.1352  0.4497
  451MPD2     C 6767   0.914   4.532   0.729 -0.0314 -0.0918  0.4368
  451MPD2    C1 6768   0.915   4.626   0.632 -0.3931 -0.0400  0.3521
  451MPD2    C2 6769   0.859   4.587   0.504  0.4626  0.1198  0.6492
  451MPD2    C3 6770   0.819   4.458   0.484  0.1355 -0.2166 -0.0924
  451MPD2    C4 6771   0.834   4.355   0.580  0.7467  0.6200 -0.7069
  451MPD2    C5 6772   0.884   4.402   0.702 -0.5368 -0.3134  0.0626
  451MPD2     H 6773   0.853   4.661   0.425 -1.0461  0.7086  1.3315
  451MPD2    H1 6774   0.807   4.251   0.572  0.4409  0.6008  0.4644
  451MPD2    H2 6775   0.957   4.553   0.826  1.4816  0.8722 -0.4301
  451MPD2    H3 6776   0.890   4.323   0.777 -0.3798 -0.5548 -0.2074
  451MPD2     N 6777   0.784   4.414   0.349 -0.0387  0.2717  0.2064
  451MPD2    H5 6778   0.788   4.313   0.337 -0.2277  0.3299 -0.3426
  451MPD2    N1 6779   0.979   0.015   0.663  0.3848 -0.7928 -0.1270
  451MPD2    H7 6780   1.006   0.029   0.760  0.0753 -1.1612  0.0164
  452TMC3    C1 6781   0.769   4.398   0.114  0.5559 -0.3152 -0.8138
  452TMC3    C2 6782   0.761   4.264   0.115  0.6107  0.1158 -0.4423
  452TMC3    C3 6783   0.816   4.190   0.011 -0.2260  0.4192 -0.6889
  452TMC3    C4 6784   0.829   4.466   0.011 -0.5404 -0.3777 -0.4010
  452TMC3    C5 6785   0.887   4.383  17.670  0.6822 -0.1864  0.3839
  452TMC3    C6 6786   0.893   4.249  17.673 -0.2044  0.8826 -0.5973
  452TMC3     C 6787   0.761   4.478   0.233  0.0234  0.0314 -0.0889
  452TMC3     O 6788   0.764   4.601   0.226 -0.7114  0.2092  0.1990
  452TMC3     H 6789   0.714   4.209   0.196  0.9395  0.4857 -0.0028
  452TMC3    H1 6790   0.836   4.574   0.006 -1.9973 -0.2814 -0.3192
  452TMC3    H2 6791   0.942   4.190  17.596 -0.2796 -0.8224  0.6873
  452TMC3    C7 6792   0.972   4.450  17.569 -0.7802  0.6367  0.1114
  452TMC3    C8 6793   0.823   4.042   0.013  0.8831 -0.6171 -0.0483
  452TMC3    O1 6794   0.984   4.570  17.593  0.5909  0.4945 -0.4434
  452TMC3    O2 6795   0.915   3.984  17.712 -0.0102  0.0814  0.2662
  453TMC3    C1 6796   2.748   1.838  12.188  0.3549 -0.0653 -0.9781
  453TMC3    C2 6797   2.674   1.727  12.154 -0.2458  0.1199  0.1973
  453TMC3    C3 6798   2.595   1.734  12.041  0.4017  0.5130  0.1993
  453TMC3    C4 6799   2.739   1.954  12.116 -0.3299 -0.3563 -0.2013
  453TMC3    C5 6800   2.644   1.960  12.016 -0.6189 -0.0540  0.2646
  453TMC3    C6 6801   2.578   1.852  11.976  0.2914  0.6872 -0.3832
  453TMC3     C 6802   2.868   1.828  12.268 -0.9685 -0.6694  0.3285
  453TMC3     O 6803   2.940   1.928  12.276  0.0362  0.1010  0.4981
  453TMC3     H 6804   2.671   1.643  12.223  2.4073 -0.0459  0.1006
  453TMC3    H1 6805   2.806   2.035  12.143  0.4241 -1.0522  0.0385
  453TMC3    H2 6806   2.502   1.871  11.902 -1.3555 -0.4708  0.9937
  453TMC3    C7 6807   2.642   2.082  11.934 -0.0358  0.2773 -0.3526
  453TMC3    C8 6808   2.506   1.620  12.003 -0.6109 -0.0908 -0.5587
  453TMC3    O1 6809   2.606   2.075  11.818 -0.4858 -0.2144  0.1794
  453TMC3    O2 6810   2.412   1.647  11.934  0.9876  0.7553 -0.3817
  454MPD2     C 6811   0.833   1.209  16.631  0.2075 -0.3790 -0.9343
  454MPD2    C1 6812   0.772   1.268  16.522  0.1498 -0.1891 -0.0278
  454MPD2    C2 6813   0.694   1.382  16.532  0.9329  0.0780 -0.0558
  454MPD2    C3 6814   0.646   1.415  16.662  0.5262  0.5214  0.8834
  454MPD2    C4 6815   0.712   1.366  16.768  0.5942 -0.3620  0.2654
  454MPD2    C5 6816   0.800   1.263  16.755 -1.1562  0.3304  0.2742
  454MPD2     H 6817   0.657   1.428  16.441 -1.3311 -0.1025  0.7622
  454MPD2    H1 6818   0.687   1.407  16.865  1.7253 -1.8316  1.1813
  454MPD2    H2 6819   0.900   1.124  16.630  2.3036  1.2634 -0.9114
  454MPD2    H3 6820   0.851   1.223  16.843  0.1191 -0.2780 -0.7398
  454MPD2     N 6821   0.549   1.509  16.682  0.2061  0.3390  0.2292
  454MPD2    H5 6822   0.542   1.540  16.778 -1.4198  0.4038  0.0934
  454MPD2    N1 6823   0.783   1.218  16.394  0.3149  0.0820  0.7636
  454MPD2    H7 6824   0.753   1.280  16.319  1.2165 -0.3089  0.0664
  455TMC3    C1 6825   0.372   1.470  16.519 -0.2383 -0.0169 -0.3872
  455TMC3    C2 6826   0.264   1.529  16.459 -0.0777 -0.3008 -0.4977
  455TMC3    C3 6827   0.157   1.463  16.433  0.0483  0.1482 -0.3225
  455TMC3    C4 6828   0.365   1.332  16.538 -0.1600  1.1337  0.1201
  455TMC3    C5 6829   0.261   1.261  16.490 -0.1617 -0.6902  0.0516
  455TMC3    C6 6830   0.159   1.328  16.433 -0.3527  0.4763  0.2325
  455TMC3     C 6831   0.454   1.557  16.595 -0.0036 -0.2228 -0.5205
  455TMC3     O 6832   0.417   1.671  16.596  0.5922  0.1373 -0.5041
  455TMC3     H 6833   0.263   1.633  16.428 -0.3377 -0.6567 -1.6881
  455TMC3    H1 6834   0.443   1.282  16.593 -0.6245 -2.6454 -2.6146
  455TMC3    H2 6835   0.068   1.277  16.404  0.7584 -1.3733  0.0328
  455TMC3    C7 6836   0.286   1.120  16.444  0.1080  0.1692 -0.5060
  455TMC3    C8 6837   0.054   1.523  16.510  0.8188 -0.0457 -0.1572
  455TMC3    O1 6838   0.233   1.083  16.339 -0.0879 -0.0762  0.5079
  455TMC3    O2 6839   4.683   1.468  16.508  0.7951  0.2757 -0.3154
  456MPD2     C 6840   3.125   1.298  17.015 -0.6402 -0.2194  0.1844
  456MPD2    C1 6841   3.220   1.334  17.109 -0.1455  0.0860 -0.7091
  456MPD2    C2 6842   3.175   1.396  17.229  0.1290 -0.1507  0.8201
  456MPD2    C3 6843   3.038   1.413  17.257  0.4187  0.2855  0.1349
  456MPD2    C4 6844   2.946   1.378  17.154 -0.6855 -0.1351 -0.0300
  456MPD2    C5 6845   2.993   1.318  17.038 -0.1126  0.5246  0.1747
  456MPD2     H 6846   3.244   1.438  17.301  0.7393 -1.5475  1.0622
  456MPD2    H1 6847   2.839   1.383  17.167 -0.6614 -2.7995  1.1074
  456MPD2    H2 6848   3.163   1.250  16.925  2.7890  1.0026  0.9880
  456MPD2    H3 6849   2.922   1.297  16.960  0.4560  0.7489 -0.4027
  456MPD2     N 6850   3.004   1.464  17.390  0.0125 -0.1417  0.6094
  456MPD2    H5 6851   3.074   1.475  17.462  0.7188 -0.6110 -0.0012
  456MPD2    N1 6852   3.353   1.299  17.081 -0.2105  0.3806 -0.2410
  456MPD2    H7 6853   3.374   1.254  16.992 -0.4594 -2.1254  0.9533
  457TMC3    C1 6854   2.875   1.593  17.535  0.2396  0.2618 -0.2329
  457TMC3    C2 6855   2.775   1.694  17.542 -0.5698  0.2024  0.4127
  457TMC3    C3 6856   2.728   1.729  17.667  0.4697 -0.8724  0.1566
  457TMC3    C4 6857   2.937   1.549  17.652  0.6694 -0.8258  0.6473
  457TMC3    C5 6858   2.900   1.597   0.021 -0.0628  0.8320 -0.5376
  457TMC3    C6 6859   2.788   1.681   0.033  0.4924 -0.4071  0.1005
  457TMC3     C 6860   2.877   1.512  17.417  0.0520 -0.0028  0.5578
  457TMC3     O 6861   2.776   1.511  17.339 -0.7701  0.3033  0.3019
  457TMC3     H 6862   2.726   1.729  17.452  2.2062 -0.1154 -1.2097
  457TMC3    H1 6863   3.009   1.468  17.646 -0.3980 -1.7074 -0.1793
  457TMC3    H2 6864   2.749   1.728   0.123 -1.0440  0.8462 -1.2303
  457TMC3    C7 6865   2.978   1.558   0.137 -0.2374 -0.2244 -0.0257
  457TMC3    C8 6866   2.640   1.841  17.682  0.2095  0.3876  0.1830
  457TMC3    O1 6867   3.032   1.448   0.138  0.2210 -0.0561 -0.4650
  457TMC3    O2 6868   2.646   1.902   0.038 -0.2430 -0.4365 -0.1662
  458MPD2     C 6869   1.597   0.965  12.349 -0.1862  0.3131 -0.5110
  458MPD2    C1 6870   1.500   0.895  12.422  0.1560  0.5661 -0.2116
  458MPD2    C2 6871   1.368   0.888  12.382 -0.3262  0.3454  0.8657
  458MPD2    C3 6872   1.327   0.946  12.264  1.1752 -0.3629 -0.7442
  458MPD2    C4 6873   1.420   1.010  12.185 -0.6441 -0.0975 -0.0129
  458MPD2    C5 6874   1.550   1.022  12.229 -0.2211 -0.0894 -0.1989
  458MPD2     H 6875   1.290   0.841  12.441 -1.6498 -0.5840 -1.6229
  458MPD2    H1 6876   1.386   1.061  12.096 -3.0025  0.4176  1.1714
  458MPD2    H2 6877   1.700   0.958  12.381 -0.3068 -0.4991 -0.2953
  458MPD2    H3 6878   1.628   1.067  12.169  0.5226 -0.3980  0.5396
  458MPD2     N 6879   1.193   0.930  12.230 -0.1602 -0.0687 -1.0076
  458MPD2    H5 6880   1.128   0.885  12.294 -0.7354  2.4826  0.2344
  458MPD2    N1 6881   1.546   0.838  12.543  0.6409  0.5263  0.0965
  458MPD2    H7 6882   1.638   0.865  12.576  0.5977 -0.6794  1.1981
  459TMC3    C1 6883   1.519   0.747  12.761  1.1106 -0.7406  0.0039
  459TMC3    C2 6884   1.594   0.848  12.816  0.7530  0.0366 -0.2402
  459TMC3    C3 6885   1.635   0.831  12.945  0.2873  0.4563  0.1590
  459TMC3    C4 6886   1.471   0.643  12.833  0.3954  0.0814  0.0092
  459TMC3    C5 6887   1.509   0.630  12.968  0.9891  0.6636  0.9989
  459TMC3    C6 6888   1.589   0.727  13.024  0.2172  0.4635 -0.3903
  459TMC3     C 6889   1.463   0.765  12.628  0.1105 -0.2876  0.3195
  459TMC3     O 6890   1.371   0.689  12.600 -0.9026  0.0865  0.4610
  459TMC3     H 6891   1.640   0.927  12.758  0.0922  1.8227  1.6769
  459TMC3    H1 6892   1.409   0.575  12.777 -0.0982  1.0121 -0.5775
  459TMC3    H2 6893   1.628   0.721  13.125 -1.6030 -0.2645  0.2597
  459TMC3    C7 6894   1.528   0.495  13.020  0.0919 -0.4577 -0.0332
  459TMC3    C8 6895   1.715   0.940  13.001 -0.0840 -0.5221  0.0412
  459TMC3    O1 6896   1.633   0.476  13.085 -0.0595 -0.5718  0.1383
  459TMC3    O2 6897   1.780   1.001  12.919  0.7560  0.2229 -0.1435
  460MPD2     C 6898   1.067   3.073  10.775  0.0589  0.2415  0.2930
  460MPD2    C1 6899   0.954   2.992  10.803  0.8313  0.1770 -0.0879
  460MPD2    C2 6900   0.830   3.033  10.759 -0.9542  0.4889  1.1447
  460MPD2    C3 6901   0.820   3.142  10.679 -0.1697 -0.6631 -0.1882
  460MPD2    C4 6902   0.936   3.217  10.652 -0.7375 -0.2643  0.4047
  460MPD2    C5 6903   1.061   3.181  10.695  0.2085  0.2932 -0.6353
  460MPD2     H 6904   0.737   2.980  10.775 -1.8834  1.3378 -1.3359
  460MPD2    H1 6905   0.945   3.305  10.590  0.3447 -0.5129  0.2057
  460MPD2    H2 6906   1.165   3.050  10.816  1.4239  0.3298 -2.8878
  460MPD2    H3 6907   1.155   3.228  10.670 -0.7838  2.7853  0.3786
  460MPD2     N 6908   0.690   3.175  10.625  0.2410 -0.0626  0.0228
  460MPD2    H5 6909   0.610   3.122  10.659  0.8586 -0.6917  0.5201
  460MPD2    N1 6910   0.977   2.883  10.891  0.7959 -0.1476  0.0657
  460MPD2    H7 6911   1.072   2.852  10.910  0.1536 -2.3856 -0.3845
  461TMC3    C1 6912   0.524   3.259  10.481 -0.0962  0.8341  0.2327
  461TMC3    C2 6913   0.459   3.141  10.502  0.0801  0.6318  0.9161
  461TMC3    C3 6914   0.357   3.121  10.414 -0.0496 -0.1236 -0.3108
  461TMC3    C4 6915   0.487   3.353  10.390  0.1049  0.4439 -0.5393
  461TMC3    C5 6916   0.374   3.334  10.315  0.3443 -0.5354 -0.3803
  461TMC3    C6 6917   0.313   3.214  10.327 -1.0030 -0.3257  1.0245
  461TMC3     C 6918   0.658   3.263  10.524  0.0206 -0.0153  0.2510
  461TMC3     O 6919   0.733   3.331  10.450 -0.5435 -0.5598  0.5836
  461TMC3     H 6920   0.490   3.059  10.566  0.8681  2.1719  2.5195
  461TMC3    H1 6921   0.555   3.434  10.367 -0.7796  1.6768  1.2402
  461TMC3    H2 6922   0.242   3.180  10.252  1.0255 -2.3848  0.0174
  461TMC3    C7 6923   0.320   3.440  10.225 -0.8017  0.2368 -0.5637
  461TMC3    C8 6924   0.321   2.980  10.397  0.1260 -0.4945  0.2076
  461TMC3    O1 6925   0.223   3.411  10.154 -0.0159 -0.1903 -0.1065
  461TMC3    O2 6926   0.336   2.910  10.493  0.2742 -0.2009 -0.3947
  462TMC3    C1 6927   0.116   4.457  17.531  0.1501 -0.4032  0.5494
  462TMC3    C2 6928   0.106   4.359  17.431 -0.6651 -0.2008 -0.7482
  462TMC3    C3 6929   4.736   4.284  17.434  0.3301 -0.1065  0.5893
  462TMC3    C4 6930   0.038   4.466  17.641  0.6589  0.3723 -0.9074
  462TMC3    C5 6931   4.659   4.391  17.638  0.2650 -0.5683  0.0336
  462TMC3    C6 6932   4.636   4.309  17.529  0.4643  0.1835  0.0254
  462TMC3     C 6933   0.209   4.570  17.503 -0.1636  0.4770  0.3371
  462TMC3     O 6934   0.297   4.547  17.423  0.0885 -0.1251 -1.0710
  462TMC3     H 6935   0.166   4.338  17.343 -1.0334 -0.4508 -0.9431
  462TMC3    H1 6936   0.059   4.520  17.732 -1.7438 -0.8157  0.3687
  462TMC3    H2 6937   4.576   4.220  17.546 -1.7465  2.4193  3.8718
  462TMC3    C7 6938   4.619   4.327   0.007  0.5359  0.3710 -0.1651
  462TMC3    C8 6939   4.722   4.160  17.352  0.0922  0.3831  0.4217
  462TMC3    O1 6940   4.710   4.282   0.075 -0.1098 -0.2824 -0.1682
  462TMC3    O2 6941   4.607   4.141  17.314  0.2935 -0.0801 -0.4219
  463MPD2     C 6942   1.889   2.604   0.935 -0.3241 -0.0556 -0.2425
  463MPD2    C1 6943   1.771   2.676   0.965  0.1622 -0.1133 -0.4095
  463MPD2    C2 6944   1.780   2.804   1.017 -0.1090 -0.0200 -0.0717
  463MPD2    C3 6945   1.904   2.856   1.050 -0.1356 -0.2092  0.6493
  463MPD2    C4 6946   2.015   2.778   1.030 -0.2801 -0.4088  0.0010
  463MPD2    C5 6947   2.012   2.659   0.972 -0.1774 -0.4961  0.0304
  463MPD2     H 6948   1.684   2.851   1.038 -1.2442 -1.6996 -1.5197
  463MPD2    H1 6949   2.113   2.820   1.047 -0.9568  1.3359 -0.3846
  463MPD2    H2 6950   1.885   2.505   0.890  1.6754 -0.8176  1.2519
  463MPD2    H3 6951   2.100   2.597   0.960 -0.5526 -1.2483  1.1841
  463MPD2     N 6952   1.916   2.977   1.118 -0.1153 -0.0087 -0.1430
  463MPD2    H5 6953   2.006   3.006   1.156  0.9833 -1.4172 -1.6458
  463MPD2    N1 6954   1.642   2.645   0.928  0.6899  0.3289 -0.7508
  463MPD2    H7 6955   1.565   2.706   0.951  0.2704  0.4739 -2.5341
  464TMC3    C1 6956   1.462   2.541   0.830 -0.7061  0.1058  0.2935
  464TMC3    C2 6957   1.407   2.665   0.832 -0.1340 -0.7029 -0.4389
  464TMC3    C3 6958   1.271   2.672   0.853 -0.1446  0.5018  0.0978
  464TMC3    C4 6959   1.390   2.428   0.856 -0.1163  0.3914 -0.3525
  464TMC3    C5 6960   1.256   2.439   0.873  0.2192 -0.9752 -0.0714
  464TMC3    C6 6961   1.192   2.560   0.867 -0.3022 -0.1942  0.1506
  464TMC3     C 6962   1.603   2.538   0.858  0.3507  0.5056  0.5287
  464TMC3     O 6963   1.666   2.435   0.829 -0.2447 -0.2580 -0.5547
  464TMC3     H 6964   1.459   2.752   0.791  0.6181 -1.2715 -0.6921
  464TMC3    H1 6965   1.450   2.338   0.854 -0.2468  0.2844  0.6122
  464TMC3    H2 6966   1.086   2.577   0.882 -0.3438  1.6348 -2.1574
  464TMC3    C7 6967   1.188   2.311   0.892 -0.3260 -0.4652 -0.2524
  464TMC3    C8 6968   1.215   2.800   0.866  0.7588  0.0997  0.1899
  464TMC3    O1 6969   1.263   2.216   0.912  0.2376 -0.3670 -0.3120
  464TMC3    O2 6970   1.101   2.816   0.832 -0.1603 -0.3066 -0.1507
  465MPD2     C 6971   2.517   0.907  17.030  0.1054 -0.3983 -0.4471
  465MPD2    C1 6972   2.385   0.935  17.051 -0.2540  0.2549  0.3514
  465MPD2    C2 6973   2.321   1.005  16.956 -0.6478  0.0558  0.3116
  465MPD2    C3 6974   2.381   1.043  16.839 -0.5622 -0.1415 -0.0973
  465MPD2    C4 6975   2.515   1.008  16.820 -0.1799  0.7331 -0.3085
  465MPD2    C5 6976   2.581   0.941  16.915  0.0506  0.4360 -0.4258
  465MPD2     H 6977   2.215   1.020  16.976 -0.3643  1.3456  0.8764
  465MPD2    H1 6978   2.561   1.022  16.723  0.0853 -0.3122 -0.3344
  465MPD2    H2 6979   2.571   0.849  17.104 -2.7341 -0.4250  1.5973
  465MPD2    H3 6980   2.684   0.914  16.894  0.1034 -0.1052  0.5452
  465MPD2     N 6981   2.302   1.102  16.737 -0.3180  0.1409  0.3741
  465MPD2    H5 6982   2.205   1.105  16.767 -0.8280  0.5430 -1.3492
  465MPD2    N1 6983   2.315   0.882  17.160  0.0327 -0.2848  1.1813
  465MPD2    H7 6984   2.219   0.916  17.162  0.4141  0.8249  0.5881
  466TMC3    C1 6985   2.036   1.244  16.475 -0.0800 -0.2231  0.2358
  466TMC3    C2 6986   2.056   1.351  16.387 -0.1548 -0.2463  0.4910
  466TMC3    C3 6987   2.181   1.399  16.394  0.4369 -0.3215 -0.1402
  466TMC3    C4 6988   2.131   1.184  16.554  0.8540 -0.6525 -0.2490
  466TMC3    C5 6989   2.258   1.232  16.547  0.4023  0.2777 -0.8336
  466TMC3    C6 6990   2.286   1.338  16.471 -0.0213  1.1467 -0.2951
  466TMC3     C 6991   1.901   1.215  16.526 -0.1742 -1.1362 -0.3441
  466TMC3     O 6992   1.902   1.162  16.633  0.4698 -0.2811 -0.1101
  466TMC3     H 6993   1.982   1.418  16.344 -0.3582 -1.4847 -1.0827
  466TMC3    H1 6994   2.106   1.094  16.608 -0.5981 -1.0871 -1.6349
  466TMC3    H2 6995   2.382   1.389  16.468 -0.7189  2.5560  1.3568
  466TMC3    C7 6996   2.352   1.170  16.635  0.1855 -0.2576 -0.0477
  466TMC3    C8 6997   2.203   1.540  16.366 -0.3190 -0.0628  0.7375
  466TMC3    O1 6998   2.467   1.200  16.609  0.3539 -0.4369  0.4073
  466TMC3    O2 6999   2.316   1.569  16.335  0.4263  0.0361  0.4328
  467TMC3    C1 7000   3.344   0.426  13.935 -0.6284 -0.2771  0.7724
  467TMC3    C2 7001   3.407   0.515  13.855 -0.7411 -0.5516  0.5795
  467TMC3    C3 7002   3.357   0.546  13.729  0.4441 -0.1046  0.2458
  467TMC3    C4 7003   3.234   0.356  13.894 -0.4044  0.4000  0.1010
  467TMC3    C5 7004   3.187   0.389  13.765 -0.1480 -0.7862  0.1346
  467TMC3    C6 7005   3.243   0.484  13.686 -0.3065 -0.1115 -0.3906
  467TMC3     C 7006   3.447   0.341  13.982  0.2721 -0.4862  0.1091
  467TMC3     O 7007   3.498   0.369  14.089  0.3756  0.0421 -0.3247
  467TMC3     H 7008   3.507   0.550  13.876 -0.6892  0.7470 -1.8172
  467TMC3    H1 7009   3.217   0.261  13.943  1.4777  0.8980  1.7029
  467TMC3    H2 7010   3.220   0.514  13.584  0.4469  1.9785  0.0517
  467TMC3    C7 7011   3.084   0.311  13.706  0.3619  0.2219  0.0930
  467TMC3    C8 7012   3.463   0.562  13.632  0.4537  0.3159 -0.3942
  467TMC3    O1 7013   3.059   0.317  13.590  0.2907 -0.2150  0.3891
  467TMC3    O2 7014   3.432   0.626  13.534 -0.2986  0.0367  0.2244
  468MPD2     C 7015   2.637   2.715  10.297  0.1676  0.3022 -0.4516
  468MPD2    C1 7016   2.649   2.726  10.432  0.2465  0.5288  0.2472
  468MPD2    C2 7017   2.648   2.614  10.515 -0.0869  0.1615 -0.4384
  468MPD2    C3 7018   2.632   2.490  10.454 -0.0116 -0.4501 -0.4549
  468MPD2    C4 7019   2.623   2.479  10.315  0.0223  0.1006  0.5971
  468MPD2    C5 7020   2.630   2.593  10.241 -0.3609  0.0135 -0.1636
  468MPD2     H 7021   2.633   2.625  10.622  0.7109 -0.1475 -0.2955
  468MPD2    H1 7022   2.623   2.379  10.272 -2.8931 -0.4780  1.9427
  468MPD2    H2 7023   2.638   2.805  10.237  0.8368  1.0330  0.6407
  468MPD2    H3 7024   2.602   2.586  10.136 -2.8171 -0.9365  0.5730
  468MPD2     N 7025   2.616   2.369  10.530  0.6682 -0.2141 -0.3424
  468MPD2    H5 7026   2.625   2.287  10.471 -0.4507 -1.6547  1.4992
  468MPD2    N1 7027   2.663   2.848  10.504 -0.6100  0.1809 -0.3624
  468MPD2    H7 7028   2.685   2.834  10.602 -0.7211 -2.4271 -0.6842
  469TMC3    C1 7029   2.701   3.067  10.558  0.8890  0.0627 -0.3716
  469TMC3    C2 7030   2.804   3.053  10.641  0.0999 -0.0069 -0.3669
  469TMC3    C3 7031   2.834   3.154  10.730  0.1888 -0.2186 -0.2546
  469TMC3    C4 7032   2.627   3.176  10.550  0.2129  0.6983 -0.4736
  469TMC3    C5 7033   2.649   3.276  10.644  0.8177  0.2265 -0.3612
  469TMC3    C6 7034   2.759   3.267  10.728  0.5675 -0.5492 -0.7600
  469TMC3     C 7035   2.678   2.974  10.454 -0.4995  0.1444 -0.0811
  469TMC3     O 7036   2.650   3.025  10.351  0.1095 -0.1434  0.2811
  469TMC3     H 7037   2.868   2.966  10.649 -0.6434 -0.5845 -0.7178
  469TMC3    H1 7038   2.534   3.183  10.494 -0.2578  2.2090  0.4874
  469TMC3    H2 7039   2.786   3.346  10.798 -1.5035 -0.4463 -0.0770
  469TMC3    C7 7040   2.527   3.359  10.688  0.6470 -0.1949 -0.2071
  469TMC3    C8 7041   2.907   3.106  10.841 -0.1439 -0.7347  0.3238
  469TMC3    O1 7042   2.443   3.380  10.599  0.1078  0.5601  0.0844
  469TMC3    O2 7043   2.901   2.987  10.867 -0.2328  0.3147  0.2582
  470TMC3    C1 7044   4.489   4.520   0.379 -0.6342  0.0159 -0.3017
  470TMC3    C2 7045   4.569   4.590   0.462  0.2885  0.7213  0.0252
  470TMC3    C3 7046   4.612   4.530   0.575 -0.3283  0.1892 -0.3470
  470TMC3    C4 7047   4.453   4.392   0.409  0.5695  0.4435 -0.2670
  470TMC3    C5 7048   4.484   4.340   0.526 -0.8840 -0.0376 -0.1703
  470TMC3    C6 7049   4.561   4.407   0.615 -0.3661 -0.2480  0.3303
  470TMC3     C 7050   4.452   4.571   0.250 -0.3535 -0.3242 -0.4264
  470TMC3     O 7051   4.526   4.661   0.219  0.4583 -0.3362 -0.5365
  470TMC3     H 7052   4.618   4.683   0.436 -1.8595  2.2151  1.2797
  470TMC3    H1 7053   4.402   4.335   0.332 -0.4747 -0.3988  1.0549
  470TMC3    H2 7054   4.600   4.363   0.706  0.7906 -0.4402 -0.2597
  470TMC3    C7 7055   4.432   4.209   0.557 -0.2433 -0.4403 -0.5771
  470TMC3    C8 7056   4.698   4.605   0.662 -0.4474  0.4533  0.5134
  470TMC3    O1 7057   4.404   4.133   0.466 -0.2807  0.2162  0.6526
  470TMC3    O2 7058   4.694   4.726   0.660  0.0911 -0.1571  0.5630
  471MPD2     C 7059   0.088   0.478  16.466 -0.2804  0.8582  0.3906
  471MPD2    C1 7060   0.141   0.350  16.484 -0.2997 -0.1136 -0.1481
  471MPD2    C2 7061   0.105   0.289  16.600 -0.8967 -0.0102  0.2786
  471MPD2    C3 7062   0.037   0.357  16.702 -0.0419  0.7825  0.5256
  471MPD2    C4 7063   4.732   0.487  16.676  0.6820 -0.8436  0.0776
  471MPD2    C5 7064   0.020   0.550  16.556  0.1957 -0.6509 -0.5171
  471MPD2     H 7065   0.126   0.184  16.616  0.5820  0.6344  2.5263
  471MPD2    H1 7066   4.688   0.551  16.752 -1.2092 -2.0975  0.0275
  471MPD2    H2 7067   0.098   0.538  16.377 -0.3006  0.8107  0.3566
  471MPD2    H3 7068   4.721   0.647  16.525  0.7420  0.0394  0.9711
  471MPD2     N 7069   0.007   0.285  16.821 -0.2935  0.6952  0.3428
  471MPD2    H5 7070   0.055   0.197  16.838 -0.0519  0.7621  0.0211
  471MPD2    N1 7071   0.205   0.274  16.390 -0.0346 -0.3247  0.8890
  471MPD2    H7 7072   0.218   0.179  16.424  0.6243 -0.0147  1.5254
  472TMC3    C1 7073   0.231   0.198  16.176  0.0823 -0.7178  0.2113
  472TMC3    C2 7074   0.187   0.233  16.050 -1.2992  0.2033 -0.6301
  472TMC3    C3 7075   0.113   0.140  15.977  0.2233  0.3054  0.2905
  472TMC3    C4 7076   0.199   0.074  16.230  0.0470 -0.5101 -0.1140
  472TMC3    C5 7077   0.139   4.718  16.148 -0.6682 -0.3371 -0.4681
  472TMC3    C6 7078   0.092   0.015  16.027 -0.0612  1.2194 -0.0925
  472TMC3     C 7079   0.223   0.313  16.264  0.9455  0.0177  0.4105
  472TMC3     O 7080   0.241   0.427  16.223  0.1344 -0.0717 -0.0531
  472TMC3     H 7081   0.191   0.338  16.021  1.6723 -0.0759 -1.2496
  472TMC3    H1 7082   0.242   0.038  16.323  0.5087  0.2768 -0.0281
  472TMC3    H2 7083   0.048   4.692  15.950 -1.3127  0.7832  0.9612
  472TMC3    C7 7084   0.084   4.605  16.225  0.2798  0.2773  0.1676
  472TMC3    C8 7085   4.725   0.206  15.957  0.5578 -0.6276  0.4184
  472TMC3    O1 7086   0.132   4.592  16.335 -0.3259 -0.1222 -0.0640
  472TMC3    O2 7087   4.705   0.315  15.902 -0.1564 -0.2817 -0.0176
  473MPD2     C 7088   0.004   2.108  13.952 -0.4560 -0.1905  0.0385
  473MPD2    C1 7089   4.731   2.224  13.877  0.2833 -0.0606  0.3058
  473MPD2    C2 7090   0.012   2.342  13.945 -0.4948 -0.5143 -0.5023
  473MPD2    C3 7091   0.035   2.344  14.080 -0.6234 -0.2173  0.3939
  473MPD2    C4 7092   0.043   2.229  14.155  0.0077  0.8352 -0.1304
  473MPD2    C5 7093   0.031   2.110  14.088  0.5001 -0.2580 -0.1455
  473MPD2     H 7094   0.000   2.443  13.909  1.3355 -0.4518 -0.9060
  473MPD2    H1 7095   0.063   2.228  14.261 -0.5501  1.2297 -0.0201
  473MPD2    H2 7096   0.002   2.007  13.913  1.4795 -0.9342  1.8551
  473MPD2    H3 7097   0.030   2.018  14.144 -1.9667 -0.1314 -0.0052
  473MPD2     N 7098   0.049   2.466  14.150 -0.0616  0.0182  0.1087
  473MPD2    H5 7099   0.078   2.462  14.247 -0.2328  0.4078  0.1800
  473MPD2    N1 7100   4.715   2.219  13.743 -0.2593  0.2045 -0.2963
  473MPD2    H7 7101   4.726   2.304  13.689  0.3173 -0.6671 -1.5666
  474TMC3    C1 7102   0.036   2.689  14.197  0.7828 -0.1959  0.5760
  474TMC3    C2 7103   4.692   2.795  14.200 -0.5242  0.3032 -0.5846
  474TMC3    C3 7104   4.700   2.890  14.293 -0.5156  0.7278  0.0760
  474TMC3    C4 7105   0.124   2.672  14.298  0.0031  0.2136 -0.7086
  474TMC3    C5 7106   0.136   2.775  14.389  0.6285  0.0983  0.5885
  474TMC3    C6 7107   0.056   2.887  14.389  0.0733  0.0924  0.2292
  474TMC3     C 7108   0.002   2.586  14.106  0.1700 -0.3247  0.2680
  474TMC3     O 7109   4.669   2.618  14.013 -0.0311 -0.0715 -0.1887
  474TMC3     H 7110   4.622   2.809  14.118  0.0779  0.3151 -1.1015
  474TMC3    H1 7111   0.183   2.581  14.307  1.1795  1.1584  1.1299
  474TMC3    H2 7112   0.077   2.969  14.456 -2.1155 -0.7135  1.8687
  474TMC3    C7 7113   0.220   2.752  14.507  0.2168  0.2315 -0.0119
  474TMC3    C8 7114   4.619   3.003  14.257  0.0755 -0.3698 -0.9129
  474TMC3    O1 7115   0.181   2.810  14.607  0.5861 -0.0869  0.7577
  474TMC3    O2 7116   4.521   2.983  14.192 -0.2360 -0.6474 -0.1912
  475MPD2     C 7117   3.842   0.478  10.374  0.7221 -0.4174  1.1252
  475MPD2    C1 7118   3.812   0.600  10.432 -0.5278  0.1332 -0.4380
  475MPD2    C2 7119   3.685   0.636  10.447 -0.4248 -0.2765  0.3726
  475MPD2    C3 7120   3.580   0.566  10.397 -0.7736  0.2654 -0.5412
  475MPD2    C4 7121   3.616   0.467  10.313  0.3610  0.5878  0.8030
  475MPD2    C5 7122   3.743   0.414  10.309 -0.6898 -0.0469 -0.2521
  475MPD2     H 7123   3.661   0.723  10.507 -0.5828 -0.3113  0.3602
  475MPD2    H1 7124   3.537   0.428  10.249  1.1373  0.3034  0.0205
  475MPD2    H2 7125   3.941   0.433  10.370 -0.0056 -1.9950  0.7111
  475MPD2    H3 7126   3.766   0.331  10.242  1.1272  0.0299  0.2693
  475MPD2     N 7127   3.447   0.615  10.406 -0.0647 -0.0022  0.6801
  475MPD2    H5 7128   3.436   0.697  10.465  0.9863  0.1410  0.6688
  475MPD2    N1 7129   3.917   0.672  10.497 -0.0808 -0.1124  0.1482
  475MPD2    H7 7130   3.888   0.735  10.571  3.5575 -1.8872  3.0924
  476TMC3    C1 7131   4.129   0.750  10.558 -0.1132  0.0702  0.1830
  476TMC3    C2 7132   4.175   0.862  10.496 -0.1305  0.6018  0.2614
  476TMC3    C3 7133   4.164   0.984  10.562 -0.0882  0.0885 -0.1400
  476TMC3    C4 7134   4.091   0.756  10.688  0.6303  0.2639  0.4065
  476TMC3    C5 7135   4.074   0.878  10.746 -0.1878 -0.4077  0.2348
  476TMC3    C6 7136   4.120   0.997  10.693 -0.1223 -0.3014 -0.0083
  476TMC3     C 7137   4.050   0.660  10.469  0.8103 -0.1289  0.4817
  476TMC3     O 7138   4.092   0.622  10.361 -0.4174 -0.4534 -0.1906
  476TMC3     H 7139   4.208   0.860  10.393 -1.7648  0.0576 -0.2574
  476TMC3    H1 7140   4.068   0.668  10.748  0.1218 -0.3671 -0.7205
  476TMC3    H2 7141   4.115   1.095  10.737  0.4316  0.8919 -2.6177
  476TMC3    C7 7142   3.949   0.887  10.821 -0.2872 -0.2158 -0.2498
  476TMC3    C8 7143   4.104   1.087  10.481  0.2675  0.9816 -0.7666
  476TMC3    O1 7144   3.867   0.801  10.793 -0.1083  0.6679  0.7246
  476TMC3    O2 7145   4.066   1.186  10.545  0.2518 -0.1377 -0.1875
  477MPD2     C 7146   1.681   2.414  12.032  0.4183  0.0285 -0.4017
  477MPD2    C1 7147   1.631   2.298  11.980  0.6929 -0.1107  0.3353
  477MPD2    C2 7148   1.608   2.189  12.063  0.5405  0.0821  0.5033
  477MPD2    C3 7149   1.627   2.205  12.203 -0.7756 -0.2966  0.2440
  477MPD2    C4 7150   1.660   2.325  12.253  0.6228  0.2313  0.4728
  477MPD2    C5 7151   1.693   2.427  12.168  0.0168 -0.1721  1.0036
  477MPD2     H 7152   1.574   2.097  12.018  2.7207 -2.4346  4.0409
  477MPD2    H1 7153   1.673   2.341  12.359 -0.4470 -0.5498  0.7258
  477MPD2    H2 7154   1.693   2.504  11.973  0.5263  1.5111  1.8858
  477MPD2    H3 7155   1.710   2.526  12.209  2.2622  0.7292 -2.2081
  477MPD2     N 7156   1.618   2.088  12.285  0.1821  0.2830 -0.1554
  477MPD2    H5 7157   1.613   2.000  12.234 -1.3548 -0.4128  1.2060
  477MPD2    N1 7158   1.613   2.297  11.838  0.5166 -0.0956 -0.1043
  477MPD2    H7 7159   1.640   2.383  11.790 -0.0357 -0.6142 -1.3578
  478TMC3    C1 7160   1.522   2.245  11.630  0.3194 -0.2475 -0.7511
  478TMC3    C2 7161   1.463   2.372  11.622  1.3907 -0.4044 -0.0065
  478TMC3    C3 7162   1.357   2.387  11.536  0.3887  0.2237  0.9880
  478TMC3    C4 7163   1.495   2.148  11.539  1.0754 -0.2127  0.2674
  478TMC3    C5 7164   1.406   2.179  11.441 -0.2717  0.1850  0.7327
  478TMC3    C6 7165   1.327   2.292  11.441  0.0519  0.9227 -0.0299
  478TMC3     C 7166   1.553   2.198  11.759 -1.0533  0.1216  0.5594
  478TMC3     O 7167   1.518   2.089  11.790 -0.3262 -0.3008 -0.2146
  478TMC3     H 7168   1.482   2.446  11.699  1.2876  0.8763 -1.2140
  478TMC3    H1 7169   1.523   2.044  11.555 -1.8419 -1.0307  0.1566
  478TMC3    H2 7170   1.240   2.306  11.378  0.5433  0.4991 -0.8059
  478TMC3    C7 7171   1.387   2.072  11.345  0.1131  0.2204  0.5443
  478TMC3    C8 7172   1.291   2.514  11.530  0.1045 -0.7755 -0.2474
  478TMC3    O1 7173   1.443   1.966  11.370  0.5455 -0.2629 -0.5361
  478TMC3    O2 7174   1.357   2.615  11.545 -0.3460  0.5086  0.6332
  479MPD2     C 7175   4.641   4.376  15.086  0.0993 -0.0127 -0.1474
  479MPD2    C1 7176   4.573   4.288  15.171 -0.2872 -0.1000  0.2412
  479MPD2    C2 7177   4.597   4.294  15.313  0.2483  0.1241  0.7850
  479MPD2    C3 7178   4.691   4.378  15.363 -0.4205 -0.0628 -0.0879
  479MPD2    C4 7179   0.020   4.459  15.276 -0.1319 -0.7450  0.2981
  479MPD2    C5 7180   4.738   4.456  15.141  0.6677 -0.6856  0.1784
  479MPD2     H 7181   4.550   4.231  15.387 -1.4058 -0.4585 -0.7674
  479MPD2    H1 7182   0.102   4.519  15.314 -1.4117  1.3297 -0.2110
  479MPD2    H2 7183   4.618   4.386  14.980  1.2988  0.8508 -0.3306
  479MPD2    H3 7184   0.062   4.513  15.073 -0.6509 -1.3930 -1.6217
  479MPD2     N 7185   4.734   4.390  15.500  0.0827 -0.6347  0.3726
  479MPD2    H5 7186   0.081   4.443  15.514  0.4738 -1.2563  0.3290
  479MPD2    N1 7187   4.467   4.216  15.113  0.6856 -0.9275 -0.1575
  479MPD2    H7 7188   4.452   4.237  15.015 -1.3872 -0.6312  0.2276
  480TMC3    C1 7189   4.364   4.198  15.740 -0.2229  0.9581  0.0167
  480TMC3    C2 7190   4.269   4.269  15.673  1.2289 -0.1413 -0.2760
  480TMC3    C3 7191   4.313   4.350  15.570 -0.6777  1.0753  0.2610
  480TMC3    C4 7192   4.496   4.220  15.713  0.5141  0.0190  0.4042
  480TMC3    C5 7193   4.539   4.303  15.615  0.1214 -0.0523 -0.5497
  480TMC3    C6 7194   4.446   4.383  15.552  0.2450  0.1394 -0.2335
  480TMC3     C 7195   4.332   4.092  15.838  0.4346  0.0630  0.5488
  480TMC3     O 7196   4.425   4.045  15.897  1.3666 -0.4517 -0.0465
  480TMC3     H 7197   4.164   4.267  15.702  1.6950 -1.0173  1.3802
  480TMC3    H1 7198   4.570   4.151  15.753  0.2723  0.0842  0.9608
  480TMC3    H2 7199   4.466   4.473  15.496 -2.2514  1.8447  1.5885
  480TMC3    C7 7200   4.687   4.324  15.610 -0.5199 -0.5736  0.7551
  480TMC3    C8 7201   4.213   4.423  15.495  0.0808 -0.1942  0.4084
  480TMC3    O1 7202   0.014   4.289  15.708 -0.4160 -0.2367  0.3558
  480TMC3    O2 7203   4.107   4.457  15.542  0.2009 -0.5270 -0.5468
  481MPD2     C 7204   1.186   3.692  14.374  0.0394 -0.9362  0.0441
  481MPD2    C1 7205   1.128   3.568  14.397 -0.2831 -0.8057 -0.8227
  481MPD2    C2 7206   1.189   3.467  14.477 -0.3932  0.4228 -0.0815
  481MPD2    C3 7207   1.314   3.483  14.527 -0.3992  0.3073  0.2333
  481MPD2    C4 7208   1.379   3.607  14.504 -0.4439  0.1366  0.3052
  481MPD2    C5 7209   1.311   3.702  14.432 -0.4544 -0.2433 -0.4599
  481MPD2     H 7210   1.141   3.370  14.491 -0.1437  0.4097  0.6704
  481MPD2    H1 7211   1.483   3.622  14.528  0.3958 -2.5284 -1.5962
  481MPD2    H2 7212   1.142   3.771  14.313 -0.3343 -2.0508 -1.1243
  481MPD2    H3 7213   1.369   3.793  14.419 -0.9958  0.0940 -0.5648
  481MPD2     N 7214   1.380   3.378  14.599 -0.2753  0.4672  0.1727
  481MPD2    H5 7215   1.464   3.399  14.652 -1.0005  2.2882  0.5758
  481MPD2    N1 7216   0.994   3.547  14.348  0.4282  0.2437  0.5491
  481MPD2    H7 7217   0.951   3.628  14.303  1.7689  0.1516 -0.9056
  482TMC3    C1 7218   0.776   3.446  14.298  0.0129 -0.7523 -0.1375
  482TMC3    C2 7219   0.735   3.332  14.239  0.3197 -0.3065 -0.0221
  482TMC3    C3 7220   0.624   3.343  14.152 -0.2872  0.7852 -0.5531
  482TMC3    C4 7221   0.717   3.572  14.281 -0.0453  0.2785  0.6372
  482TMC3    C5 7222   0.607   3.577  14.201 -0.1555  0.0826  0.1601
  482TMC3    C6 7223   0.564   3.466  14.131  0.1712  0.1110  0.4399
  482TMC3     C 7224   0.912   3.435  14.358 -0.0470  0.0710  0.5302
  482TMC3     O 7225   0.942   3.319  14.392  0.2668  0.4607  0.1668
  482TMC3     H 7226   0.795   3.242  14.231  3.2475  1.8106 -1.4553
  482TMC3    H1 7227   0.751   3.654  14.343  0.3617  2.8093 -2.9126
  482TMC3    H2 7228   0.476   3.484  14.070 -0.0807  1.2783  1.1406
  482TMC3    C7 7229   0.549   3.704  14.163 -0.2348  0.9807 -0.7152
  482TMC3    C8 7230   0.629   3.251  14.040 -0.1496  0.6704  0.0253
  482TMC3    O1 7231   0.427   3.711  14.135  0.0076  0.4090 -0.2045
  482TMC3    O2 7232   0.741   3.210  14.020 -0.1191 -0.6811  0.1270
  483TMC3    C1 7233   4.148   3.049   1.378  0.1074  0.2500  0.4291
  483TMC3    C2 7234   4.208   3.139   1.302 -0.4884 -0.9316 -0.2308
  483TMC3    C3 7235   4.294   3.095   1.204  0.4638  0.0243  0.2866
  483TMC3    C4 7236   4.193   2.917   1.373  0.2539  0.2307 -0.0773
  483TMC3    C5 7237   4.287   2.878   1.285  0.4571 -0.3193  0.2655
  483TMC3    C6 7238   4.338   2.961   1.192  0.5861 -0.3864  0.4430
  483TMC3     C 7239   4.014   3.085   1.428  0.0020  0.5426 -0.3040
  483TMC3     O 7240   3.983   3.204   1.445 -0.1280  0.1020  0.6997
  483TMC3     H 7241   4.171   3.241   1.294 -1.8141 -1.3335  0.7920
  483TMC3    H1 7242   4.134   2.849   1.434 -0.3816  2.6598  1.9925
  483TMC3    H2 7243   4.417   2.922   1.127  0.1389  0.2083 -0.4593
  483TMC3    C7 7244   4.329   2.737   1.272 -0.2355 -0.5279  0.2083
  483TMC3    C8 7245   4.361   3.191   1.123  0.0856 -0.8825 -0.0974
  483TMC3    O1 7246   4.383   2.706   1.168 -0.1044  0.4827 -0.0302
  483TMC3    O2 7247   4.391   3.143   1.015  0.2802 -0.2989 -0.0843
  484MPD2     C 7248   1.701   1.091  13.334  0.1518 -0.3295  0.5407
  484MPD2    C1 7249   1.758   1.067  13.210 -0.4740 -0.2097 -0.3157
  484MPD2    C2 7250   1.865   1.144  13.173 -0.6807 -0.3666  0.1237
  484MPD2    C3 7251   1.918   1.234  13.258  0.3271  0.4003 -0.0740
  484MPD2    C4 7252   1.865   1.240  13.385 -0.1196 -0.0204 -0.7593
  484MPD2    C5 7253   1.755   1.166  13.420 -0.4470 -0.5455 -0.2429
  484MPD2     H 7254   1.913   1.141  13.075 -0.5793 -0.1358  0.1663
  484MPD2    H1 7255   1.913   1.305  13.456 -1.1634  1.4111 -1.3703
  484MPD2    H2 7256   1.620   1.024  13.362  0.7113 -1.2196  0.0232
  484MPD2    H3 7257   1.719   1.170  13.523  0.6683  2.2453  0.0514
  484MPD2     N 7258   2.036   1.314  13.237  0.1380  0.3772  0.4738
  484MPD2    H5 7259   2.085   1.347  13.319  4.2108  0.0858 -1.8468
  484MPD2    N1 7260   1.692   0.968  13.130 -0.5857  0.7548 -0.9612
  484MPD2    H7 7261   1.615   0.914  13.167 -0.9591  0.0427 -2.7632
  485TMC3    C1 7262   2.250   1.368  13.157 -0.5220 -0.4157 -1.2391
  485TMC3    C2 7263   2.311   1.333  13.278 -0.7303 -0.2300 -0.2013
  485TMC3    C3 7264   2.446   1.339  13.284 -0.0898  0.6534 -0.9364
  485TMC3    C4 7265   2.321   1.407  13.046 -0.7151 -0.7781  0.1639
  485TMC3    C5 7266   2.459   1.412  13.064  0.2981 -0.7632 -0.1224
  485TMC3    C6 7267   2.514   1.396  13.188 -1.1095  0.5718  0.2398
  485TMC3     C 7268   2.112   1.315  13.125  0.6668 -0.3840  0.5507
  485TMC3     O 7269   2.082   1.281  13.014  0.1661  0.0366 -0.4343
  485TMC3     H 7270   2.247   1.315  13.364  0.0534  2.3729  0.8923
  485TMC3    H1 7271   2.266   1.415  12.953  0.6911  1.4341 -0.4719
  485TMC3    H2 7272   2.622   1.406  13.200 -0.9646  0.4465 -0.9822
  485TMC3    C7 7273   2.542   1.377  12.952  0.3925  0.7830  0.7416
  485TMC3    C8 7274   2.517   1.216  13.324 -0.3323  0.5117 -0.2451
  485TMC3    O1 7275   2.665   1.373  12.979  0.4844  0.4505  1.1607
  485TMC3    O2 7276   2.641   1.213  13.312 -0.0761 -0.7949  0.6739
  486MPD2     C 7277   4.262   4.075  13.083  0.4669  0.4328 -0.3661
  486MPD2    C1 7278   4.222   4.105  12.958  0.2384 -0.9064  0.4039
  486MPD2    C2 7279   4.236   4.238  12.921  0.8640 -0.8651 -0.2126
  486MPD2    C3 7280   4.262   4.343  13.010 -0.3390 -0.8835 -0.3402
  486MPD2    C4 7281   4.266   4.305  13.144  0.2893 -0.6284  0.0170
  486MPD2    C5 7282   4.278   4.172  13.180  0.1204  0.7161 -0.0717
  486MPD2     H 7283   4.212   4.261  12.818  0.2987  0.8706  0.3215
  486MPD2    H1 7284   4.275   4.375  13.226 -2.9439 -0.5852  0.3263
  486MPD2    H2 7285   4.269   3.971  13.115 -0.3118  1.2514  2.4642
  486MPD2    H3 7286   4.293   4.150  13.285 -0.7525  1.4254  0.2010
  486MPD2     N 7287   4.264   4.481  12.969 -1.0050  0.3444 -0.1561
  486MPD2    H5 7288   4.238   4.490  12.872 -1.4049  0.3466 -0.0488
  486MPD2    N1 7289   4.187   3.995  12.873  0.5747  0.4983  0.1368
  486MPD2    H7 7290   4.167   3.908  12.921  0.0855 -1.1768 -3.1651
  487TMC3    C1 7291   4.128   3.878  12.684  0.2739  0.1289  0.1355
  487TMC3    C2 7292   4.025   3.880  12.605  0.0898  0.7785 -0.0376
  487TMC3    C3 7293   3.954   3.765  12.587  0.3051  0.8779  0.5179
  487TMC3    C4 7294   4.174   3.764  12.749 -0.3934 -0.7596  0.3753
  487TMC3    C5 7295   4.084   3.662  12.750 -0.1027 -0.2283  0.1901
  487TMC3    C6 7296   3.981   3.654  12.661 -0.1618 -0.4012 -0.0686
  487TMC3     C 7297   4.157   4.010  12.743 -0.0139 -0.3363  0.2728
  487TMC3     O 7298   4.141   4.111  12.678 -0.5013 -0.5404  0.5994
  487TMC3     H 7299   3.998   3.972  12.555 -2.3588  0.2452  0.3075
  487TMC3    H1 7300   4.272   3.760  12.795 -0.1251 -1.1543 -0.2194
  487TMC3    H2 7301   3.934   3.558  12.640 -3.1104  1.4786 -2.0724
  487TMC3    C7 7302   4.045   3.642  12.891  0.3077 -0.5634 -0.0891
  487TMC3    C8 7303   3.810   3.775  12.580  0.1786  0.3105 -0.2751
  487TMC3    O1 7304   4.113   3.699  12.977  0.2341 -0.3241 -0.0251
  487TMC3    O2 7305   3.756   3.705  12.496 -0.5224  0.2130 -0.2329
  488MPD2     C 7306   3.910   1.413  16.378 -0.0283 -0.2027 -0.1058
  488MPD2    C1 7307   3.981   1.528  16.400  0.5366  0.9661 -0.4809
  488MPD2    C2 7308   3.970   1.580  16.528  0.0798  0.5306 -0.2208
  488MPD2    C3 7309   3.878   1.539  16.620 -0.8264  0.1545  0.5656
  488MPD2    C4 7310   3.799   1.427  16.594  0.4614  0.3762  0.5234
  488MPD2    C5 7311   3.815   1.366  16.469 -0.3244  0.2942  1.0876
  488MPD2     H 7312   4.025   1.670  16.552  3.4513 -2.1692  2.2127
  488MPD2    H1 7313   3.719   1.384  16.653  0.1961  0.1109 -0.0298
  488MPD2    H2 7314   3.908   1.369  16.279  0.4975 -1.1470  0.2990
  488MPD2    H3 7315   3.759   1.279  16.437  3.0345 -1.1073 -1.0288
  488MPD2     N 7316   3.875   1.618  16.739 -0.3861 -0.4624  0.0291
  488MPD2    H5 7317   3.938   1.698  16.731 -0.9250 -0.1535 -1.0627
  488MPD2    N1 7318   4.060   1.594  16.301  0.0762 -0.6001  0.0214
  488MPD2    H7 7319   4.106   1.679  16.331  1.9458 -2.4731  2.5075
  489TMC3    C1 7320   3.815   1.693  16.949 -0.0823 -0.4943  0.0504
  489TMC3    C2 7321   3.905   1.791  16.922 -0.5200  0.2092 -0.6215
  489TMC3    C3 7322   3.873   1.917  16.969  0.5345  0.7429  0.8359
  489TMC3    C4 7323   3.704   1.707  17.028  0.3325  0.3139  0.4180
  489TMC3    C5 7324   3.666   1.834  17.061 -0.4498 -0.3165  0.3305
  489TMC3    C6 7325   3.747   1.946  17.025 -0.0630 -0.5929  0.6062
  489TMC3     C 7326   3.805   1.587  16.851 -0.4673 -0.1267  0.1443
  489TMC3     O 7327   3.718   1.500  16.871 -0.1221 -0.1933  0.5126
  489TMC3     H 7328   4.003   1.772  16.880 -0.3207  0.1481 -0.1288
  489TMC3    H1 7329   3.639   1.623  17.052  1.2363 -0.6649 -0.5896
  489TMC3    H2 7330   3.707   2.046  17.036  0.1836 -0.4778  0.4612
  489TMC3    C7 7331   3.528   1.862  17.110 -0.2976 -0.2210  0.8774
  489TMC3    C8 7332   3.977   2.023  16.953  0.1387 -0.6513 -0.0454
  489TMC3    O1 7333   3.509   1.973  17.160  0.1710 -0.8073  0.4189
  489TMC3    O2 7334   4.083   1.989  16.896  0.5370  0.1453  0.4255
  490MPD2     C 7335   0.252   1.154  17.201  0.2642  0.0165  0.0964
  490MPD2    C1 7336   0.170   1.152  17.306 -0.1349 -0.5392 -0.0555
  490MPD2    C2 7337   0.209   1.224  17.423  0.0110 -0.2388  0.2776
  490MPD2    C3 7338   0.341   1.274  17.434 -0.1538 -0.1633 -0.2669
  490MPD2    C4 7339   0.418   1.264  17.323 -0.2733 -0.6610 -0.2264
  490MPD2    C5 7340   0.372   1.215  17.207  0.3770  0.0586  0.8921
  490MPD2     H 7341   0.148   1.211  17.511 -0.4025 -0.5316 -0.0507
  490MPD2    H1 7342   0.516   1.309  17.336 -0.8837  0.4681  0.3777
  490MPD2    H2 7343   0.237   1.091  17.114 -1.3775 -1.2712  1.3165
  490MPD2    H3 7344   0.430   1.227  17.117  0.0159  2.3813  0.9743
  490MPD2     N 7345   0.397   1.328  17.550 -0.2158 -0.3094  0.5930
  490MPD2    H5 7346   0.496   1.347  17.537 -0.4176 -0.9886 -2.0119
  490MPD2    N1 7347   0.051   1.075  17.312  0.0590 -0.1423  0.1736
  490MPD2    H7 7348   4.738   1.085  17.398 -1.4150  3.6108 -1.1598
  491TMC3    C1 7349   4.622   0.919  17.246 -0.5302 -0.0689  0.3654
  491TMC3    C2 7350   4.605   0.913  17.383 -0.3099 -0.0388  0.0848
  491TMC3    C3 7351   4.477   0.876  17.412  0.3050 -0.1008 -0.0243
  491TMC3    C4 7352   4.527   0.893  17.152  0.7369  0.2251 -0.5872
  491TMC3    C5 7353   4.400   0.863  17.186 -0.2319  0.6224 -0.2066
  491TMC3    C6 7354   4.379   0.852  17.319 -0.1697 -0.5077 -0.0594
  491TMC3     C 7355   4.734   1.007  17.202  0.1024 -0.3298 -0.1887
  491TMC3     O 7356   0.029   1.003  17.085 -0.2803  0.5880  0.4630
  491TMC3     H 7357   4.680   0.924  17.460  0.2069  0.5885 -0.4985
  491TMC3    H1 7358   4.560   0.894  17.048  0.7379 -0.4247 -0.5916
  491TMC3    H2 7359   4.284   0.807  17.348 -0.3981 -0.6628 -1.0401
  491TMC3    C7 7360   4.312   0.794  17.097 -0.3931  0.2751  0.1708
  491TMC3    C8 7361   4.470   0.805  17.535  0.0126 -0.2834 -0.0056
  491TMC3    O1 7362   4.352   0.713  17.016  1.0358  0.4318  0.0838
  491TMC3    O2 7363   4.527   0.848  17.635  0.0722  0.3794 -0.1468
  492MPD2     C 7364   1.055   1.022  11.123  0.4147 -0.1946  0.1737
  492MPD2    C1 7365   0.957   0.932  11.092 -0.1578 -0.0166  0.7579
  492MPD2    C2 7366   0.868   0.888  11.186  0.1219 -0.3468  0.5723
  492MPD2    C3 7367   0.872   0.941  11.310 -0.7815 -0.3260 -0.8563
  492MPD2    C4 7368   0.968   1.037  11.339 -0.5914 -0.7058 -0.3147
  492MPD2    C5 7369   1.056   1.077  11.244 -0.0790  0.6678  0.2584
  492MPD2     H 7370   0.792   0.812  11.170 -0.3990  0.6028 -1.4966
  492MPD2    H1 7371   0.981   1.088  11.434  3.1465 -0.1130 -1.1485
  492MPD2    H2 7372   1.131   1.055  11.053 -1.0616  0.5862 -1.0346
  492MPD2    H3 7373   1.129   1.150  11.276  1.0636  0.1430 -1.1733
  492MPD2     N 7374   0.776   0.900  11.413  0.2548 -0.1906  0.0539
  492MPD2    H5 7375   0.773   0.967  11.489  2.7467 -1.3230  1.1481
  492MPD2    N1 7376   0.958   0.882  10.957 -0.2085 -0.1623 -0.2061
  492MPD2    H7 7377   1.040   0.897  10.899  1.0136  0.8057  1.7728
  493TMC3    C1 7378   0.865   0.759  10.766  0.1328 -0.0823  0.0376
  493TMC3    C2 7379   0.919   0.831  10.666  0.4492 -0.2504 -0.0566
  493TMC3    C3 7380   0.873   0.812  10.536  0.6240 -0.4920  0.4596
  493TMC3    C4 7381   0.777   0.660  10.728 -0.1730 -0.2000 -0.2448
  493TMC3    C5 7382   0.734   0.640  10.594 -0.3976  0.0323  0.1887
  493TMC3    C6 7383   0.785   0.719  10.494 -0.4832 -0.1652  0.0958
  493TMC3     C 7384   0.855   0.805  10.906 -0.0796  0.1866  0.1906
  493TMC3     O 7385   0.746   0.766  10.954  0.0054 -0.4655  0.2478
  493TMC3     H 7386   0.977   0.918  10.693  0.3186 -0.3743  0.6203
  493TMC3    H1 7387   0.736   0.598  10.807 -2.7703  0.7319 -0.8537
  493TMC3    H2 7388   0.761   0.704  10.390  1.0398 -1.1940 -0.0996
  493TMC3    C7 7389   0.621   0.549  10.559 -0.1096  0.3226 -0.5975
  493TMC3    C8 7390   0.902   0.926  10.447  0.0221  0.4811  0.1330
  493TMC3    O1 7391   0.588   0.544  10.438  0.5983  0.2579  0.0005
  493TMC3    O2 7392   0.931   1.028  10.505 -0.0329  0.1296 -0.0102
  494TMC3    C1 7393   0.570   2.778   0.294 -0.1383 -0.2982 -0.2818
  494TMC3    C2 7394   0.614   2.655   0.329 -0.6788  0.2928  0.7597
  494TMC3    C3 7395   0.700   2.588   0.243  0.0054  0.1562  0.1651
  494TMC3    C4 7396   0.635   2.844   0.190  0.6926  0.3251  0.2862
  494TMC3    C5 7397   0.734   2.782   0.118  0.8251 -0.4786  0.7553
  494TMC3    C6 7398   0.764   2.649   0.144 -0.3104  0.0669 -0.3862
  494TMC3     C 7399   0.518   2.861   0.397  0.0906 -1.2468 -0.0407
  494TMC3     O 7400   0.548   2.979   0.395  0.3763 -0.2400 -0.1322
  494TMC3     H 7401   0.580   2.606   0.420 -1.6718  2.9834  1.8436
  494TMC3    H1 7402   0.600   2.946   0.178  1.4786  0.4557 -0.8506
  494TMC3    H2 7403   0.838   2.600   0.082  2.2998  0.4040  2.4598
  494TMC3    C7 7404   0.791   2.845   0.000 -0.4450  0.0221 -0.7359
  494TMC3    C8 7405   0.743   2.456   0.280  0.2610  0.4980 -0.5690
  494TMC3    O1 7406   0.892   2.801  17.700  0.4315  0.4092 -0.3355
  494TMC3    O2 7407   0.855   2.425   0.244 -0.1572 -0.2614 -0.3214
  495TMC3    C1 7408   4.493   4.288  14.569  0.0444 -0.3875  0.0912
  495TMC3    C2 7409   4.392   4.279  14.476 -0.7882 -0.2595 -0.9534
  495TMC3    C3 7410   4.288   4.364  14.494  0.0341  0.2243 -0.2990
  495TMC3    C4 7411   4.486   4.374  14.676 -0.0205 -0.0359 -0.4871
  495TMC3    C5 7412   4.368   4.441  14.703  0.0823  1.1586 -0.0774
  495TMC3    C6 7413   4.266   4.433  14.608  0.1143  0.2690 -0.5020
  495TMC3     C 7414   4.552   4.159  14.608 -0.0365 -0.2922  0.4727
  495TMC3     O 7415   4.639   4.162  14.691 -0.0190  0.3398 -0.3730
  495TMC3     H 7416   4.412   4.224  14.385 -0.6360  0.1174 -1.1489
  495TMC3    H1 7417   4.570   4.366  14.744 -1.0484  0.7842  0.8763
  495TMC3    H2 7418   4.178   4.495  14.620  1.1696  1.9090 -1.3117
  495TMC3    C7 7419   4.330   4.458  14.845  0.3907  0.7993 -0.0004
  495TMC3    C8 7420   4.226   4.428  14.385 -0.0514 -0.4509  0.7276
  495TMC3    O1 7421   4.403   4.394  14.922  0.5322 -0.3980  0.6592
  495TMC3    O2 7422   4.192   4.547  14.405  0.5308  0.1290  0.0763
  496MPD2     C 7423   1.939   4.699  15.771 -0.6004  0.4604  0.3687
  496MPD2    C1 7424   1.884   4.618  15.679  0.1999  0.7010 -0.3251
  496MPD2    C2 7425   1.750   4.621  15.657 -0.1674  0.1110 -0.2820
  496MPD2    C3 7426   1.664   4.694  15.732 -0.4031  0.4803  0.9124
  496MPD2    C4 7427   1.716   0.019  15.842  1.1728  1.0628  0.5501
  496MPD2    C5 7428   1.851   0.023  15.856  1.0677 -0.3302  0.1024
  496MPD2     H 7429   1.711   4.571  15.569 -1.1831 -1.4936  1.0612
  496MPD2    H1 7430   1.649   0.072  15.908 -0.9509 -2.2748  1.0670
  496MPD2    H2 7431   2.044   4.714  15.791 -0.6506  2.5629 -0.9689
  496MPD2    H3 7432   1.904   0.087  15.926  0.2303 -0.7532  1.1302
  496MPD2     N 7433   1.523   4.696  15.716 -0.0097 -0.3554 -0.3773
  496MPD2    H5 7434   1.464   4.735  15.788  0.5182  0.8912 -0.6114
  496MPD2    N1 7435   1.978   4.547  15.598  0.1662  0.1592 -0.1363
  496MPD2    H7 7436   2.076   4.571  15.605  0.4689 -1.3675  0.7901
  497TMC3    C1 7437   1.313   4.610  15.663  0.2615  0.5094 -0.1975
  497TMC3    C2 7438   1.239   4.566  15.555  0.5505 -0.3727 -0.3017
  497TMC3    C3 7439   1.153   4.458  15.574  0.3270  0.5046  0.4194
  497TMC3    C4 7440   1.298   4.550  15.782 -0.2686 -0.0781 -0.1255
  497TMC3    C5 7441   1.209   4.449  15.799  0.1014  0.6876  0.9554
  497TMC3    C6 7442   1.129   4.407  15.697  0.1506  0.0030 -0.8156
  497TMC3     C 7443   1.452   4.631  15.618  0.0867 -0.0541  0.0427
  497TMC3     O 7444   1.489   4.582  15.513 -0.3116  0.4608  0.2075
  497TMC3     H 7445   1.257   4.612  15.458 -0.2400 -1.4273 -0.9550
  497TMC3    H1 7446   1.344   4.596  15.869 -1.5880  0.4986  0.2681
  497TMC3    H2 7447   1.062   4.324  15.716  0.8316 -0.1705  0.7688
  497TMC3    C7 7448   1.215   4.361  15.916 -0.3141 -0.6225  0.9346
  497TMC3    C8 7449   1.112   4.374  15.463  0.0833  0.4258  0.6579
  497TMC3    O1 7450   1.121   4.288  15.938  0.5264  0.1132  0.2372
  497TMC3    O2 7451   1.016   4.300  15.474 -0.0383  0.1533  0.2652
  498MPD2     C 7452   2.735   0.734   9.826 -0.3711  0.2475 -0.1732
  498MPD2    C1 7453   2.847   0.701   9.904 -0.0568  0.4397 -0.0873
  498MPD2    C2 7454   2.854   0.574   9.958 -0.1203 -0.7796 -1.0312
  498MPD2    C3 7455   2.742   0.491   9.949  0.0528 -0.2298  0.1946
  498MPD2    C4 7456   2.639   0.517   9.863 -0.3288  0.3469 -0.3409
  498MPD2    C5 7457   2.638   0.645   9.807  0.7309 -0.4262  0.3252
  498MPD2     H 7458   2.943   0.552  10.015  0.0802 -1.3559 -1.5646
  498MPD2    H1 7459   2.556   0.449   9.847 -1.3311  1.3269  0.6878
  498MPD2    H2 7460   2.730   0.826   9.770 -1.8308  0.4502  0.3065
  498MPD2    H3 7461   2.552   0.674   9.748  0.5183  0.2730  0.9815
  498MPD2     N 7462   2.724   0.368  10.016  0.2009 -0.3292  0.0565
  498MPD2    H5 7463   2.642   0.311   9.999 -0.8884  1.4107 -0.5104
  498MPD2    N1 7464   2.955   0.790   9.914  0.1144 -0.3058 -0.3744
  498MPD2    H7 7465   3.042   0.741   9.933  0.6015  0.4762 -0.6252
  499TMC3    C1 7466   3.065   1.004   9.906  0.4214  0.8503  0.0273
  499TMC3    C2 7467   3.175   0.941   9.853 -0.0468  0.0613  0.4480
  499TMC3    C3 7468   3.277   1.022   9.807  0.3152  0.4049  0.3306
  499TMC3    C4 7469   3.047   1.136   9.913 -0.6553 -0.8951  0.3905
  499TMC3    C5 7470   3.156   1.208   9.880  0.1421 -0.3463 -0.3385
  499TMC3    C6 7471   3.274   1.158   9.830 -0.1771 -0.0094  0.4086
  499TMC3     C 7472   2.940   0.926   9.904  0.3201 -0.7190  0.6304
  499TMC3     O 7473   2.838   0.993   9.919  0.3030  0.2315 -0.1493
  499TMC3     H 7474   3.180   0.833   9.850  0.0689  0.0928 -0.7286
  499TMC3    H1 7475   2.960   1.172   9.967  0.8030  1.1487  1.3822
  499TMC3    H2 7476   3.354   1.227   9.807  0.6624 -1.0558  0.1677
  499TMC3    C7 7477   3.137   1.359   9.879 -0.0404  0.2318  0.1672
  499TMC3    C8 7478   3.407   0.959   9.784 -0.0040 -0.0509  0.2780
  499TMC3    O1 7479   3.227   1.437   9.857 -0.1059  0.2126  0.1912
  499TMC3    O2 7480   3.510   1.019   9.797  0.2721 -0.7833  0.3057
  500MPD2     C 7481   4.349   2.123  10.713  0.9556 -0.4881 -0.1203
  500MPD2    C1 7482   4.340   1.982  10.701  0.1157 -1.7313  0.2607
  500MPD2    C2 7483   4.254   1.931  10.601 -0.4975  0.4675  0.0354
  500MPD2    C3 7484   4.167   2.013  10.528  0.2411 -0.1126  0.2256
  500MPD2    C4 7485   4.168   2.149  10.549  0.0450 -0.6647  0.5078
  500MPD2    C5 7486   4.258   2.195  10.641  0.6506  0.1720 -0.3321
  500MPD2     H 7487   4.244   1.823  10.594  0.2823  0.4213 -0.3850
  500MPD2    H1 7488   4.093   2.217  10.510  1.2663  0.1880 -0.3302
  500MPD2    H2 7489   4.418   2.166  10.784  1.2197  1.1159 -1.3413
  500MPD2    H3 7490   4.241   2.298  10.671  0.6173  0.1514 -0.2790
  500MPD2     N 7491   4.081   1.965  10.427 -0.0139  0.5219 -0.3496
  500MPD2    H5 7492   4.026   2.036  10.379 -0.4908  0.0579 -0.4954
  500MPD2    N1 7493   4.416   1.887  10.770  0.0995 -0.5081 -0.2012
  500MPD2    H7 7494   4.378   1.793  10.765 -0.5302 -0.2300 -0.7094
  501TMC3    C1 7495   4.585   1.796  10.901  0.0331  0.8129 -0.4080
  501TMC3    C2 7496   4.602   1.688  10.816 -0.1447  0.3956  0.0664
  501TMC3    C3 7497   4.723   1.614  10.833 -0.4481 -0.4249 -0.0168
  501TMC3    C4 7498   4.663   1.815  11.002  1.3536  0.1716 -0.3704
  501TMC3    C5 7499   0.028   1.735  11.025 -0.2829  0.5335  0.5695
  501TMC3    C6 7500   0.069   1.642  10.936  0.1692  0.0778 -0.3234
  501TMC3     C 7501   4.523   1.912  10.858 -0.0321 -0.4566 -0.5139
  501TMC3     O 7502   4.582   2.014  10.892 -0.7717  0.4438 -0.2947
  501TMC3     H 7503   4.554   1.664  10.722  0.4663  1.1362 -0.4382
  501TMC3    H1 7504   4.657   1.899  11.071  3.2592  0.1301 -0.1663
  501TMC3    H2 7505   0.165   1.593  10.948 -0.5479 -0.6139  2.5727
  501TMC3    C7 7506   0.141   1.796  11.081  0.0709  0.2212  0.2777
  501TMC3    C8 7507   0.050   1.613  10.708 -0.6653  0.7670 -0.1553
  501TMC3    O1 7508   0.230   1.827  11.001  0.0727  0.3724 -0.2862
  501TMC3    O2 7509   0.026   1.527  10.627 -0.1508 -0.2134  0.4408
  502TMC3    C1 7510   4.236   1.239  15.237 -0.0621  0.1011 -1.5803
  502TMC3    C2 7511   4.229   1.379  15.226 -0.1052 -0.2394  0.7098
  502TMC3    C3 7512   4.111   1.441  15.182  0.1022  0.2567  0.1899
  502TMC3    C4 7513   4.130   1.155  15.186 -0.4465  0.2245  0.8344
  502TMC3    C5 7514   4.014   1.227  15.153 -0.0896  0.2049 -0.4098
  502TMC3    C6 7515   4.000   1.365  15.145 -0.3418 -1.0136  0.5032
  502TMC3     C 7516   4.317   1.187  15.349 -0.0974  0.6999  0.3184
  502TMC3     O 7517   4.426   1.239  15.354 -0.2571 -0.8122  0.1376
  502TMC3     H 7518   4.315   1.432  15.266  0.2095 -0.7973  0.7618
  502TMC3    H1 7519   4.138   1.049  15.207 -1.9739 -0.2847 -1.2277
  502TMC3    H2 7520   3.906   1.404  15.108 -0.7363 -2.9332 -0.5378
  502TMC3    C7 7521   3.903   1.139  15.119 -0.0943 -0.2477 -0.1207
  502TMC3    C8 7522   4.126   1.578  15.137  0.4901  0.3164 -0.2868
  502TMC3    O1 7523   3.934   1.029  15.077 -0.2591 -0.0196 -0.6602
  502TMC3    O2 7524   4.244   1.611  15.123  0.2041  0.0617 -0.0181
  503MPD2     C 7525   1.125   1.293  16.846  0.1618 -0.6773  0.1525
  503MPD2    C1 7526   1.152   1.349  16.972 -0.6257  0.5423  0.5052
  503MPD2    C2 7527   1.204   1.276  17.078 -0.0844 -0.0075  0.1895
  503MPD2    C3 7528   1.211   1.141  17.068  0.7770  0.6978  0.1303
  503MPD2    C4 7529   1.175   1.082  16.946  0.4262  0.4681 -0.0545
  503MPD2    C5 7530   1.143   1.153  16.834  0.3056  0.2859 -0.2197
  503MPD2     H 7531   1.238   1.339  17.160 -2.1930  1.8314 -0.3488
  503MPD2    H1 7532   1.185   0.976  16.925 -1.6470  0.1180  0.7256
  503MPD2    H2 7533   1.085   1.350  16.763  0.0451 -1.9670 -0.6882
  503MPD2    H3 7534   1.110   1.117  16.737 -0.7722 -1.8134  0.9272
  503MPD2     N 7535   1.251   1.073  17.184  0.4077 -0.2216 -1.0818
  503MPD2    H5 7536   1.270   1.123  17.270  1.3010  0.3587 -1.6109
  503MPD2    N1 7537   1.140   1.486  16.988  0.7222 -0.1008  0.6479
  503MPD2    H7 7538   1.151   1.526  17.081 -2.3991  2.1142  0.0580
  504TMC3    C1 7539   1.307   0.902  17.318 -0.7159 -0.7700 -0.6413
  504TMC3    C2 7540   1.252   0.971  17.415 -0.6423  0.0203  0.1736
  504TMC3    C3 7541   1.304   0.957  17.542 -0.5008  0.2020 -0.0729
  504TMC3    C4 7542   1.410   0.816  17.335 -0.0591  0.4864  0.2423
  504TMC3    C5 7543   1.463   0.812  17.462  0.8433 -0.0549  0.4140
  504TMC3    C6 7544   1.401   0.870  17.568  0.4454 -0.0318 -0.1721
  504TMC3     C 7545   1.288   0.942  17.187 -0.2575 -0.7059 -0.2070
  504TMC3     O 7546   1.319   0.867  17.094  0.3265 -0.0896  0.1466
  504TMC3     H 7547   1.151   1.009  17.401 -1.6555 -1.7025  2.7463
  504TMC3    H1 7548   1.443   0.751  17.255 -0.3049 -1.6669  1.8884
  504TMC3    H2 7549   1.444   0.870  17.667  1.9948 -0.1962 -0.8377
  504TMC3    C7 7550   1.596   0.750  17.482  0.2332 -0.2676 -0.1609
  504TMC3    C8 7551   1.252   1.047  17.641  0.1809 -0.3029  0.0975
  504TMC3    O1 7552   1.615   0.724  17.597 -0.0263  0.2012  0.0725
  504TMC3    O2 7553   1.170   1.131  17.599 -0.0039  0.0386 -0.1371
  505MPD2     C 7554   2.021   4.565  11.037 -0.0904  1.0335 -0.0826
  505MPD2    C1 7555   2.106   4.462  11.061 -0.0423 -0.2413 -0.5645
  505MPD2    C2 7556   2.213   4.487  11.142  0.9466  0.0024 -0.4642
  505MPD2    C3 7557   2.234   4.604  11.208  0.0986 -0.1977 -1.1107
  505MPD2    C4 7558   2.137   4.701  11.193 -0.1128  0.1678  0.3316
  505MPD2    C5 7559   2.035   4.680  11.111  0.2846 -0.1437  0.7175
  505MPD2     H 7560   2.294   4.415  11.150  0.1828 -0.5749  2.0998
  505MPD2    H1 7561   2.128   0.051  11.256  1.0533  1.8919 -1.9252
  505MPD2    H2 7562   1.941   4.550  10.965 -1.9158 -1.0885  2.3980
  505MPD2    H3 7563   1.955   0.014  11.105 -0.7734 -1.4304 -0.8799
  505MPD2     N 7564   2.357   4.618  11.275 -0.3695  0.3760  0.3494
  505MPD2    H5 7565   2.420   4.539  11.273  0.7791  1.2793  0.7219
  505MPD2    N1 7566   2.076   4.338  10.991 -0.0355  0.1010  0.2409
  505MPD2    H7 7567   1.993   4.343  10.934  2.0929 -0.3537 -2.8749
  506TMC3    C1 7568   2.143   4.132  10.902 -0.0462 -0.2458  1.0685
  506TMC3    C2 7569   2.145   4.178  10.775 -0.9174 -0.4021 -0.0458
  506TMC3    C3 7570   2.190   4.089  10.677  0.1968 -0.1870 -0.1306
  506TMC3    C4 7571   2.205   4.016  10.929 -0.1323 -0.1706 -0.0389
  506TMC3    C5 7572   2.281   3.943  10.836  0.4660  0.5934 -0.5522
  506TMC3    C6 7573   2.265   3.977  10.700  0.3930  0.2838  1.7985
  506TMC3     C 7574   2.154   4.228  11.004 -0.0551 -0.4168  0.4367
  506TMC3     O 7575   2.241   4.199  11.085 -0.1288 -0.1326 -0.6722
  506TMC3     H 7576   2.091   4.266  10.742 -0.6141  0.3954  1.5888
  506TMC3    H1 7577   2.193   3.974  11.028  1.1344  1.3965  0.7801
  506TMC3    H2 7578   2.314   3.925  10.619 -2.7719 -1.9380  1.3384
  506TMC3    C7 7579   2.416   3.913  10.880  0.6240 -0.1618  0.2994
  506TMC3    C8 7580   2.190   4.140  10.543 -0.1657  0.0168 -0.0788
  506TMC3    O1 7581   2.485   3.855  10.796 -0.1322  0.0440 -0.2332
  506TMC3    O2 7582   2.192   4.056  10.451  0.2297 -0.1294 -0.3211
  507TMC3    C1 7583   2.509   1.410  15.298  0.1714 -0.9175 -0.4459
  507TMC3    C2 7584   2.554   1.374  15.174 -0.2204  0.2852 -0.3411
  507TMC3    C3 7585   2.607   1.468  15.095  0.2453 -0.2600 -0.5177
  507TMC3    C4 7586   2.512   1.539  15.346  0.6131  0.0220 -0.0050
  507TMC3    C5 7587   2.551   1.634  15.259  0.4000  0.2837 -0.2729
  507TMC3    C6 7588   2.611   1.600  15.139 -0.0727 -0.1821  0.1367
  507TMC3     C 7589   2.501   1.306  15.394  0.5303 -0.3119 -0.0219
  507TMC3     O 7590   2.431   1.213  15.361  0.2946 -0.3570  0.3804
  507TMC3     H 7591   2.542   1.273  15.137  0.9545  0.0747 -0.1731
  507TMC3    H1 7592   2.451   1.560  15.433  2.5485  1.2664  1.0631
  507TMC3    H2 7593   2.651   1.674  15.071  0.1239  0.6782  1.1749
  507TMC3    C7 7594   2.453   1.742  15.219  0.6978  0.6175 -0.9082
  507TMC3    C8 7595   2.574   1.457  14.957  0.3438 -0.7673  0.3942
  507TMC3    O1 7596   2.444   1.759  15.098 -0.4838 -0.2651 -0.0617
  507TMC3    O2 7597   2.581   1.345  14.906  0.3795 -0.1107 -0.0545
  508MPD2     C 7598   3.236   3.225  15.996  0.0476 -0.1883 -0.7023
  508MPD2    C1 7599   3.272   3.294  16.106  0.2819 -0.3569 -0.0275
  508MPD2    C2 7600   3.288   3.436  16.095  0.6980  0.6049 -0.6654
  508MPD2    C3 7601   3.269   3.506  15.974 -0.1858  0.6654 -0.1134
  508MPD2    C4 7602   3.228   3.428  15.866  0.2050 -0.2898 -0.5175
  508MPD2    C5 7603   3.210   3.292  15.879  1.2689 -0.3251 -0.4059
  508MPD2     H 7604   3.336   3.491  16.175  1.6648  1.6130 -1.9561
  508MPD2    H1 7605   3.213   3.477  15.770 -2.6246  1.7793  0.9805
  508MPD2    H2 7606   3.224   3.117  15.998  1.6788 -0.3061  3.0388
  508MPD2    H3 7607   3.178   3.231  15.796 -0.2875  1.2753 -0.9705
  508MPD2     N 7608   3.299   3.640  15.963 -0.2845 -0.0276 -0.5224
  508MPD2    H5 7609   3.337   3.689  16.044 -1.2530 -0.7062  0.3452
  508MPD2    N1 7610   3.294   3.232  16.226  0.5585 -0.0954  0.0449
  508MPD2    H7 7611   3.285   3.131  16.231  2.5901 -0.3518 -1.6242
  509TMC3    C1 7612   3.248   4.083  15.850  0.0554 -0.2641  0.4178
  509TMC3    C2 7613   3.359   4.130  15.920  0.1126  0.2139 -0.2497
  509TMC3    C3 7614   3.446   4.031  15.960  0.5096 -0.0581 -0.2310
  509TMC3    C4 7615   3.221   3.956  15.818 -0.4445  0.2788  0.2737
  509TMC3    C5 7616   3.304   3.861  15.873  0.4243  0.0192 -0.3559
  509TMC3    C6 7617   3.416   3.899  15.935 -0.0644 -0.7374  0.2585
  509TMC3     C 7618   3.155   4.188  15.807 -0.5587  0.2054  0.1145
  509TMC3     O 7619   3.037   4.148  15.799 -0.1445  0.1722 -0.1118
  509TMC3     H 7620   3.370   4.234  15.947 -2.4233  0.6763 -1.1258
  509TMC3    H1 7621   3.129   3.921  15.773  0.1534 -0.8134 -0.0942
  509TMC3    H2 7622   3.482   3.823  15.974  0.1950 -0.0362  1.1916
  509TMC3    C7 7623   3.268   3.722  15.853 -0.4068 -0.1358 -0.8005
  509TMC3    C8 7624   3.554   4.064  16.051  0.1742 -0.2873 -0.4791
  509TMC3    O1 7625   3.216   3.700  15.742  0.2424 -0.0239 -0.1242
  509TMC3    O2 7626   3.591   3.966  16.118  0.1948 -0.1273  0.1470
  510MPD2     C 7627   1.252   0.281  14.828  0.2787  0.5845 -0.2856
  510MPD2    C1 7628   1.312   0.164  14.870 -0.2595  0.2827 -0.0008
  510MPD2    C2 7629   1.445   0.149  14.843 -0.2570  0.4291  0.3431
  510MPD2    C3 7630   1.514   0.237  14.757 -0.5076  0.5941  0.6495
  510MPD2    C4 7631   1.451   0.355  14.718  0.3668  0.9419 -0.4945
  510MPD2    C5 7632   1.324   0.372  14.758 -0.6018  0.3610  0.0214
  510MPD2     H 7633   1.500   0.065  14.883 -2.4396 -0.6341  1.1285
  510MPD2    H1 7634   1.499   0.430  14.655 -1.5739  0.5566 -2.4440
  510MPD2    H2 7635   1.164   0.319  14.879 -0.4379  3.2066 -3.5042
  510MPD2    H3 7636   1.281   0.467  14.727 -1.3980  0.3361  1.0769
  510MPD2     N 7637   1.651   0.201  14.719 -0.6494 -0.2656 -0.3992
  510MPD2    H5 7638   1.695   0.118  14.758 -0.3777 -0.0340 -0.2084
  510MPD2    N1 7639   1.234   0.076  14.943 -0.0271  0.3078  0.3663
  510MPD2    H7 7640   1.142   0.109  14.970 -1.1652 -0.4659 -2.5619
  511TMC3    C1 7641   1.152   4.620  15.034 -0.0225 -0.7433 -0.4691
  511TMC3    C2 7642   1.093   4.689  15.142  0.0273 -0.4044  0.2643
  511TMC3    C3 7643   0.981   4.632  15.192  0.1836 -0.4697 -0.2207
  511TMC3    C4 7644   1.101   4.506  14.978 -1.0203 -0.2966  0.2798
  511TMC3    C5 7645   0.984   4.458  15.026 -0.1128 -0.3222  0.3367
  511TMC3    C6 7646   0.919   4.517  15.135 -0.3366 -0.2359 -0.6937
  511TMC3     C 7647   1.264   4.684  14.964 -0.2452  0.0226  0.2520
  511TMC3     O 7648   1.358   4.617  14.925  0.5231  0.3984 -0.3174
  511TMC3     H 7649   1.121   0.047  15.182 -0.7075  0.5936 -1.6698
  511TMC3    H1 7650   1.143   4.466  14.886 -0.9305 -0.0671  0.2211
  511TMC3    H2 7651   0.822   4.480  15.164 -0.4529 -2.0836 -3.4361
  511TMC3    C7 7652   0.938   4.345  14.946  0.3071 -0.9630  0.0784
  511TMC3    C8 7653   0.903   4.704  15.293  0.0257  0.4294  1.2276
  511TMC3    O1 7654   0.967   4.338  14.827 -0.0859  0.1715 -0.3866
  511TMC3    O2 7655   0.907   0.088  15.296  0.4226  0.0406  0.0487
  512TMC3    C1 7656   4.642   4.337  13.013 -0.1549 -0.1123  0.6588
  512TMC3    C2 7657   4.655   4.322  13.147  0.2018  0.2694 -0.3438
  512TMC3    C3 7658   4.648   4.189  13.194  0.3148  0.3912  0.7571
  512TMC3    C4 7659   4.592   4.236  12.932 -0.5447 -0.8983  0.0002
  512TMC3    C5 7660   4.593   4.111  12.986  0.0341  0.6662 -0.3995
  512TMC3    C6 7661   4.636   4.083  13.111 -0.3860 -0.4272  0.2414
  512TMC3     C 7662   4.687   4.463  12.948 -0.1020 -0.0749 -0.1147
  512TMC3     O 7663   4.638   4.499  12.844 -1.0838  0.2931  0.0691
  512TMC3     H 7664   4.662   4.412  13.208  0.5782 -0.7949  1.1923
  512TMC3    H1 7665   4.602   4.238  12.824  1.9940  0.3897  0.2795
  512TMC3    H2 7666   4.636   3.982  13.152  3.4209 -0.2780  0.5765
  512TMC3    C7 7667   4.583   4.006  12.890 -0.0601  0.4153 -0.2126
  512TMC3    C8 7668   4.649   4.169  13.336  0.2518 -0.1515  0.3401
  512TMC3    O1 7669   4.488   4.015  12.813 -0.2997  0.1775  0.1724
  512TMC3    O2 7670   4.663   4.052  13.371  0.3724  0.1206  0.1645
  513MPD2     C 7671   1.380   4.448  13.364  0.3574 -0.1887 -0.0589
  513MPD2    C1 7672   1.430   4.340  13.291  0.4845  0.6254  1.1923
  513MPD2    C2 7673   1.511   4.260  13.357  0.3463 -0.2199  0.6307
  513MPD2    C3 7674   1.542   4.275  13.488  0.6787  0.0533 -0.0799
  513MPD2    C4 7675   1.484   4.367  13.573  0.1998 -0.9898 -0.6241
  513MPD2    C5 7676   1.408   4.461  13.506  0.1171  0.3621  0.0361
  513MPD2     H 7677   1.549   4.173  13.305  2.9261  0.8740  0.6770
  513MPD2    H1 7678   1.509   4.373  13.679 -2.6996  0.7405 -0.0510
  513MPD2    H2 7679   1.306   4.516  13.323 -0.0897 -1.6293 -1.6258
  513MPD2    H3 7680   1.360   4.547  13.550  1.3997  1.1055 -0.0155
  513MPD2     N 7681   1.629   4.178  13.539  0.2169  0.5526  0.4408
  513MPD2    H5 7682   1.657   4.109  13.471  0.0369  0.5000  0.4186
  513MPD2    N1 7683   1.417   4.308  13.155  0.1191 -0.2002 -0.6069
  513MPD2    H7 7684   1.471   4.228  13.125 -1.9030 -0.4798 -3.4130
  514TMC3    C1 7685   1.378   4.329  12.917  0.9906  0.6591 -0.4834
  514TMC3    C2 7686   1.407   4.433  12.829  0.6101  0.3024 -0.1644
  514TMC3    C3 7687   1.487   4.405  12.721 -0.4398  0.4621 -0.1249
  514TMC3    C4 7688   1.427   4.199  12.900 -0.4894  0.1070  0.7711
  514TMC3    C5 7689   1.492   4.178  12.784  0.3659 -0.4912 -1.0140
  514TMC3    C6 7690   1.515   4.276  12.692 -0.1176 -0.4686 -0.9219
  514TMC3     C 7691   1.346   4.374  13.053  0.8695 -0.0115  0.0001
  514TMC3     O 7692   1.271   4.474  13.063 -0.1754  0.1306 -0.2859
  514TMC3     H 7693   1.380   4.534  12.857 -2.2546 -0.2540 -0.8207
  514TMC3    H1 7694   1.406   4.117  12.967  1.3880  0.0475  1.2987
  514TMC3    H2 7695   1.585   4.245  12.615  1.1179 -0.8037  0.3410
  514TMC3    C7 7696   1.575   4.060  12.775  0.0704  0.3988 -0.6019
  514TMC3    C8 7697   1.534   4.514  12.633  0.3016 -0.3226 -0.0676
  514TMC3    O1 7698   1.581   3.999  12.668  0.1360  0.0683 -0.0705
  514TMC3    O2 7699   1.483   4.623  12.650  0.4931 -0.7919 -0.0822
  515MPD2     C 7700   4.211   0.705  15.052 -0.7779 -0.6250 -0.1214
  515MPD2    C1 7701   4.223   0.801  14.948 -0.4638 -0.5708 -0.3846
  515MPD2    C2 7702   4.314   0.903  14.955  1.1427 -0.0012 -0.0969
  515MPD2    C3 7703   4.397   0.922  15.063  0.0749 -0.0772  0.6900
  515MPD2    C4 7704   4.375   0.839  15.169 -0.4742 -0.1822 -0.1770
  515MPD2    C5 7705   4.280   0.739  15.165 -0.1064 -0.3379 -0.4975
  515MPD2     H 7706   4.333   0.953  14.861 -1.4629  0.6353 -0.2856
  515MPD2    H1 7707   4.434   0.858  15.258 -3.7628  0.5848  1.8545
  515MPD2    H2 7708   4.143   0.620  15.052 -1.1993 -0.2872  0.3793
  515MPD2    H3 7709   4.270   0.680  15.256  2.1007 -0.5546 -0.4082
  515MPD2     N 7710   4.501   1.018  15.084 -0.4660 -0.2489  0.2457
  515MPD2    H5 7711   4.545   1.007  15.175  2.7919 -1.8158 -1.5399
  515MPD2    N1 7712   4.167   0.783  14.819 -0.1113 -0.0762 -0.4345
  515MPD2    H7 7713   4.196   0.854  14.752  0.4786  1.4095  1.3838
  516TMC3    C1 7714   4.133   0.663  14.621 -0.1289 -0.1958  0.2413
  516TMC3    C2 7715   4.147   0.781  14.560  0.0015  0.4420  0.1832
  516TMC3    C3 7716   4.245   0.794  14.464  0.1876  0.5218  0.4712
  516TMC3    C4 7717   4.214   0.561  14.591 -0.2822 -0.5069 -1.1832
  516TMC3    C5 7718   4.312   0.578  14.494 -0.1771 -0.5958  0.7766
  516TMC3    C6 7719   4.332   0.697  14.433  1.3961  0.3976  0.0663
  516TMC3     C 7720   4.111   0.670  14.766 -0.3721 -0.0495  0.6134
  516TMC3     O 7721   4.087   0.570  14.826 -0.4257  0.2279 -0.0643
  516TMC3     H 7722   4.083   0.865  14.586  0.9379  0.5134  2.2281
  516TMC3    H1 7723   4.192   0.462  14.630 -0.3897 -0.4175 -1.0156
  516TMC3    H2 7724   4.410   0.700  14.359  1.1399  0.3422 -0.2076
  516TMC3    C7 7725   4.404   0.469  14.468 -0.5631  1.0866 -0.0416
  516TMC3    C8 7726   4.247   0.922  14.396 -0.4531 -0.2592  0.4030
  516TMC3    O1 7727   4.523   0.496  14.441 -0.3275  0.4421  0.2350
  516TMC3    O2 7728   4.211   1.014  14.463  0.1149  0.1484 -0.0726
  517MPD2     C 7729   4.240   2.813   0.411  0.6721  0.0649 -0.2511
  517MPD2    C1 7730   4.290   2.869   0.297 -0.2761  1.0940 -0.3456
  517MPD2    C2 7731   4.354   2.988   0.300  0.1415  1.2607  0.0242
  517MPD2    C3 7732   4.378   3.055   0.422 -0.5662  0.2652 -0.0178
  517MPD2    C4 7733   4.328   3.006   0.541 -0.3568  0.4634 -0.0997
  517MPD2    C5 7734   4.263   2.883   0.532  0.1088  0.0841 -0.3252
  517MPD2     H 7735   4.393   3.019   0.204  2.9717  2.9743  1.7079
  517MPD2    H1 7736   4.327   3.062   0.633 -1.2907 -0.4196  0.4290
  517MPD2    H2 7737   4.183   2.721   0.413  0.0665  0.4449 -0.2248
  517MPD2    H3 7738   4.203   2.850   0.615  0.6075 -1.0865 -0.4188
  517MPD2     N 7739   4.418   3.194   0.434  0.1602 -0.0719 -0.0872
  517MPD2    H5 7740   4.412   3.230   0.529 -1.9585  1.3412 -0.7676
  517MPD2    N1 7741   4.292   2.805   0.173  0.3291  0.0774 -0.2578
  517MPD2    H7 7742   4.350   2.849   0.102  0.4351 -1.1448 -0.9369
  518TMC3    C1 7743   4.285   2.631   0.006 -0.5851  0.6709 -0.2331
  518TMC3    C2 7744   4.214   2.530  17.708  0.6417  0.6472  0.4018
  518TMC3    C3 7745   4.223   2.505  17.571  0.1180  0.4747 -0.2373
  518TMC3    C4 7746   4.354   2.722  17.683 -0.2167  1.3687 -0.3121
  518TMC3    C5 7747   4.363   2.689  17.550  0.6687 -0.2549  0.0873
  518TMC3    C6 7748   4.307   2.574  17.496  0.2644  0.0795 -0.0061
  518TMC3     C 7749   4.242   2.680   0.140 -0.0794 -0.0102 -0.4005
  518TMC3     O 7750   4.177   2.602   0.206  0.5367  0.6343 -0.2415
  518TMC3     H 7751   4.168   2.457   0.021 -0.9647  1.5320  0.2437
  518TMC3    H1 7752   4.405   2.812  17.715  1.9264  0.4223 -1.0476
  518TMC3    H2 7753   4.310   2.549  17.391 -2.2855 -2.4006  0.4891
  518TMC3    C7 7754   4.489   2.730  17.486 -0.1996 -0.2516  0.5233
  518TMC3    C8 7755   4.227   2.366  17.536  0.2376  0.3778 -0.4029
  518TMC3    O1 7756   4.536   2.837  17.521  0.3159  0.0108 -0.2347
  518TMC3    O2 7757   4.309   2.294  17.582  0.5161 -0.8098  0.3249
  519MPD2     C 7758   1.436   1.237  14.517 -0.6510  1.1058 -0.4993
  519MPD2    C1 7759   1.391   1.217  14.385  0.1700  0.0612  0.1389
  519MPD2    C2 7760   1.456   1.118  14.312 -0.3285  0.2533  0.3698
  519MPD2    C3 7761   1.554   1.033  14.365  0.3948 -0.3694 -0.4694
  519MPD2    C4 7762   1.595   1.060  14.490  0.0904 -0.4811 -0.3990
  519MPD2    C5 7763   1.529   1.153  14.567 -0.4876 -0.2892 -0.2519
  519MPD2     H 7764   1.434   1.104  14.207  0.3357  0.9077  0.1463
  519MPD2    H1 7765   1.678   1.005  14.534  2.3028  2.0809 -1.3653
  519MPD2    H2 7766   1.403   1.316  14.583 -0.3658  1.6483 -1.0041
  519MPD2    H3 7767   1.550   1.171  14.672  0.6362  0.3639 -0.5901
  519MPD2     N 7768   1.611   0.925  14.294  0.3240 -0.3248 -0.5921
  519MPD2    H5 7769   1.700   0.894  14.330  1.7896  0.7393 -3.3046
  519MPD2    N1 7770   1.294   1.302  14.328 -0.1988  0.4180  0.2184
  519MPD2    H7 7771   1.250   1.368  14.393 -2.1915  1.1796 -1.8971
  520TMC3    C1 7772   1.614   0.740  14.143  0.1438  0.0063 -0.1415
  520TMC3    C2 7773   1.538   0.641  14.102 -0.4676  0.2712 -0.4092
  520TMC3    C3 7774   1.590   0.510  14.096  0.1572  0.4918 -0.8216
  520TMC3    C4 7775   1.743   0.733  14.165  0.0444 -0.6830  0.7192
  520TMC3    C5 7776   1.798   0.612  14.152 -0.1042 -0.3552  0.0930
  520TMC3    C6 7777   1.730   0.495  14.119 -0.1084  0.1367  0.2131
  520TMC3     C 7778   1.550   0.865  14.188  1.1934 -0.7612  0.1098
  520TMC3     O 7779   1.431   0.875  14.163 -0.2426 -0.2857  0.1653
  520TMC3     H 7780   1.433   0.669  14.101 -0.5262  0.1042  0.6213
  520TMC3    H1 7781   1.795   0.818  14.208  0.6387 -0.6704 -0.0158
  520TMC3    H2 7782   1.779   0.399  14.111  1.0159  0.8667 -1.8120
  520TMC3    C7 7783   1.943   0.583  14.169  0.0584 -0.1251  0.1647
  520TMC3    C8 7784   1.528   0.408  14.010 -0.7599  0.9395 -0.0084
  520TMC3    O1 7785   1.980   0.464  14.183 -0.1832 -0.3429  0.0085
  520TMC3    O2 7786   1.592   0.316  13.967  0.0209 -0.8242 -0.4260
  521MPD2     C 7787   2.088   4.028  17.484 -0.1152 -0.0610 -0.5133
  521MPD2    C1 7788   2.079   3.936  17.379  0.5751 -0.7812  1.0739
  521MPD2    C2 7789   2.191   3.918  17.300  0.3592 -0.2983 -0.4626
  521MPD2    C3 7790   2.314   3.972  17.336  0.3327  0.2502  0.0590
  521MPD2    C4 7791   2.323   4.065  17.440  0.7426  0.1910  0.0669
  521MPD2    C5 7792   2.209   4.087  17.514 -0.0632 -0.3338  0.1919
  521MPD2     H 7793   2.171   3.872  17.204  1.4837 -1.0944 -0.3064
  521MPD2    H1 7794   2.406   4.131  17.463  2.7552 -1.9787 -0.9235
  521MPD2    H2 7795   1.998   4.040  17.543  0.2361 -0.1542  0.0424
  521MPD2    H3 7796   2.210   4.158  17.596 -0.3069 -0.0891 -0.0135
  521MPD2     N 7797   2.423   3.941  17.252 -0.1221 -0.2661 -0.0854
  521MPD2    H5 7798   2.400   3.884  17.171  2.5560  0.1823 -1.1695
  521MPD2    N1 7799   1.951   3.879  17.350 -0.2925  0.8738 -0.3246
  521MPD2    H7 7800   1.886   3.918  17.418 -0.8941 -0.6254 -0.0357
  522TMC3    C1 7801   2.639   3.954  17.175 -0.4506 -0.9454 -0.1751
  522TMC3    C2 7802   2.753   3.900  17.223  0.3483  0.2293 -0.2448
  522TMC3    C3 7803   2.847   3.859  17.136 -0.1211  0.3110 -0.3923
  522TMC3    C4 7804   2.604   3.951  17.040 -0.0827  0.6797  0.2486
  522TMC3    C5 7805   2.708   3.914  16.952  0.3423 -0.4812  0.1093
  522TMC3    C6 7806   2.824   3.870  16.999  0.0623 -0.1099  0.1550
  522TMC3     C 7807   2.548   3.985  17.278  0.1554  0.0091 -0.0267
  522TMC3     O 7808   2.595   4.015  17.386  0.1662  0.2872 -0.4147
  522TMC3     H 7809   2.772   3.891  17.329 -0.0533  0.3571 -0.1630
  522TMC3    H1 7810   2.507   3.988  17.010 -1.2439 -3.3520 -0.9971
  522TMC3    H2 7811   2.900   3.846  16.926 -0.0083  1.0614 -0.3043
  522TMC3    C7 7812   2.692   3.931  16.807  0.6571 -0.1784 -0.1477
  522TMC3    C8 7813   2.961   3.776  17.186 -0.1975 -0.5137  0.2956
  522TMC3    O1 7814   2.781   3.881  16.743  0.2147  0.2996 -0.3057
  522TMC3    O2 7815   2.983   3.777  17.309 -0.0982  1.0491 -0.0838
  523MPD2     C 7816   0.460   3.785  10.183 -0.6933  0.4473  0.9103
  523MPD2    C1 7817   0.382   3.671  10.150  0.1780 -0.6814  0.0311
  523MPD2    C2 7818   0.282   3.688  10.061  0.0945  0.2162  0.3545
  523MPD2    C3 7819   0.259   3.814  10.005  0.3214  0.1877 -0.3016
  523MPD2    C4 7820   0.322   3.927  10.052  0.2687  0.2664  1.0424
  523MPD2    C5 7821   0.422   3.910  10.142  0.1063 -0.1558 -0.3448
  523MPD2     H 7822   0.218   3.603  10.039  1.6061 -0.3192 -1.9048
  523MPD2    H1 7823   0.280   4.025  10.029  0.0394 -0.2591 -0.7832
  523MPD2    H2 7824   0.536   3.772  10.258 -2.0452  2.3299  2.6058
  523MPD2    H3 7825   0.475   3.990  10.191 -0.3492 -0.9393  1.4512
  523MPD2     N 7826   0.162   3.838   9.912  0.0519  0.3599  0.3427
  523MPD2    H5 7827   0.130   3.932   9.892 -0.5275  0.1388  0.2357
  523MPD2    N1 7828   0.392   3.557  10.226  0.3546  0.3635 -0.4297
  523MPD2    H7 7829   0.468   3.555  10.293 -0.2068  5.9783  0.3220
  524TMC3    C1 7830   4.711   3.811   9.797  0.0353 -0.1253 -0.2109
  524TMC3    C2 7831   4.638   3.726   9.717  0.3656 -0.0848 -0.0179
  524TMC3    C3 7832   4.546   3.786   9.634 -0.0697 -0.1075 -0.0429
  524TMC3    C4 7833   4.687   3.944   9.800 -0.3249  0.1259  0.0241
  524TMC3    C5 7834   4.594   4.000   9.712  0.9990  0.1972  0.1731
  524TMC3    C6 7835   4.519   3.918   9.627 -0.2279 -0.5730  0.1211
  524TMC3     C 7836   0.076   3.749   9.865 -0.3687 -0.3104 -0.3648
  524TMC3     O 7837   0.070   3.629   9.862  0.0537  0.1545  0.3265
  524TMC3     H 7838   4.672   3.625   9.696  1.4062  0.0105  1.2116
  524TMC3    H1 7839   4.735   4.009   9.871 -0.1159 -1.8237  1.6633
  524TMC3    H2 7840   4.457   3.949   9.544 -0.5928 -2.4621 -0.3202
  524TMC3    C7 7841   4.575   4.141   9.711 -0.1901  0.5718  0.0297
  524TMC3    C8 7842   4.499   3.705   9.520  0.6521 -0.3568  0.5925
  524TMC3    O1 7843   4.642   4.221   9.778  0.5313  0.0216  0.1996
  524TMC3    O2 7844   4.447   3.758   9.418 -0.2641 -0.3371 -0.0137
  525MPD2     C 7845   2.858   0.800  14.675 -0.4488  0.4046 -0.3882
  525MPD2    C1 7846   2.979   0.821  14.741  0.0383  0.4701 -0.2589
  525MPD2    C2 7847   3.062   0.924  14.708  0.3952  0.3803 -0.3747
  525MPD2    C3 7848   3.016   1.023  14.622  0.9108  0.1358 -0.2694
  525MPD2    C4 7849   2.897   1.011  14.561 -0.5463  0.5949  0.0379
  525MPD2    C5 7850   2.822   0.897  14.587  0.3015 -0.1662 -0.1636
  525MPD2     H 7851   3.155   0.939  14.762  0.3799  1.6938 -0.6988
  525MPD2    H1 7852   2.852   1.078  14.488  0.6638  1.2884 -0.0579
  525MPD2    H2 7853   2.784   0.724  14.697  2.0761 -1.8317  0.3585
  525MPD2    H3 7854   2.740   0.872  14.519 -0.3160 -0.1750  0.5868
  525MPD2     N 7855   3.086   1.139  14.590  0.5663 -0.3259 -0.2630
  525MPD2    H5 7856   3.033   1.216  14.549  1.6062  0.1122 -0.7785
  525MPD2    N1 7857   3.019   0.727  14.839 -0.5719 -0.3115  0.4863
  525MPD2    H7 7858   3.119   0.720  14.858 -0.4697 -0.7332 -0.1877
  526TMC3    C1 7859   3.018   0.559  15.003  1.0451  0.0950 -0.2821
  526TMC3    C2 7860   2.949   0.493  15.099  0.3223  0.2225  0.1759
  526TMC3    C3 7861   2.998   0.376  15.160  0.3974 -0.3367 -0.3904
  526TMC3    C4 7862   3.143   0.515  14.969  0.5616 -0.5374  0.0533
  526TMC3    C5 7863   3.185   0.399  15.021 -0.5816 -0.1037 -0.3378
  526TMC3    C6 7864   3.116   0.328  15.116 -0.0676  0.3899  0.4794
  526TMC3     C 7865   2.936   0.647  14.912 -0.4617 -0.3256 -0.8948
  526TMC3     O 7866   2.814   0.645  14.925  0.6545  0.0192  0.0550
  526TMC3     H 7867   2.852   0.536  15.122 -0.8465 -1.1037 -2.2086
  526TMC3    H1 7868   3.199   0.567  14.892  0.4739  2.5657  2.1148
  526TMC3    H2 7869   3.153   0.232  15.151  0.8182 -0.0047 -1.5418
  526TMC3    C7 7870   3.321   0.359  15.003  0.0018 -1.1364  0.2949
  526TMC3    C8 7871   2.977   0.367  15.304 -0.5740  0.2070 -0.7623
  526TMC3    O1 7872   3.371   0.307  15.105 -0.4580 -0.9560 -0.0438
  526TMC3    O2 7873   3.069   0.313  15.364  0.8076  0.2352  0.2745
  527MPD2     C 7874   0.906   3.927   1.273 -0.0936  0.0348 -0.0834
  527MPD2    C1 7875   0.828   3.851   1.187 -0.4222  0.3775 -0.4395
  527MPD2    C2 7876   0.893   3.775   1.087  0.7690 -0.7922  0.7277
  527MPD2    C3 7877   1.028   3.767   1.084 -0.2668  0.1178 -0.1268
  527MPD2    C4 7878   1.098   3.850   1.166  0.2450 -0.1286 -0.0596
  527MPD2    C5 7879   1.043   3.929   1.261  0.0534  1.0066 -0.0825
  527MPD2     H 7880   0.832   3.728   1.011  2.0137 -0.4476 -0.4709
  527MPD2    H1 7881   1.203   3.838   1.188  0.2936 -1.9265 -1.3129
  527MPD2    H2 7882   0.866   3.984   1.356 -0.4049  0.2553 -0.3840
  527MPD2    H3 7883   1.093   3.990   1.335  0.1016 -1.4167  1.8944
  527MPD2     N 7884   1.090   3.665   1.003 -0.1567 -0.4009 -0.5793
  527MPD2    H5 7885   1.025   3.606   0.952  0.1829 -2.4794  1.4071
  527MPD2    N1 7886   0.684   3.856   1.196  0.2067 -0.7251  0.4107
  527MPD2    H7 7887   0.631   3.830   1.114 -0.2786 -0.0339  0.5105
  528TMC3    C1 7888   0.463   3.883   1.284 -0.5266 -0.1965 -0.1034
  528TMC3    C2 7889   0.421   3.812   1.172  0.0851 -0.3247  0.4281
  528TMC3    C3 7890   0.291   3.784   1.169  0.9796 -0.6644  1.0437
  528TMC3    C4 7891   0.376   3.928   1.379 -0.2647  0.7051  0.2604
  528TMC3    C5 7892   0.241   3.905   1.358  0.1934  0.8276 -0.1759
  528TMC3    C6 7893   0.197   3.823   1.260 -0.5641  0.3463 -0.5708
  528TMC3     C 7894   0.609   3.907   1.297  0.7028  0.5944  0.4982
  528TMC3     O 7895   0.644   3.970   1.395  0.2680  0.1023 -0.5148
  528TMC3     H 7896   0.488   3.768   1.099 -1.2803 -2.1239  0.2749
  528TMC3    H1 7897   0.425   3.984   1.459  0.8231 -1.1055  0.8488
  528TMC3    H2 7898   0.091   3.807   1.243 -0.6632  2.3119 -1.8131
  528TMC3    C7 7899   0.141   3.990   1.423  0.0202 -0.8366 -1.1165
  528TMC3    C8 7900   0.252   3.714   1.043  0.4533  0.2952  0.1943
  528TMC3    O1 7901   0.031   3.993   1.374 -0.0001 -0.1443  0.4624
  528TMC3    O2 7902   0.313   3.736   0.943  0.1971 -0.1735  0.2981
  529MPD2     C 7903   3.084   2.319   1.709  0.7776 -0.2474  0.8226
  529MPD2    C1 7904   3.114   2.215   1.621  0.5209 -0.5441 -0.1295
  529MPD2    C2 7905   3.047   2.200   1.503  0.2377  0.9632 -0.2339
  529MPD2    C3 7906   2.954   2.291   1.461 -0.1809  0.0992  0.0749
  529MPD2    C4 7907   2.937   2.405   1.547 -0.0755 -0.0823  0.0774
  529MPD2    C5 7908   3.006   2.420   1.664  0.1637 -0.0851  0.2303
  529MPD2     H 7909   3.079   2.113   1.446  0.8171  0.2020  1.2583
  529MPD2    H1 7910   2.877   2.491   1.519  0.8224  0.2024 -0.9642
  529MPD2    H2 7911   3.126   2.331   1.808  0.5925 -1.0367  0.9938
  529MPD2    H3 7912   2.992   2.505   1.730  1.7341 -0.7222  1.3712
  529MPD2     N 7913   2.890   2.294   1.335 -0.1388  0.5959 -0.0744
  529MPD2    H5 7914   2.850   2.384   1.310 -0.6637  0.4724  0.3221
  529MPD2    N1 7915   3.199   2.105   1.649  0.0325  0.0063 -0.4608
  529MPD2    H7 7916   3.219   2.036   1.578  0.0385 -0.4394 -0.0293
  530TMC3    C1 7917   3.353   1.965   1.758  0.6138  0.2769  0.7189
  530TMC3    C2 7918   3.457   1.954   1.842 -0.1192  0.4406 -0.2743
  530TMC3    C3 7919   3.530   1.839   1.841 -0.1120  0.6317  0.2947
  530TMC3    C4 7920   3.304   1.857   1.690  0.4802  0.1212  0.1590
  530TMC3    C5 7921   3.375   1.743   1.702  0.2036  0.6115 -0.1588
  530TMC3    C6 7922   3.490   1.726   1.776 -0.3014  0.1362  0.1900
  530TMC3     C 7923   3.279   2.093   1.763  0.1857 -0.4208 -0.1970
  530TMC3     O 7924   3.318   2.179   1.841 -0.1617  0.4780  0.2630
  530TMC3     H 7925   3.498   2.040   1.894 -1.8824  0.6072  0.8425
  530TMC3    H1 7926   3.206   1.855   1.645  0.7798 -0.7373 -0.4423
  530TMC3    H2 7927   3.527   1.628   1.807 -0.3287 -0.5829 -2.0138
  530TMC3    C7 7928   3.319   1.621   1.656 -0.0718  0.4415  0.6177
  530TMC3    C8 7929   3.637   1.831   1.935 -0.3370 -0.2068  0.4296
  530TMC3    O1 7930   3.197   1.619   1.653 -0.0547 -0.2084 -0.5845
  530TMC3    O2 7931   3.630   1.909   2.030 -0.1030  0.3375 -0.5912
  531MPD2     C 7932   1.797   3.681  13.063  0.1339  0.2063 -0.1512
  531MPD2    C1 7933   1.764   3.789  13.143  0.3266  0.1858  0.3845
  531MPD2    C2 7934   1.731   3.906  13.073 -0.0222  0.0160  0.6537
  531MPD2    C3 7935   1.689   3.912  12.942  0.7868  0.0560 -0.3595
  531MPD2    C4 7936   1.702   3.796  12.871  0.6644 -0.6102 -0.1458
  531MPD2    C5 7937   1.761   3.686  12.930  0.9201  0.3170 -0.0869
  531MPD2     H 7938   1.725   4.003  13.120 -1.4784 -0.3294  1.1558
  531MPD2    H1 7939   1.693   3.805  12.763 -2.5413 -0.7075  0.1288
  531MPD2    H2 7940   1.851   3.596  13.103  0.7514  1.2519  1.2728
  531MPD2    H3 7941   1.785   3.606  12.861  1.9465  1.4499 -1.0204
  531MPD2     N 7942   1.626   4.028  12.894 -0.1179 -0.3951 -0.1759
  531MPD2    H5 7943   1.635   4.109  12.955 -0.0879  0.3213 -1.1205
  531MPD2    N1 7944   1.803   3.793  13.279 -0.2489 -0.5823 -0.0583
  531MPD2    H7 7945   1.847   3.715  13.328  0.2660 -1.4565 -1.8935
  532TMC3    C1 7946   1.788   3.878  13.498  0.1823  0.2045 -0.1550
  532TMC3    C2 7947   1.699   3.953  13.574 -0.4618 -0.2441  0.2572
  532TMC3    C3 7948   1.744   4.034  13.677 -0.0554  0.7576 -0.9744
  532TMC3    C4 7949   1.926   3.881  13.518 -0.1513 -0.5316 -0.2797
  532TMC3    C5 7950   1.968   3.980  13.605 -0.0662 -0.1079 -0.3045
  532TMC3    C6 7951   1.883   4.050  13.687  0.1312  0.1886  0.5480
  532TMC3     C 7952   1.750   3.890  13.361 -0.4705  0.1192  0.1005
  532TMC3     O 7953   1.677   3.984  13.337 -0.4201  0.1643  0.1494
  532TMC3     H 7954   1.592   3.937  13.566 -0.7162  1.3487  0.4775
  532TMC3    H1 7955   2.003   3.850  13.449  0.3903  0.3738 -0.0743
  532TMC3    H2 7956   1.932   4.128  13.744  1.5683 -1.7525  1.9745
  532TMC3    C7 7957   2.104   3.970  13.644 -0.0029  0.3109  0.5321
  532TMC3    C8 7958   1.676   4.158  13.669 -0.3070  0.7080 -0.4017
  532TMC3    O1 7959   2.151   4.075  13.686 -0.0801  0.1908 -0.0482
  532TMC3    O2 7960   1.693   4.236  13.767 -0.0134  0.5565  0.4894
  533TMC3    C1 7961   3.255   1.296  14.596  0.1170  0.1265 -0.2397
  533TMC3    C2 7962   3.388   1.321  14.563 -0.1453 -0.8847  0.1713
  533TMC3    C3 7963   3.429   1.453  14.571 -0.0876 -0.0501  0.1076
  533TMC3    C4 7964   3.177   1.398  14.651  1.1829 -0.0820 -0.3956
  533TMC3    C5 7965   3.226   1.528  14.667  0.1721  0.4724 -0.3222
  533TMC3    C6 7966   3.352   1.553  14.629  0.5437  0.0548  0.2016
  533TMC3     C 7967   3.223   1.155  14.608  0.3960  0.2432 -0.7370
  533TMC3     O 7968   3.307   1.071  14.644 -0.0930  0.0328  0.2109
  533TMC3     H 7969   3.453   1.240  14.533 -1.5140 -1.9787  0.1157
  533TMC3    H1 7970   3.077   1.373  14.683  0.7095  1.4235 -0.6875
  533TMC3    H2 7971   3.396   1.647  14.658 -0.0826  0.3193  0.2904
  533TMC3    C7 7972   3.216   1.562  14.806  0.2506 -0.1843  0.4225
  533TMC3    C8 7973   3.564   1.492  14.551  0.1006  0.3918 -0.3339
  533TMC3    O1 7974   3.306   1.532  14.874  0.0216 -0.0714  0.1427
  533TMC3    O2 7975   3.579   1.606  14.506  0.0858 -0.7415 -0.3332
  534MPD2     C 7976   1.017   2.083   0.984 -0.4180  0.3004 -0.3430
  534MPD2    C1 7977   0.968   2.205   0.934 -0.6975  0.8658 -0.1655
  534MPD2    C2 7978   0.834   2.209   0.913 -0.4268  0.0942  0.2087
  534MPD2    C3 7979   0.746   2.111   0.944  0.1450  0.8042  0.2661
  534MPD2    C4 7980   0.795   2.000   0.999  0.0627  0.1044 -0.0906
  534MPD2    C5 7981   0.926   1.985   1.011  0.2128 -1.1812 -0.0279
  534MPD2     H 7982   0.803   2.294   0.852  0.8161 -0.2480 -0.8956
  534MPD2    H1 7983   0.727   1.919   1.022 -2.4179  1.7931 -1.5023
  534MPD2    H2 7984   1.118   2.053   1.009 -0.3210  1.3465  0.5019
  534MPD2    H3 7985   0.963   1.884   1.021 -0.6107 -1.5589 -0.7848
  534MPD2     N 7986   0.611   2.120   0.924  0.0790 -0.3669 -0.4404
  534MPD2    H5 7987   0.557   2.038   0.949 -0.0677  0.4374  1.9328
  534MPD2    N1 7988   1.055   2.312   0.913  0.2005 -0.5152 -0.0134
  534MPD2    H7 7989   1.004   2.399   0.896  0.0198 -0.2699  1.7745
  535TMC3    C1 7990   0.407   2.221   0.865 -1.1155  0.0968 -0.6640
  535TMC3    C2 7991   0.355   2.224   0.988  0.1881 -0.3894 -0.2312
  535TMC3    C3 7992   0.227   2.271   1.002 -0.1522  0.2343 -0.4404
  535TMC3    C4 7993   0.344   2.271   0.759  0.3989 -0.7353  0.5039
  535TMC3    C5 7994   0.218   2.316   0.776  0.5832 -0.2151 -0.5938
  535TMC3    C6 7995   0.159   2.329   0.902 -0.0370  0.2925  0.1530
  535TMC3     C 7996   0.551   2.226   0.861  0.3852  0.2381 -0.4472
  535TMC3     O 7997   0.599   2.310   0.789 -0.3125 -0.1120  0.3658
  535TMC3     H 7998   0.415   2.187   1.070 -2.8131 -0.1045  2.1065
  535TMC3    H1 7999   0.393   2.279   0.663 -0.8692 -1.3637 -0.1952
  535TMC3    H2 8000   0.051   2.338   0.908 -0.1191 -0.1449 -0.5907
  535TMC3    C7 8001   0.154   2.374   0.650  0.1366  0.4224  0.0883
  535TMC3    C8 8002   0.157   2.261   1.127  0.7004 -0.0286 -0.3607
  535TMC3    O1 8003   0.186   2.326   0.542  0.7109  0.0623  0.6410
  535TMC3    O2 8004   0.036   2.292   1.125 -0.0926  0.1245  0.0378
  536MPD2     C 8005   4.460   0.349  16.456  0.8531  1.0656  0.5320
  536MPD2    C1 8006   4.336   0.285  16.445 -0.1616  0.6387  0.7304
  536MPD2    C2 8007   4.245   0.339  16.354  0.1932  0.2106  0.6480
  536MPD2    C3 8008   4.281   0.438  16.270  0.3755  0.2152  0.3296
  536MPD2    C4 8009   4.413   0.484  16.262 -0.7490  0.8742  0.0958
  536MPD2    C5 8010   4.496   0.441  16.363  0.5518  0.1510 -0.1010
  536MPD2     H 8011   4.143   0.303  16.350 -0.2660  1.9142 -2.3908
  536MPD2    H1 8012   4.446   0.567  16.200  0.8463  1.8935  2.2899
  536MPD2    H2 8013   4.537   0.333  16.531 -0.1019  2.1152  1.7363
  536MPD2    H3 8014   4.595   0.485  16.355 -0.2135  1.5233 -1.9405
  536MPD2     N 8015   4.195   0.498  16.169  0.1637  0.0743 -0.3002
  536MPD2    H5 8016   4.229   0.571  16.107 -2.2969 -0.4608 -2.2708
  536MPD2    N1 8017   4.296   0.187  16.543  0.2419 -0.1808  0.0279
  536MPD2    H7 8018   4.369   0.173  16.612 -1.4856 -1.5712  1.6006
  537TMC3    C1 8019   4.165   0.071  16.702 -0.2067 -0.1181 -0.2413
  537TMC3    C2 8020   4.189   0.175  16.788  0.6295  0.2679  0.1765
  537TMC3    C3 8021   4.092   0.202  16.885  0.2369 -0.1434  0.0989
  537TMC3    C4 8022   4.043   4.738  16.707  0.2730  0.5179  0.0354
  537TMC3    C5 8023   3.960   0.025  16.810 -0.3429  0.3620  0.3505
  537TMC3    C6 8024   3.976   0.128  16.893  0.1607 -0.3752  0.2962
  537TMC3     C 8025   4.179   0.118  16.562 -0.3781 -0.2202  0.2932
  537TMC3     O 8026   4.091   0.091  16.484 -0.3819 -0.4050  0.4315
  537TMC3     H 8027   4.285   0.225  16.782  1.1922 -0.7945  0.1729
  537TMC3    H1 8028   4.014   4.657  16.642  1.3683 -0.5897  0.9192
  537TMC3    H2 8029   3.914   0.149  16.980  1.7989  2.4378  0.7997
  537TMC3    C7 8030   3.845   4.676  16.813  0.3070 -0.5335 -0.4192
  537TMC3    C8 8031   4.106   0.321  16.966  0.2644 -0.0962  0.5323
  537TMC3    O1 8032   3.741   4.733  16.792  0.3926  0.2993 -0.1586
  537TMC3    O2 8033   4.218   0.344  17.008 -0.2621 -0.1112  0.2528
  538TMC3    C1 8034   0.983   3.205  11.189  0.3178  0.6937  0.6033
  538TMC3    C2 8035   1.122   3.201  11.155 -0.4286  0.7124 -0.0492
  538TMC3    C3 8036   1.154   3.272  11.044 -0.4273  0.0657  0.0431
  538TMC3    C4 8037   0.890   3.281  11.121  0.5008  0.3992  0.1126
  538TMC3    C5 8038   0.931   3.343  11.006  0.1764 -0.6482 -0.4491
  538TMC3    C6 8039   1.060   3.342  10.966  0.4743 -0.2192 -0.6978
  538TMC3     C 8040   0.950   3.164  11.323 -0.0488  0.3866 -0.4088
  538TMC3     O 8041   1.043   3.110  11.381 -0.3152  0.5968 -0.2366
  538TMC3     H 8042   1.189   3.155  11.226  0.6799 -0.2485 -1.7372
  538TMC3    H1 8043   0.783   3.278  11.142  0.7697 -0.5313  1.3405
  538TMC3    H2 8044   1.096   3.383  10.872 -0.4059  0.9248 -0.5291
  538TMC3    C7 8045   0.823   3.400  10.921  0.5781 -0.9615  0.1080
  538TMC3    C8 8046   1.295   3.250  10.998  0.1861  0.5377 -0.6024
  538TMC3    O1 8047   0.713   3.357  10.945 -0.1888 -0.4790  0.1638
  538TMC3    O2 8048   1.351   3.151  11.033 -0.1164 -0.2420  0.9497
  539MPD2     C 8049   1.139   2.714  11.376  0.1360  0.6117 -0.7873
  539MPD2    C1 8050   1.076   2.619  11.453 -0.3781 -0.0994  0.2393
  539MPD2    C2 8051   0.942   2.621  11.471 -0.0563  0.1179 -0.8903
  539MPD2    C3 8052   0.869   2.726  11.413 -0.0355  0.1539  0.0464
  539MPD2    C4 8053   0.932   2.817  11.329 -0.2023 -0.2850 -0.1570
  539MPD2    C5 8054   1.064   2.811  11.316  0.0548 -0.3627 -0.4972
  539MPD2     H 8055   0.887   2.551  11.533 -0.3943  1.5499  0.4249
  539MPD2    H1 8056   0.886   2.899  11.275 -2.8699 -2.6380 -1.4246
  539MPD2    H2 8057   1.246   2.718  11.360  0.0655  0.3807 -1.3283
  539MPD2    H3 8058   1.107   2.885  11.250 -0.0679 -1.5131 -1.8752
  539MPD2     N 8059   0.729   2.738  11.420 -0.6715  0.5133  0.3913
  539MPD2    H5 8060   0.685   2.800  11.352 -0.5014  2.2654  1.9003
  539MPD2    N1 8061   1.155   2.508  11.497  0.7959  0.8939 -0.2831
  539MPD2    H7 8062   1.107   2.421  11.518  1.3549 -0.1162 -3.2372
  540TMC3    C1 8063   0.519   2.712  11.517  0.4193  0.3730  0.3816
  540TMC3    C2 8064   0.464   2.706  11.393  1.0692  0.0328 -0.3490
  540TMC3    C3 8065   0.325   2.724  11.383  0.0947  0.1915 -0.4868
  540TMC3    C4 8066   0.449   2.748  11.630  0.0212 -0.3893 -0.6320
  540TMC3    C5 8067   0.315   2.763  11.618 -0.1067 -0.3004  0.1759
  540TMC3    C6 8068   0.254   2.753  11.497  0.1735  0.1854 -0.7403
  540TMC3     C 8069   0.657   2.683  11.525 -0.4858  0.4915  0.1500
  540TMC3     O 8070   0.698   2.636  11.627  0.7168 -0.1879 -0.8209
  540TMC3     H 8071   0.530   2.680  11.311  0.2295  0.0472 -1.0270
  540TMC3    H1 8072   0.504   2.743  11.723 -0.8938  1.8152  0.0365
  540TMC3    H2 8073   0.149   2.772  11.478 -0.0540  1.6011  1.8595
  540TMC3    C7 8074   0.234   2.788  11.728 -0.0924  0.3478  0.2551
  540TMC3    C8 8075   0.249   2.685  11.265 -0.6484 -0.1149 -0.1698
  540TMC3    O1 8076   0.120   2.826  11.699 -0.5805  0.3951  0.1836
  540TMC3    O2 8077   0.129   2.664  11.281 -0.4062 -0.6329  0.4658
  541MPD2     C 8078   3.372   4.609  13.155  0.6043 -0.5131 -0.2358
  541MPD2    C1 8079   3.390   4.493  13.087  0.3253  0.1850  0.7650
  541MPD2    C2 8080   3.442   4.495  12.954  0.1924  0.5125 -0.2086
  541MPD2    C3 8081   3.473   4.618  12.890  0.2074  0.0373 -0.5406
  541MPD2    C4 8082   3.462   4.734  12.967  0.5541 -0.2052 -0.2728
  541MPD2    C5 8083   3.413   4.729  13.095  0.3794 -0.7513  0.9465
  541MPD2     H 8084   3.433   4.406  12.893  0.0962  0.6822 -0.4424
  541MPD2    H1 8085   3.493   0.094  12.935 -0.8897  0.6730  1.0706
  541MPD2    H2 8086   3.327   4.624  13.252  1.4329  0.8469 -0.0523
  541MPD2    H3 8087   3.418   0.077  13.160  1.2480  0.5369 -0.8084
  541MPD2     N 8088   3.519   4.614  12.758  0.2467  0.4032 -0.0454
  541MPD2    H5 8089   3.523   4.524  12.711 -0.1223 -1.2260  3.0794
  541MPD2    N1 8090   3.359   4.371  13.136 -0.0523 -0.2218  0.3123
  541MPD2    H7 8091   3.393   4.291  13.084 -1.4100  0.3929 -1.5111
  542TMC3    C1 8092   3.561   4.696  12.542  0.3379 -0.1925 -0.1103
  542TMC3    C2 8093   3.640   4.590  12.519 -0.5053  0.3527 -0.3057
  542TMC3    C3 8094   3.683   4.571  12.391 -0.8034 -0.1441  0.5164
  542TMC3    C4 8095   3.535   0.059  12.449 -0.0362  0.2512  0.1468
  542TMC3    C5 8096   3.584   0.029  12.321  0.1409  0.0093  0.7863
  542TMC3    C6 8097   3.664   4.663  12.295 -0.1708  0.1223  0.9706
  542TMC3     C 8098   3.539   4.727  12.685  1.0458  0.1279  0.4900
  542TMC3     O 8099   3.551   0.103  12.724  0.1524  0.5674 -0.0897
  542TMC3     H 8100   3.668   4.508  12.584 -1.2277 -0.3052 -0.8291
  542TMC3    H1 8101   3.483   0.151  12.474 -1.6684 -0.2153 -1.4543
  542TMC3    H2 8102   3.697   4.653  12.193 -0.9673 -1.7176  0.8893
  542TMC3    C7 8103   3.566   0.130  12.214 -0.3109 -0.2078  0.0123
  542TMC3    C8 8104   3.802   4.489  12.376  0.1991 -0.0476 -0.2344
  542TMC3    O1 8105   3.609   0.105  12.101  0.0365 -0.2783 -0.5873
  542TMC3    O2 8106   3.892   4.510  12.454  0.2536  0.0571  0.7673
  543TMC3    C1 8107   2.689   0.649  17.591 -0.3632 -0.0657  0.3494
  543TMC3    C2 8108   2.727   0.572  17.699 -0.4268  0.7212  0.3038
  543TMC3    C3 8109   2.677   0.598   0.068 -0.1667  0.3470  0.2953
  543TMC3    C4 8110   2.617   0.766  17.606 -0.6081 -0.5286 -0.3701
  543TMC3    C5 8111   2.568   0.783  17.735  0.2259 -0.9264 -0.7953
  543TMC3    C6 8112   2.595   0.703   0.090 -0.8310  0.2447 -0.2161
  543TMC3     C 8113   2.770   0.631  17.478 -0.4171  0.2063  0.7518
  543TMC3     O 8114   2.790   0.515  17.439 -0.2769  0.2976  0.0614
  543TMC3     H 8115   2.786   0.483  17.679 -0.5501  0.6489  0.2636
  543TMC3    H1 8116   2.586   0.821  17.518 -1.5891 -0.3269  0.0959
  543TMC3    H2 8117   2.545   0.714   0.185  1.9301  0.3493  1.2373
  543TMC3    C7 8118   2.475   0.889  17.752 -0.1686  0.2244  0.0184
  543TMC3    C8 8119   2.689   0.493   0.162 -0.7861 -0.3499 -0.1712
  543TMC3    O1 8120   2.404   0.888   0.098  0.1863 -0.3319 -0.4184
  543TMC3    O2 8121   2.739   0.387   0.125 -0.5740  0.0141  0.3142
  544MPD2     C 8122   2.627   0.271   0.614 -0.5336  0.2490 -0.0504
  544MPD2    C1 8123   2.663   0.212   0.488 -0.6272 -0.9757 -0.0235
  544MPD2    C2 8124   2.673   0.298   0.380 -0.3787  0.6715  0.6595
  544MPD2    C3 8125   2.654   0.431   0.401 -0.3100  0.2861 -0.1598
  544MPD2    C4 8126   2.623   0.483   0.526  0.5887 -0.4826  0.6802
  544MPD2    C5 8127   2.622   0.404   0.634  0.3507 -0.1255 -0.6802
  544MPD2     H 8128   2.697   0.249   0.286 -0.7608 -0.0151  0.9231
  544MPD2    H1 8129   2.618   0.591   0.530  0.2786 -0.3963 -1.6633
  544MPD2    H2 8130   2.605   0.216   0.705 -0.3018  0.8786  0.3820
  544MPD2    H3 8131   2.602   0.442   0.734 -0.1580  2.1735 -1.6657
  544MPD2     N 8132   2.655   0.526   0.291 -0.2376 -0.7112  0.3084
  544MPD2    H5 8133   2.633   0.623   0.310  1.6923 -0.0785 -0.7116
  544MPD2    N1 8134   2.652   0.079   0.446 -0.1527 -0.5196 -0.0419
  544MPD2    H7 8135   2.666   0.054   0.349 -3.2181  2.3922 -1.2210
  545TMC3    C1 8136   2.591   4.593   0.456  0.0854  0.2044  0.4508
  545TMC3    C2 8137   2.671   4.481   0.472 -0.7560 -0.0408 -0.3367
  545TMC3    C3 8138   2.638   4.379   0.386 -0.0317  0.1293 -0.0479
  545TMC3    C4 8139   2.505   4.611   0.355  0.2357  0.5596 -0.2021
  545TMC3    C5 8140   2.460   4.498   0.293 -0.7769  0.5285 -0.1596
  545TMC3    C6 8141   2.531   4.377   0.302  0.2671 -0.0392  0.5086
  545TMC3     C 8142   2.618   4.712   0.531  0.0671  0.1769 -0.1995
  545TMC3     O 8143   2.598   4.712   0.656 -0.5516 -0.1815  0.5526
  545TMC3     H 8144   2.752   4.489   0.543  0.2623 -1.9018 -1.3005
  545TMC3    H1 8145   2.453   4.706   0.356  1.3198  1.1740 -2.4593
  545TMC3    H2 8146   2.492   4.286   0.259  0.5481  1.2511 -2.4805
  545TMC3    C7 8147   2.316   4.496   0.255 -0.1506  0.7387 -0.1822
  545TMC3    C8 8148   2.734   4.278   0.373 -0.9646  0.0614 -0.8156
  545TMC3    O1 8149   2.257   4.602   0.245  0.1510 -0.4358 -0.0868
  545TMC3    O2 8150   2.843   4.304   0.419 -0.4487  0.3672 -0.3748
  546MPD2     C 8151   4.256   1.025   0.116 -0.5113 -0.0818  0.1547
  546MPD2    C1 8152   4.213   0.992  17.739  0.3852  0.1613  0.0015
  546MPD2    C2 8153   4.219   1.089  17.647 -0.5671 -0.7056 -0.2154
  546MPD2    C3 8154   4.263   1.213  17.674 -0.3824 -0.1192 -0.0433
  546MPD2    C4 8155   4.283   1.248   0.054 -0.0365  0.4961  0.1268
  546MPD2    C5 8156   4.286   1.149   0.149  0.0830 -0.9279  0.5712
  546MPD2     H 8157   4.204   1.060  17.544  0.1144  0.0806 -0.5359
  546MPD2    H1 8158   4.313   1.347   0.088 -0.3066 -0.0424  1.9351
  546MPD2    H2 8159   4.256   0.952   0.195 -1.4713 -0.0476  0.1788
  546MPD2    H3 8160   4.311   1.179   0.250  0.4560 -0.3973  0.3214
  546MPD2     N 8161   4.274   1.320  17.582 -0.0584 -0.3285  0.1756
  546MPD2    H5 8162   4.304   1.410  17.618 -0.9902  0.8836 -2.0931
  546MPD2    N1 8163   4.156   0.861  17.727 -0.5786  0.1004 -0.0568
  546MPD2    H7 8164   4.156   0.797   0.053  0.9365  0.6328  0.3683
  547TMC3    C1 8165   4.033   0.683  17.627 -0.3754  0.2490  0.4940
  547TMC3    C2 8166   3.974   0.631  17.517  0.5917 -0.1301 -0.4566
  547TMC3    C3 8167   3.941   0.503  17.521  0.5406  0.2976 -0.1203
  547TMC3    C4 8168   4.029   0.613  17.742 -0.1826  0.2630  0.5784
  547TMC3    C5 8169   3.984   0.485  17.744 -0.2324 -0.5263  0.2745
  547TMC3    C6 8170   3.954   0.418  17.632  0.3510 -0.8964  0.0447
  547TMC3     C 8171   4.090   0.817  17.618 -0.2803 -0.0083  0.1986
  547TMC3     O 8172   4.074   0.872  17.506 -0.2849 -0.2361 -0.2631
  547TMC3     H 8173   3.964   0.683  17.422  1.5081 -0.0563 -0.5161
  547TMC3    H1 8174   4.052   0.656   0.087 -0.0781 -1.1473  1.1717
  547TMC3    H2 8175   3.898   0.325  17.633  2.5711 -2.2049  1.1320
  547TMC3    C7 8176   3.969   0.416   0.118 -0.6376  0.1638 -0.2269
  547TMC3    C8 8177   3.854   0.454  17.416 -0.2682 -0.1022  0.3184
  547TMC3    O1 8178   3.985   0.487   0.218  0.0421 -0.5999  0.0969
  547TMC3    O2 8179   3.769   0.529  17.371 -0.1091 -0.6258  0.1453
  548MPD2     C 8180   0.047   1.310  13.066  0.5000 -0.7931 -0.3950
  548MPD2    C1 8181   4.721   1.220  12.986  0.7646  0.1297 -0.4308
  548MPD2    C2 8182   0.036   1.189  12.864  0.0886 -0.4663  0.0391
  548MPD2    C3 8183   0.138   1.265  12.810 -0.3793 -0.0019 -0.1696
  548MPD2    C4 8184   0.195   1.362  12.885  0.5902  0.1472  0.1626
  548MPD2    C5 8185   0.149   1.392  13.012  0.2301  0.8332 -0.0146
  548MPD2     H 8186   4.727   1.122  12.793 -3.1225  0.7470  1.0552
  548MPD2    H1 8187   0.273   1.422  12.840  1.5589  0.1719  1.8636
  548MPD2    H2 8188   0.009   1.334  13.164 -0.1710 -1.3725 -0.5098
  548MPD2    H3 8189   0.192   1.470  13.074  0.6544 -0.8164  1.7365
  548MPD2     N 8190   0.179   1.239  12.683 -0.3945 -0.4679  0.3405
  548MPD2    H5 8191   0.143   1.152  12.645 -0.0867 -0.1891 -0.6051
  548MPD2    N1 8192   4.598   1.157  13.028 -0.0391 -0.6357 -0.6384
  548MPD2    H7 8193   4.555   1.196  13.111 -0.5565  0.6712 -1.5104
  549TMC3    C1 8194   4.388   1.078  12.948 -0.1484  0.8471  0.3103
  549TMC3    C2 8195   4.339   1.205  12.950  0.1945 -0.1824  0.4522
  549TMC3    C3 8196   4.208   1.217  12.929  0.2832  0.3721  0.0772
  549TMC3    C4 8197   4.316   0.969  12.913  0.3342 -0.1362  0.1391
  549TMC3    C5 8198   4.180   0.982  12.894  0.2605 -0.7638 -0.6506
  549TMC3    C6 8199   4.124   1.107  12.903  0.2785 -1.0345  0.0986
  549TMC3     C 8200   4.533   1.063  12.949  0.2567  0.1895  0.8792
  549TMC3     O 8201   4.584   0.967  12.891  0.3108 -0.0741  0.3547
  549TMC3     H 8202   4.400   1.291  12.976  1.6872 -0.7673 -1.1858
  549TMC3    H1 8203   4.372   0.876  12.901  0.6604 -0.0013  0.6283
  549TMC3    H2 8204   4.020   1.133  12.886  1.7554  2.1627 -3.9991
  549TMC3    C7 8205   4.089   0.878  12.930  0.5792 -0.0719 -0.8172
  549TMC3    C8 8206   4.153   1.339  12.891  0.1711  0.0100 -0.0907
  549TMC3    O1 8207   3.977   0.900  12.962 -0.7796  0.3046 -0.6605
  549TMC3    O2 8208   4.028   1.344  12.901  0.0622 -0.0752  0.4246
  550TMC3    C1 8209   2.534   3.777  12.945 -0.4253  0.0188  0.4708
  550TMC3    C2 8210   2.549   3.878  13.037  0.1769 -0.7313  0.3803
  550TMC3    C3 8211   2.497   4.004  13.010 -0.2400  0.3099 -0.4194
  550TMC3    C4 8212   2.476   3.797  12.823  0.1773 -0.0548  0.4580
  550TMC3    C5 8213   2.423   3.914  12.801 -0.6555  0.3112 -0.0035
  550TMC3    C6 8214   2.430   4.020  12.888 -0.7804  0.0614 -0.3234
  550TMC3     C 8215   2.652   3.690  12.940  0.1905  0.0848 -0.3592
  550TMC3     O 8216   2.693   3.655  13.050 -0.0463  0.3685 -0.1317
  550TMC3     H 8217   2.615   3.866  13.121  0.6628 -0.1797  0.0735
  550TMC3    H1 8218   2.465   3.714  12.754 -1.1517 -0.7660  1.5244
  550TMC3    H2 8219   2.390   4.115  12.853  0.5103  0.9167  0.5457
  550TMC3    C7 8220   2.386   3.941  12.662  0.4100  0.2812 -0.0749
  550TMC3    C8 8221   2.556   4.122  13.076  0.0897 -0.4182  0.0820
  550TMC3    O1 8222   2.306   4.034  12.656  0.2093  0.2016 -0.0072
  550TMC3    O2 8223   2.574   4.213  12.997  0.1312  0.5239  0.0513
  551TMC3    C1 8224   0.466   2.048  13.621 -0.2299  0.4438 -0.1302
  551TMC3    C2 8225   0.586   2.082  13.554  0.2352  1.2205 -0.2456
  551TMC3    C3 8226   0.706   2.061  13.621 -0.1713 -0.3951  0.4483
  551TMC3    C4 8227   0.466   2.009  13.749  0.3520 -1.1624 -0.5491
  551TMC3    C5 8228   0.590   1.998  13.813 -0.1101 -0.6496 -0.2179
  551TMC3    C6 8229   0.707   2.005  13.750 -0.1418 -0.8393 -0.3504
  551TMC3     C 8230   0.342   2.049  13.536  0.1647 -0.4793 -0.0520
  551TMC3     O 8231   0.354   2.107  13.426 -0.0755  0.3665 -0.2113
  551TMC3     H 8232   0.571   2.119  13.453 -2.1030  1.3021  0.1390
  551TMC3    H1 8233   0.372   1.987  13.798  0.1703  1.4363  0.2223
  551TMC3    H2 8234   0.792   2.002  13.817  0.1398 -1.1421 -0.7241
  551TMC3    C7 8235   0.581   2.015  13.956  0.4077  1.3201  1.1690
  551TMC3    C8 8236   0.818   2.051  13.535 -0.3788  0.0996  0.4392
  551TMC3    O1 8237   0.650   1.945  14.027  0.2569  0.3450  0.1466
  551TMC3    O2 8238   0.874   1.944  13.527 -0.6816 -0.3628 -0.7541
  552MPD2     C 8239   2.167   3.853  14.033 -0.7592 -0.1883 -0.1548
  552MPD2    C1 8240   2.220   3.750  14.117 -0.0529 -0.7544 -0.1754
  552MPD2    C2 8241   2.322   3.779  14.202 -0.2672 -0.6075 -0.6250
  552MPD2    C3 8242   2.389   3.898  14.183 -0.7320 -0.2160  0.1587
  552MPD2    C4 8243   2.351   3.988  14.088 -0.2613 -0.1390  0.5788
  552MPD2    C5 8244   2.245   3.968  14.011  0.0796 -0.4221 -0.1504
  552MPD2     H 8245   2.347   3.698  14.270 -0.5899 -0.6854 -0.5969
  552MPD2    H1 8246   2.397   4.085  14.078 -2.1249  1.0695  3.5767
  552MPD2    H2 8247   2.071   3.836  13.986  0.1610  2.8453 -3.1409
  552MPD2    H3 8248   2.220   4.047  13.942  1.0074  0.8474  0.9604
  552MPD2     N 8249   2.489   3.930  14.264  0.0269  0.7248  0.0608
  552MPD2    H5 8250   2.533   4.015  14.229  1.1006  0.5886  1.0758
  552MPD2    N1 8251   2.160   3.619  14.137  1.0399 -0.2344  0.3908
  552MPD2    H7 8252   2.206   3.552  14.197 -0.1314 -0.4396  1.0745
  553TMC3    C1 8253   2.001   3.450  14.123  0.1078  0.0884 -0.3177
  553TMC3    C2 8254   1.955   3.372  14.024 -0.0109 -0.0163 -0.5350
  553TMC3    C3 8255   1.980   3.234  14.029  0.2164  0.6218 -0.4614
  553TMC3    C4 8256   2.085   3.409  14.222 -0.1341  0.1061  1.0305
  553TMC3    C5 8257   2.110   3.276  14.227 -0.7554 -0.5696  0.2138
  553TMC3    C6 8258   2.053   3.191  14.137  0.1783  0.1388 -0.0171
  553TMC3     C 8259   2.041   3.581  14.082  0.5816  0.7604 -0.1718
  553TMC3     O 8260   1.989   3.624  13.981  0.1784 -0.2177 -0.5742
  553TMC3     H 8261   1.904   3.422  13.942  0.1016  1.1491  0.1170
  553TMC3    H1 8262   2.118   3.473  14.303  0.6259  0.0886  0.7337
  553TMC3    H2 8263   2.101   3.094  14.148 -1.7043 -0.8802 -0.9212
  553TMC3    C7 8264   2.216   3.220  14.311 -0.3601  0.5439 -0.4843
  553TMC3    C8 8265   2.040   3.198  13.899  0.0461  0.0823 -0.6644
  553TMC3    O1 8266   2.176   3.127  14.383 -0.0592  0.1882 -0.5194
  553TMC3    O2 8267   2.159   3.205  13.893 -0.3831  0.8658 -0.6394
  554TMC3    C1 8268   4.252   3.156  11.675  0.1821 -0.2166  0.2401
  554TMC3    C2 8269   4.143   3.154  11.597  0.1992  0.3233  0.3560
  554TMC3    C3 8270   4.160   3.105  11.473  0.2137 -0.6795  0.0484
  554TMC3    C4 8271   4.376   3.156  11.615 -0.4124 -0.4601 -0.2660
  554TMC3    C5 8272   4.391   3.131  11.481 -0.7237  0.0960  0.0265
  554TMC3    C6 8273   4.278   3.098  11.409 -0.0875  0.1489  0.3454
  554TMC3     C 8274   4.258   3.107  11.813  0.1293 -1.3526  0.4435
  554TMC3     O 8275   4.153   3.128  11.873  0.0707  0.0453 -0.5151
  554TMC3     H 8276   4.041   3.154  11.632 -0.5099 -0.5783 -1.7220
  554TMC3    H1 8277   4.468   3.185  11.666  0.9127 -1.3079 -2.1679
  554TMC3    H2 8278   4.283   3.067  11.305 -1.1367  1.6691 -0.1613
  554TMC3    C7 8279   4.500   3.193  11.404  0.8940  0.3235 -0.1472
  554TMC3    C8 8280   4.039   3.087  11.396 -0.0935  0.2645  0.5884
  554TMC3    O1 8281   4.467   3.220  11.289 -0.0417  0.2490 -0.2876
  554TMC3    O2 8282   3.984   3.193  11.383  0.0675 -0.0898  0.0966
  555TMC3    C1 8283   3.510   2.918  15.316 -0.0855 -0.2350 -0.0538
  555TMC3    C2 8284   3.578   2.954  15.432  0.6945  0.3755  0.0996
  555TMC3    C3 8285   3.587   2.857  15.528  0.0826 -0.2450 -0.0861
  555TMC3    C4 8286   3.471   2.787  15.295  0.7610  0.1975  0.0727
  555TMC3    C5 8287   3.488   2.695  15.396  0.0377 -0.2718 -0.0859
  555TMC3    C6 8288   3.552   2.726  15.510 -0.4147 -0.3563  0.4991
  555TMC3     C 8289   3.455   3.028  15.239 -0.1193 -0.0887  0.8167
  555TMC3     O 8290   3.528   3.126  15.242  0.0974  0.0512 -0.7418
  555TMC3     H 8291   3.616   3.051  15.462  0.4678  0.5809 -0.2846
  555TMC3    H1 8292   3.420   2.761  15.203  2.2295  2.3717 -1.3446
  555TMC3    H2 8293   3.546   2.659  15.594  0.5696 -0.4276  0.5115
  555TMC3    C7 8294   3.492   2.551  15.380 -0.3132 -0.2172  0.3415
  555TMC3    C8 8295   3.703   2.877  15.613  0.4013 -0.4614  0.1055
  555TMC3    O1 8296   3.486   2.480  15.481 -0.4953 -0.6074 -0.1503
  555TMC3    O2 8297   3.787   2.955  15.567  0.0903  0.3400  0.3410
  556MPD2     C 8298   1.759   4.312  10.967  0.5035  0.7823  0.1753
  556MPD2    C1 8299   1.790   4.186  11.008 -0.6159  0.2103  0.1448
  556MPD2    C2 8300   1.810   4.096  10.906 -0.1254  0.4893  0.1650
  556MPD2    C3 8301   1.817   4.130  10.772 -0.9805  0.5198  0.2921
  556MPD2    C4 8302   1.797   4.261  10.743  0.1549  0.3128 -0.0523
  556MPD2    C5 8303   1.763   4.347  10.835  0.2334 -0.0736 -0.1341
  556MPD2     H 8304   1.808   3.990  10.930 -1.5170  0.6005  0.5751
  556MPD2    H1 8305   1.798   4.275  10.636 -0.7010  1.2915  0.0692
  556MPD2    H2 8306   1.723   4.385  11.038 -1.8295 -1.0013  0.8633
  556MPD2    H3 8307   1.746   4.448  10.798 -1.5508 -0.2361  0.2574
  556MPD2     N 8308   1.854   4.023  10.676 -0.5805  0.5455 -0.2052
  556MPD2    H5 8309   1.861   3.931  10.719  0.1028  0.9100  0.4571
  556MPD2    N1 8310   1.797   4.141  11.142  0.5457 -0.1606 -0.5652
  556MPD2    H7 8311   1.813   4.041  11.158  0.5547  0.2409  1.9427
  557TMC3    C1 8312   1.812   3.919  10.474 -0.3707  0.4265 -0.2625
  557TMC3    C2 8313   1.769   3.950  10.348  0.1966 -0.1684  0.6649
  557TMC3    C3 8314   1.652   3.886  10.302 -0.2259 -0.0372  0.0084
  557TMC3    C4 8315   1.767   3.811  10.544 -1.0219  0.4215  1.0768
  557TMC3    C5 8316   1.666   3.746  10.491 -0.5602 -0.6288  0.1294
  557TMC3    C6 8317   1.598   3.784  10.380  0.0978  0.1949 -0.1094
  557TMC3     C 8318   1.863   4.038  10.543 -0.6349 -0.0068 -0.2578
  557TMC3     O 8319   1.875   4.140  10.475  0.4005 -0.1339  0.1015
  557TMC3     H 8320   1.816   4.027  10.288  1.2514 -0.9372  0.4975
  557TMC3    H1 8321   1.792   3.792  10.647 -0.4056 -0.8557  0.6857
  557TMC3    H2 8322   1.503   3.734  10.370 -0.2002  0.0454  3.2301
  557TMC3    C7 8323   1.601   3.663  10.592  0.0698 -0.3145  0.4066
  557TMC3    C8 8324   1.594   3.921  10.174  0.7020 -0.0376  0.1047
  557TMC3    O1 8325   1.478   3.659  10.584  0.0952  0.2836 -0.0932
  557TMC3    O2 8326   1.646   4.019  10.117  0.1978 -0.1187  0.1655
  558TMC3    C1 8327   3.977   1.823  10.267 -0.0805  0.0088 -0.2065
  558TMC3    C2 8328   3.881   1.734  10.300  0.0801  0.5481 -0.4799
  558TMC3    C3 8329   3.770   1.726  10.223  0.1339 -0.3878 -0.9658
  558TMC3    C4 8330   3.957   1.917  10.165 -0.0028 -0.7542  0.1643
  558TMC3    C5 8331   3.839   1.908  10.098 -1.0123 -0.5561  0.0502
  558TMC3    C6 8332   3.753   1.809  10.123  0.5745  0.4703 -1.1379
  558TMC3     C 8333   4.073   1.840  10.375 -0.1722  0.2804  0.1142
  558TMC3     O 8334   4.115   1.736  10.423  0.4089 -0.0404  1.0026
  558TMC3     H 8335   3.902   1.655  10.371 -2.1259 -1.2251 -1.7995
  558TMC3    H1 8336   4.026   2.000  10.159 -1.6251  0.7069  1.5511
  558TMC3    H2 8337   3.649   1.816  10.092  0.4617  1.5894 -0.5207
  558TMC3    C7 8338   3.837   1.979   9.971  1.0911 -0.3650 -0.6185
  558TMC3    C8 8339   3.653   1.678  10.288  0.1130  0.2302 -0.5170
  558TMC3    O1 8340   3.947   2.018   9.937  0.4768 -0.5130  0.4447
  558TMC3    O2 8341   3.553   1.651  10.221 -0.1830 -0.1722 -0.3022
  559MPD2     C 8342   4.179   2.644  10.645 -0.1892  0.3454 -0.1923
  559MPD2    C1 8343   4.106   2.544  10.704  0.1938  0.7258  0.7528
  559MPD2    C2 8344   4.157   2.481  10.824  0.2401  0.0649  0.4796
  559MPD2    C3 8345   4.287   2.510  10.858 -0.8872 -0.2743 -0.1803
  559MPD2    C4 8346   4.358   2.621  10.800 -0.6927  0.2398 -0.3017
  559MPD2    C5 8347   4.300   2.685  10.697 -0.1495 -0.7752 -1.0034
  559MPD2     H 8348   4.095   2.404  10.868  0.6191  0.5258  1.8143
  559MPD2    H1 8349   4.457   2.647  10.837 -1.2344  0.3939  1.0451
  559MPD2    H2 8350   4.138   2.697  10.560 -0.3583  2.4708  1.2147
  559MPD2    H3 8351   4.345   2.768  10.643 -1.8974 -0.2126 -1.6006
  559MPD2     N 8352   4.349   2.414  10.942 -0.0825 -0.0995 -0.5190
  559MPD2    H5 8353   4.286   2.343  10.977 -1.5950  0.6783 -1.6521
  559MPD2    N1 8354   3.989   2.498  10.640  0.0903 -0.3106  0.1201
  559MPD2    H7 8355   3.966   2.554  10.559 -0.1497  0.8144  0.9773
  560TMC3    C1 8356   4.508   2.313  11.088  0.5117  0.8826  0.2158
  560TMC3    C2 8357   4.434   2.202  11.102 -0.6911 -0.5631  0.6351
  560TMC3    C3 8358   4.461   2.119  11.214  0.1532 -0.5079 -0.3651
  560TMC3    C4 8359   4.627   2.320  11.153 -0.3500  0.7845 -0.4981
  560TMC3    C5 8360   4.669   2.231  11.240 -0.4413 -0.0833  1.6253
  560TMC3    C6 8361   4.583   2.127  11.279  0.0387 -0.0264  0.0869
  560TMC3     C 8362   4.484   2.409  10.979 -0.4644  0.1858  0.0228
  560TMC3     O 8363   4.566   2.491  10.942 -0.0689 -0.0259  0.1019
  560TMC3     H 8364   4.349   2.185  11.036  0.6528 -2.4069 -0.6517
  560TMC3    H1 8365   4.691   2.406  11.135  0.7906  0.1652  0.6026
  560TMC3    H2 8366   4.605   2.049  11.350  0.4132 -0.3295 -0.3580
  560TMC3    C7 8367   0.046   2.254  11.323 -0.2393 -0.4607 -0.5362
  560TMC3    C8 8368   4.366   2.014  11.242 -0.1190 -0.7100  0.4479
  560TMC3    O1 8369   0.031   2.227  11.442 -0.0896  0.1114 -0.3737
  560TMC3    O2 8370   4.304   1.979  11.142 -0.0118 -0.0613  0.1191
  561TMC3    C1 8371   2.350   1.499  11.576 -0.4866 -0.2311  0.0259
  561TMC3    C2 8372   2.241   1.429  11.623 -0.2001 -0.0198 -0.3276
  561TMC3    C3 8373   2.135   1.500  11.668 -0.0221  0.5061 -0.0159
  561TMC3    C4 8374   2.343   1.639  11.561  0.0492  0.3427  0.4464
  561TMC3    C5 8375   2.229   1.706  11.583  0.1354  0.7981  0.3768
  561TMC3    C6 8376   2.129   1.638  11.649  0.2993 -0.5990  0.5226
  561TMC3     C 8377   2.477   1.433  11.610 -0.7653 -0.5150 -0.6689
  561TMC3     O 8378   2.479   1.309  11.611 -0.1738  0.2170  0.4704
  561TMC3     H 8379   2.248   1.327  11.660 -0.4633 -0.3525 -1.1861
  561TMC3    H1 8380   2.419   1.683  11.498 -1.1477 -0.3757 -1.5416
  561TMC3    H2 8381   2.037   1.690  11.671  1.6628  1.6760  0.8325
  561TMC3    C7 8382   2.201   1.838  11.553 -0.0247 -0.0355 -0.8653
  561TMC3    C8 8383   2.041   1.434  11.752  0.4439 -0.0551 -0.0882
  561TMC3    O1 8384   2.118   1.900  11.617 -0.4312  0.0456 -0.4308
  561TMC3    O2 8385   2.032   1.312  11.746 -0.5345  0.3948  0.5591
  562TMC3    C1 8386   2.969   2.930  16.444 -0.3743 -1.3244 -0.4630
  562TMC3    C2 8387   2.919   3.028  16.367  0.5057  0.2290  0.9649
  562TMC3    C3 8388   2.921   3.004  16.229 -0.6641  0.0107 -0.0670
  562TMC3    C4 8389   3.006   2.809  16.406  0.3411  0.4633 -0.4798
  562TMC3    C5 8390   2.993   2.782  16.275  0.2594  0.7804 -0.0265
  562TMC3    C6 8391   2.951   2.877  16.185  0.4607 -0.0301 -0.7010
  562TMC3     C 8392   2.982   2.961  16.581 -0.8682  0.4372 -0.2872
  562TMC3     O 8393   3.071   2.907  16.644  0.3600 -0.1618  0.0827
  562TMC3     H 8394   2.896   3.129  16.399  1.3596  0.6045  0.4041
  562TMC3    H1 8395   3.047   2.737  16.476  2.5439  0.2302 -2.0306
  562TMC3    H2 8396   2.934   2.846  16.083 -0.8483  2.0392 -1.1116
  562TMC3    C7 8397   3.091   2.687  16.217  0.0197 -0.1917 -0.6899
  562TMC3    C8 8398   2.856   3.092  16.134 -0.2071 -1.0619 -0.8629
  562TMC3    O1 8399   3.145   2.722  16.114  0.1590  0.4514 -0.2888
  562TMC3    O2 8400   2.782   3.174  16.190 -0.2874  0.1827  0.2689
  563MPD2     C 8401   0.322   4.199  15.602  0.1813 -0.1340  0.1054
  563MPD2    C1 8402   0.373   4.243  15.724 -0.2345  0.0434  0.7296
  563MPD2    C2 8403   0.510   4.234  15.752  0.2608 -0.1424 -0.2862
  563MPD2    C3 8404   0.594   4.157  15.664  0.5706 -0.5134 -0.6545
  563MPD2    C4 8405   0.541   4.099  15.553  0.5410  0.4927 -0.5046
  563MPD2    C5 8406   0.407   4.124  15.522  0.1562 -0.9378  0.0765
  563MPD2     H 8407   0.555   4.276  15.842  0.7267  1.0924 -1.0949
  563MPD2    H1 8408   0.594   4.042  15.477 -1.9071 -4.1692  1.3031
  563MPD2    H2 8409   0.217   4.208  15.580  0.1813 -2.2357 -0.7257
  563MPD2    H3 8410   0.362   4.054  15.453  1.2294 -0.0076 -1.5947
  563MPD2     N 8411   0.733   4.140  15.696  0.1508  0.4538  0.1509
  563MPD2    H5 8412   0.764   4.173  15.787 -2.2863 -1.6593  1.7325
  563MPD2    N1 8413   0.282   4.305  15.813 -0.4989  0.0210 -0.5497
  563MPD2    H7 8414   0.186   4.274  15.803 -0.7203  1.5298 -3.2147
  564TMC3    C1 8415   0.240   4.326  16.034  0.2381  0.1189  0.8358
  564TMC3    C2 8416   0.119   4.270  16.011  0.0341 -0.5799  0.4564
  564TMC3    C3 8417   0.083   4.181  16.101 -0.8413  1.1591  0.0815
  564TMC3    C4 8418   0.318   4.304  16.146 -0.1537  0.0196 -0.3126
  564TMC3    C5 8419   0.272   4.219  16.243 -0.4637  0.7849  0.1606
  564TMC3    C6 8420   0.151   4.160  16.219 -0.7720 -1.2200 -0.0469
  564TMC3     C 8421   0.316   4.370  15.925  0.9275 -0.2904  0.3106
  564TMC3     O 8422   0.418   4.425  15.949  0.8894 -0.2048 -0.0099
  564TMC3     H 8423   0.048   4.308  15.938  1.0898 -0.6941 -0.6236
  564TMC3    H1 8424   0.414   4.352  16.162 -0.8967  1.8952 -1.4364
  564TMC3    H2 8425   0.123   4.086  16.293 -0.6840 -0.4230  0.7876
  564TMC3    C7 8426   0.378   4.125  16.272 -0.3164  0.1284  1.3499
  564TMC3    C8 8427   0.037   4.055  16.044  0.0077 -0.0263  0.9175
  564TMC3    O1 8428   0.477   4.160  16.338  0.1372  0.3559  0.2120
  564TMC3    O2 8429   0.014   3.964  16.124 -0.3261 -0.2059  0.4316
  565TMC3    C1 8430   1.635   1.116   9.911 -0.1377  0.0142  0.2427
  565TMC3    C2 8431   1.670   1.066  10.036 -1.0375  0.3060  0.4434
  565TMC3    C3 8432   1.649   0.929  10.060 -0.3592 -0.3064 -0.3318
  565TMC3    C4 8433   1.567   1.038   9.817 -0.3117  0.0502  0.1923
  565TMC3    C5 8434   1.543   0.906   9.844 -0.8471 -0.1536  0.1796
  565TMC3    C6 8435   1.579   0.853   9.967  0.3835 -0.1447 -0.3874
  565TMC3     C 8436   1.683   1.251   9.869 -0.2141  0.6435  0.4154
  565TMC3     O 8437   1.612   1.306   9.783 -0.3232  0.4667  0.9648
  565TMC3     H 8438   1.723   1.128  10.108 -1.5968  1.1280  0.1427
  565TMC3    H1 8439   1.533   1.088   9.727 -2.8385 -0.4282  0.9102
  565TMC3    H2 8440   1.593   0.747   9.985 -1.3686 -0.1026  1.2763
  565TMC3    C7 8441   1.486   0.822   9.741  0.0540  0.3059  0.0975
  565TMC3    C8 8442   1.680   0.868  10.183 -0.7690 -0.7390 -0.7306
  565TMC3    O1 8443   1.457   0.881   9.638  0.8846  0.3523 -0.5180
  565TMC3    O2 8444   1.617   0.768  10.214  0.0351  0.3122 -0.0687
  566MPD2     C 8445   2.566   2.600  14.329 -0.0803 -0.2663 -0.4232
  566MPD2    C1 8446   2.623   2.618  14.205  0.3983 -0.3838 -0.2098
  566MPD2    C2 8447   2.590   2.538  14.094  0.0203 -0.2024 -0.4098
  566MPD2    C3 8448   2.508   2.430  14.117 -0.3392  0.0294  0.3710
  566MPD2    C4 8449   2.466   2.405  14.249 -0.3625  0.0721  0.2730
  566MPD2    C5 8450   2.490   2.490  14.352  0.8992  0.9046  0.4475
  566MPD2     H 8451   2.639   2.564  14.002 -0.7917 -0.4842 -0.9193
  566MPD2    H1 8452   2.407   2.318  14.274 -0.6242 -0.0780 -0.8841
  566MPD2    H2 8453   2.579   2.669  14.412 -0.0757 -0.5928 -0.1501
  566MPD2    H3 8454   2.438   2.463  14.443 -0.9668 -1.7262 -1.3915
  566MPD2     N 8455   2.476   2.328  14.025  0.5282 -0.1355 -0.2780
  566MPD2    H5 8456   2.453   2.235  14.056  1.5701 -0.2712  0.0895
  566MPD2    N1 8457   2.718   2.719  14.200 -0.5949 -0.0897  0.2699
  566MPD2    H7 8458   2.728   2.769  14.288 -1.7187 -0.4118  0.5881
  567TMC3    C1 8459   2.889   2.857  14.126  0.0005 -0.0707 -0.0315
  567TMC3    C2 8460   2.935   2.907  14.004 -0.1859 -0.6524 -1.3401
  567TMC3    C3 8461   3.069   2.909  13.988 -0.0131 -0.1126  0.0233
  567TMC3    C4 8462   2.981   2.817  14.225 -0.6656  0.7456  0.0332
  567TMC3    C5 8463   3.111   2.838  14.204  0.6393  0.3068  0.5471
  567TMC3    C6 8464   3.156   2.879  14.084 -0.6342 -0.4358  0.5024
  567TMC3     C 8465   2.808   2.746  14.095  0.1892 -0.3114 -0.0571
  567TMC3     O 8466   2.818   2.691  13.987 -0.2802 -0.0034 -0.2786
  567TMC3     H 8467   2.864   2.904  13.922 -2.0709  1.4482  0.2040
  567TMC3    H1 8468   2.935   2.790  14.319 -0.5822  1.8963  0.3970
  567TMC3    H2 8469   3.258   2.915  14.092 -0.9702  1.1842 -2.8649
  567TMC3    C7 8470   3.193   2.857  14.321  0.6698  0.4468  0.3719
  567TMC3    C8 8471   3.112   2.881  13.849 -0.1565  0.2476 -0.2463
  567TMC3    O1 8472   3.305   2.907  14.319  0.2561 -0.0289 -0.6388
  567TMC3    O2 8473   3.031   2.904  13.758 -0.6417  0.3000 -0.5104
  568MPD2     C 8474   0.323   2.589  16.148 -0.0199  0.1619  0.6224
  568MPD2    C1 8475   0.270   2.656  16.253 -0.0725 -0.3794  0.6780
  568MPD2    C2 8476   0.248   2.795  16.232  0.1380 -0.2518  0.8852
  568MPD2    C3 8477   0.288   2.865  16.119  0.0622  1.1059 -0.2062
  568MPD2    C4 8478   0.334   2.785  16.011  0.7954 -0.1364 -0.2929
  568MPD2    C5 8479   0.345   2.651  16.025 -0.5825 -0.7933  0.1576
  568MPD2     H 8480   0.200   2.845  16.315 -1.0249  0.5893 -0.2896
  568MPD2    H1 8481   0.365   2.827  15.916  0.3297  0.8320 -0.0167
  568MPD2    H2 8482   0.355   2.486  16.155 -0.9366 -0.1780 -0.2161
  568MPD2    H3 8483   0.395   2.592  15.949  1.4965 -1.2881  1.8949
  568MPD2     N 8484   0.268   3.000  16.113 -0.7529 -0.2089  0.1851
  568MPD2    H5 8485   0.220   3.043  16.191  0.2467  0.7878  0.2570
  568MPD2    N1 8486   0.249   2.584  16.373  0.0183 -0.1126 -0.0597
  568MPD2    H7 8487   0.274   2.486  16.377 -1.1136 -0.3812  0.6281
  569TMC3    C1 8488   0.291   3.223  16.025  0.0988  0.3633 -0.3067
  569TMC3    C2 8489   0.292   3.271  16.157  0.4274  0.0821 -0.4049
  569TMC3    C3 8490   0.331   3.397  16.172  0.3379  0.6219 -0.0305
  569TMC3    C4 8491   0.328   3.302  15.921 -0.0020  0.1051  0.0961
  569TMC3    C5 8492   0.368   3.427  15.948  0.5898  0.1087 -0.1522
  569TMC3    C6 8493   0.374   3.481  16.072  0.1732  0.3988  0.1133
  569TMC3     C 8494   0.308   3.079  16.005 -0.0270  0.3293  0.5508
  569TMC3     O 8495   0.353   3.041  15.898  0.3071 -0.3735  0.4535
  569TMC3     H 8496   0.274   3.203  16.239  2.4962  1.0024  0.8108
  569TMC3    H1 8497   0.331   3.263  15.820 -1.5115 -1.2881  0.5697
  569TMC3    H2 8498   0.418   3.578  16.094  0.9145  0.0660  0.0824
  569TMC3    C7 8499   0.353   3.529  15.848  0.1476  0.7605  0.2279
  569TMC3    C8 8500   0.291   3.472  16.292  0.1035  0.0379 -0.2552
  569TMC3    O1 8501   0.378   3.494  15.735  0.0465 -0.2853 -0.7023
  569TMC3    O2 8502   0.194   3.420  16.345 -0.7243 -0.0972 -0.5498
  570TMC3    C1 8503   4.179   1.626  16.093 -0.4530 -0.2924  0.4115
  570TMC3    C2 8504   4.242   1.571  15.989  0.8564  0.0127 -0.1092
  570TMC3    C3 8505   4.316   1.636  15.902 -0.2052 -0.0722  0.4893
  570TMC3    C4 8506   4.191   1.764  16.115  0.4758  0.5312  0.9881
  570TMC3    C5 8507   4.252   1.835  16.016 -0.4483  0.4320 -0.3529
  570TMC3    C6 8508   4.321   1.774  15.912  0.5008  0.3959 -0.2464
  570TMC3     C 8509   4.095   1.539  16.181 -0.6628 -0.2451  0.0888
  570TMC3     O 8510   4.055   1.440  16.117 -0.3448 -0.6602 -0.3647
  570TMC3     H 8511   4.224   1.465  15.980 -0.0650  0.3332 -1.8733
  570TMC3    H1 8512   4.138   1.813  16.196 -1.0664 -0.0757  0.3467
  570TMC3    H2 8513   4.388   1.839  15.858  0.1468  0.6366 -0.4016
  570TMC3    C7 8514   4.318   1.957  16.066  0.7392 -0.3715 -0.5618
  570TMC3    C8 8515   4.445   1.589  15.898  0.4533 -0.0573 -0.3418
  570TMC3    O1 8516   4.329   1.969  16.188  0.4633  0.3325  0.1574
  570TMC3    O2 8517   4.525   1.666  15.952  0.0991  0.0175  0.2462
  571MPD2     C 8518   2.180   3.411   0.496  0.0782  0.4048 -0.4898
  571MPD2    C1 8519   2.065   3.489   0.499  0.1791  0.1490 -0.2403
  571MPD2    C2 8520   2.068   3.620   0.551  0.7814 -0.4560  1.2464
  571MPD2    C3 8521   2.188   3.673   0.591  0.2661 -0.2612  0.3940
  571MPD2    C4 8522   2.299   3.587   0.608 -0.0644 -0.7992  0.1181
  571MPD2    C5 8523   2.293   3.454   0.559 -0.3034 -0.0680 -0.4772
  571MPD2     H 8524   1.981   3.683   0.538  1.1790 -0.2367 -0.3975
  571MPD2    H1 8525   2.399   3.609   0.643  0.7112 -0.9358 -1.9589
  571MPD2    H2 8526   2.172   3.312   0.454 -0.9988  0.5733 -0.6992
  571MPD2    H3 8527   2.385   3.396   0.567 -2.0994 -2.6464  1.5244
  571MPD2     N 8528   2.217   3.807   0.627 -0.0085 -0.4934  0.1859
  571MPD2    H5 8529   2.307   3.838   0.663 -0.7335  0.6868  0.9933
  571MPD2    N1 8530   1.944   3.436   0.445 -0.3356  0.1378  0.2021
  571MPD2    H7 8531   1.954   3.346   0.400 -2.4491  0.1083 -0.2297
  572TMC3    C1 8532   2.170   4.043   0.627 -0.4806  0.1575  0.3779
  572TMC3    C2 8533   2.257   4.064   0.734  0.2174  0.0391  0.5439
  572TMC3    C3 8534   2.220   4.156   0.829  0.4730  0.1579 -0.3276
  572TMC3    C4 8535   2.075   4.130   0.593 -0.5302  0.0069  0.8120
  572TMC3    C5 8536   2.041   4.219   0.687 -0.3509 -0.0357 -0.6760
  572TMC3    C6 8537   2.111   4.244   0.801  0.5943  0.2191  0.7312
  572TMC3     C 8538   2.123   3.908   0.617 -0.1331  0.8053 -0.3408
  572TMC3     O 8539   2.000   3.897   0.605 -0.5889 -0.6398  0.0247
  572TMC3     H 8540   2.313   3.977   0.765 -1.0989 -1.2968 -0.8634
  572TMC3    H1 8541   2.003   4.109   0.514  0.0882 -1.3272  0.5885
  572TMC3    H2 8542   2.089   4.317   0.878  0.7372  0.6413  0.3757
  572TMC3    C7 8543   1.914   4.281   0.677 -0.9406  0.0492 -0.3647
  572TMC3    C8 8544   2.301   4.154   0.948 -0.2629 -0.2055 -1.3541
  572TMC3    O1 8545   1.879   4.325   0.567 -0.3992  0.5911  0.2938
  572TMC3    O2 8546   2.415   4.112   0.944 -0.0910 -0.0528 -0.1283
  573MPD2     C 8547   2.633   3.544   0.312  0.4822  0.1943  1.0027
  573MPD2    C1 8548   2.567   3.651   0.365  0.7489 -0.1197  0.0651
  573MPD2    C2 8549   2.439   3.681   0.321  0.4583 -0.0220 -0.4969
  573MPD2    C3 8550   2.366   3.587   0.245  0.4721 -0.3083 -0.0067
  573MPD2    C4 8551   2.434   3.473   0.202  0.4734 -0.9718 -0.7403
  573MPD2    C5 8552   2.565   3.456   0.230  0.2958  0.5293  0.2984
  573MPD2     H 8553   2.391   3.767   0.365 -1.0890  0.1666 -2.5819
  573MPD2    H1 8554   2.381   3.396   0.146 -2.9998 -0.1257  1.3525
  573MPD2    H2 8555   2.733   3.512   0.339 -0.5333 -1.6005  2.6523
  573MPD2    H3 8556   2.615   3.366   0.197 -0.8172  0.0648 -0.1012
  573MPD2     N 8557   2.228   3.597   0.214 -0.3231 -0.7312  1.2635
  573MPD2    H5 8558   2.183   3.510   0.190 -0.9967 -0.2071  0.5964
  573MPD2    N1 8559   2.638   3.726   0.457 -0.3866  0.0414  0.3259
  573MPD2    H7 8560   2.733   3.698   0.481 -0.1838  0.3207 -0.1415
  574TMC3    C1 8561   2.015   3.695   0.200  0.3898 -0.0014 -0.0436
  574TMC3    C2 8562   1.938   3.798   0.243  0.4925 -0.6369  0.4368
  574TMC3    C3 8563   1.830   3.840   0.166 -0.2130  0.6811 -0.4841
  574TMC3    C4 8564   1.972   3.619   0.093  0.5483  0.6379 -0.9227
  574TMC3    C5 8565   1.867   3.649   0.023 -0.5070  0.7192  0.0032
  574TMC3    C6 8566   1.793   3.759   0.054  0.1735 -0.4969  0.8841
  574TMC3     C 8567   2.154   3.712   0.238  0.5927 -0.0146  0.2915
  574TMC3     O 8568   2.189   3.825   0.272  0.3493  0.1940  0.0831
  574TMC3     H 8569   1.972   3.855   0.328 -0.3141  0.7118 -0.1372
  574TMC3    H1 8570   2.010   3.523   0.061 -0.7834  0.1884 -1.1722
  574TMC3    H2 8571   1.712   3.791  17.741  0.6602 -3.0613 -0.9448
  574TMC3    C7 8572   1.842   3.546  17.668 -0.1599 -0.3160 -0.1185
  574TMC3    C8 8573   1.819   3.982   0.151  0.1664  0.8443  0.5595
  574TMC3    O1 8574   1.946   3.499  17.621  0.2835 -0.0820  0.1354
  574TMC3    O2 8575   1.712   4.027   0.115 -0.1398 -0.1671  0.2923
  575TMC3    C1 8576   1.605   0.560  11.017  0.2473  0.0281  0.6049
  575TMC3    C2 8577   1.583   0.427  11.019  0.2929  0.1654 -0.2670
  575TMC3    C3 8578   1.576   0.360  10.896  0.1466  0.4455  0.0666
  575TMC3    C4 8579   1.641   0.626  10.909 -0.1213 -0.3818 -0.1105
  575TMC3    C5 8580   1.639   0.562  10.793 -0.1440 -0.3171  0.4388
  575TMC3    C6 8581   1.610   0.425  10.781  0.0195  0.2124  0.1600
  575TMC3     C 8582   1.613   0.621  11.149 -0.1464 -0.1077  0.9730
  575TMC3     O 8583   1.610   0.540  11.243  0.0904  0.2217  0.0599
  575TMC3     H 8584   1.548   0.376  11.109 -0.1430 -1.1231 -1.1689
  575TMC3    H1 8585   1.648   0.734  10.911 -1.0117 -0.3213 -0.1387
  575TMC3    H2 8586   1.617   0.382  10.682  0.4128  0.0360  0.2642
  575TMC3    C7 8587   1.679   0.625  10.670  0.2616 -0.6426 -0.6517
  575TMC3    C8 8588   1.566   0.213  10.904  0.1987 -0.1157 -0.1842
  575TMC3    O1 8589   1.636   0.585  10.563 -0.5426  0.1113 -0.0073
  575TMC3    O2 8590   1.571   0.159  11.015  0.0722 -0.4497 -0.0565
  576MPD2     C 8591   1.326   1.762  13.008  0.2213  0.5818  0.1461
  576MPD2    C1 8592   1.290   1.839  12.900 -0.9451  0.3565 -0.1002
  576MPD2    C2 8593   1.160   1.894  12.897  0.0197  0.3619  0.3955
  576MPD2    C3 8594   1.074   1.877  13.004  0.2767 -0.2933 -0.9764
  576MPD2    C4 8595   1.112   1.794  13.118  0.3523  0.1380 -0.5770
  576MPD2    C5 8596   1.237   1.737  13.112  0.0688 -0.8768 -0.9230
  576MPD2     H 8597   1.120   1.929  12.803  0.8987  2.3651  0.7834
  576MPD2    H1 8598   1.053   1.791  13.209 -0.8215  0.7607 -1.3301
  576MPD2    H2 8599   1.403   1.687  13.000 -0.7591 -0.4334  0.3038
  576MPD2    H3 8600   1.267   1.671  13.193  0.4003  1.2816  0.7217
  576MPD2     N 8601   0.954   1.948  13.000  0.1372  0.6202  0.2181
  576MPD2    H5 8602   0.937   2.004  12.917 -0.6977 -1.4243 -0.9963
  576MPD2    N1 8603   1.375   1.839  12.788 -0.3523  0.2127 -0.1309
  576MPD2    H7 8604   1.347   1.901  12.712  0.3094  0.3963 -0.2183
  577TMC3    C1 8605   1.541   1.791  12.641 -0.0048  0.3584 -0.5522
  577TMC3    C2 8606   1.614   1.687  12.582  0.1695  0.4207  0.0735
  577TMC3    C3 8607   1.678   1.719  12.467  0.1588 -0.1946 -0.1285
  577TMC3    C4 8608   1.533   1.918  12.587  1.1262  0.0579  0.8653
  577TMC3    C5 8609   1.601   1.940  12.472  0.4192 -0.5939  0.3405
  577TMC3    C6 8610   1.677   1.844  12.406  0.1858 -0.0020 -0.3351
  577TMC3     C 8611   1.485   1.764  12.769  0.0521  0.0061 -0.7506
  577TMC3     O 8612   1.540   1.672  12.828 -0.3244 -0.8826 -0.5197
  577TMC3     H 8613   1.624   1.591  12.630  0.7077 -0.0009 -0.8872
  577TMC3    H1 8614   1.484   1.996  12.645  0.1616 -1.5435  2.1949
  577TMC3    H2 8615   1.740   1.872  12.323  1.1619 -0.3687  0.2841
  577TMC3    C7 8616   1.601   2.079  12.422  0.3837  0.4348  0.3309
  577TMC3    C8 8617   1.769   1.613  12.423  0.7973 -0.1137  0.0263
  577TMC3    O1 8618   1.572   2.175  12.494 -0.5708 -0.0880  0.5413
  577TMC3    O2 8619   1.811   1.536  12.510 -0.0035  0.3527  0.4691
  578MPD2     C 8620   3.684   2.246   1.904  0.3563  0.3745  0.0510
  578MPD2    C1 8621   3.691   2.212   1.769 -0.0629 -0.1286 -0.6524
  578MPD2    C2 8622   3.785   2.126   1.731 -0.2672  0.1522  0.0692
  578MPD2    C3 8623   3.887   2.088   1.815 -0.0483 -0.0867 -0.0012
  578MPD2    C4 8624   3.884   2.120   1.952  0.0414 -0.0996  0.3616
  578MPD2    C5 8625   3.773   2.190   1.998 -0.2812  0.3909  0.5459
  578MPD2     H 8626   3.786   2.103   1.625 -2.0578 -1.3725  0.3794
  578MPD2    H1 8627   3.952   2.092   2.032 -1.7612 -3.6697  0.6511
  578MPD2    H2 8628   3.599   2.303   1.939 -0.6356 -0.6580 -0.6591
  578MPD2    H3 8629   3.758   2.212   2.103  0.3098  3.6644 -0.0781
  578MPD2     N 8630   3.987   2.005   1.757 -0.5888  0.2484  0.1307
  578MPD2    H5 8631   3.977   1.975   1.661 -1.8908 -0.4194  0.4748
  578MPD2    N1 8632   3.584   2.261   1.695 -0.0997  1.0904 -0.7729
  578MPD2    H7 8633   3.515   2.326   1.733 -1.9017 -0.9047 -0.6622
  579TMC3    C1 8634   4.207   1.933   1.726  1.1836 -0.1039  0.1795
  579TMC3    C2 8635   4.332   1.993   1.720 -0.1096 -0.1136 -0.0148
  579TMC3    C3 8636   4.418   1.970   1.612  0.2830 -0.1633  0.2739
  579TMC3    C4 8637   4.164   1.854   1.627  0.2424 -0.2996 -0.0253
  579TMC3    C5 8638   4.258   1.831   1.526  0.4611 -0.9807 -0.5440
  579TMC3    C6 8639   4.380   1.884   1.511 -0.3250  0.1319 -0.1857
  579TMC3     C 8640   4.112   1.986   1.814 -0.0643  0.1217 -0.3259
  579TMC3     O 8641   4.153   2.052   1.909  0.6211  0.3870 -0.0220
  579TMC3     H 8642   4.360   2.058   1.802  1.6534 -0.9100  0.0120
  579TMC3    H1 8643   4.076   1.793   1.642  0.0204  0.3460  1.2174
  579TMC3    H2 8644   4.453   1.847   1.440  1.2124 -0.4058  1.6835
  579TMC3    C7 8645   4.224   1.729   1.424 -0.3450 -0.1114 -0.4508
  579TMC3    C8 8646   4.559   2.008   1.630  0.5490 -0.0351  0.4681
  579TMC3    O1 8647   4.325   1.686   1.374  0.6281  0.0561  0.0462
  579TMC3    O2 8648   4.597   2.035   1.743 -0.2001 -0.0161 -0.5797
  580TMC3    C1 8649   4.162   1.080  12.471 -0.3117 -0.3573 -0.7010
  580TMC3    C2 8650   4.289   1.137  12.451  1.0127  0.8276  0.9037
  580TMC3    C3 8651   4.394   1.078  12.511 -0.0992 -0.2083  0.1551
  580TMC3    C4 8652   4.155   0.954  12.530  0.4958 -0.4467 -0.3664
  580TMC3    C5 8653   4.268   0.896  12.578  0.0410  0.2554  0.1548
  580TMC3    C6 8654   4.386   0.962  12.582 -0.7382 -0.3686  0.6958
  580TMC3     C 8655   4.055   1.138  12.390  1.0894 -0.4229  0.9600
  580TMC3     O 8656   4.094   1.231  12.318 -0.2980  0.5640 -0.1157
  580TMC3     H 8657   4.297   1.232  12.400  0.5429  0.0755 -0.5572
  580TMC3    H1 8658   4.066   0.891  12.530  0.4742 -0.4081  0.7192
  580TMC3    H2 8659   4.480   0.915  12.608 -0.1456  0.9736  0.9910
  580TMC3    C7 8660   4.283   0.754  12.587  0.4280  0.7017  0.5169
  580TMC3    C8 8661   4.522   1.126  12.464  0.3995  0.0246  0.0905
  580TMC3    O1 8662   4.355   0.711  12.672 -0.1006  0.1650  0.4388
  580TMC3    O2 8663   4.611   1.147  12.543 -0.1026  0.5595  0.9771
  581MPD2     C 8664   1.992   0.465  14.994  0.2819 -0.1395  0.1907
  581MPD2    C1 8665   1.874   0.482  15.060  0.0356  0.4368 -0.8638
  581MPD2    C2 8666   1.782   0.557  14.994 -0.2162  0.1664 -0.0588
  581MPD2    C3 8667   1.801   0.596  14.865  0.0914  0.0444  0.2680
  581MPD2    C4 8668   1.919   0.569  14.799  0.3667  0.3042  0.5586
  581MPD2    C5 8669   2.015   0.511  14.871  0.2727  1.0447  0.0312
  581MPD2     H 8670   1.684   0.576  15.036 -0.1202 -0.2284  0.3448
  581MPD2    H1 8671   1.933   0.570  14.692 -0.1405 -0.3428  0.4929
  581MPD2    H2 8672   2.083   0.421  15.033  0.7480  1.1947  0.5928
  581MPD2    H3 8673   2.104   0.491  14.813  0.0493 -1.2629  0.4730
  581MPD2     N 8674   1.694   0.667  14.808 -0.4180 -0.5559  0.4345
  581MPD2    H5 8675   1.614   0.690  14.866 -0.9694  0.5965 -0.7822
  581MPD2    N1 8676   1.846   0.424  15.188 -0.3060 -0.5306 -0.0425
  581MPD2    H7 8677   1.927   0.391  15.240 -1.7638  0.1155  2.6307
  582TMC3    C1 8678   1.713   0.322  15.344  0.2236  0.1736  0.3661
  582TMC3    C2 8679   1.718   0.348  15.481  0.0309 -0.5661 -0.1014
  582TMC3    C3 8680   1.610   0.311  15.558  0.0270  0.5999 -0.2349
  582TMC3    C4 8681   1.614   0.239  15.298 -0.0038 -0.0496  0.3359
  582TMC3    C5 8682   1.515   0.197  15.377  0.4486 -0.4117  0.5896
  582TMC3    C6 8683   1.510   0.231  15.508 -0.0865  0.1898 -0.2430
  582TMC3     C 8684   1.725   0.429  15.253  0.4269  0.8790  0.0553
  582TMC3     O 8685   1.619   0.489  15.236 -0.1783 -0.4270 -0.2425
  582TMC3     H 8686   1.794   0.417  15.513 -0.7385  0.0332  0.4367
  582TMC3    H1 8687   1.620   0.212  15.193 -2.1518 -0.4683  0.3072
  582TMC3    H2 8688   1.422   0.213  15.568  0.6804  2.3742  1.5249
  582TMC3    C7 8689   1.389   0.199  15.313  0.3259  0.6529  0.6317
  582TMC3    C8 8690   1.592   0.348  15.695 -0.3012 -0.3117  0.0048
  582TMC3    O1 8691   1.306   0.117  15.349  0.1262 -0.5545 -0.3156
  582TMC3    O2 8692   1.477   0.362  15.730 -0.6322 -0.5099  0.4462
  583MPD2     C 8693   1.522   2.232  16.700  0.6247 -0.4833  0.6037
  583MPD2    C1 8694   1.502   2.331  16.611  0.3674 -0.4049 -0.0371
  583MPD2    C2 8695   1.420   2.440  16.655 -0.5268  0.0836 -0.3375
  583MPD2    C3 8696   1.358   2.450  16.777  0.6413  0.0527  0.4355
  583MPD2    C4 8697   1.384   2.344  16.863 -0.1056  0.1713  0.0763
  583MPD2    C5 8698   1.459   2.233  16.818  0.7061 -0.8999  0.1376
  583MPD2     H 8699   1.422   2.526  16.589  1.6308 -1.2703 -2.0728
  583MPD2    H1 8700   1.334   2.330  16.958  0.0027 -2.0541 -0.1865
  583MPD2    H2 8701   1.564   2.134  16.682 -0.4821 -1.1552  1.6545
  583MPD2    H3 8702   1.465   2.143  16.878  1.2996 -1.4673 -0.7756
  583MPD2     N 8703   1.267   2.559  16.814 -0.4513 -0.3168 -0.2551
  583MPD2    H5 8704   1.239   2.625  16.743  1.0626 -1.1896 -1.6726
  583MPD2    N1 8705   1.574   2.336  16.491  0.4763  0.2450  0.5804
  583MPD2    H7 8706   1.563   2.420  16.436  3.4397 -0.1286 -0.6014
  584TMC3    C1 8707   1.144   2.707  16.965  0.2389  0.7765 -0.4572
  584TMC3    C2 8708   1.171   2.812  16.879 -0.3447 -0.6905  0.1592
  584TMC3    C3 8709   1.108   2.929  16.908 -0.5523 -0.0198 -0.6390
  584TMC3    C4 8710   1.077   2.719  17.088  0.3646 -1.3060  0.1247
  584TMC3    C5 8711   1.010   2.835  17.102  0.1324  0.3444  0.1865
  584TMC3    C6 8712   1.015   2.940  17.010  0.3889  0.1146 -0.2001
  584TMC3     C 8713   1.224   2.579  16.944 -0.0176 -0.9174 -0.3591
  584TMC3     O 8714   1.229   2.505  17.041 -0.0925  0.1383 -0.6853
  584TMC3     H 8715   1.223   2.795  16.785 -1.1767 -0.5711 -0.3194
  584TMC3    H1 8716   1.050   2.630  17.144  0.8525 -2.1258 -0.9666
  584TMC3    H2 8717   0.965   3.036  17.022  1.8077  0.7133  0.8949
  584TMC3    C7 8718   0.942   2.849  17.233 -0.5004 -0.1071  0.0315
  584TMC3    C8 8719   1.146   3.041  16.820  0.1165  0.2834  0.3859
  584TMC3    O1 8720   0.950   2.753  17.309 -0.3935 -0.5939 -0.7899
  584TMC3    O2 8721   1.151   3.023  16.701  0.3195 -0.6894  0.0016
  585MPD2     C 8722   4.611   2.041   0.096  0.2557 -0.0223  0.1985
  585MPD2    C1 8723   4.722   2.082   0.024  0.1492 -0.1965  0.0158
  585MPD2    C2 8724   0.080   1.989  17.744  0.3347 -0.0860 -0.4968
  585MPD2    C3 8725   0.082   1.861   0.044  0.1031  0.5150  0.1820
  585MPD2    C4 8726   4.710   1.820   0.114 -0.3713 -0.1368  0.2960
  585MPD2    C5 8727   4.609   1.910   0.140 -0.0377  0.7797  0.0164
  585MPD2     H 8728   0.170   2.025  17.695 -0.1399  0.7151 -0.7825
  585MPD2    H1 8729   4.690   1.717   0.142  0.8529 -0.4680 -0.0639
  585MPD2    H2 8730   4.537   2.114   0.124  0.5715 -1.0810  3.7822
  585MPD2    H3 8731   4.521   1.865   0.185 -0.4512  1.8163  0.2389
  585MPD2     N 8732   0.197   1.773   0.039 -0.4784 -0.2797 -0.1275
  585MPD2    H5 8733   0.206   1.700   0.108  1.3582  1.9167  1.9737
  585MPD2    N1 8734   4.723   2.221  17.738  0.0065 -0.1589  0.4285
  585MPD2    H7 8735   4.645   2.274   0.022 -1.4296 -1.9310 -0.0855
  586TMC3    C1 8736   0.388   1.670  17.734 -0.2002 -0.8212 -1.0708
  586TMC3    C2 8737   0.529   1.686  17.705  0.3391 -0.7483 -0.7302
  586TMC3    C3 8738   0.600   1.565  17.714 -1.0722  0.2864 -0.1970
  586TMC3    C4 8739   0.332   1.547   0.011  0.3369 -0.5732 -0.0244
  586TMC3    C5 8740   0.404   1.436   0.008 -0.5289 -0.6024 -0.0952
  586TMC3    C6 8741   0.539   1.448  17.743  0.4115 -0.2461 -0.3612
  586TMC3     C 8742   0.304   1.780  17.715 -0.0572  0.2072  0.2788
  586TMC3     O 8743   0.355   1.872  17.650 -0.4161  0.3702 -0.6874
  586TMC3     H 8744   0.579   1.775  17.667 -1.7448  0.1919 -1.2512
  586TMC3    H1 8745   0.224   1.547   0.003  0.3740 -2.9645 -0.3896
  586TMC3    H2 8746   0.587   1.352  17.732 -1.3947 -1.1858  0.0447
  586TMC3    C7 8747   0.336   1.340  17.671  0.3077 -0.6786 -0.2123
  586TMC3    C8 8748   0.711   1.538  17.630 -0.2688  0.7598 -0.0514
  586TMC3    O1 8749   0.234   1.284  17.712  0.1972  0.2302 -0.9342
  586TMC3    O2 8750   0.786   1.448  17.676 -0.4027 -0.4856  0.9571
  587TMC3    C1 8751   2.843   0.156  16.151  0.6283 -0.2095  0.7884
  587TMC3    C2 8752   2.848   0.174  16.289 -0.4903  0.3331  0.9749
  587TMC3    C3 8753   2.967   0.175  16.354  0.2120 -0.3497 -0.0847
  587TMC3    C4 8754   2.962   0.154  16.080 -0.7011  0.5394  0.0027
  587TMC3    C5 8755   3.078   0.143  16.151  0.3379 -0.1982  0.4002
  587TMC3    C6 8756   3.087   0.149  16.289  0.0853 -0.0700  0.3451
  587TMC3     C 8757   2.722   0.143  16.080  0.9179 -0.0905 -0.1083
  587TMC3     O 8758   2.724   0.191  15.965  0.4019 -0.0065 -0.5288
  587TMC3     H 8759   2.758   0.196  16.344 -1.9940 -3.1054 -0.1205
  587TMC3    H1 8760   2.968   0.165  15.972 -2.4998  1.3928 -0.0056
  587TMC3    H2 8761   3.174   0.164  16.352 -1.1863  2.9736  1.3915
  587TMC3    C7 8762   3.189   0.183  16.077  0.5274 -0.6364  0.1287
  587TMC3    C8 8763   2.979   0.200  16.497 -0.2980 -0.2646 -0.1615
  587TMC3    O1 8764   3.180   0.196  15.955  0.2833  0.3916 -0.1854
  587TMC3    O2 8765   3.084   0.166  16.557  0.4926 -0.5730  0.4007
  588TMC3    C1 8766   0.699   2.801  10.004 -0.3781  0.3289  0.5816
  588TMC3    C2 8767   0.662   2.679   9.962  0.2888 -0.5462  0.4204
  588TMC3    C3 8768   0.747   2.574   9.986  0.1638  0.1517  1.0113
  588TMC3    C4 8769   0.821   2.833  10.053  0.2175  0.1463 -0.0860
  588TMC3    C5 8770   0.906   2.729  10.067 -0.0755  0.5088 -0.0302
  588TMC3    C6 8771   0.874   2.603  10.036  0.4748 -0.0315 -0.4967
  588TMC3     C 8772   0.608   2.910   9.977  0.2173  0.1121  0.4856
  588TMC3     O 8773   0.548   2.912   9.871 -0.0683  0.1401  0.6819
  588TMC3     H 8774   0.564   2.661   9.920 -0.0662  1.3258  0.4373
  588TMC3    H1 8775   0.858   2.934  10.066 -0.3598  0.4706 -0.9413
  588TMC3    H2 8776   0.951   2.528  10.051  2.2532  2.1230  1.0530
  588TMC3    C7 8777   1.024   2.745  10.153 -0.1369  0.2458  0.1558
  588TMC3    C8 8778   0.708   2.444   9.933 -0.2168 -0.1389 -0.1392
  588TMC3    O1 8779   1.054   2.650  10.225 -0.4116 -0.0884  0.4356
  588TMC3    O2 8780   0.599   2.438   9.882  0.0219 -0.1119  0.4307
  589TMC3    C1 8781   0.058   0.494   1.251 -0.7031 -0.1560 -0.5699
  589TMC3    C2 8782   0.178   0.560   1.247  0.0668  0.2452  0.2403
  589TMC3    C3 8783   0.284   0.485   1.200 -0.2008  0.1655  0.4198
  589TMC3    C4 8784   0.030   0.381   1.183 -0.1817 -0.9909 -0.2557
  589TMC3    C5 8785   0.144   0.312   1.140  0.5983 -0.2483  0.2333
  589TMC3    C6 8786   0.265   0.360   1.153 -0.7661  0.1784  0.8853
  589TMC3     C 8787   4.671   0.560   1.278 -0.1551  0.5398  0.2377
  589TMC3     O 8788   4.582   0.537   1.197 -0.4640  0.5354 -0.2741
  589TMC3     H 8789   0.187   0.658   1.292 -0.5808 -0.2584  1.4513
  589TMC3    H1 8790   4.672   0.336   1.167  0.0515 -0.0081 -4.4926
  589TMC3    H2 8791   0.349   0.306   1.110 -1.7150 -1.3608  0.9527
  589TMC3    C7 8792   0.123   0.191   1.061  0.1155  0.5092  0.0514
  589TMC3    C8 8793   0.418   0.526   1.235 -0.2310  0.6897 -0.5316
  589TMC3    O1 8794   0.005   0.179   1.031  0.4088 -0.7625  0.0322
  589TMC3    O2 8795   0.432   0.579   1.345  0.4926 -0.3738  0.3401
  590MPD2     C 8796   3.874   2.982  16.749 -0.0094  0.1529 -0.4813
  590MPD2    C1 8797   3.825   3.081  16.671 -0.3414 -0.5601 -0.9734
  590MPD2    C2 8798   3.914   3.165  16.604 -0.1630  0.1008  0.2394
  590MPD2    C3 8799   4.045   3.166  16.628 -0.0021  0.0480 -0.3454
  590MPD2    C4 8800   4.105   3.064  16.701  0.0559  0.0440  0.0566
  590MPD2    C5 8801   4.014   2.977  16.764 -0.7549 -0.4126  0.2193
  590MPD2     H 8802   3.874   3.242  16.540  0.8004  1.5220  1.3378
  590MPD2    H1 8803   4.211   3.048  16.715  0.3338  1.5160 -0.4576
  590MPD2    H2 8804   3.811   2.908  16.797 -0.2514 -1.0729 -2.7063
  590MPD2    H3 8805   4.058   2.903  16.830 -1.3466 -0.6674  0.3321
  590MPD2     N 8806   4.120   3.265  16.566  0.2460 -0.4980  0.8560
  590MPD2    H5 8807   4.068   3.341  16.523  1.0334  0.0805  0.9146
  590MPD2    N1 8808   3.685   3.076  16.661  0.2013 -0.2568 -0.6183
  590MPD2    H7 8809   3.628   3.013  16.717  0.3651  1.7594  1.8227
  591TMC3    C1 8810   4.313   3.386  16.496 -0.0301 -0.3824 -0.8932
  591TMC3    C2 8811   4.440   3.359  16.449 -0.1431 -0.5126 -0.2531
  591TMC3    C3 8812   4.483   3.446  16.350  0.1486 -0.4128  0.5054
  591TMC3    C4 8813   4.229   3.484  16.452  0.0525 -0.6122  0.5995
  591TMC3    C5 8814   4.278   3.576  16.366 -0.0757 -0.1448 -0.2750
  591TMC3    C6 8815   4.399   3.552  16.307 -0.0980  0.0662  0.3927
  591TMC3     C 8816   4.260   3.273  16.569  0.7213  0.1704 -0.2981
  591TMC3     O 8817   4.338   3.181  16.596 -0.5106 -0.2751  0.4070
  591TMC3     H 8818   4.512   3.285  16.481  0.0356  0.1548  0.9084
  591TMC3    H1 8819   4.139   3.513  16.506 -1.5593 -1.4714 -1.6294
  591TMC3    H2 8820   4.428   3.611  16.221  0.1226 -1.5093 -0.6142
  591TMC3    C7 8821   4.181   3.655  16.298 -0.4032  0.6680  0.7554
  591TMC3    C8 8822   4.588   3.392  16.268  0.2214 -0.4592 -0.0146
  591TMC3    O1 8823   4.068   3.617  16.315 -0.1200 -0.0053  0.4275
  591TMC3    O2 8824   4.611   3.274  16.275  0.5449 -0.1565  0.1237
  592MPD2     C 8825   0.212   1.039  11.290  0.0396 -1.2013 -0.6234
  592MPD2    C1 8826   0.223   1.045  11.424 -0.3354 -0.6262  0.1988
  592MPD2    C2 8827   0.149   0.956  11.494  0.5823  0.2031  0.1988
  592MPD2    C3 8828   0.080   0.849  11.439  0.1616 -0.6862  0.0927
  592MPD2    C4 8829   0.080   0.836  11.301 -0.2418  0.0534  0.0256
  592MPD2    C5 8830   0.139   0.942  11.227 -0.2653 -0.5715  0.3001
  592MPD2     H 8831   0.152   0.956  11.602 -1.3868  0.1032  0.2471
  592MPD2    H1 8832   0.027   0.755  11.252 -1.6058  0.3715  0.9908
  592MPD2    H2 8833   0.257   1.124  11.240 -2.1957  0.1450 -0.3364
  592MPD2    H3 8834   0.127   0.941  11.120  2.6928  1.5405 -0.0568
  592MPD2     N 8835   0.016   0.759  11.523  0.6089  0.3758  0.2363
  592MPD2    H5 8836   0.034   0.764  11.622 -0.1744  1.1516  0.3377
  592MPD2    N1 8837   0.307   1.141  11.489 -0.3855 -0.2163 -0.1854
  592MPD2    H7 8838   0.345   1.212  11.427 -0.8594  0.1812 -0.0195
  593TMC3    C1 8839   0.428   1.241  11.675  0.0260 -0.1003 -0.5458
  593TMC3    C2 8840   0.402   1.315  11.787 -0.3828  0.5214  0.4461
  593TMC3    C3 8841   0.499   1.405  11.823  0.0031  0.4534  0.2681
  593TMC3    C4 8842   0.536   1.263  11.593 -0.7513  0.5857  0.3889
  593TMC3    C5 8843   0.623   1.360  11.625 -0.6719  0.8322 -0.4670
  593TMC3    C6 8844   0.611   1.437  11.742  0.2446 -0.3838  0.1146
  593TMC3     C 8845   0.318   1.162  11.624  0.0424 -0.1510 -0.2225
  593TMC3     O 8846   0.239   1.124  11.710 -0.2164 -0.2049  0.3744
  593TMC3     H 8847   0.312   1.303  11.846  0.2002  1.8054  1.5695
  593TMC3    H1 8848   0.562   1.181  11.528  3.3039 -0.9886  4.0042
  593TMC3    H2 8849   0.684   1.516  11.757 -0.0551 -0.1229  0.2010
  593TMC3    C7 8850   0.724   1.408  11.533 -0.7775 -0.0060  0.2566
  593TMC3    C8 8851   0.462   1.490  11.932  0.9077 -0.1021  0.5772
  593TMC3    O1 8852   0.803   1.498  11.566 -0.0755 -0.2249  0.0844
  593TMC3    O2 8853   0.344   1.507  11.950 -0.0937  0.6437  0.1393
  594MPD2     C 8854   2.871   4.370  14.101  0.0340 -0.2185  0.1451
  594MPD2    C1 8855   2.945   4.317  14.204 -0.3935  0.2314  0.4779
  594MPD2    C2 8856   3.066   4.373  14.239  0.6144  0.0981  0.3629
  594MPD2    C3 8857   3.117   4.477  14.154  0.2656 -0.3263 -0.4568
  594MPD2    C4 8858   3.042   4.525  14.043  0.3598  0.0534 -0.4210
  594MPD2    C5 8859   2.918   4.476  14.023 -0.2198  0.8055 -0.6856
  594MPD2     H 8860   3.123   4.336  14.324  0.7635 -1.2528 -0.3204
  594MPD2    H1 8861   3.076   4.602  13.975  0.6116 -0.6184 -1.0536
  594MPD2    H2 8862   2.769   4.338  14.085  1.1687 -5.0727  2.5526
  594MPD2    H3 8863   2.859   4.515  13.941  0.0713  1.0964 -0.7597
  594MPD2     N 8864   3.236   4.539  14.190 -0.0925 -0.6041 -0.1240
  594MPD2    H5 8865   3.289   4.487  14.259  2.7838  0.0572 -1.8200
  594MPD2    N1 8866   2.890   4.202  14.272 -0.5900 -0.1800  0.1373
  594MPD2    H7 8867   2.807   4.164  14.227  0.1674  0.3032 -1.6457
  595TMC3    C1 8868   3.628   4.675  14.232  0.5521 -0.0702 -0.1339
  595TMC3    C2 8869   3.509   4.622  14.191  0.0460 -0.7790  0.0124
  595TMC3    C3 8870   3.401   4.696  14.188 -0.5486  0.2419 -0.0553
  595TMC3    C4 8871   3.638   0.062  14.288  0.1985  0.0034  0.1398
  595TMC3    C5 8872   3.528   0.141  14.279 -0.2562  0.4020 -0.2140
  595TMC3    C6 8873   3.413   0.096  14.216  0.2424 -0.4683 -0.0846
  595TMC3     C 8874   3.746   4.592  14.238 -0.4022  0.4331 -0.1052
  595TMC3     O 8875   3.820   4.618  14.336 -0.2793  0.2116  0.5560
  595TMC3     H 8876   3.505   4.521  14.153 -4.8526 -0.9584  0.9226
  595TMC3    H1 8877   3.736   0.105  14.301 -0.1017  1.0473 -0.9697
  595TMC3    H2 8878   3.325   0.160  14.218 -0.7686 -1.9269  1.9930
  595TMC3    C7 8879   3.503   0.212  14.402  0.3858  0.6060  0.2803
  595TMC3    C8 8880   3.291   4.644  14.123  0.4789 -0.1487 -0.1659
  595TMC3    O1 8881   3.399   0.281  14.406 -0.2691 -0.3997  0.7091
  595TMC3    O2 8882   3.237   4.726  14.047 -0.0194  0.1114  0.4063
  596MPD2     C 8883   2.226   2.173  16.883 -0.2424  0.1160 -0.0403
  596MPD2    C1 8884   2.229   2.283  16.806 -0.0548 -0.1672 -0.2932
  596MPD2    C2 8885   2.287   2.270  16.678 -0.5328 -0.2974  0.3105
  596MPD2    C3 8886   2.317   2.151  16.624  0.2007 -0.6194  0.6556
  596MPD2    C4 8887   2.312   2.038  16.705 -0.0083 -0.7258 -0.1859
  596MPD2    C5 8888   2.269   2.052  16.839  0.5115 -0.7397  0.3951
  596MPD2     H 8889   2.311   2.364  16.629 -0.4440  0.2218  1.3347
  596MPD2    H1 8890   2.338   1.941  16.665 -2.3789 -1.3383 -0.2521
  596MPD2    H2 8891   2.184   2.163  16.982  0.0329 -0.3270  0.0310
  596MPD2    H3 8892   2.258   1.972  16.911 -0.3290 -3.4000 -2.6890
  596MPD2     N 8893   2.375   2.137  16.494  0.1216  0.0324 -0.4107
  596MPD2    H5 8894   2.398   2.043  16.462  4.3686  1.1977 -0.7787
  596MPD2    N1 8895   2.187   2.405  16.849  0.4874  0.3565  0.1481
  596MPD2    H7 8896   2.206   2.479  16.783 -1.3644  0.2686 -0.4669
  597TMC3    C1 8897   2.093   2.568  16.983  0.0506 -0.1687  0.3270
  597TMC3    C2 8898   2.156   2.658  16.903 -0.0343  0.3890 -0.2285
  597TMC3    C3 8899   2.098   2.784  16.886 -0.3681 -0.8815  0.1388
  597TMC3    C4 8900   1.978   2.597  17.057  0.1939  0.0144  0.4997
  597TMC3    C5 8901   1.932   2.720  17.043 -0.1117  0.4966 -0.0616
  597TMC3    C6 8902   1.985   2.814  16.952  0.6005  0.4896  0.9217
  597TMC3     C 8903   2.128   2.431  16.969 -0.3074 -0.0903 -0.7034
  597TMC3     O 8904   2.094   2.352  17.053  0.5872 -0.1264  0.4692
  597TMC3     H 8905   2.251   2.624  16.862  1.2009 -0.4333  3.3003
  597TMC3    H1 8906   1.928   2.529  17.125  1.3767 -1.8235 -0.4743
  597TMC3    H2 8907   1.951   2.917  16.950 -1.3970 -0.1395  2.8096
  597TMC3    C7 8908   1.828   2.767  17.136  0.1119  0.2121 -0.3033
  597TMC3    C8 8909   2.162   2.873  16.789  0.0814  0.1134 -0.3951
  597TMC3    O1 8910   1.804   2.698  17.234  0.1603 -0.2547  0.5738
  597TMC3    O2 8911   2.280   2.828  16.767 -0.5524 -0.1490  0.6048
  598TMC3    C1 8912   0.486   3.651  15.404 -0.2117 -0.2631 -0.0319
  598TMC3    C2 8913   0.479   3.520  15.370  0.0977  0.5986  0.1451
  598TMC3    C3 8914   0.450   3.492  15.236  0.9268  0.0546  0.3262
  598TMC3    C4 8915   0.472   3.746  15.306  0.3442  0.0692  0.0206
  598TMC3    C5 8916   0.433   3.717  15.179  0.8130  0.1769 -0.2687
  598TMC3    C6 8917   0.417   3.588  15.144 -0.3251  0.2324  0.2187
  598TMC3     C 8918   0.596   3.679  15.502  0.3550  0.0324 -0.2556
  598TMC3     O 8919   0.665   3.772  15.461  0.3480 -0.0750 -0.6964
  598TMC3     H 8920   0.534   3.443  15.423  1.2508  0.0576 -1.8648
  598TMC3    H1 8921   0.474   3.851  15.334  1.9009 -0.5670  2.3258
  598TMC3    H2 8922   0.397   3.571  15.039 -1.4785  1.9538  0.1508
  598TMC3    C7 8923   0.450   3.812  15.064 -0.1744 -0.1306 -0.1714
  598TMC3    C8 8924   0.416   3.357  15.202 -0.5964 -0.0200  0.5210
  598TMC3    O1 8925   0.395   3.793  14.958 -0.2784 -0.1996 -0.1531
  598TMC3    O2 8926   0.411   3.281  15.295 -0.3181  0.1533  0.1862
  599MPD2     C 8927   0.211   0.917  15.934  0.1448  0.2560 -0.3751
  599MPD2    C1 8928   0.275   1.024  15.997  0.4377 -0.3504 -0.1708
  599MPD2    C2 8929   0.193   1.121  16.054 -0.8036  0.4322  0.6503
  599MPD2    C3 8930   0.050   1.114  16.050  0.5068  0.1935  0.2778
  599MPD2    C4 8931   4.728   1.006  15.985 -0.2929  0.2525 -0.1634
  599MPD2    C5 8932   0.074   0.914  15.926 -0.1944 -1.0909 -0.0208
  599MPD2     H 8933   0.235   1.204  16.110  1.6873  0.3977 -1.1622
  599MPD2    H1 8934   4.621   1.003  15.973 -0.4987  0.7561  1.5338
  599MPD2    H2 8935   0.277   0.841  15.894 -0.6557 -0.2444 -0.7552
  599MPD2    H3 8936   0.033   0.840  15.859 -0.9738 -0.2859 -0.4279
  599MPD2     N 8937   4.718   1.215  16.118 -0.1029 -0.1934  0.3980
  599MPD2    H5 8938   0.032   1.296  16.149  1.1960  0.2315 -2.9641
  599MPD2    N1 8939   0.417   1.021  15.999 -0.3887 -0.1675  0.7899
  599MPD2    H7 8940   0.458   0.952  15.936 -1.4618 -0.7884  0.7829
  600TMC3    C1 8941   4.524   1.310  16.232  0.8137  0.3716  0.5555
  600TMC3    C2 8942   4.426   1.271  16.315  0.6853 -0.2940  0.4334
  600TMC3    C3 8943   4.350   1.368  16.369  0.1399 -0.2432 -0.1183
  600TMC3    C4 8944   4.544   1.443  16.189  0.8091  0.1448 -0.1087
  600TMC3    C5 8945   4.470   1.540  16.251  1.1343  0.8583  0.5039
  600TMC3    C6 8946   4.373   1.503  16.345  0.2743  0.6846 -0.7208
  600TMC3     C 8947   4.591   1.194  16.170  0.3987  0.1541 -0.0718
  600TMC3     O 8948   4.524   1.089  16.162  0.3961 -0.7577  0.0742
  600TMC3     H 8949   4.412   1.170  16.354 -1.3077  1.0608  3.2171
  600TMC3    H1 8950   4.606   1.471  16.105  1.2839 -0.5180  0.0148
  600TMC3    H2 8951   4.309   1.574  16.396 -0.2640  0.1815 -0.6955
  600TMC3    C7 8952   4.528   1.666  16.283  0.7512 -0.3418 -0.5685
  600TMC3    C8 8953   4.306   1.333  16.504  0.2177 -0.2327  0.5280
  600TMC3    O1 8954   4.455   1.738  16.349 -0.3099 -0.3808 -0.0532
  600TMC3    O2 8955   4.239   1.232  16.514  0.5034  0.0832 -0.1760
  601MPD2     C 8956   1.445   4.303   0.855  0.9033 -0.0455 -0.6790
  601MPD2    C1 8957   1.503   4.382   0.757 -0.6044 -0.6973  0.3027
  601MPD2    C2 8958   1.637   4.364   0.734  0.1320 -1.0851 -0.5142
  601MPD2    C3 8959   1.708   4.271   0.804  0.0610 -0.0579  0.0756
  601MPD2    C4 8960   1.647   4.199   0.905 -0.3810  0.4782  0.3093
  601MPD2    C5 8961   1.513   4.210   0.925  0.3541 -0.4088 -1.2401
  601MPD2     H 8962   1.680   4.426   0.655 -0.4160 -0.8825 -0.6531
  601MPD2    H1 8963   1.703   4.142   0.978  0.1472  0.3643 -0.1864
  601MPD2    H2 8964   1.343   4.321   0.885 -0.0452  1.0873 -4.5779
  601MPD2    H3 8965   1.459   4.156   1.002 -1.7842 -1.0292 -3.1561
  601MPD2     N 8966   1.842   4.242   0.778 -0.0977  0.1703 -0.2132
  601MPD2    H5 8967   1.883   4.170   0.837 -1.9403 -0.0577  0.7891
  601MPD2    N1 8968   1.432   4.462   0.666 -0.2407 -0.5890 -0.0993
  601MPD2    H7 8969   1.486   4.493   0.586 -0.0535 -1.4647 -0.3103
  602TMC3    C1 8970   1.257   4.562   0.555 -0.6605  0.2143 -0.4213
  602TMC3    C2 8971   1.323   4.671   0.519  0.4585  0.1749 -0.7428
  602TMC3    C3 8972   1.303   4.721   0.393 -0.2977 -0.3026  0.7360
  602TMC3    C4 8973   1.176   4.502   0.465  0.7524 -0.6817  0.8164
  602TMC3    C5 8974   1.160   4.545   0.337 -0.0902  0.3238 -0.4214
  602TMC3    C6 8975   1.230   4.652   0.300  0.2314 -0.0383  0.3322
  602TMC3     C 8976   1.296   4.482   0.670 -0.1459  0.3144  0.2367
  602TMC3     O 8977   1.215   4.430   0.742  0.2517  0.1186 -0.1853
  602TMC3     H 8978   1.375   4.729   0.594  0.0598  1.6021 -1.5618
  602TMC3    H1 8979   1.144   4.401   0.487 -0.5589 -0.3650  0.3525
  602TMC3    H2 8980   1.198   4.700   0.208  1.7030 -2.0791 -1.2378
  602TMC3    C7 8981   1.146   4.440   0.241 -0.2648  0.2921 -0.0733
  602TMC3    C8 8982   1.418   0.065   0.351  0.3104  0.7980 -0.3226
  602TMC3    O1 8983   1.100   4.337   0.282  0.2714  0.0831  0.4973
  602TMC3    O2 8984   1.470   0.132   0.439  0.0758 -0.2667 -0.1390
  603TMC3    C1 8985   1.355   4.668  11.285  0.3595 -1.5152  0.4674
  603TMC3    C2 8986   1.346   4.674  11.421  0.1503 -0.6765 -0.1982
  603TMC3    C3 8987   1.317   0.057  11.471 -0.6719  0.2904  0.2307
  603TMC3    C4 8988   1.348   0.033  11.199 -0.3961  0.0245 -0.0484
  603TMC3    C5 8989   1.309   0.149  11.259  0.0230 -0.3871 -0.1149
  603TMC3    C6 8990   1.303   0.170  11.393 -0.2282  0.2332  0.2162
  603TMC3     C 8991   1.384   4.541  11.219  0.6699  0.3483  0.3852
  603TMC3     O 8992   1.463   4.555  11.130  0.3075 -0.0597 -0.1602
  603TMC3     H 8993   1.355   4.588  11.487  0.2963 -0.7170 -0.2715
  603TMC3    H1 8994   1.351   0.012  11.092  1.3192  3.3733 -0.6308
  603TMC3    H2 8995   1.242   0.251  11.431 -3.1543 -0.5185 -2.9072
  603TMC3    C7 8996   1.278   0.256  11.163  0.3708  0.3722 -0.0028
  603TMC3    C8 8997   1.298   0.068  11.611  0.3382  0.2123 -1.5699
  603TMC3    O1 8998   1.281   0.373  11.200  0.3706  0.0547  0.2369
  603TMC3    O2 8999   1.261   4.705  11.662 -0.7039  0.4587 -0.6678
  604MPD2     C 9000   1.480   3.494  16.292  0.1334  0.2570 -0.2433
  604MPD2    C1 9001   1.372   3.466  16.213 -0.9393 -1.0106 -0.8072
  604MPD2    C2 9002   1.398   3.416  16.084  0.0005  0.7762 -0.3687
  604MPD2    C3 9003   1.522   3.418  16.025  0.4568  0.2923 -0.1918
  604MPD2    C4 9004   1.624   3.475  16.099  0.2466 -0.8710 -0.8150
  604MPD2    C5 9005   1.604   3.506  16.232  0.2160 -0.0393  0.4586
  604MPD2     H 9006   1.308   3.370  16.044 -1.1958 -0.1006  3.3255
  604MPD2    H1 9007   1.722   3.497  16.057  0.8602 -0.1816  1.0083
  604MPD2    H2 9008   1.461   3.516  16.397  0.9212  1.7011 -0.4020
  604MPD2    H3 9009   1.685   3.558  16.282  1.5525  1.5240 -3.3776
  604MPD2     N 9010   1.545   3.363  15.895  0.5228  0.2353  0.4748
  604MPD2    H5 9011   1.463   3.324  15.848  1.8426 -1.7780 -0.1321
  604MPD2    N1 9012   1.249   3.484  16.280 -0.1971 -0.2204 -0.2347
  604MPD2    H7 9013   1.259   3.530  16.370  0.0829  1.9861 -1.3919
  605TMC3    C1 9014   1.031   3.494  16.332 -0.8390  0.2347 -0.0982
  605TMC3    C2 9015   1.078   3.484  16.460  0.1273  0.4314 -0.5128
  605TMC3    C3 9016   1.038   3.582  16.546 -0.2195 -0.5301 -0.0611
  605TMC3    C4 9017   0.951   3.595  16.291 -1.0581 -0.4753  0.2400
  605TMC3    C5 9018   0.902   3.677  16.380  0.2300  0.6205  0.1892
  605TMC3    C6 9019   0.937   3.667  16.506  0.4246 -0.2743 -0.1422
  605TMC3     C 9020   1.125   3.455  16.235 -0.3169  0.8109  0.0355
  605TMC3     O 9021   1.092   3.433  16.121  0.8197  0.3279 -0.3588
  605TMC3     H 9022   1.144   3.405  16.494  0.5818  1.2257  0.4909
  605TMC3    H1 9023   0.926   3.589  16.186  0.9611  1.2692 -0.3339
  605TMC3    H2 9024   0.895   3.733  16.580 -0.9869  0.0706 -1.2525
  605TMC3    C7 9025   0.807   3.786  16.341  0.1302 -0.0313  0.5034
  605TMC3    C8 9026   1.159   3.643  16.589 -0.1915 -0.2057  0.1923
  605TMC3    O1 9027   0.771   3.855  16.435  0.0348  0.0262 -0.1303
  605TMC3    O2 9028   1.251   3.629  16.504  0.2838 -0.0762  0.4939
  606TMC3    C1 9029   2.186   2.060   0.148  0.3434 -0.0516  0.9984
  606TMC3    C2 9030   2.289   2.066   0.236  0.2910  0.1903 -0.2040
  606TMC3    C3 9031   2.367   1.954   0.244 -0.1682 -0.3258 -0.0137
  606TMC3    C4 9032   2.161   1.950   0.076  0.4819  0.0033 -0.2805
  606TMC3    C5 9033   2.250   1.843   0.082  0.2310 -0.1947  0.2874
  606TMC3    C6 9034   2.357   1.842   0.166 -0.6031 -0.0506  0.8661
  606TMC3     C 9035   2.093   2.170   0.119 -0.3001 -0.0599  0.1770
  606TMC3     O 9036   2.010   2.150   0.031 -0.9699 -0.0194 -0.6210
  606TMC3     H 9037   2.297   2.145   0.311  0.4913 -0.3870  0.3857
  606TMC3    H1 9038   2.084   1.959  17.752 -0.3372 -1.3582  0.3723
  606TMC3    H2 9039   2.418   1.752   0.165 -1.4134 -0.5655 -2.3343
  606TMC3    C7 9040   2.244   1.732  17.746  0.1804 -0.3563 -0.4709
  606TMC3    C8 9041   2.463   1.958   0.358 -0.1749  0.1613  0.3487
  606TMC3    O1 9042   2.347   1.667  17.722 -0.1409  0.2289  0.2604
  606TMC3    O2 9043   2.496   2.071   0.395  0.4841  0.0959 -0.4505
  607MPD2     C 9044   0.105   0.344  11.616  0.3955  0.2615 -0.0326
  607MPD2    C1 9045   0.148   0.436  11.712  0.5311 -0.6823 -0.1380
  607MPD2    C2 9046   0.119   0.419  11.844 -0.1738 -1.0436  0.0905
  607MPD2    C3 9047   0.043   0.305  11.883  0.2394 -0.8173  0.3995
  607MPD2    C4 9048   4.730   0.224  11.785 -0.3740 -0.9437  0.3786
  607MPD2    C5 9049   0.021   0.240  11.655  0.2103  0.6778 -0.1004
  607MPD2     H 9050   0.156   0.478  11.927 -0.6680  1.6202 -1.5706
  607MPD2    H1 9051   4.667   0.138  11.805 -1.8135  0.2441  1.0687
  607MPD2    H2 9052   0.134   0.358  11.513  1.8915  1.4627  0.5575
  607MPD2    H3 9053   4.726   0.168  11.581  3.6892  0.2077 -1.2271
  607MPD2     N 9054   0.042   0.288  12.022 -0.1341 -0.1557  0.4186
  607MPD2    H5 9055   0.092   0.360  12.074 -0.5240 -0.0647  0.6663
  607MPD2    N1 9056   0.233   0.550  11.690  0.3353  0.2487 -0.0334
  607MPD2    H7 9057   0.263   0.605  11.769 -0.0389 -0.9519  0.9347
  608TMC3    C1 9058   0.389   0.690  11.592 -0.3236  0.0099  0.2729
  608TMC3    C2 9059   0.391   0.759  11.705 -0.4351  0.2945  0.6823
  608TMC3    C3 9060   0.508   0.831  11.730 -0.4021  0.1462  0.0067
  608TMC3    C4 9061   0.491   0.705  11.503 -0.0973 -0.6285  0.0233
  608TMC3    C5 9062   0.596   0.787  11.518 -0.2101  0.6079  0.3161
  608TMC3    C6 9063   0.617   0.843  11.644 -1.2480  0.1791 -0.6754
  608TMC3     C 9064   0.295   0.585  11.572 -0.1584  0.1057  0.3284
  608TMC3     O 9065   0.279   0.530  11.464 -0.0146 -0.0586  0.2142
  608TMC3     H 9066   0.310   0.761  11.776 -1.7725  1.6226 -0.8802
  608TMC3    H1 9067   0.485   0.649  11.410 -0.3082  1.4801 -1.2373
  608TMC3    H2 9068   0.710   0.894  11.670 -2.5120  0.7387  2.8125
  608TMC3    C7 9069   0.689   0.789  11.411  0.0374 -0.7501  0.2776
  608TMC3    C8 9070   0.517   0.879  11.867  0.2420 -0.2316  0.1881
  608TMC3    O1 9071   0.671   0.704  11.325 -0.1248  0.5260  0.2767
  608TMC3    O2 9072   0.604   0.969  11.880  0.3287  0.3840  0.1260
  609TMC3    C1 9073   3.830   3.680   9.337 -0.4136  0.1080 -0.9288
  609TMC3    C2 9074   3.731   3.590   9.297  0.0546  0.0946 -0.3157
  609TMC3    C3 9075   3.759   3.453   9.314 -0.1628  0.0984 -0.1140
  609TMC3    C4 9076   3.943   3.630   9.394 -0.6304 -0.0210 -0.4054
  609TMC3    C5 9077   3.966   3.496   9.414 -0.5838  0.6259 -0.1224
  609TMC3    C6 9078   3.870   3.406   9.377  0.3090 -0.2226 -0.3595
  609TMC3     C 9079   3.776   3.796   9.407 -0.1203 -0.0634  1.1337
  609TMC3     O 9080   3.657   3.824   9.378 -0.6136 -0.2100 -0.0821
  609TMC3     H 9081   3.637   3.624   9.256 -0.1798  1.5007  1.3759
  609TMC3    H1 9082   4.023   3.700   9.412 -0.3328 -0.5696  0.4116
  609TMC3    H2 9083   3.879   3.301   9.400  1.5912  0.1567  0.9220
  609TMC3    C7 9084   4.031   3.493   9.544 -0.3326 -0.8791 -0.2418
  609TMC3    C8 9085   3.673   3.364   9.245  0.4305  0.1409  1.0545
  609TMC3    O1 9086   4.069   3.596   9.603 -0.2789  0.7748  0.1509
  609TMC3    O2 9087   3.559   3.402   9.223  0.2142 -0.3151 -0.4470
  610TMC3    C1 9088   0.716   0.409  13.085  0.2279 -0.0574 -0.2612
  610TMC3    C2 9089   0.813   0.506  13.114  0.2135  0.2287  0.2072
  610TMC3    C3 9090   0.936   0.452  13.151  0.1480  0.8496 -0.7768
  610TMC3    C4 9091   0.738   0.279  13.103  0.6492  0.3303  0.2579
  610TMC3    C5 9092   0.843   0.234  13.171 -0.1869  0.3052  0.3593
  610TMC3    C6 9093   0.952   0.313  13.181  0.5290  0.2064 -0.4936
  610TMC3     C 9094   0.580   0.449  13.075 -0.5744 -0.7571 -0.2025
  610TMC3     O 9095   0.497   0.377  13.019 -1.1708 -0.1032 -0.0415
  610TMC3     H 9096   0.800   0.609  13.084  0.3555  0.3433  0.5418
  610TMC3    H1 9097   0.659   0.214  13.068 -0.6413  1.3970  1.2423
  610TMC3    H2 9098   1.042   0.271  13.224 -0.4994 -0.4722  1.0070
  610TMC3    C7 9099   0.848   0.102  13.229  0.3493 -0.7381  0.7113
  610TMC3    C8 9100   1.045   0.542  13.156 -0.4506 -0.0665 -0.2592
  610TMC3    O1 9101   0.956   0.053  13.263 -0.2564 -0.1566  0.9109
  610TMC3    O2 9102   1.025   0.665  13.155  0.3839 -0.2211 -0.0709
  611MPD2     C 9103   0.225   4.703  10.858 -0.2037 -0.5156  0.4138
  611MPD2    C1 9104   0.198   4.719  10.727  0.6906 -0.5371 -0.5844
  611MPD2    C2 9105   0.288   0.033  10.638  0.4765 -0.5735 -0.2357
  611MPD2    C3 9106   0.418   0.056  10.687  0.1278 -0.2318 -0.6369
  611MPD2    C4 9107   0.451   0.037  10.817 -0.5335  0.5381 -0.1514
  611MPD2    C5 9108   0.349   4.735  10.902 -0.3773  0.1688  0.5470
  611MPD2     H 9109   0.252   0.045  10.537 -1.6935  3.1211  1.0008
  611MPD2    H1 9110   0.547   0.068  10.856 -0.1916 -1.3947  0.5805
  611MPD2    H2 9111   0.154   4.667  10.933 -0.3656 -0.5629  0.2371
  611MPD2    H3 9112   0.375   4.726  11.007  0.7652 -1.2148  0.1408
  611MPD2     N 9113   0.523   0.100  10.604  0.0964  0.2079 -0.0054
  611MPD2    H5 9114   0.613   0.105  10.649 -1.2687  1.9267  2.5774
  611MPD2    N1 9115   0.065   4.683  10.683  0.1296  0.1417 -0.4176
  611MPD2    H7 9116   4.734   4.677  10.757  0.7960 -1.9357  0.0207
  612TMC3    C1 9117   0.649   0.142  10.414 -0.6503 -0.0633 -0.0507
  612TMC3    C2 9118   0.742   0.204  10.495 -0.2657  0.2795 -0.7072
  612TMC3    C3 9119   0.857   0.239  10.430  0.2025 -0.5302  0.1262
  612TMC3    C4 9120   0.665   0.113  10.280  0.5663 -0.0779  0.2295
  612TMC3    C5 9121   0.778   0.155  10.223  0.5036  0.0434  0.3292
  612TMC3    C6 9122   0.880   0.216  10.296  0.4180  0.1855 -0.1639
  612TMC3     C 9123   0.512   0.131  10.467 -0.1657 -0.5173 -0.0993
  612TMC3     O 9124   0.416   0.132  10.392 -0.3744  0.3184 -0.3455
  612TMC3     H 9125   0.729   0.252  10.592 -0.1005  0.3244 -0.7059
  612TMC3    H1 9126   0.584   0.068  10.225 -1.1859  2.3580  0.7793
  612TMC3    H2 9127   0.973   0.238  10.245  1.3475  0.3705  1.5996
  612TMC3    C7 9128   0.814   0.097  10.095 -0.3115  0.5290 -0.2714
  612TMC3    C8 9129   0.961   0.317  10.498 -0.5549 -0.3483  0.2334
  612TMC3    O1 9130   0.927   0.120  10.053  0.2460  0.1635  0.3400
  612TMC3    O2 9131   1.019   0.402  10.434  0.4085 -0.2665 -0.5010
  613MPD2     C 9132   3.775   2.447  16.713  0.0306 -0.2019  0.2524
  613MPD2    C1 9133   3.831   2.328  16.660  0.0376  0.4635  0.4514
  613MPD2    C2 9134   3.770   2.206  16.684 -0.5482 -0.5708 -0.1184
  613MPD2    C3 9135   3.652   2.199  16.755  0.5390 -0.1525  0.7210
  613MPD2    C4 9136   3.614   2.314  16.824  0.7781  0.0375 -0.1070
  613MPD2    C5 9137   3.659   2.438  16.790  0.0248 -0.0748 -0.3455
  613MPD2     H 9138   3.800   2.111  16.641 -0.0320  0.4091 -1.9552
  613MPD2    H1 9139   3.532   2.305  16.894  0.3692 -0.9446 -0.7142
  613MPD2    H2 9140   3.836   2.536  16.702  1.1783 -0.9476  0.5340
  613MPD2    H3 9141   3.621   2.529  16.835 -1.0734 -0.2803 -0.8463
  613MPD2     N 9142   3.570   2.085  16.763  0.4447 -0.0348 -0.0578
  613MPD2    H5 9143   3.480   2.096  16.810  0.4817 -0.8012  0.2006
  613MPD2    N1 9144   3.953   2.335  16.588  0.0580  0.1521 -0.0874
  613MPD2    H7 9145   3.995   2.428  16.587  0.4362 -0.0142  0.9323
  614TMC3    C1 9146   4.101   2.285  16.412 -0.3105  0.2934  0.1935
  614TMC3    C2 9147   4.095   2.184  16.317 -0.0457 -0.7986  0.4233
  614TMC3    C3 9148   4.050   2.203  16.191  0.9809 -0.7908  0.1610
  614TMC3    C4 9149   4.058   2.410  16.369 -0.6215 -0.7060  0.6247
  614TMC3    C5 9150   4.012   2.418  16.238 -0.0769 -0.4644 -0.2560
  614TMC3    C6 9151   4.003   2.317  16.148  0.6442 -0.2549 -0.2678
  614TMC3     C 9152   4.003   2.233  16.511 -0.1676  0.4088 -0.2331
  614TMC3     O 9153   3.972   2.118  16.486  0.2639  0.1568  0.0187
  614TMC3     H 9154   4.146   2.090  16.336 -0.0136 -0.5724  1.4447
  614TMC3    H1 9155   4.077   2.500  16.426  0.3301 -1.0928  0.9282
  614TMC3    H2 9156   3.968   2.329  16.046  0.0735  0.8201  0.0595
  614TMC3    C7 9157   4.009   2.552  16.184 -0.1252 -0.4490  0.0647
  614TMC3    C8 9158   4.000   2.083  16.127  0.0867  0.2314 -0.8611
  614TMC3    O1 9159   4.038   2.650  16.254 -0.0298 -0.5613  0.1663
  614TMC3    O2 9160   3.967   2.093  16.010  0.3530  0.4642 -0.1922
  615MPD2     C 9161   2.951   3.594  16.032 -0.3648 -0.6359  0.1321
  615MPD2    C1 9162   2.954   3.731  15.995  0.0156  0.0680 -0.1041
  615MPD2    C2 9163   2.902   3.757  15.869  0.2515  0.5395  0.6068
  615MPD2    C3 9164   2.882   3.657  15.770  0.6575 -0.6084 -0.4628
  615MPD2    C4 9165   2.887   3.523  15.808 -0.1165  0.3023 -0.3880
  615MPD2    C5 9166   2.912   3.500  15.940 -0.1387  0.0405 -0.0303
  615MPD2     H 9167   2.896   3.864  15.852 -0.8755  0.6374  1.6900
  615MPD2    H1 9168   2.872   3.440  15.740  0.4112  0.6370 -0.9079
  615MPD2    H2 9169   2.995   3.565  16.126 -2.0627 -0.7844  0.8810
  615MPD2    H3 9170   2.920   3.393  15.955  1.2822  0.2401  0.7184
  615MPD2     N 9171   2.836   3.699  15.642 -0.0972  0.6942 -0.3353
  615MPD2    H5 9172   2.820   3.799  15.628 -1.2976  1.0898  3.6938
  615MPD2    N1 9173   2.994   3.833  16.083 -0.1421 -0.1652  0.0313
  615MPD2    H7 9174   3.011   3.927  16.049  0.2121 -0.1292  0.3141
  616TMC3    C1 9175   3.055   3.926  16.290 -0.6534  0.4360  0.4666
  616TMC3    C2 9176   3.124   4.029  16.223 -1.2769 -1.1196 -0.8449
  616TMC3    C3 9177   3.179   4.127  16.299  1.0860  0.0408 -0.9758
  616TMC3    C4 9178   3.043   3.915  16.423  0.5258  0.2235  0.1199
  616TMC3    C5 9179   3.106   4.017  16.496 -0.0556  0.2698 -0.0293
  616TMC3    C6 9180   3.163   4.127  16.438 -0.0602 -0.1002  0.1887
  616TMC3     C 9181   3.018   3.810  16.216 -0.3977  0.2482  0.1206
  616TMC3     O 9182   2.977   3.720  16.290  0.2622  0.0531 -0.5064
  616TMC3     H 9183   3.150   4.028  16.118  0.4869 -0.4792 -0.4050
  616TMC3    H1 9184   2.986   3.846  16.484  1.3054 -1.0907 -0.6300
  616TMC3    H2 9185   3.202   4.206  16.502 -0.9566  0.0572  0.5335
  616TMC3    C7 9186   3.103   3.997  16.635 -0.3404  0.4492  0.3586
  616TMC3    C8 9187   3.230   4.242  16.228 -0.8032  0.0887 -0.3826
  616TMC3    O1 9188   3.119   3.882  16.668 -0.2548 -0.2468 -0.1044
  616TMC3    O2 9189   3.180   4.274  16.118  0.3790  0.5982 -0.5772
  617MPD2     C 9190   1.114   1.921  13.776  0.3340 -0.0655 -0.1947
  617MPD2    C1 9191   1.127   1.955  13.910  0.0092 -0.7200 -0.7261
  617MPD2    C2 9192   1.059   1.879  14.003  0.7121 -0.7589 -0.0286
  617MPD2    C3 9193   0.995   1.762  13.960  0.3762  0.1470 -0.0613
  617MPD2    C4 9194   0.984   1.725  13.828  0.3472  0.0918 -0.2942
  617MPD2    C5 9195   1.043   1.806  13.737  0.2057  0.5193  0.6890
  617MPD2     H 9196   1.046   1.913  14.105 -0.7361  2.6844 -1.3496
  617MPD2    H1 9197   0.920   1.643  13.800 -2.7995  2.1055  0.9679
  617MPD2    H2 9198   1.159   1.992  13.708 -1.8428  2.0292  0.5526
  617MPD2    H3 9199   1.028   1.782  13.632 -0.9993 -0.9945  1.2036
  617MPD2     N 9200   0.906   1.691  14.038  0.1731 -0.5506  0.1629
  617MPD2    H5 9201   0.846   1.621  13.996 -0.0573 -0.1833 -0.1114
  617MPD2    N1 9202   1.213   2.066  13.938  0.0557 -0.2886  0.1666
  617MPD2    H7 9203   1.269   2.088  13.857 -0.2998  0.3156  0.0816
  618TMC3    C1 9204   1.343   2.214  14.068 -0.8353 -0.2764  0.4132
  618TMC3    C2 9205   1.418   2.204  14.186  0.0424  0.5882 -0.0434
  618TMC3    C3 9206   1.540   2.267  14.190 -0.3121  0.1596 -0.0750
  618TMC3    C4 9207   1.407   2.244  13.953  0.2172 -0.5323 -0.5191
  618TMC3    C5 9208   1.533   2.304  13.962 -0.4595  0.2013 -0.7240
  618TMC3    C6 9209   1.593   2.323  14.079  0.2011 -0.4008  0.2875
  618TMC3     C 9210   1.230   2.125  14.063 -0.6574 -0.4045  0.1043
  618TMC3     O 9211   1.170   2.110  14.172 -0.3096 -0.0022  0.1199
  618TMC3     H 9212   1.374   2.159  14.274 -0.1144  0.1986 -0.3181
  618TMC3    H1 9213   1.355   2.262  13.859  0.3495  0.6768 -0.3609
  618TMC3    H2 9214   1.688   2.374  14.073 -0.3626  0.3374 -2.1984
  618TMC3    C7 9215   1.624   2.300  13.841  0.0561  0.6376 -0.4388
  618TMC3    C8 9216   1.644   2.233  14.285 -0.4379 -0.3201 -0.7584
  618TMC3    O1 9217   1.564   2.268  13.740  0.2341  0.0186 -0.3120
  618TMC3    O2 9218   1.637   2.269  14.402 -0.0257  0.0397  0.0123
  619MPD2     C 9219   2.500   2.932  14.104 -0.4743 -0.7128  0.3657
  619MPD2    C1 9220   2.449   2.930  13.975 -0.1604  0.2277  0.7594
  619MPD2    C2 9221   2.319   2.897  13.952 -0.2655  0.6101  0.2633
  619MPD2    C3 9222   2.234   2.861  14.056  0.4291 -0.2730  0.2009
  619MPD2    C4 9223   2.279   2.860  14.184 -1.1100 -0.1509 -0.2414
  619MPD2    C5 9224   2.412   2.890  14.205 -0.3665  0.0225 -0.1279
  619MPD2     H 9225   2.275   2.900  13.853 -0.3478 -2.1469  0.2041
  619MPD2    H1 9226   2.217   2.827  14.267 -0.6875 -0.9134 -0.2258
  619MPD2    H2 9227   2.601   2.960  14.130  1.0377 -3.9685 -1.9614
  619MPD2    H3 9228   2.453   2.870  14.303 -0.3551 -1.9168 -0.5250
  619MPD2     N 9229   2.098   2.834  14.040  0.6256 -0.5398  0.1084
  619MPD2    H5 9230   2.036   2.828  14.120 -0.6533  0.5756 -0.8049
  619MPD2    N1 9231   2.530   2.975  13.867 -0.7364  0.2626  0.4810
  619MPD2    H7 9232   2.491   2.960  13.775 -0.9829  0.5873  0.5339
  620TMC3    C1 9233   2.670   3.105  13.739 -0.5309 -0.2070 -0.5525
  620TMC3    C2 9234   2.593   3.041  13.643 -0.6854 -0.4350  0.1239
  620TMC3    C3 9235   2.522   3.111  13.550 -0.3060  0.6088 -0.0741
  620TMC3    C4 9236   2.684   3.243  13.743  0.4101  0.3915 -0.4599
  620TMC3    C5 9237   2.616   3.312  13.646  0.5105  0.6386  0.5426
  620TMC3    C6 9238   2.539   3.252  13.550  0.1619 -0.5213 -0.2633
  620TMC3     C 9239   2.645   3.050  13.874 -0.9135 -0.7305  0.1645
  620TMC3     O 9240   2.692   3.116  13.966 -0.1721 -0.1354 -0.4442
  620TMC3     H 9241   2.588   2.933  13.629 -0.5385 -0.7924  2.8589
  620TMC3    H1 9242   2.740   3.288  13.825  0.1429  0.6671 -0.4276
  620TMC3    H2 9243   2.486   3.322  13.487  0.6229  1.0321  1.0651
  620TMC3    C7 9244   2.634   3.455  13.655 -0.3271 -0.3284  0.3239
  620TMC3    C8 9245   2.385   3.064  13.552 -0.1044 -0.6890  0.2068
  620TMC3    O1 9246   2.723   3.496  13.729 -0.0033  0.3911 -0.7551
  620TMC3    O2 9247   2.357   2.972  13.627 -0.5385 -0.3796  0.2837
  621MPD2     C 9248   2.919   3.694   9.947 -0.1121  0.3140  0.3934
  621MPD2    C1 9249   2.983   3.637  10.055 -0.0201 -0.1771 -0.1577
  621MPD2    C2 9250   3.023   3.723  10.156  0.2213  0.3067  0.4595
  621MPD2    C3 9251   2.988   3.858  10.159  0.2006 -0.0961  0.1590
  621MPD2    C4 9252   2.920   3.909  10.055 -0.4410  0.2912 -0.5797
  621MPD2    C5 9253   2.883   3.829   9.947 -0.6671 -0.5784  0.1989
  621MPD2     H 9254   3.082   3.681  10.237  1.5045  1.1374 -0.0358
  621MPD2    H1 9255   2.892   4.013  10.048  0.0955  0.4966  0.4002
  621MPD2    H2 9256   2.876   3.624   9.876 -0.2565 -0.8994  1.6683
  621MPD2    H3 9257   2.828   3.867   9.863 -1.8589  0.6480  1.5315
  621MPD2     N 9258   3.023   3.944  10.270 -0.4085  0.6548 -0.1588
  621MPD2    H5 9259   3.068   3.898  10.349  0.3234 -0.0444 -0.9798
  621MPD2    N1 9260   3.016   3.494  10.063  0.2908 -0.6766 -0.0133
  621MPD2    H7 9261   3.065   3.472  10.149 -2.3595  0.2952  1.7629
  622TMC3    C1 9262   3.020   3.261  10.038  0.6144  0.4447 -0.3338
  622TMC3    C2 9263   3.085   3.265  10.159  0.0713  0.5622 -0.1681
  622TMC3    C3 9264   3.048   3.172  10.250 -0.0119  0.0992 -0.3437
  622TMC3    C4 9265   2.940   3.166   9.994  0.0781  0.4468 -0.5877
  622TMC3    C5 9266   2.907   3.072  10.095 -0.3434 -0.4922 -0.1996
  622TMC3    C6 9267   2.955   3.074  10.222  0.3394 -0.1646 -0.7539
  622TMC3     C 9268   2.983   3.391   9.982 -0.4884 -0.3011 -0.2937
  622TMC3     O 9269   2.931   3.410   9.873  0.0288 -0.4237  0.3211
  622TMC3     H 9270   3.142   3.347  10.201 -1.0462  1.8691 -1.2071
  622TMC3    H1 9271   2.884   3.171   9.902 -0.3793  0.0147 -0.3355
  622TMC3    H2 9272   2.925   3.003  10.298  1.0278  0.6380  0.2634
  622TMC3    C7 9273   2.836   2.952  10.057  0.0310 -0.2410 -0.0091
  622TMC3    C8 9274   3.029   3.240  10.373 -0.4495  0.2996  0.7916
  622TMC3    O1 9275   2.864   2.848  10.115 -0.1340  0.3634  0.0677
  622TMC3    O2 9276   3.079   3.191  10.473  0.1907 -0.3362 -0.3705
  623MPD2     C 9277   1.521   4.206  15.758 -0.1245  0.1640 -0.9518
  623MPD2    C1 9278   1.487   4.083  15.820 -0.0542 -0.5868 -0.2387
  623MPD2    C2 9279   1.552   4.051  15.935 -0.2067 -0.0162 -0.3685
  623MPD2    C3 9280   1.660   4.121  15.983  0.2115 -0.5160  0.1076
  623MPD2    C4 9281   1.701   4.240  15.921  0.1934 -0.3174  0.2532
  623MPD2    C5 9282   1.636   4.268  15.799  0.5080  0.8177  0.1123
  623MPD2     H 9283   1.520   3.969  15.998  0.6798 -0.5383 -0.6083
  623MPD2    H1 9284   1.787   4.302  15.944  0.5244 -0.9445  0.7150
  623MPD2    H2 9285   1.472   4.247  15.670  2.7265  3.2586 -1.0896
  623MPD2    H3 9286   1.670   4.342  15.727 -0.9713  0.9068 -0.4875
  623MPD2     N 9287   1.721   4.070  16.100 -0.4625  0.0108  0.0076
  623MPD2    H5 9288   1.679   3.983  16.131  3.2093 -1.5156  0.6816
  623MPD2    N1 9289   1.373   4.004  15.791 -0.1458  0.6183  0.1703
  623MPD2    H7 9290   1.349   3.942  15.867  1.5067  1.4162  1.3471
  624TMC3    C1 9291   1.958   4.018  16.481  0.1266  0.1705  0.3297
  624TMC3    C2 9292   1.846   3.961  16.541  0.1541  0.5672  0.1140
  624TMC3    C3 9293   1.725   3.964  16.474 -0.2150 -0.0969  0.5998
  624TMC3    C4 9294   1.951   4.076  16.357 -0.3960 -0.4839 -0.1043
  624TMC3    C5 9295   1.830   4.067  16.296 -0.0769 -0.1880  0.2388
  624TMC3    C6 9296   1.716   4.010  16.347 -0.3454 -0.3581 -0.1433
  624TMC3     C 9297   2.086   4.023  16.557  0.2447 -0.2557 -0.2040
  624TMC3     O 9298   2.079   3.987  16.675 -0.5465 -0.6620  0.1221
  624TMC3     H 9299   1.862   3.918  16.639  2.3654  0.8071 -0.1429
  624TMC3    H1 9300   2.029   4.138  16.315 -0.0813 -0.6632  0.2227
  624TMC3    H2 9301   1.618   3.994  16.302 -0.6544  0.7001  0.1354
  624TMC3    C7 9302   1.823   4.127  16.168 -1.5665 -0.0883  0.0774
  624TMC3    C8 9303   1.613   3.888  16.526 -0.1274  0.0223  0.3668
  624TMC3    O1 9304   1.900   4.221  16.147 -0.3606  0.1601 -0.1720
  624TMC3    O2 9305   1.549   3.821  16.442 -0.1228 -0.0569 -0.2095
  625MPD2     C 9306   1.984   0.685   0.946  0.7857  0.5474  0.0153
  625MPD2    C1 9307   2.033   0.812   0.919  0.5848  0.2560 -0.0254
  625MPD2    C2 9308   2.158   0.845   0.965 -0.8122  0.0184  0.0609
  625MPD2    C3 9309   2.235   0.749   1.035 -0.2808  0.2579  0.1728
  625MPD2    C4 9310   2.184   0.624   1.061 -0.6397  0.1123 -0.0430
  625MPD2    C5 9311   2.062   0.593   1.008 -0.0451 -0.4669  0.3148
  625MPD2     H 9312   2.192   0.946   0.945 -0.0397 -0.6131 -1.7708
  625MPD2    H1 9313   2.243   0.539   1.093  1.8039  2.4424  1.6036
  625MPD2    H2 9314   1.887   0.649   0.915 -0.6638  3.7864  0.8884
  625MPD2    H3 9315   2.032   0.489   1.007  1.7152 -0.9603  0.0657
  625MPD2     N 9316   2.363   0.788   1.075 -0.1300  0.9426  0.6777
  625MPD2    H5 9317   2.398   0.880   1.050  0.7097  0.6481  0.7930
  625MPD2    N1 9318   1.959   0.910   0.850 -0.2907  0.2127 -0.0303
  625MPD2    H7 9319   2.004   1.000   0.843  2.0630 -0.9472  0.1473
  626TMC3    C1 9320   1.770   1.012   0.748  0.6659 -0.1339 -0.5993
  626TMC3    C2 9321   1.661   0.995   0.660 -1.1304 -0.8369  0.1497
  626TMC3    C3 9322   1.609   1.108   0.607  0.7831 -0.3341 -0.1638
  626TMC3    C4 9323   1.813   1.132   0.791 -0.5205  0.3642 -0.1271
  626TMC3    C5 9324   1.736   1.238   0.754 -0.4467  0.2194 -0.3527
  626TMC3    C6 9325   1.637   1.227   0.663 -0.0006  0.1414  0.5164
  626TMC3     C 9326   1.831   0.892   0.804 -0.0985  0.4814  0.1038
  626TMC3     O 9327   1.769   0.789   0.789  0.5826  0.6434 -0.3576
  626TMC3     H 9328   1.628   0.896   0.633  1.1438 -1.3736 -0.5829
  626TMC3    H1 9329   1.886   1.145   0.870  0.0468 -0.2150 -0.5565
  626TMC3    H2 9330   1.580   1.313   0.629  0.5718  0.2091 -0.2708
  626TMC3    C7 9331   1.723   1.343   0.854 -1.0144 -0.4050 -0.9779
  626TMC3    C8 9332   1.513   1.088   0.492  0.9088 -0.4477 -0.3393
  626TMC3    O1 9333   1.815   1.357   0.933 -0.3588  0.7778 -0.1032
  626TMC3    O2 9334   1.498   0.976   0.446 -0.1823  0.5764  0.0989
  627MPD2     C 9335   1.089   0.444  14.310 -0.5236  0.9002 -0.5743
  627MPD2    C1 9336   1.063   0.501  14.433  0.1326  0.1369 -0.4957
  627MPD2    C2 9337   0.949   0.469  14.502 -0.8227 -0.1817  0.6904
  627MPD2    C3 9338   0.862   0.371  14.457  0.2764  0.9207 -0.4628
  627MPD2    C4 9339   0.899   0.299  14.338 -0.8697  0.4063  0.0993
  627MPD2    C5 9340   1.013   0.332  14.267  0.4354 -0.0037 -1.1268
  627MPD2     H 9341   0.941   0.514  14.600  0.2107  0.5933  0.4224
  627MPD2    H1 9342   0.856   0.208  14.300  1.2628  0.2575 -2.0145
  627MPD2    H2 9343   1.176   0.466  14.250  1.0060 -0.6487  1.0862
  627MPD2    H3 9344   1.050   0.289  14.175 -0.1171 -2.0246 -0.3990
  627MPD2     N 9345   0.758   0.329  14.546  0.2940  0.0136 -0.2012
  627MPD2    H5 9346   0.746   0.384  14.631  0.8195  0.0222 -0.1287
  627MPD2    N1 9347   1.156   0.590  14.483  0.2736  0.0966  0.5344
  627MPD2    H7 9348   1.124   0.639  14.566  1.3666  1.7429 -0.0288
  628TMC3    C1 9349   1.359   0.707  14.517 -0.1778 -0.9219  0.0290
  628TMC3    C2 9350   1.490   0.686  14.533 -0.0848  0.3104  0.3572
  628TMC3    C3 9351   1.550   0.743  14.642 -0.2838  0.8182  0.0809
  628TMC3    C4 9352   1.282   0.794  14.594  0.0216  0.8076  0.1788
  628TMC3    C5 9353   1.357   0.851  14.701 -0.1739  0.4860  0.1165
  628TMC3    C6 9354   1.480   0.810  14.735  0.2451  0.4530 -0.1182
  628TMC3     C 9355   1.291   0.604  14.448  0.7391  0.1084  0.4820
  628TMC3     O 9356   1.364   0.534  14.378  0.0568 -0.2682 -0.2037
  628TMC3     H 9357   1.544   0.623  14.463  0.4987 -0.9861  1.9742
  628TMC3    H1 9358   1.180   0.811  14.564  0.3162 -0.3697 -1.5114
  628TMC3    H2 9359   1.540   0.882  14.789  2.3858 -1.9839  0.7720
  628TMC3    C7 9360   1.304   0.970  14.776 -0.0990  0.0822 -0.4015
  628TMC3    C8 9361   1.681   0.692  14.671  0.5137 -0.3629 -0.0605
  628TMC3    O1 9362   1.358   0.985  14.877  0.9361 -0.1661  0.3800
  628TMC3    O2 9363   1.757   0.678  14.577  0.2426 -0.3394  0.3595
  629MPD2     C 9364   3.603   4.572  16.133 -0.0210  0.1077  0.6642
  629MPD2    C1 9365   3.642   4.502  16.243 -0.1842  0.4929  0.2805
  629MPD2    C2 9366   3.554   4.406  16.297 -0.6719 -0.0257 -0.4630
  629MPD2    C3 9367   3.431   4.375  16.231 -0.2744  0.3169 -0.0055
  629MPD2    C4 9368   3.394   4.452  16.121  0.4049 -0.5368  1.0666
  629MPD2    C5 9369   3.480   4.548  16.078  0.7153  0.3210  0.1795
  629MPD2     H 9370   3.586   4.352  16.385 -0.2643 -0.2080 -0.7255
  629MPD2    H1 9371   3.295   4.450  16.077 -0.3723  0.6493  2.7579
  629MPD2    H2 9372   3.663   4.648  16.085 -0.9188 -0.3130 -1.1367
  629MPD2    H3 9373   3.446   4.606  15.992 -1.3845  0.5690  1.1734
  629MPD2     N 9374   3.342   4.285  16.293  0.0460 -0.6242  0.2722
  629MPD2    H5 9375   3.367   4.245  16.383  2.4650  1.8775  0.7136
  629MPD2    N1 9376   3.779   4.519  16.302  0.5449  0.2382 -0.5912
  629MPD2    H7 9377   3.847   4.577  16.254  1.8459  0.2806  1.2941
  630TMC3    C1 9378   3.972   4.476  16.437 -0.4291  0.3796 -0.1424
  630TMC3    C2 9379   4.044   4.556  16.352  0.2611  0.4033 -0.1005
  630TMC3    C3 9380   4.180   4.527  16.344  0.0184 -0.6231  0.6595
  630TMC3    C4 9381   4.018   4.399  16.536  0.3890 -0.3799  0.1802
  630TMC3    C5 9382   4.153   4.382  16.529  0.2061 -0.1740 -0.2188
  630TMC3    C6 9383   4.239   4.441  16.432  0.1568  0.3222  0.2689
  630TMC3     C 9384   3.826   4.478  16.424 -0.4209 -0.6275  0.1682
  630TMC3     O 9385   3.760   4.426  16.512  0.0939 -0.6154  0.1935
  630TMC3     H 9386   4.001   4.621  16.276 -2.5490 -0.1809  0.9741
  630TMC3    H1 9387   3.946   4.338  16.590  0.9774 -0.2199  1.1571
  630TMC3    H2 9388   4.343   4.410  16.427 -0.0444 -0.1440 -1.0338
  630TMC3    C7 9389   4.204   4.268  16.596 -0.1571 -0.3305  0.2847
  630TMC3    C8 9390   4.268   4.619  16.277 -0.0332  0.2386  0.0674
  630TMC3    O1 9391   4.146   4.163  16.576  0.1334 -0.1110  0.0611
  630TMC3    O2 9392   4.382   4.625  16.326 -0.0417 -0.3715  0.1183
  631MPD2     C 9393   2.029   3.807  15.358  0.2595  0.3642 -0.1382
  631MPD2    C1 9394   2.104   3.900  15.290  1.1887  0.5000  0.8065
  631MPD2    C2 9395   2.234   3.868  15.248  0.6600 -0.1795 -0.3340
  631MPD2    C3 9396   2.274   3.736  15.266 -0.7078  0.0380 -0.7865
  631MPD2    C4 9397   2.198   3.644  15.346  0.1565 -0.0313  0.9090
  631MPD2    C5 9398   2.069   3.681  15.390  0.0268 -0.2527  0.3659
  631MPD2     H 9399   2.287   3.938  15.185  0.8424  0.5539  0.6400
  631MPD2    H1 9400   2.225   3.544  15.380  1.7135  0.9458  2.5414
  631MPD2    H2 9401   1.930   3.836  15.392  0.3794  1.3950 -0.6632
  631MPD2    H3 9402   2.016   3.604  15.445 -2.3634 -0.6674 -2.5204
  631MPD2     N 9403   2.399   3.719  15.212 -0.7410 -0.1220  0.2358
  631MPD2    H5 9404   2.439   3.808  15.185 -4.3022  1.1270 -0.9265
  631MPD2    N1 9405   2.045   4.029  15.271  0.1236 -0.3167  0.0233
  631MPD2    H7 9406   1.953   4.045  15.310  0.0116  1.5586 -0.9895
  632TMC3    C1 9407   2.084   4.263  15.230  0.1880 -0.7023 -0.1359
  632TMC3    C2 9408   2.006   4.293  15.338 -0.1727  0.1563  0.2382
  632TMC3    C3 9409   2.044   4.400  15.420  0.4111  0.1527  0.6781
  632TMC3    C4 9410   2.190   4.346  15.195  0.2186  0.2740  0.2768
  632TMC3    C5 9411   2.214   4.459  15.269  0.0522  0.1174 -0.0805
  632TMC3    C6 9412   2.153   4.478  15.393 -0.6421 -0.3929  0.4138
  632TMC3     C 9413   2.094   4.123  15.179 -0.1159  0.9161  0.1607
  632TMC3     O 9414   2.168   4.103  15.090  0.5181  0.3714  0.5235
  632TMC3     H 9415   1.930   4.225  15.373  0.5870 -1.4348 -1.2343
  632TMC3    H1 9416   2.256   4.319  15.113  1.2936  0.3854  1.1110
  632TMC3    H2 9417   2.172   4.575  15.438  1.2449 -1.2142  1.3739
  632TMC3    C7 9418   2.333   4.534  15.229 -0.1558  0.7240  0.3312
  632TMC3    C8 9419   1.939   4.454  15.508  0.8791 -0.0963  0.1612
  632TMC3    O1 9420   2.398   4.586  15.317  0.3702 -0.1769 -0.0851
  632TMC3    O2 9421   1.829   4.400  15.503  0.5632  0.4310 -0.4618
  633MPD2     C 9422   1.583   2.133  17.314  0.3717  0.7237  0.4311
  633MPD2    C1 9423   1.606   2.062  17.199 -0.6531  0.3636 -0.1439
  633MPD2    C2 9424   1.560   1.930  17.187 -0.1968 -0.0475  0.1220
  633MPD2    C3 9425   1.505   1.867  17.297  0.8337  0.1139  0.1165
  633MPD2    C4 9426   1.515   1.929  17.416  0.4531 -0.3652 -0.2255
  633MPD2    C5 9427   1.547   2.061  17.425  0.0964  0.3982 -0.3788
  633MPD2     H 9428   1.577   1.870  17.099  0.2935 -0.7257  0.6767
  633MPD2    H1 9429   1.496   1.876  17.509  1.3754 -0.4293 -0.0726
  633MPD2    H2 9430   1.621   2.234  17.318  0.7994  0.6077 -0.8245
  633MPD2    H3 9431   1.537   2.114  17.519 -0.5053 -0.8324  0.2511
  633MPD2     N 9432   1.477   1.724  17.294  0.0107 -0.2743  0.8334
  633MPD2    H5 9433   1.464   1.672  17.380 -1.9660 -0.8791  0.1677
  633MPD2    N1 9434   1.682   2.114  17.084  0.5517 -0.3330 -0.1969
  633MPD2    H7 9435   1.689   2.052  17.004 -1.5648  0.5178 -1.0425
  634TMC3    C1 9436   1.807   2.248  16.951  0.7675  0.4781 -0.4493
  634TMC3    C2 9437   1.863   2.139  16.889  0.6248  0.2075  0.5770
  634TMC3    C3 9438   1.897   2.153  16.760  0.1986  0.2387 -0.2943
  634TMC3    C4 9439   1.795   2.363  16.893  0.2806  0.0086  0.4626
  634TMC3    C5 9440   1.850   2.385  16.769  0.6346 -0.1622  0.1078
  634TMC3    C6 9441   1.901   2.278  16.693  0.2221  0.3934  0.8577
  634TMC3     C 9442   1.739   2.234  17.076  0.2203 -0.0112  0.4471
  634TMC3     O 9443   1.720   2.332  17.145  0.3489 -0.2699  0.1305
  634TMC3     H 9444   1.883   2.046  16.941 -1.1570 -0.6548 -0.2938
  634TMC3    H1 9445   1.756   2.445  16.952  1.8734  1.6529 -0.7639
  634TMC3    H2 9446   1.918   2.289  16.586 -0.4528  0.7145  0.7848
  634TMC3    C7 9447   1.821   2.499  16.683 -0.7413 -0.2074 -0.9030
  634TMC3    C8 9448   1.945   2.040  16.690  0.3853  0.2325 -0.4185
  634TMC3    O1 9449   1.888   2.518  16.585  0.1153 -0.0319  0.5281
  634TMC3    O2 9450   1.932   1.926  16.743  0.3799 -0.5164 -0.3555
  635TMC3    C1 9451   1.717   3.417   0.370 -0.2051 -0.1166  0.4261
  635TMC3    C2 9452   1.755   3.341   0.259  0.3236  0.1585  0.1506
  635TMC3    C3 9453   1.650   3.284   0.184  0.0871 -0.0483  0.1541
  635TMC3    C4 9454   1.582   3.438   0.395 -0.6673 -0.5736  0.3558
  635TMC3    C5 9455   1.486   3.379   0.314 -0.9298 -0.4343 -0.1957
  635TMC3    C6 9456   1.514   3.289   0.219  0.1510 -0.3559 -0.0209
  635TMC3     C 9457   1.815   3.486   0.447 -0.0564 -0.0928  0.0967
  635TMC3     O 9458   1.773   3.580   0.517  0.3821 -0.6308  0.2221
  635TMC3     H 9459   1.861   3.323   0.240  0.2864 -0.7683  0.8370
  635TMC3    H1 9460   1.553   3.479   0.491 -0.3529  1.1409 -0.2780
  635TMC3    H2 9461   1.435   3.235   0.168  1.4001 -1.1789 -1.0975
  635TMC3    C7 9462   1.352   3.389   0.353 -0.2649  0.3759  0.1783
  635TMC3    C8 9463   1.686   3.199   0.079 -0.5512  0.5636 -0.6393
  635TMC3    O1 9464   1.268   3.301   0.333  1.0557 -0.3718  0.0086
  635TMC3    O2 9465   1.801   3.213   0.047 -0.1313 -0.1979  0.1158
  636MPD2     C 9466   3.277   2.463  16.139 -0.1274  0.6136 -0.6342
  636MPD2    C1 9467   3.184   2.464  16.245 -0.2001  0.2441  0.3939
  636MPD2    C2 9468   3.182   2.354  16.327 -0.2326  0.5565 -0.0472
  636MPD2    C3 9469   3.263   2.245  16.305  0.3886  0.5109  0.2525
  636MPD2    C4 9470   3.349   2.247  16.197 -0.9394  0.2597  1.0154
  636MPD2    C5 9471   3.360   2.357  16.113  0.5045 -0.0317 -0.2367
  636MPD2     H 9472   3.109   2.344  16.407 -1.5257 -1.3015 -1.4475
  636MPD2    H1 9473   3.413   2.164  16.172 -1.7672  0.8278 -2.9805
  636MPD2    H2 9474   3.292   2.548  16.074 -0.6803  2.1188  1.2099
  636MPD2    H3 9475   3.424   2.346  16.026  0.2011  0.0490 -0.4724
  636MPD2     N 9476   3.263   2.134  16.398 -0.2698  0.2067 -0.0026
  636MPD2    H5 9477   3.215   2.145  16.487  0.9798 -0.2946  0.7375
  636MPD2    N1 9478   3.112   2.573  16.290 -0.1945  0.0124 -0.5848
  636MPD2    H7 9479   3.056   2.565  16.374 -0.4797 -1.9531 -0.9737
  637TMC3    C1 9480   3.309   1.918  16.488 -0.4704 -0.1118  0.4571
  637TMC3    C2 9481   3.374   1.967  16.595 -0.2567  0.2432  0.4093
  637TMC3    C3 9482   3.467   1.893  16.658 -0.4217 -0.1945  0.1298
  637TMC3    C4 9483   3.328   1.789  16.448  0.4671 -0.3483  0.3488
  637TMC3    C5 9484   3.416   1.713  16.511 -0.0225  0.6481 -0.2946
  637TMC3    C6 9485   3.484   1.763  16.622 -0.5309 -0.7384 -0.1506
  637TMC3     C 9486   3.311   2.007  16.375 -0.7977 -0.3855 -0.9613
  637TMC3     O 9487   3.332   1.955  16.269 -0.3057 -0.4811 -0.6616
  637TMC3     H 9488   3.352   2.061  16.644  0.4657 -1.5472  4.2072
  637TMC3    H1 9489   3.285   1.749  16.357  0.1708  0.4832  0.1236
  637TMC3    H2 9490   3.564   1.712  16.674 -2.3319 -0.6996  2.6707
  637TMC3    C7 9491   3.500   1.655  16.408 -0.4130 -0.5362 -0.7474
  637TMC3    C8 9492   3.589   1.960  16.704  0.6105 -0.0278  0.1014
  637TMC3    O1 9493   3.451   1.599  16.310 -0.2589 -0.4040 -0.4935
  637TMC3    O2 9494   3.687   1.915  16.647  0.0963  0.1776 -0.2545
  638MPD2     C 9495   2.962   1.750  14.980 -0.1427  0.1810 -0.2576
  638MPD2    C1 9496   3.047   1.644  14.952 -0.4386 -0.2418 -0.1331
  638MPD2    C2 9497   3.063   1.547  15.043 -0.4704  0.5761  0.8257
  638MPD2    C3 9498   2.997   1.539  15.166 -0.9686  0.5219 -0.4484
  638MPD2    C4 9499   2.932   1.652  15.200  0.1027 -0.2998 -0.3523
  638MPD2    C5 9500   2.916   1.760  15.110 -0.1494 -0.3020  0.1044
  638MPD2     H 9501   3.128   1.465  15.015  0.3406  1.8667 -1.0289
  638MPD2    H1 9502   2.872   1.653  15.291 -0.3421 -2.0677 -0.6190
  638MPD2    H2 9503   2.939   1.834  14.916  1.5050  0.8241 -0.0296
  638MPD2    H3 9504   2.857   1.847  15.137  1.5697  0.8393  0.1906
  638MPD2     N 9505   3.010   1.424  15.243  0.4031  0.6653  0.5151
  638MPD2    H5 9506   3.069   1.346  15.216 -0.6394 -0.0279  0.2811
  638MPD2    N1 9507   3.111   1.645  14.830  0.4704 -0.0876  0.2875
  638MPD2    H7 9508   3.081   1.715  14.764  0.1145  1.6549  2.2867
  639TMC3    C1 9509   2.961   1.248  15.389 -0.5449  0.5647 -0.1416
  639TMC3    C2 9510   2.868   1.147  15.395  0.0912 -0.1562 -0.2581
  639TMC3    C3 9511   2.906   1.018  15.422 -0.6601 -0.0774 -0.0102
  639TMC3    C4 9512   3.091   1.218  15.397 -0.1751  0.5252  0.7695
  639TMC3    C5 9513   3.130   1.095  15.446  0.2872 -0.0785  0.1674
  639TMC3    C6 9514   3.037   0.997  15.462  0.3433  0.3627  0.1332
  639TMC3     C 9515   2.923   1.384  15.344  0.4092  0.7824 -0.3792
  639TMC3     O 9516   2.822   1.433  15.393  0.0949 -0.2244 -0.4985
  639TMC3     H 9517   2.764   1.164  15.372 -0.3395 -2.0244  0.3127
  639TMC3    H1 9518   3.167   1.295  15.383  1.2746 -1.1732 -0.8197
  639TMC3    H2 9519   3.060   0.900  15.504 -3.5725  0.0812  1.6344
  639TMC3    C7 9520   3.260   1.041  15.419 -0.2643 -0.0775 -0.4817
  639TMC3    C8 9521   2.839   0.919  15.345  0.5645  0.2459 -0.9224
  639TMC3    O1 9522   3.270   0.917  15.417 -0.0347 -0.0859 -0.1921
  639TMC3    O2 9523   2.915   0.847  15.284 -0.2903 -0.4848  0.0235
  640MPD2     C 9524   4.171   0.168  10.016  0.9648  0.5542 -0.4203
  640MPD2    C1 9525   4.084   0.132   9.919 -0.0449  1.2974  0.3103
  640MPD2    C2 9526   3.969   0.208   9.907  0.0701 -0.1972  0.2391
  640MPD2    C3 9527   3.946   0.324   9.985  0.2376 -0.2939 -0.0446
  640MPD2    C4 9528   4.038   0.355  10.083  0.0075  0.3347 -0.1217
  640MPD2    C5 9529   4.153   0.280  10.091 -0.0377 -0.0153  0.3609
  640MPD2     H 9530   3.892   0.169   9.842 -0.1765  0.4365  0.1481
  640MPD2    H1 9531   4.015   0.436  10.151 -2.0654 -1.9321  1.8875
  640MPD2    H2 9532   4.263   0.114  10.036 -0.7984 -2.6836 -1.0786
  640MPD2    H3 9533   4.222   0.301  10.172 -0.0344  1.1498  0.0597
  640MPD2     N 9534   3.834   0.410   9.987 -0.0853  0.4470 -0.2752
  640MPD2    H5 9535   3.834   0.479  10.061  0.9087 -0.1102  0.2504
  640MPD2    N1 9536   4.102   0.009   9.848  0.6347 -0.2683  0.4804
  640MPD2    H7 9537   4.163   4.674   9.883 -1.3160 -0.8963  2.6504
  641TMC3    C1 9538   4.045   4.571   9.704  0.2990  0.6325 -0.6259
  641TMC3    C2 9539   4.116   4.495   9.792  0.1234 -0.3814 -0.5225
  641TMC3    C3 9540   4.118   4.361   9.770  0.2007  0.8124  1.2316
  641TMC3    C4 9541   3.954   4.518   9.612  1.0328 -0.4583  0.0511
  641TMC3    C5 9542   3.951   4.380   9.608 -0.0611 -0.2028 -0.4841
  641TMC3    C6 9543   4.019   4.297   9.690 -0.1468 -0.0757  0.6751
  641TMC3     C 9544   4.034   4.714   9.737  0.1535  0.7789  0.0034
  641TMC3     O 9545   3.975   0.046   9.653 -0.7938 -0.0442 -0.9770
  641TMC3     H 9546   4.198   4.534   9.851 -0.8548 -0.4363  0.8846
  641TMC3    H1 9547   3.906   4.583   9.540  2.1816  0.7862  0.4232
  641TMC3    H2 9548   4.004   4.190   9.677 -1.1254  0.3830 -1.9273
  641TMC3    C7 9549   3.871   4.325   9.503 -1.0529 -1.5313  0.1199
  641TMC3    C8 9550   4.186   4.274   9.853  0.6670  0.2168  0.2469
  641TMC3    O1 9551   3.900   4.210   9.466  0.2727  0.1431 -0.4480
  641TMC3    O2 9552   4.181   4.151   9.832  0.3810 -0.2779 -0.3834
  642TMC3    C1 9553   0.296   1.251  12.477 -0.1480  0.6210  0.6839
  642TMC3    C2 9554   0.416   1.294  12.417 -0.5290  0.0296  0.1001
  642TMC3    C3 9555   0.443   1.251  12.291  0.4931  0.6720  0.5279
  642TMC3    C4 9556   0.219   1.143  12.425  0.4752  0.1296  0.8205
  642TMC3    C5 9557   0.252   1.101  12.297 -0.2996  0.0388  0.4523
  642TMC3    C6 9558   0.358   1.159  12.235 -0.7260 -0.4793 -0.4892
  642TMC3     C 9559   0.258   1.316  12.602 -0.3243  0.2563  1.0242
  642TMC3     O 9560   0.304   1.425  12.621 -0.1832 -0.3318  0.1315
  642TMC3     H 9561   0.468   1.372  12.471  0.5073 -1.0096  0.6047
  642TMC3    H1 9562   0.133   1.103  12.477 -0.2021  0.2625 -0.1881
  642TMC3    H2 9563   0.394   1.129  12.137  0.6018 -3.4221  0.9095
  642TMC3    C7 9564   0.168   1.013  12.222 -0.8523 -0.2851 -0.0614
  642TMC3    C8 9565   0.585   1.244  12.252  0.2622 -0.1974  0.4977
  642TMC3    O1 9566   0.196   0.981  12.105 -0.5166 -0.1691  0.5236
  642TMC3    O2 9567   0.610   1.225  12.134 -0.4240  0.0201  0.1784
  643TMC3    C1 9568   3.846   0.391   0.965 -0.3367  0.1819 -0.0282
  643TMC3    C2 9569   3.737   0.322   0.997 -0.2515  0.3056  0.5556
  643TMC3    C3 9570   3.676   0.238   0.911 -0.2052  0.0757  0.0551
  643TMC3    C4 9571   3.901   0.364   0.841  0.0294  0.9448 -0.7424
  643TMC3    C5 9572   3.845   0.266   0.762 -0.1596 -0.0025  0.6771
  643TMC3    C6 9573   3.748   0.189   0.805  0.6362  0.5390 -0.0676
  643TMC3     C 9574   3.847   0.529   1.012 -0.2793 -0.2789 -0.5144
  643TMC3     O 9575   3.744   0.578   1.051  0.2147  0.2033  0.2192
  643TMC3     H 9576   3.695   0.349   1.094  1.6040  0.9981  1.1680
  643TMC3    H1 9577   3.984   0.423   0.805  0.5420  0.7175  0.0585
  643TMC3    H2 9578   3.692   0.137   0.729  0.1691 -2.0666  2.0555
  643TMC3    C7 9579   3.892   0.252   0.629 -0.3026  0.6746  0.0655
  643TMC3    C8 9580   3.536   0.271   0.883  0.5119 -0.0902  0.2890
  643TMC3    O1 9581   3.951   0.349   0.583  0.4280 -0.0583  0.3038
  643TMC3    O2 9582   3.482   0.208   0.793 -0.0501 -0.1690 -0.9712
  644MPD2     C 9583   4.120   3.847   9.145  0.2715 -0.2316  0.2852
  644MPD2    C1 9584   4.014   3.901   9.084 -0.4023 -0.1952 -0.8631
  644MPD2    C2 9585   3.929   3.819   9.015 -0.2628  0.1327  0.6999
  644MPD2    C3 9586   3.949   3.683   9.002 -0.4548 -0.6384  0.3044
  644MPD2    C4 9587   4.066   3.632   9.056  0.6171  0.6965 -0.0235
  644MPD2    C5 9588   4.147   3.710   9.132 -0.1755  0.2335  0.0271
  644MPD2     H 9589   3.834   3.855   8.976 -0.5151 -2.9336 -1.4858
  644MPD2    H1 9590   4.096   3.531   9.032 -0.3743  0.5613 -0.7111
  644MPD2    H2 9591   4.191   3.905   9.202  0.9931 -0.5787 -0.2539
  644MPD2    H3 9592   4.241   3.666   9.163 -1.6519 -2.5884  0.5011
  644MPD2     N 9593   3.848   3.599   8.941  0.2376 -0.2302 -0.3187
  644MPD2    H5 9594   3.764   3.654   8.925  1.6412  2.2402  0.8978
  644MPD2    N1 9595   3.994   4.040   9.087 -0.0810  0.2679 -0.4446
  644MPD2    H7 9596   4.062   4.087   9.146  0.6753 -3.8415  2.0148
  645TMC3    C1 9597   3.724   3.419   8.864  0.2345 -0.1675  0.3637
  645TMC3    C2 9598   3.739   3.331   8.769  0.2045 -0.1560 -0.3368
  645TMC3    C3 9599   3.630   3.300   8.700 -0.8171  0.0752 -0.6675
  645TMC3    C4 9600   3.607   3.472   8.895  0.2368  0.4065 -0.1482
  645TMC3    C5 9601   3.503   3.464   8.806 -0.0450  0.0300  0.0443
  645TMC3    C6 9602   3.516   3.373   8.707 -0.2829  0.2365 -1.2670
  645TMC3     C 9603   3.849   3.465   8.915  0.0236 -0.7479  0.0645
  645TMC3     O 9604   3.939   3.380   8.924  0.0946 -0.8954 -0.0695
  645TMC3     H 9605   3.836   3.288   8.746 -0.8821 -1.6772 -2.0436
  645TMC3    H1 9606   3.605   3.527   8.989  1.0592 -1.8220  1.1619
  645TMC3    H2 9607   3.434   3.352   8.639 -0.6733  0.4322 -0.8644
  645TMC3    C7 9608   3.368   3.499   8.843  0.2714 -0.2167 -0.2703
  645TMC3    C8 9609   3.628   3.181   8.617 -0.3534  0.0613  0.5129
  645TMC3    O1 9610   3.291   3.505   8.753 -0.1886 -0.5856 -0.2079
  645TMC3    O2 9611   3.730   3.155   8.555 -0.3466 -0.1896 -0.2469
  646MPD2     C 9612   3.169   4.701  14.569  0.0354  0.5208  0.3943
  646MPD2    C1 9613   3.152   0.029  14.686  0.0335 -0.4595  0.0129
  646MPD2    C2 9614   3.057   0.127  14.706 -0.6565  0.2879 -0.3163
  646MPD2    C3 9615   2.965   0.147  14.606 -0.1068 -0.1619  0.5086
  646MPD2    C4 9616   2.979   0.085  14.484 -0.0427  0.2316  0.5673
  646MPD2    C5 9617   3.077   4.724  14.475 -0.4638 -0.2210  0.4187
  646MPD2     H 9618   3.064   0.185  14.797  0.8146 -1.4885  0.7125
  646MPD2    H1 9619   2.920   0.110  14.396 -1.6057 -0.2177  1.4727
  646MPD2    H2 9620   3.235   4.617  14.547 -0.1974  0.1102  1.2945
  646MPD2    H3 9621   3.075   4.676  14.378  0.6719  1.0012 -0.2047
  646MPD2     N 9622   2.861   0.233  14.619  0.3094  0.6000 -0.2539
  646MPD2    H5 9623   2.797   0.249  14.541  0.7471  0.1432 -0.7055
  646MPD2    N1 9624   3.229   4.719  14.792 -0.3458 -0.1026 -0.2665
  646MPD2    H7 9625   3.304   4.653  14.774 -0.2800 -0.4633  1.2907
  647TMC3    C1 9626   3.328   4.705  15.007  0.0062 -0.2594  0.0951
  647TMC3    C2 9627   3.296   4.700  15.138 -0.7499 -0.1389 -0.0584
  647TMC3    C3 9628   3.392   4.649  15.219  0.2119  0.3467  0.6263
  647TMC3    C4 9629   3.437   4.653  14.948 -0.1716 -0.6382 -0.5897
  647TMC3    C5 9630   3.528   4.590  15.027 -0.5368 -0.2639  0.3631
  647TMC3    C6 9631   3.502   4.586  15.164 -0.3883 -0.5495 -0.2772
  647TMC3     C 9632   3.215   0.012  14.924 -0.3307  0.2986  0.0474
  647TMC3     O 9633   3.109   0.056  14.971 -0.6986 -0.1711 -0.0454
  647TMC3     H 9634   3.204   0.005  15.173 -1.7719 -1.6193 -0.9123
  647TMC3    H1 9635   3.473   4.686  14.851  0.8728  0.1499  0.0559
  647TMC3    H2 9636   3.580   4.553  15.232  0.5951  0.2167 -1.0327
  647TMC3    C7 9637   3.628   4.499  14.979  0.2656 -0.2077  0.4517
  647TMC3    C8 9638   3.354   4.612  15.353 -0.6441 -0.5501 -0.2788
  647TMC3    O1 9639   3.677   4.419  15.059  0.2140 -0.0790  0.1560
  647TMC3    O2 9640   3.437   4.549  15.416  0.4157 -0.2721 -0.0613
  648TMC3    C1 9641   2.437   2.211  16.269  0.1755  0.0367  0.1704
  648TMC3    C2 9642   2.494   2.089  16.239 -0.4687 -0.9034  0.2193
  648TMC3    C3 9643   2.545   2.081  16.103  0.4952 -0.4893 -0.6574
  648TMC3    C4 9644   2.423   2.310  16.176  0.2449  0.2080 -0.1970
  648TMC3    C5 9645   2.468   2.292  16.049  0.2286 -0.3545  0.3307
  648TMC3    C6 9646   2.532   2.175  16.013  0.3003 -0.1316 -0.4549
  648TMC3     C 9647   2.367   2.233  16.398  0.1921 -0.0128  0.0629
  648TMC3     O 9648   2.302   2.337  16.400  0.6467 -0.1465 -0.0163
  648TMC3     H 9649   2.524   2.017  16.314 -0.6198  1.4208  2.5119
  648TMC3    H1 9650   2.381   2.403  16.212  0.6914 -0.5250  2.2060
  648TMC3    H2 9651   2.552   2.155  15.908  0.2573 -1.8879 -0.1338
  648TMC3    C7 9652   2.435   2.384  15.945  0.8087 -0.1064  0.6616
  648TMC3    C8 9653   2.579   1.951  16.046 -0.7664 -0.1089  0.2861
  648TMC3    O1 9654   2.506   2.375  15.846  0.3448  0.2632  0.6654
  648TMC3    O2 9655   2.506   1.864  16.093  0.0301 -0.6375  0.4466
  649TMC3    C1 9656   1.190   3.506  12.980 -0.1169  0.2598 -1.2559
  649TMC3    C2 9657   1.295   3.475  12.895  0.2595 -0.5382 -0.8381
  649TMC3    C3 9658   1.417   3.443  12.951 -0.3436 -0.2567 -0.5051
  649TMC3    C4 9659   1.214   3.500  13.117  0.7335 -0.4730 -0.3341
  649TMC3    C5 9660   1.331   3.444  13.162 -0.0366  0.8139  0.8933
  649TMC3    C6 9661   1.437   3.420  13.082 -0.0461  0.4373  0.1347
  649TMC3     C 9662   1.069   3.575  12.951 -0.4842 -0.6472 -0.3679
  649TMC3     O 9663   1.005   3.624  13.039  0.2433 -0.6223  0.2982
  649TMC3     H 9664   1.280   3.449  12.790 -0.0436 -1.7553 -0.5014
  649TMC3    H1 9665   1.134   3.517  13.188  0.8629  0.8256 -0.5071
  649TMC3    H2 9666   1.532   3.376  13.111  0.4817  2.1143  0.9705
  649TMC3    C7 9667   1.315   3.376  13.283  0.0372 -0.3807 -0.4742
  649TMC3    C8 9668   1.538   3.429  12.870  0.9636 -0.1652 -0.5556
  649TMC3    O1 9669   1.221   3.404  13.359  0.4762 -0.2281  0.0562
  649TMC3    O2 9670   1.630   3.373  12.925 -0.5995  0.0407  0.0336
  650TMC3    C1 9671   4.308   4.710  12.977  0.3300 -0.5982  0.1673
  650TMC3    C2 9672   4.378   0.072  13.036 -0.5230 -0.0850 -0.2683
  650TMC3    C3 9673   4.441   0.166  12.962  0.1836  0.3505 -0.8254
  650TMC3    C4 9674   4.287   4.710  12.842 -0.5549 -0.2904  0.4068
  650TMC3    C5 9675   4.373   0.057  12.772 -0.5896  0.3177  0.2138
  650TMC3    C6 9676   4.443   0.153  12.832 -0.0626 -1.0965  0.2375
  650TMC3     C 9677   4.312   4.587  13.048 -0.6871  0.1034  0.5411
  650TMC3     O 9678   4.335   4.587  13.167  0.0572 -0.3567  0.5722
  650TMC3     H 9679   4.377   0.085  13.144  0.2781 -2.6328  0.0402
  650TMC3    H1 9680   4.209   4.652  12.793 -1.8739  1.2222  0.7175
  650TMC3    H2 9681   4.520   0.198  12.772 -2.4363  4.5051  1.3989
  650TMC3    C7 9682   4.316   0.101  12.647  0.1443 -0.0823 -0.3407
  650TMC3    C8 9683   4.393   0.302  12.983 -0.8883 -1.1451  0.6846
  650TMC3    O1 9684   4.244   0.028  12.581 -0.3020 -0.4221 -0.0594
  650TMC3    O2 9685   4.445   0.390  12.912 -0.1321 -0.3677  0.3823
  651MPD2     C 9686   3.121   1.865  10.577 -0.5228  0.5078  0.5504
  651MPD2    C1 9687   3.096   2.002  10.595 -0.5161 -0.1045 -0.0252
  651MPD2    C2 9688   3.193   2.087  10.553  0.5209 -0.7282  0.0853
  651MPD2    C3 9689   3.317   2.043  10.503  0.3934  0.2959  0.1832
  651MPD2    C4 9690   3.337   1.907  10.480  0.1023  0.3879 -0.1597
  651MPD2    C5 9691   3.240   1.818  10.526 -0.4048 -0.3364  0.4147
  651MPD2     H 9692   3.177   2.194  10.562  1.7256 -0.3688 -1.9889
  651MPD2    H1 9693   3.435   1.865  10.458  1.3071  2.0523  1.9810
  651MPD2    H2 9694   3.048   1.792  10.609  0.5970 -0.9013 -0.0988
  651MPD2    H3 9695   3.266   1.713  10.530  0.8173 -0.0051  1.1872
  651MPD2     N 9696   3.419   2.143  10.490  0.1061  0.0197  0.4463
  651MPD2    H5 9697   3.388   2.236  10.516  3.6965  0.2778  3.7246
  651MPD2    N1 9698   2.972   2.053  10.642  0.4491 -0.8807 -0.9345
  651MPD2    H7 9699   2.959   2.154  10.640 -1.3249 -1.0505  1.7543
  652TMC3    C1 9700   3.790   2.387  10.580 -0.4056  0.4607 -0.3194
  652TMC3    C2 9701   3.724   2.268  10.566  0.0911  1.0214 -0.4501
  652TMC3    C3 9702   3.619   2.258  10.486 -0.3737  0.3153 -0.3882
  652TMC3    C4 9703   3.739   2.496  10.517 -0.1088  0.6523 -0.5676
  652TMC3    C5 9704   3.631   2.483  10.434  0.1805  0.5756  0.5134
  652TMC3    C6 9705   3.577   2.359  10.416 -0.0956  0.2501  0.0337
  652TMC3     C 9706   3.899   2.401  10.680  0.0838 -0.6030  0.3748
  652TMC3     O 9707   3.905   2.325  10.773 -0.1688  0.0195  0.0544
  652TMC3     H 9708   3.756   2.175  10.613  0.8407  1.6465  0.2833
  652TMC3    H1 9709   3.783   2.592  10.542 -0.4421 -0.0185  2.5102
  652TMC3    H2 9710   3.489   2.348  10.353  1.2473 -1.5326 -1.5475
  652TMC3    C7 9711   3.566   2.603  10.381  0.2619 -0.1326 -0.0141
  652TMC3    C8 9712   3.556   2.127  10.469  0.3067  0.3511  1.1553
  652TMC3    O1 9713   3.484   2.584  10.296 -0.9012 -0.5508 -0.1101
  652TMC3    O2 9714   3.628   2.030  10.480 -0.1256 -0.6011 -0.4422
  653MPD2     C 9715   1.236   2.193  17.683  0.0015  0.6790  0.0550
  653MPD2    C1 9716   1.202   2.272  17.575 -0.3716 -0.5342  0.4632
  653MPD2    C2 9717   1.177   2.212  17.455  0.0168  0.2839  0.6941
  653MPD2    C3 9718   1.163   2.074  17.436  0.1664  0.2982 -0.4253
  653MPD2    C4 9719   1.210   2.002  17.543 -0.1607  0.0118 -0.3609
  653MPD2    C5 9720   1.256   2.061  17.657  0.2495 -0.0522 -0.1584
  653MPD2     H 9721   1.161   2.282  17.374 -1.4126 -4.0539 -2.7727
  653MPD2    H1 9722   1.221   1.895  17.535  0.5696  0.2587 -2.6659
  653MPD2    H2 9723   1.280   2.230   0.022 -0.6428  0.1593  0.5763
  653MPD2    H3 9724   1.305   1.999  17.732 -0.3308 -0.5477 -0.1900
  653MPD2     N 9725   1.118   2.019  17.317  0.0033  0.5073 -0.1431
  653MPD2    H5 9726   1.091   2.091  17.250  0.0768  0.9441  0.3005
  653MPD2    N1 9727   1.176   2.411  17.593  0.3908  0.3968  0.1072
  653MPD2    H7 9728   1.143   2.461  17.511 -0.4526  1.2292  0.9502
  654TMC3    C1 9729   1.069   1.847  17.147  0.0072  0.7695  0.3841
  654TMC3    C2 9730   1.010   1.943  17.071 -0.5527  0.7825  0.4101
  654TMC3    C3 9731   0.979   1.913  16.941  0.7689  0.4792 -0.3662
  654TMC3    C4 9732   1.112   1.731  17.084  0.6444  0.5260 -0.2135
  654TMC3    C5 9733   1.073   1.708  16.955 -0.0820  0.4418 -0.3576
  654TMC3    C6 9734   1.000   1.797  16.887  0.9078  0.8177  0.1341
  654TMC3     C 9735   1.124   1.882  17.278 -0.2052 -0.0196 -0.0838
  654TMC3     O 9736   1.155   1.786  17.340 -0.3838 -0.9831  0.3558
  654TMC3     H 9737   0.980   2.041  17.106 -0.3513  1.0860 -0.2607
  654TMC3    H1 9738   1.169   1.666  17.149 -0.6065 -0.6628 -0.3286
  654TMC3    H2 9739   0.950   1.765  16.796 -0.8539  0.2868  1.2848
  654TMC3    C7 9740   1.101   1.577  16.893 -0.0884 -0.1327 -0.7211
  654TMC3    C8 9741   0.885   2.000  16.872 -0.1841  0.1482  1.1860
  654TMC3    O1 9742   1.089   1.567  16.773 -0.5112  0.2087  0.4237
  654TMC3    O2 9743   0.822   2.081  16.941  0.2576 -0.4386 -0.6257
  655MPD2     C 9744   3.078   2.422  15.846  0.3367  0.4363  0.0489
  655MPD2    C1 9745   3.007   2.500  15.757 -0.8112 -0.3969  0.1088
  655MPD2    C2 9746   3.048   2.492  15.623 -0.0151 -0.0131 -0.7475
  655MPD2    C3 9747   3.147   2.408  15.579 -0.4636  0.5838  0.4950
  655MPD2    C4 9748   3.220   2.332  15.669  0.0285  0.3846  0.0658
  655MPD2    C5 9749   3.180   2.343  15.801 -0.5383  0.3298 -0.4494
  655MPD2     H 9750   2.990   2.553  15.554 -3.1209 -1.9446  0.1226
  655MPD2    H1 9751   3.303   2.272  15.633  0.6523 -0.1931  2.4395
  655MPD2    H2 9752   3.050   2.425  15.951 -0.9388 -1.7585 -0.2554
  655MPD2    H3 9753   3.227   2.276  15.872 -2.3286 -1.6820 -1.1607
  655MPD2     N 9754   3.183   2.390  15.442 -0.2328 -0.2389  0.3397
  655MPD2    H5 9755   3.244   2.318  15.405  0.6645  0.5749  0.2554
  655MPD2    N1 9756   2.909   2.589  15.797 -0.1676 -0.6024 -0.1647
  655MPD2    H7 9757   2.875   2.656  15.729 -2.1265 -2.2923 -0.8508
  656TMC3    C1 9758   2.740   2.693  15.923 -0.1302 -0.1170  0.0101
  656TMC3    C2 9759   2.661   2.691  16.031 -0.0387 -0.2294 -0.0929
  656TMC3    C3 9760   2.554   2.770  16.031 -0.4598 -0.1357 -0.8581
  656TMC3    C4 9761   2.700   2.767  15.808 -0.5385 -0.3722  0.0449
  656TMC3    C5 9762   2.590   2.839  15.816  0.6397 -0.5562  0.0285
  656TMC3    C6 9763   2.517   2.855  15.929 -0.8566  0.4496 -0.0261
  656TMC3     C 9764   2.844   2.591  15.921  0.1916 -0.2757 -0.1294
  656TMC3     O 9765   2.860   2.516  16.017 -0.6207  0.1255  0.0787
  656TMC3     H 9766   2.675   2.632  16.121 -1.3980 -1.1722 -0.5034
  656TMC3    H1 9767   2.751   2.767  15.712 -0.1465 -1.8340  0.2590
  656TMC3    H2 9768   2.431   2.921  15.936  0.1101  1.5945  1.1210
  656TMC3    C7 9769   2.551   2.904  15.689 -0.2514 -0.0156  0.0240
  656TMC3    C8 9770   2.460   2.739  16.138  0.3465 -0.3735  0.0529
  656TMC3    O1 9771   2.598   2.863  15.584 -0.8558 -0.5638 -0.6700
  656TMC3    O2 9772   2.461   2.629  16.190 -0.0892  0.1153 -0.0999
  657TMC3    C1 9773   1.603   1.894  15.088 -0.2333  0.0560  0.2572
  657TMC3    C2 9774   1.554   1.863  15.213 -0.3744  0.3332  0.1744
  657TMC3    C3 9775   1.434   1.918  15.255 -0.6665 -0.2291  0.1277
  657TMC3    C4 9776   1.527   1.971  14.999  0.3121 -0.0313 -0.3662
  657TMC3    C5 9777   1.402   2.018  15.042 -0.7574 -0.7224 -0.3237
  657TMC3    C6 9778   1.353   1.988  15.169 -0.6686  0.1408  1.0299
  657TMC3     C 9779   1.729   1.846  15.044 -0.3333  0.6681 -0.0503
  657TMC3     O 9780   1.777   1.894  14.942 -0.1465 -0.7219  0.1104
  657TMC3     H 9781   1.616   1.807  15.283 -2.0911 -0.5273  1.0049
  657TMC3    H1 9782   1.562   2.016  14.907  0.2809 -2.5127 -1.5968
  657TMC3    H2 9783   1.260   2.027  15.210 -1.6886 -2.0602  0.8001
  657TMC3    C7 9784   1.301   2.085  14.952  0.9219  0.3043 -0.1352
  657TMC3    C8 9785   1.366   1.878  15.376 -0.0484  0.1041  0.1553
  657TMC3    O1 9786   1.192   2.109  14.999 -0.4489  0.8145  1.2349
  657TMC3    O2 9787   1.245   1.878  15.385  0.1679  0.1660  0.2679
  658MPD2     C 9788   3.277   2.832  14.823 -0.3311  0.5346  0.0820
  658MPD2    C1 9789   3.198   2.725  14.783 -0.1877  0.1129  0.7145
  658MPD2    C2 9790   3.151   2.717  14.653 -0.1139 -0.1620  0.2048
  658MPD2    C3 9791   3.200   2.805  14.557  0.3333  0.0288 -0.2129
  658MPD2    C4 9792   3.292   2.901  14.597  0.3069  0.4718 -0.8289
  658MPD2    C5 9793   3.337   2.913  14.724  0.0404 -0.5581 -0.3844
  658MPD2     H 9794   3.081   2.641  14.620 -0.8961  0.6961 -0.1083
  658MPD2    H1 9795   3.340   2.969  14.528 -2.9120  0.5463 -2.9917
  658MPD2    H2 9796   3.310   2.842  14.926 -0.0531  1.4027 -0.0942
  658MPD2    H3 9797   3.406   2.993  14.749 -1.2027 -0.4724  2.7222
  658MPD2     N 9798   3.156   2.779  14.425 -0.2740 -0.2578 -0.3767
  658MPD2    H5 9799   3.082   2.711  14.420 -0.1197 -0.4194 -0.4389
  658MPD2    N1 9800   3.176   2.618  14.875 -0.6298 -1.0124 -0.1140
  658MPD2    H7 9801   3.219   2.629  14.967  0.0230 -1.3574 -0.3766
  659TMC3    C1 9802   3.103   2.426  14.981  0.0520  0.3989  0.2955
  659TMC3    C2 9803   3.108   2.484  15.104  0.9386  0.0327 -0.0428
  659TMC3    C3 9804   3.138   2.408  15.215  0.3629 -0.3870 -0.6738
  659TMC3    C4 9805   3.128   2.292  14.969 -0.6133 -0.1076 -0.0119
  659TMC3    C5 9806   3.159   2.218  15.076  0.0183  0.1092 -0.8331
  659TMC3    C6 9807   3.170   2.278  15.198 -0.4704 -0.5704 -0.2852
  659TMC3     C 9808   3.096   2.507  14.859 -0.0712  1.0842 -0.1150
  659TMC3     O 9809   3.035   2.460  14.763  0.4970  0.1348 -0.0400
  659TMC3     H 9810   3.071   2.586  15.112 -1.3021 -0.7058 -0.9435
  659TMC3    H1 9811   3.131   2.236  14.876  1.1143 -1.3538  0.7865
  659TMC3    H2 9812   3.166   2.217  15.287 -2.8170 -0.8830 -0.5953
  659TMC3    C7 9813   3.062   2.105  15.079 -0.2349 -0.1045  0.2397
  659TMC3    C8 9814   3.117   2.461  15.344  0.7369  0.4896 -0.4762
  659TMC3    O1 9815   3.060   2.043  15.186 -0.0900 -0.7046  0.7228
  659TMC3    O2 9816   3.067   2.570  15.348 -0.0696  0.0808 -0.1620
  660MPD2     C 9817   1.399   1.307  12.974  0.5289  0.1971 -0.4900
  660MPD2    C1 9818   1.269   1.331  12.943 -0.4980  0.8215 -0.5653
  660MPD2    C2 9819   1.165   1.270  13.016 -0.4651  0.2102  0.4992
  660MPD2    C3 9820   1.203   1.192  13.127  0.6519 -0.3337  0.1139
  660MPD2    C4 9821   1.335   1.185  13.166  0.1444  0.1411  0.0150
  660MPD2    C5 9822   1.433   1.224  13.082  0.3639 -0.1726  0.1366
  660MPD2     H 9823   1.063   1.272  12.979  0.3135 -4.6353 -1.9882
  660MPD2    H1 9824   1.357   1.138  13.262 -0.6836  2.2497  1.2417
  660MPD2    H2 9825   1.476   1.351  12.911 -0.5305 -0.3486 -2.1750
  660MPD2    H3 9826   1.536   1.206  13.112 -0.3415 -0.3888  2.4222
  660MPD2     N 9827   1.109   1.131  13.211 -0.2315 -0.1815 -0.5131
  660MPD2    H5 9828   1.141   1.123  13.307  2.3977 -2.9891 -1.6275
  660MPD2    N1 9829   1.241   1.421  12.829 -0.0267  0.2786 -0.0539
  660MPD2    H7 9830   1.316   1.433  12.761  0.8144 -1.8366  0.4911
  661TMC3    C1 9831   1.106   1.551  12.679  0.3654  0.2147 -0.1740
  661TMC3    C2 9832   1.220   1.597  12.620  0.3667  0.1642  0.6187
  661TMC3    C3 9833   1.199   1.692  12.520 -0.2506  0.3554  0.2993
  661TMC3    C4 9834   0.982   1.604  12.651  0.3360 -0.3400  0.0691
  661TMC3    C5 9835   0.967   1.705  12.565 -0.7169 -0.4897 -0.4518
  661TMC3    C6 9836   1.073   1.740  12.489 -0.3104  0.0960 -0.6376
  661TMC3     C 9837   1.117   1.467  12.797  0.2094  0.5820 -0.4228
  661TMC3     O 9838   1.013   1.459  12.862  0.4697  0.3297  0.1921
  661TMC3     H 9839   1.323   1.567  12.636  0.4032  1.3909  2.7948
  661TMC3    H1 9840   0.899   1.558  12.705  0.4272  1.1819  1.5027
  661TMC3    H2 9841   1.051   1.809  12.409 -0.3629  0.3378 -0.4157
  661TMC3    C7 9842   0.830   1.726  12.519 -0.3964 -0.4970 -0.1553
  661TMC3    C8 9843   1.294   1.713  12.409 -0.4799  0.1361 -0.4865
  661TMC3    O1 9844   0.747   1.714  12.607  0.1546 -0.0074 -0.7604
  661TMC3    O2 9845   1.279   1.809  12.337 -0.2046  0.1024 -0.2145
  662MPD2     C 9846   0.781   1.365  17.151 -0.3009 -0.0878  0.6236
  662MPD2    C1 9847   0.775   1.301  17.272  0.6400 -0.6319 -0.5729
  662MPD2    C2 9848   0.750   1.367  17.390  0.3373 -0.1688 -0.0399
  662MPD2    C3 9849   0.736   1.508  17.382  0.4370  0.7093 -0.3868
  662MPD2    C4 9850   0.732   1.574  17.262 -0.0594  0.2436  0.0837
  662MPD2    C5 9851   0.765   1.508  17.150 -1.4031 -0.1630 -0.1020
  662MPD2     H 9852   0.745   1.307  17.481  0.1686  1.6096  1.1194
  662MPD2    H1 9853   0.715   1.681  17.267  0.5123  0.4118 -1.6530
  662MPD2    H2 9854   0.817   1.315  17.062  0.7107  1.1989  0.3034
  662MPD2    H3 9855   0.770   1.560  17.055 -2.7673 -0.6434 -0.4389
  662MPD2     N 9856   0.702   1.580  17.502 -0.1118 -0.4527  0.1956
  662MPD2    H5 9857   0.670   1.674  17.482 -0.1649 -0.6426 -0.6478
  662MPD2    N1 9858   0.782   1.161  17.293  0.5862 -0.0711 -0.2805
  662MPD2    H7 9859   0.747   1.118  17.378  1.5017  0.6982  0.4722
  663TMC3    C1 9860   0.781   0.939  17.245  0.0007  0.1263 -0.1433
  663TMC3    C2 9861   0.640   0.914  17.254  0.2922  0.0363  0.5137
  663TMC3    C3 9862   0.592   0.799  17.197 -0.0532 -0.2115 -0.3998
  663TMC3    C4 9863   0.865   0.842  17.208 -0.1157 -0.1877 -0.4157
  663TMC3    C5 9864   0.814   0.721  17.190 -0.7993 -0.0253  1.0074
  663TMC3    C6 9865   0.678   0.697  17.191  0.5225 -0.2799 -0.0375
  663TMC3     C 9866   0.802   1.069  17.190 -0.1782  0.6588  0.1297
  663TMC3     O 9867   0.863   1.080  17.087  0.0566 -0.0002 -0.1736
  663TMC3     H 9868   0.580   1.003  17.236 -0.1625 -0.3382  0.1677
  663TMC3    H1 9869   0.969   0.872  17.200  0.5389 -2.7027 -1.2543
  663TMC3    H2 9870   0.641   0.608  17.141  0.9108 -1.5071  1.8323
  663TMC3    C7 9871   0.901   0.625  17.128  0.0757 -0.6328 -0.5927
  663TMC3    C8 9872   0.476   0.754  17.263  0.4183  0.3874 -0.3623
  663TMC3    O1 9873   1.002   0.662  17.069  0.3505 -0.3130 -0.0740
  663TMC3    O2 9874   0.438   0.640  17.245  0.3000 -0.1782  0.2357
  664MPD2     C 9875   3.908   3.622  17.692  0.7784  0.2578 -0.9291
  664MPD2    C1 9876   3.897   3.756  17.649  0.0543 -0.6724 -0.3118
  664MPD2    C2 9877   3.873   3.860  17.740 -0.9071  0.4488  0.5339
  664MPD2    C3 9878   3.858   3.833   0.124 -0.3454 -0.3513  0.5785
  664MPD2    C4 9879   3.874   3.700   0.166  0.7429 -0.7650 -0.4068
  664MPD2    C5 9880   3.897   3.594   0.072 -0.0690  0.0620  0.2787
  664MPD2     H 9881   3.879   3.965  17.714 -0.4843  0.1588 -0.5263
  664MPD2    H1 9882   3.865   3.673   0.270  0.1148  1.6361  0.1644
  664MPD2    H2 9883   3.934   3.553  17.613  1.2165  0.4031 -0.9122
  664MPD2    H3 9884   3.924   3.493   0.101  0.3402 -0.8278 -3.2463
  664MPD2     N 9885   3.851   3.948   0.212 -0.3560  0.3831 -0.4104
  664MPD2    H5 9886   3.846   4.043   0.176  1.3184 -0.2815 -2.4127
  664MPD2    N1 9887   3.911   3.766  17.504  0.3550 -0.0304 -0.0042
  664MPD2    H7 9888   3.942   3.684  17.453  1.9035  0.0196  0.8511
  665TMC3    C1 9889   3.870   4.066   0.403  0.7446 -0.7042 -0.0901
  665TMC3    C2 9890   3.763   4.083   0.477  0.4849  0.3857 -0.8267
  665TMC3    C3 9891   3.763   4.196   0.554 -0.0911  0.0407  0.2577
  665TMC3    C4 9892   3.981   4.141   0.395 -0.2920 -0.1958 -0.4751
  665TMC3    C5 9893   3.988   4.247   0.483  0.3572  0.2364 -0.3140
  665TMC3    C6 9894   3.878   4.274   0.564  1.4739  0.7216  0.1520
  665TMC3     C 9895   3.873   3.936   0.343  0.1863 -0.3278 -0.3783
  665TMC3     O 9896   3.936   3.850   0.403 -0.3219  1.0041  0.1648
  665TMC3     H 9897   3.692   4.002   0.468  0.3068  0.3227  1.1693
  665TMC3    H1 9898   4.058   4.106   0.327 -1.4812 -1.7541 -1.0118
  665TMC3    H2 9899   3.880   4.359   0.632  0.1080  0.6520  0.2734
  665TMC3    C7 9900   4.094   4.347   0.469  0.5232 -0.3733 -0.3586
  665TMC3    C8 9901   3.655   4.229   0.642 -0.2594 -0.8012  0.4843
  665TMC3    O1 9902   4.129   4.379   0.357  0.2715  0.2974  0.0531
  665TMC3    O2 9903   3.682   4.320   0.716  0.2138  0.3585  0.5445
  666TMC3    C1 9904   2.989   4.120  10.422  0.0334  0.1597 -0.1528
  666TMC3    C2 9905   3.020   4.030  10.528 -0.7890  0.1423 -0.3141
  666TMC3    C3 9906   3.052   4.083  10.652  0.0977  0.0855  0.2878
  666TMC3    C4 9907   3.000   4.251  10.443 -0.6216  1.2211 -0.7627
  666TMC3    C5 9908   3.039   4.299  10.566 -0.2888 -0.6347  0.1455
  666TMC3    C6 9909   3.081   4.212  10.664  1.2850  0.6069 -0.3068
  666TMC3     C 9910   2.993   4.077  10.283  0.8529 -0.0551  0.9269
  666TMC3     O 9911   2.992   4.165  10.196 -0.2806  0.2966 -0.0377
  666TMC3     H 9912   2.972   3.933  10.523  0.3991 -0.5805  1.9899
  666TMC3    H1 9913   2.964   4.325  10.372 -1.4256  1.4313 -0.1410
  666TMC3    H2 9914   3.133   4.251  10.751 -2.2608  0.4102  1.9203
  666TMC3    C7 9915   3.057   4.446  10.587  1.1849  0.1009 -0.5253
  666TMC3    C8 9916   3.102   3.995  10.759 -0.1397  0.0143 -0.1534
  666TMC3    O1 9917   3.068   4.473  10.703 -0.1811  0.1951  0.2801
  666TMC3    O2 9918   3.119   3.881  10.720  0.0457 -0.2072 -0.1462
  667MPD2     C 9919   0.025   3.344  15.027  0.2540 -0.3636  0.1990
  667MPD2    C1 9920   4.666   3.419  14.961  0.5603 -0.4387  0.6342
  667MPD2    C2 9921   4.583   3.352  14.874 -0.0954  0.5292 -0.6313
  667MPD2    C3 9922   4.612   3.219  14.839  0.6211 -0.1027  0.1944
  667MPD2    C4 9923   4.715   3.143  14.898  0.2665 -0.2691  0.0047
  667MPD2    C5 9924   0.044   3.211  14.997 -0.3044 -0.2275  0.1432
  667MPD2     H 9925   4.500   3.406  14.829  0.9169  1.7390 -1.0296
  667MPD2    H1 9926   4.730   3.037  14.883  0.7891 -0.0909 -0.7553
  667MPD2    H2 9927   0.075   3.381  15.115  0.4912 -1.0582  0.3538
  667MPD2    H3 9928   0.115   3.161  15.062 -0.1315  0.4848  0.5089
  667MPD2     N 9929   4.542   3.148  14.743 -0.2090  0.7602 -0.2119
  667MPD2    H5 9930   4.564   3.049  14.745 -0.6232  0.6776  0.2705
  667MPD2    N1 9931   4.638   3.548  15.011  0.1936 -0.6087  0.3076
  667MPD2    H7 9932   4.553   3.595  14.981  0.6763  0.1972  0.1857
  668TMC3    C1 9933   4.668   3.743  15.135 -0.0460  0.6985 -0.1153
  668TMC3    C2 9934   0.017   3.849  15.147 -0.3115 -0.2694  0.5828
  668TMC3    C3 9935   4.733   3.934  15.253  0.3251  0.2532  0.2843
  668TMC3    C4 9936   4.579   3.705  15.232 -0.0233  0.0312  0.6338
  668TMC3    C5 9937   4.566   3.793  15.341 -0.2080  0.2429 -0.2597
  668TMC3    C6 9938   4.646   3.904  15.351 -0.3388  0.6228 -0.0800
  668TMC3     C 9939   4.729   3.634  15.077 -0.2256  0.1534 -0.7049
  668TMC3     O 9940   0.112   3.622  15.090  0.7111 -0.5745 -0.0134
  668TMC3     H 9941   0.080   3.876  15.064  0.3563 -3.7172 -0.0515
  668TMC3    H1 9942   4.536   3.605  15.230  1.0359 -0.3907 -0.7585
  668TMC3    H2 9943   4.650   3.969  15.437 -0.2406  0.3910  0.0890
  668TMC3    C7 9944   4.451   3.809  15.425  1.0781 -0.1877  0.4717
  668TMC3    C8 9945   0.092   4.041  15.273  0.3973 -0.1731  0.7846
  668TMC3    O1 9946   4.457   3.883  15.524 -0.5257  0.5466  0.7516
  668TMC3    O2 9947   0.100   4.083  15.388  0.1934  0.1710 -0.2024
  669TMC3    C1 9948   2.803   3.895  14.623 -0.4870 -0.2710 -0.1926
  669TMC3    C2 9949   2.679   3.866  14.575 -0.4132  0.8919  0.7564
  669TMC3    C3 9950   2.635   3.928  14.460  0.2355 -0.8732 -0.2465
  669TMC3    C4 9951   2.886   3.983  14.564  0.2791 -0.4891 -0.7505
  669TMC3    C5 9952   2.839   4.054  14.453 -0.7126 -0.2964 -0.8813
  669TMC3    C6 9953   2.714   4.025  14.402 -0.1794  0.5438  0.3661
  669TMC3     C 9954   2.851   3.823  14.735  0.2020  0.3596 -0.0310
  669TMC3     O 9955   2.830   3.702  14.738 -0.0636  0.3374 -0.4153
  669TMC3     H 9956   2.613   3.792  14.619 -0.3847  1.5356  1.8892
  669TMC3    H1 9957   2.981   4.012  14.607 -0.8959 -1.7229  2.6632
  669TMC3    H2 9958   2.691   4.082  14.313 -0.6427 -1.0894 -0.5472
  669TMC3    C7 9959   2.929   4.155  14.399 -0.1006 -0.6369 -0.0707
  669TMC3    C8 9960   2.523   3.869  14.385 -0.5434  1.1336  0.8907
  669TMC3    O1 9961   3.022   4.181  14.472  0.3251  1.0767  0.1886
  669TMC3    O2 9962   2.465   3.779  14.442 -0.1993  0.0170  0.0360
  670MPD2     C 9963   1.312   1.456  13.398  0.9900  0.0691 -1.0101
  670MPD2    C1 9964   1.389   1.493  13.507 -0.0304  0.2942  0.5579
  670MPD2    C2 9965   1.347   1.476  13.641  0.3950 -0.3375 -0.4647
  670MPD2    C3 9966   1.216   1.430  13.655  0.0368 -0.3028 -0.2314
  670MPD2    C4 9967   1.132   1.410  13.547  0.1498  0.1446  0.4728
  670MPD2    C5 9968   1.185   1.418  13.422 -0.7152 -0.8109  0.5293
  670MPD2     H 9969   1.407   1.514  13.723  0.5310 -2.3034  0.3462
  670MPD2    H1 9970   1.034   1.363  13.551  0.9828 -1.5270  1.8037
  670MPD2    H2 9971   1.344   1.460  13.295  1.6893 -1.9420 -0.8857
  670MPD2    H3 9972   1.129   1.393  13.332  0.4874 -1.1875 -0.1092
  670MPD2     N 9973   1.167   1.428  13.790 -0.0288  0.8344 -0.1870
  670MPD2    H5 9974   1.230   1.459  13.863 -1.1301  1.0412  0.6659
  670MPD2    N1 9975   1.521   1.539  13.486 -0.0377 -0.3440 -0.7647
  670MPD2    H7 9976   1.570   1.569  13.569 -1.3542  0.6452 -0.3372
  671TMC3    C1 9977   1.027   1.373  13.976  0.0202 -0.3079  0.2855
  671TMC3    C2 9978   1.120   1.428  14.063 -0.1703  0.2343 -0.3017
  671TMC3    C3 9979   1.139   1.369  14.188 -0.1719 -0.6766 -0.1532
  671TMC3    C4 9980   0.934   1.282  14.018  0.7475  0.6129 -0.1280
  671TMC3    C5 9981   0.935   1.241  14.143  0.1230 -0.1518 -0.0839
  671TMC3    C6 9982   1.035   1.281  14.231 -0.1563  0.3582 -0.0127
  671TMC3     C 9983   1.038   1.392  13.831 -0.0410  0.4081  0.1784
  671TMC3     O 9984   0.944   1.358  13.767 -0.4803  0.0155 -0.0082
  671TMC3     H 9985   1.201   1.484  14.018  0.1436  0.2798  0.3305
  671TMC3    H1 9986   0.862   1.250  13.943  1.7268  1.6977 -1.5327
  671TMC3    H2 9987   1.046   1.221  14.321 -0.4673 -1.2621 -1.0417
  671TMC3    C7 9988   0.881   1.109  14.166  0.3144  0.4438 -0.8653
  671TMC3    C8 9989   1.261   1.305  14.196  0.0319  0.2057  0.3854
  671TMC3    O1 9990   0.863   1.041  14.064 -0.2717  0.1762  0.3368
  671TMC3    O2 9991   1.307   1.247  14.100 -0.3553  0.3972 -0.7385
  672MPD2     C 9992   1.371   2.454   0.411  0.4476  0.6978  0.0141
  672MPD2    C1 9993   1.466   2.389   0.488 -0.4311  0.4901 -0.1448
  672MPD2    C2 9994   1.594   2.437   0.509  0.4769  0.0755  0.1371
  672MPD2    C3 9995   1.638   2.548   0.434  0.6899 -0.5388  0.2679
  672MPD2    C4 9996   1.542   2.615   0.355  0.0407 -0.2654 -0.0569
  672MPD2    C5 9997   1.415   2.569   0.344 -0.3853  0.5537 -0.0843
  672MPD2     H 9998   1.657   2.381   0.578 -0.1196 -0.9757 -0.1742
  672MPD2    H1 9999   1.574   2.702   0.299  1.6206  0.1682  1.5425
  672MPD2    H210000   1.269   2.416   0.410  0.5924  0.3427 -1.2732
  672MPD2    H310001   1.346   2.624   0.281  0.8955 -0.6326 -2.4777
  672MPD2     N10002   1.767   2.606   0.456 -0.6938 -0.0181  0.1414
  672MPD2    H510003   1.795   2.690   0.406 -1.6366 -0.2943 -0.8361
  672MPD2    N110004   1.430   2.270   0.557 -0.4349  0.9132  0.4352
  672MPD2    H710005   1.507   2.223   0.603 -0.5127  0.2726 -0.0956
  673TMC3    C110006   1.308   2.080   0.625 -0.4672 -1.3596 -0.3901
  673TMC3    C210007   1.377   1.973   0.575  0.5759  0.2944  0.2020
  673TMC3    C310008   1.317   1.851   0.588 -0.4235  0.0772 -0.4007
  673TMC3    C410009   1.170   2.063   0.656  0.2255 -0.1018 -0.4838
  673TMC3    C510010   1.111   1.940   0.651  1.0213 -0.8161  0.3440
  673TMC3    C610011   1.182   1.828   0.618 -0.0796 -0.3013  0.4178
  673TMC3     C10012   1.314   2.203   0.550 -0.0462  0.5205  0.1470
  673TMC3     O10013   1.206   2.232   0.502  0.0246 -0.5119  0.2458
  673TMC3     H10014   1.480   1.992   0.545  0.3497  0.1781 -0.6440
  673TMC3    H110015   1.116   2.153   0.684  1.3338  0.3814  0.1115
  673TMC3    H210016   1.144   1.726   0.622  0.5791 -0.6140 -1.0422
  673TMC3    C710017   0.967   1.936   0.624  0.4774 -0.4108 -0.2760
  673TMC3    C810018   1.399   1.742   0.546  0.3438  0.1417 -0.5321
  673TMC3    O110019   0.903   1.834   0.647  0.2610 -0.5409  0.3747
  673TMC3    O210020   1.348   1.634   0.517  0.3912 -0.1128  0.7959
  674MPD2     C10021   0.799   2.392  17.676  0.1832  1.0746  0.6236
  674MPD2    C110022   0.704   2.307  17.725  0.0122  0.0013  0.4340
  674MPD2    C210023   0.572   2.343  17.699 -0.0912 -0.2249  0.2110
  674MPD2    C310024   0.532   2.464  17.654 -0.2010 -0.2962 -0.1152
  674MPD2    C410025   0.629   2.543  17.592 -0.1930 -0.0104  0.8104
  674MPD2    C510026   0.763   2.506  17.609 -0.2919 -0.6092 -0.3471
  674MPD2     H10027   0.487   2.297  17.747 -0.3404 -0.3047 -0.3135
  674MPD2    H110028   0.611   2.641  17.551  1.8809 -0.2671 -0.6788
  674MPD2    H210029   0.903   2.364  17.684  0.1850  0.5196 -1.2858
  674MPD2    H310030   0.836   2.578  17.573 -0.7457 -0.3918 -0.8309
  674MPD2     N10031   0.396   2.502  17.658 -0.0581  0.4060  0.5608
  674MPD2    H510032   0.336   2.430  17.696 -2.3355  0.9460 -2.0206
  674MPD2    N110033   0.739   2.192   0.048 -0.3821  0.5556  0.0818
  674MPD2    H710034   0.838   2.168   0.044 -0.1254  1.3624  1.8455
  675TMC3    C110035   0.714   1.978   0.132 -1.1386 -0.7555  0.2303
  675TMC3    C210036   0.635   1.895   0.202 -0.1040  0.7493  0.1093
  675TMC3    C310037   0.695   1.805   0.291 -0.0072 -0.1469  0.1916
  675TMC3    C410038   0.848   1.963   0.143 -0.2441 -0.1108  0.6291
  675TMC3    C510039   0.899   1.861   0.213 -0.1311 -0.1094  0.0941
  675TMC3    C610040   0.830   1.782   0.299 -0.2673  0.0630  0.3095
  675TMC3     C10041   0.651   2.100   0.091  1.2243  0.1343  0.1559
  675TMC3     O10042   0.529   2.100   0.087  0.4723  0.2607 -0.0361
  675TMC3     H10043   0.530   1.894   0.178  0.0638  1.4699 -0.6623
  675TMC3    H110044   0.917   2.009   0.073  0.8947 -0.3168  1.6153
  675TMC3    H210045   0.874   1.710   0.366  2.0466  0.6189 -0.6213
  675TMC3    C710046   1.043   1.837   0.211 -0.1140 -0.1991  0.3443
  675TMC3    C810047   0.600   1.726   0.374  0.1978  0.4602 -0.6147
  675TMC3    O110048   1.081   1.720   0.231  0.4249 -0.2572  0.5912
  675TMC3    O210049   0.496   1.696   0.326  0.6823  0.1574  0.1746
  676MPD2     C10050   0.133   0.180  11.183 -0.0559  0.5830 -0.8414
  676MPD2    C110051   0.020   0.142  11.249 -0.0440  0.1461 -0.2331
  676MPD2    C210052   0.018   0.040  11.344 -1.0418  0.5663  0.0064
  676MPD2    C310053   0.132   4.712  11.365 -0.0336  0.3967  0.1884
  676MPD2    C410054   0.247   0.007  11.291  0.6774  0.6859 -0.1477
  676MPD2    C510055   0.245   0.116  11.204 -0.0713 -0.3071  0.1561
  676MPD2     H10056   4.663   0.028  11.398 -0.5419 -1.1544  0.4904
  676MPD2    H110057   0.337   4.684  11.294  0.2032  0.0936  2.3261
  676MPD2    H210058   0.132   0.261  11.111  1.9450  3.4885  2.4466
  676MPD2    H310059   0.324   0.133  11.133 -1.1125 -0.4742 -1.0398
  676MPD2     N10060   0.145   4.604  11.458 -0.3938 -0.5021 -0.1309
  676MPD2    H510061   0.239   4.565  11.454  0.0178  0.5697 -0.7706
  676MPD2    N110062   4.642   0.214  11.237  0.0971 -0.8747 -0.0275
  676MPD2    H710063   4.566   0.189  11.299 -1.7477  2.2777 -1.0040
  677TMC3    C110064   4.464   0.312  11.127  0.4752  0.5941  0.0275
  677TMC3    C210065   4.389   0.201  11.127 -0.4857  0.5876 -0.7819
  677TMC3    C310066   4.259   0.213  11.161 -0.1603 -0.2259  0.4454
  677TMC3    C410067   4.418   0.433  11.166 -1.0963  0.0849 -0.3111
  677TMC3    C510068   4.278   0.439  11.181 -0.2202  0.0428 -0.5172
  677TMC3    C610069   4.195   0.332  11.166  0.0411  0.0468  0.7599
  677TMC3     C10070   4.610   0.299  11.133 -0.0042  0.3511  0.0792
  677TMC3     O10071   4.668   0.361  11.044 -0.4575 -0.4650 -0.1167
  677TMC3     H10072   4.436   0.105  11.109  0.9228  0.8944  1.4146
  677TMC3    H110073   4.485   0.510  11.199  0.5887 -2.5973  2.5312
  677TMC3    H210074   4.095   0.334  11.208  0.2590 -0.0836  1.2940
  677TMC3    C710075   4.234   0.525  11.296 -0.3637 -0.1943  0.2050
  677TMC3    C810076   4.173   0.097  11.132  0.9721 -0.4994  0.8151
  677TMC3    O110077   4.131   0.496  11.358 -0.9347 -0.6636  0.1922
  677TMC3    O210078   4.201   0.042  11.025 -0.0221  0.5353  0.3089
  678MPD2     C10079   0.936   0.461   1.173  0.0370 -0.4672 -0.2049
  678MPD2    C110080   0.864   0.445   1.051 -0.3766 -0.5943  0.7015
  678MPD2    C210081   0.727   0.454   1.044  0.3147  0.4669  0.1608
  678MPD2    C310082   0.656   0.492   1.158  0.4527  0.3191  0.1174
  678MPD2    C410083   0.721   0.516   1.275 -0.2044 -0.2913 -0.5171
  678MPD2    C510084   0.863   0.496   1.279 -0.1465  0.8309 -0.4962
  678MPD2     H10085   0.677   0.442   0.949  0.3365  1.5493  0.0118
  678MPD2    H110086   0.675   0.549   1.367  0.9473  1.4334 -0.5668
  678MPD2    H210087   1.041   0.440   1.184  0.1901  0.3605 -0.0583
  678MPD2    H310088   0.909   0.518   1.375  2.5031 -1.7291 -1.1750
  678MPD2     N10089   0.515   0.497   1.138 -0.0410  0.3922 -0.5472
  678MPD2    H510090   0.481   0.461   1.049  0.7933 -1.6378 -0.0382
  678MPD2    N110091   0.935   0.406   0.940 -0.4548 -0.3330  0.0760
  678MPD2    H710092   0.883   0.375   0.858  2.1614 -1.3298 -1.1972
  679TMC3    C110093   1.032   0.245   0.609  0.1720  0.5662 -0.0807
  679TMC3    C210094   1.036   0.265   0.741  0.1261  0.5451  0.7702
  679TMC3    C310095   1.090   0.383   0.787 -0.2763  0.5278 -0.6348
  679TMC3    C410096   1.043   0.345   0.519 -0.0032 -0.5966  0.2047
  679TMC3    C510097   1.078   0.467   0.571  0.0571  0.3334  0.4425
  679TMC3    C610098   1.114   0.487   0.699 -0.8185  0.0931 -0.7529
  679TMC3     C10099   1.000   0.111   0.563  0.3272  0.2098  0.5307
  679TMC3     O10100   0.988   0.101   0.441  0.1381  0.0052 -1.0512
  679TMC3     H10101   1.018   0.186   0.813 -1.5978 -0.0384 -0.2944
  679TMC3    H110102   1.012   0.331   0.416  1.1551 -0.3087 -0.1861
  679TMC3    H210103   1.117   0.592   0.727  1.3865 -0.2634  0.3908
  679TMC3    C710104   1.011   0.585   0.513  0.3268 -0.1725 -0.4783
  679TMC3    C810105   1.068   0.425   0.915 -0.3742 -0.2196 -0.2505
  679TMC3    O110106   0.903   0.564   0.460  0.3400  0.2792 -0.2274
  679TMC3    O210107   1.139   0.507   0.967 -0.2612 -0.2501  0.3913
  680MPD2     C10108   0.555   3.104  13.573 -0.5215  0.5409  0.0764
  680MPD2    C110109   0.628   3.047  13.676 -0.2894 -0.1391 -0.3710
  680MPD2    C210110   0.616   3.096  13.799 -0.2964  0.2879 -0.2905
  680MPD2    C310111   0.532   3.205  13.827  0.0065 -0.1026  0.6217
  680MPD2    C410112   0.456   3.255  13.724 -0.5193 -0.0121 -0.0294
  680MPD2    C510113   0.471   3.204  13.599 -1.0256  0.5198  0.4103
  680MPD2     H10114   0.660   3.037  13.879 -0.4188 -0.6812 -0.9391
  680MPD2    H110115   0.379   3.327  13.751 -0.5531 -0.0004 -0.1536
  680MPD2    H210116   0.564   3.061  13.474  1.4284  1.2786 -0.0774
  680MPD2    H310117   0.411   3.241  13.516  0.1323  0.9395 -0.2434
  680MPD2     N10118   0.523   3.267  13.955 -0.1241 -0.0113 -0.6860
  680MPD2    H510119   0.445   3.329  13.975 -0.9308 -1.2541 -0.0242
  680MPD2    N110120   0.720   2.940  13.660  0.9193  0.5587 -0.2530
  680MPD2    H710121   0.773   2.920  13.744 -0.4876 -0.0283  0.4944
  681TMC3    C110122   0.874   2.794  13.568 -1.0064 -0.0017  0.2652
  681TMC3    C210123   0.833   2.710  13.667  0.0125 -0.1550  0.2597
  681TMC3    C310124   0.889   2.706  13.790 -0.3461  0.4698  0.2238
  681TMC3    C410125   0.998   2.848  13.582  0.0763 -0.0747  0.1827
  681TMC3    C510126   1.057   2.848  13.700 -0.6659  0.0922  0.3909
  681TMC3    C610127   1.001   2.779  13.811 -0.4361  0.2197  0.2100
  681TMC3     C10128   0.769   2.896  13.542  0.4824  0.4136  0.7174
  681TMC3     O10129   0.767   2.950  13.432  0.5105 -0.9637 -0.0760
  681TMC3     H10130   0.740   2.658  13.647 -0.7702  1.3929 -0.1342
  681TMC3    H110131   1.023   2.916  13.501  1.4980 -0.2091  0.5019
  681TMC3    H210132   1.061   2.787  13.900  0.1480 -0.5584 -0.1160
  681TMC3    C710133   1.193   2.906  13.706  0.0535  0.2190 -0.5859
  681TMC3    C810134   0.786   2.705  13.900  0.4315 -0.1324 -0.2160
  681TMC3    O110135   1.275   2.867  13.785 -0.6894  0.2905 -0.3120
  681TMC3    O210136   0.681   2.656  13.868  0.6548 -0.0808 -0.2370
  682MPD2     C10137   3.166   0.643  11.463 -0.1155  0.1957 -0.1897
  682MPD2    C110138   3.099   0.532  11.455  0.3133  0.3877 -0.4319
  682MPD2    C210139   3.063   0.466  11.571 -0.1555 -0.4359  0.0209
  682MPD2    C310140   3.100   0.513  11.693 -0.0427 -0.2344  0.2458
  682MPD2    C410141   3.147   0.641  11.700 -0.7629 -0.3731  0.0683
  682MPD2    C510142   3.190   0.699  11.586 -0.0432 -0.2747  0.1032
  682MPD2     H10143   3.032   0.362  11.566 -3.2726  0.4972  0.1640
  682MPD2    H110144   3.175   0.687  11.794  0.6094 -0.1398 -0.4535
  682MPD2    H210145   3.197   0.697  11.375  1.4196  0.5145  0.5592
  682MPD2    H310146   3.232   0.799  11.588  1.5771 -1.0192  3.3597
  682MPD2     N10147   3.097   0.436  11.810 -0.0609 -0.0567 -0.0132
  682MPD2    H510148   3.115   0.488  11.895  1.1714 -1.0943  0.3520
  682MPD2    N110149   3.092   0.461  11.335  0.4473 -0.2207 -0.0127
  682MPD2    H710150   3.056   0.366  11.343 -2.3381  0.9122  0.8947
  683TMC3    C110151   3.060   0.241  12.176 -0.0261  0.4687 -0.6086
  683TMC3    C210152   3.139   0.127  12.184  0.6270  0.2980  0.0254
  683TMC3    C310153   3.195   0.072  12.064  0.4441  0.0384 -0.7388
  683TMC3    C410154   3.062   0.316  12.064 -0.0125  0.2755  0.2752
  683TMC3    C510155   3.111   0.250  11.948 -0.1545 -0.3023 -0.3992
  683TMC3    C610156   3.182   0.132  11.946 -0.3101  0.3920  0.3077
  683TMC3     C10157   3.019   0.298  12.305  0.2397 -0.5354 -0.4708
  683TMC3     O10158   3.060   0.409  12.337  0.3031 -0.0952 -0.1797
  683TMC3     H10159   3.149   0.065  12.273  1.3650  0.4929  0.0739
  683TMC3    H110160   3.011   0.412  12.054  0.3382  0.2657 -1.6647
  683TMC3    H210161   3.221   0.102  11.849 -1.8526  0.4540 -0.3267
  683TMC3    C710162   3.080   0.302  11.817  0.6729 -0.7854  0.2986
  683TMC3    C810163   3.221   4.670  12.070  0.0037  0.2751  0.3958
  683TMC3    O110164   3.071   0.219  11.724 -0.3215 -0.4435  0.3277
  683TMC3    O210165   3.175   4.602  12.162  0.3159 -0.5042  0.3141
  684MPD2     C10166   1.064   3.961  16.319  0.8443 -0.2640 -0.3381
  684MPD2    C110167   0.999   4.050  16.238  0.1551  0.2060 -0.3376
  684MPD2    C210168   0.960   4.171  16.300 -0.0593 -0.4230 -0.4228
  684MPD2    C310169   0.996   4.194  16.431 -0.4809 -0.5210  0.5946
  684MPD2    C410170   1.067   4.108  16.497 -0.2072 -0.0780  0.0053
  684MPD2    C510171   1.098   3.987  16.450  0.8179  0.3139 -0.1885
  684MPD2     H10172   0.921   4.252  16.239  1.4922  0.7188  0.1012
  684MPD2    H110173   1.102   4.125  16.599  2.5643  1.0840 -1.1453
  684MPD2    H210174   1.099   3.865  16.284  0.2483 -1.2334  1.7151
  684MPD2    H310175   1.144   3.915  16.516 -1.2626 -1.2479 -0.4415
  684MPD2     N10176   0.962   4.312  16.498  0.1671  0.7146  1.0123
  684MPD2    H510177   1.015   4.326  16.583  1.6012 -0.1469  0.2705
  684MPD2    N110178   0.978   4.026  16.094  0.0607 -0.4758  0.4514
  684MPD2    H710179   0.954   4.108  16.039  1.1142  0.3627  1.2387
  685TMC3    C110180   1.022   3.926  15.877  0.3809  0.5458  0.0559
  685TMC3    C210181   0.916   3.983  15.809  0.4502 -0.8519  0.7365
  685TMC3    C310182   0.939   4.036  15.686  0.6363 -0.6813  0.0053
  685TMC3    C410183   1.144   3.915  15.817  0.0304  0.4331 -0.2260
  685TMC3    C510184   1.162   3.963  15.698  0.3583  0.2953 -0.6712
  685TMC3    C610185   1.061   4.019  15.630  0.2105  0.4104  0.8986
  685TMC3     C10186   1.016   3.908  16.029 -1.0295  0.2075  0.4656
  685TMC3     O10187   1.075   3.807  16.068  0.3954  0.6032  0.4587
  685TMC3     H10188   0.820   3.997  15.857  0.0985 -2.8490  0.5919
  685TMC3    H110189   1.206   3.840  15.864 -0.4073 -0.6549 -1.3734
  685TMC3    H210190   1.078   4.065  15.534  0.6677 -0.2846  0.6513
  685TMC3    C710191   1.286   4.031  15.682 -0.8304  0.7999  0.6683
  685TMC3    C810192   0.828   4.083  15.609 -1.3695  0.0576  0.0266
  685TMC3    O110193   1.296   4.118  15.595  0.2534  0.0821 -0.0917
  685TMC3    O210194   0.824   4.069  15.489  0.4462  0.3366  0.1451
  686MPD2     C10195   2.538   4.338  15.603  0.0538  0.2679 -0.0156
  686MPD2    C110196   2.468   4.224  15.569  0.1732  0.0592 -0.2692
  686MPD2    C210197   2.528   4.142  15.477  0.1175  0.1745 -0.0984
  686MPD2    C310198   2.646   4.166  15.415 -0.5904 -0.2503  0.0989
  686MPD2    C410199   2.712   4.277  15.448  0.1023  0.4530 -0.0337
  686MPD2    C510200   2.660   4.359  15.547  0.3157 -0.0713 -0.2798
  686MPD2     H10201   2.479   4.047  15.459  1.2549  0.1171 -2.8648
  686MPD2    H110202   2.807   4.304  15.404  0.9078 -2.4462 -0.0565
  686MPD2    H210203   2.511   4.404  15.684  2.0260  1.7049 -0.5281
  686MPD2    H310204   2.709   4.452  15.574 -1.8979  0.5010  1.7994
  686MPD2     N10205   2.719   4.068  15.350  0.6118 -0.0750  0.1460
  686MPD2    H510206   2.821   4.071  15.348  0.5701  1.3287 -0.2391
  686MPD2    N110207   2.351   4.182  15.632  0.0485 -0.7854  0.3373
  686MPD2    H710208   2.318   4.090  15.604  0.9048 -0.8620 -0.4285
  687TMC3    C110209   2.730   3.849  15.263 -0.0472  0.0280 -0.2354
  687TMC3    C210210   2.657   3.774  15.185  0.0227 -0.1721 -0.1600
  687TMC3    C310211   2.622   3.649  15.240 -0.2403 -0.1087  0.2166
  687TMC3    C410212   2.789   3.812  15.380  1.0361 -0.2666  0.2176
  687TMC3    C510213   2.766   3.682  15.419 -1.0004  1.1101  0.1639
  687TMC3    C610214   2.688   3.599  15.349 -0.2624 -0.4840 -0.1139
  687TMC3     C10215   2.654   3.973  15.274  0.1243  0.0531  1.1332
  687TMC3     O10216   2.538   3.965  15.250 -0.1696  0.3258 -0.3942
  687TMC3     H10217   2.598   3.812  15.102 -2.3275 -2.8298  0.2891
  687TMC3    H110218   2.857   3.877  15.433 -0.0388  1.5607 -0.6425
  687TMC3    H210219   2.649   3.507  15.391 -0.1800 -0.9848 -1.1509
  687TMC3    C710220   2.812   3.620  15.535  0.1743  0.0980  0.0974
  687TMC3    C810221   2.484   3.611  15.239 -0.1690 -0.0845  0.0115
  687TMC3    O110222   2.812   3.498  15.527  0.2934  0.8750  0.0227
  687TMC3    O210223   2.452   3.500  15.283 -0.1550 -0.4794 -0.1170
  688MPD2     C10224   1.372   3.018  17.189  0.2202 -0.0115 -0.6380
  688MPD2    C110225   1.429   2.923  17.261 -0.8179  0.5376 -0.8416
  688MPD2    C210226   1.553   2.882  17.229  0.4748 -0.5502  0.0400
  688MPD2    C310227   1.628   2.926  17.124 -0.2273  0.1531 -0.6509
  688MPD2    C410228   1.573   3.029  17.057  0.2470  0.9355 -0.3630
  688MPD2    C510229   1.444   3.062  17.083  0.0240 -0.0473  0.4796
  688MPD2     H10230   1.590   2.803  17.292  2.5185 -0.7117 -1.3473
  688MPD2    H110231   1.619   3.083  16.975 -1.1635 -1.1825 -2.5406
  688MPD2    H210232   1.271   3.053  17.211  0.5535  0.0675  0.7450
  688MPD2    H310233   1.401   3.145  17.028  2.6049  0.0598 -1.3985
  688MPD2     N10234   1.752   2.869  17.078  0.0073 -0.2321  0.1414
  688MPD2    H510235   1.778   2.917  16.992 -1.4245  2.0132  0.9638
  688MPD2    N110236   1.364   2.852  17.371  0.5836 -0.7736  0.5578
  688MPD2    H710237   1.395   2.757  17.392 -3.0845 -2.3632 -1.2172
  689TMC3    C110238   1.228   2.826  17.576  0.3670 -0.3058 -0.0240
  689TMC3    C210239   1.202   2.908  17.681  0.4017  0.5875  0.0682
  689TMC3    C310240   1.178   2.838   0.046  0.2747 -0.1596  0.5863
  689TMC3    C410241   1.228   2.688  17.581  0.2370 -0.0122  0.1389
  689TMC3    C510242   1.201   2.626  17.704  0.5965  0.1099 -0.0883
  689TMC3    C610243   1.185   2.702   0.067 -0.2840  0.6121  0.2655
  689TMC3     C10244   1.270   2.907  17.459  0.0859 -0.6018 -0.1016
  689TMC3     O10245   1.238   3.027  17.457 -0.1480  0.0658  0.1664
  689TMC3     H10246   1.208   3.016  17.684  0.4023  0.6589 -2.8176
  689TMC3    H110247   1.255   2.638  17.489 -1.6196  0.9149 -0.9217
  689TMC3    H210248   1.174   2.653   0.163  2.2985 -2.8216 -1.2059
  689TMC3    C710249   1.190   2.480  17.720  0.5419  0.0750  0.1093
  689TMC3    C810250   1.162   2.930   0.157  0.2350 -0.0189 -0.0268
  689TMC3    O110251   1.191   2.439   0.089 -0.1374  0.4253 -0.2685
  689TMC3    O210252   1.225   3.034   0.168  0.4703  0.0609  0.6273
  690MPD2     C10253   0.100   4.614  15.710  0.2389 -0.9209 -0.1051
  690MPD2    C110254   0.005   4.670  15.628  0.3635  0.0313  0.1360
  690MPD2    C210255   0.038   4.724  15.504  0.3077  0.1287 -0.0216
  690MPD2    C310256   0.169   4.726  15.468  0.2224  0.2521  0.4091
  690MPD2    C410257   0.267   4.676  15.546  0.0608  0.3242  0.1323
  690MPD2    C510258   0.229   4.625  15.665  1.2469 -0.2080  0.3290
  690MPD2     H10259   4.710   0.057  15.457  0.8823  1.8109  1.7140
  690MPD2    H110260   0.370   4.667  15.512 -0.2290  2.0729 -1.2091
  690MPD2    H210261   0.088   4.556  15.801  0.4675 -0.9329 -0.0842
  690MPD2    H310262   0.305   4.580  15.729 -0.3300 -2.6574  0.4221
  690MPD2     N10263   0.192   0.043  15.338 -0.0162 -0.4481 -0.4027
  690MPD2    H510264   0.110   0.062  15.283  0.8257 -1.7481 -2.1148
  690MPD2    N110265   4.611   4.675  15.663  0.1614 -0.0655 -0.5654
  690MPD2    H710266   4.548   4.700  15.588 -0.6743  1.3813  0.6181
  691TMC3    C110267   4.406   4.638  15.777 -0.9207  0.6972 -0.2529
  691TMC3    C210268   4.339   0.005  15.719  0.5363  0.4246  0.0984
  691TMC3    C310269   4.199   0.003  15.734 -0.2654 -0.3848  0.6647
  691TMC3    C410270   4.345   4.537  15.840 -0.0906 -0.5430 -0.6631
  691TMC3    C510271   4.206   4.540  15.852 -0.8841 -0.5085  0.0267
  691TMC3    C610272   4.133   4.645  15.801  0.0584  0.2764  0.4594
  691TMC3     C10273   4.554   4.637  15.779  0.0289  0.2036  0.5595
  691TMC3     O10274   4.608   4.577  15.875 -0.3399 -0.6551  0.8991
  691TMC3     H10275   4.395   0.079  15.663  0.1727  0.9116  0.3661
  691TMC3    H110276   4.392   4.442  15.859  0.4555  0.5035  3.1931
  691TMC3    H210277   4.027   4.648  15.821 -0.5913 -0.9564 -2.6389
  691TMC3    C710278   4.155   4.448  15.949  0.7060  0.7903  0.6813
  691TMC3    C810279   4.118   0.118  15.684  0.2515 -0.5060 -0.6055
  691TMC3    O110280   4.237   4.389  16.013  0.1793  0.2791 -0.0389
  691TMC3    O210281   3.996   0.123  15.695 -0.4837 -0.4237  0.3592
  692TMC3    C110282   0.635   1.079  16.057  0.2886 -0.0115 -0.1525
  692TMC3    C210283   0.709   1.138  16.158  0.5034  0.2743  0.5210
  692TMC3    C310284   0.804   1.066  16.226 -0.4496 -0.0816  0.1733
  692TMC3    C410285   0.674   0.954  16.014 -0.5103 -0.1682 -0.1306
  692TMC3    C510286   0.765   0.884  16.087  0.7257 -0.0870 -0.4220
  692TMC3    C610287   0.818   0.927  16.202  0.5075  0.0794  0.7939
  692TMC3     C10288   0.499   1.116  16.058 -0.5043  0.4675 -0.5195
  692TMC3     O10289   0.473   1.228  16.097 -0.0181  0.4726  0.1731
  692TMC3     H10290   0.664   1.228  16.198  0.9136  0.8779 -0.3666
  692TMC3    H110291   0.640   0.909  15.921 -0.1337  0.3525 -0.5172
  692TMC3    H210292   0.911   0.878  16.230  0.1782 -1.4140 -0.7685
  692TMC3    C710293   0.807   0.760  16.028  0.4092  0.5980 -0.1363
  692TMC3    C810294   0.822   1.094  16.362 -0.0861  0.8721  0.4528
  692TMC3    O110295   0.794   0.746  15.905 -0.3528  0.3709 -0.2701
  692TMC3    O210296   0.858   1.000  16.436 -0.9552 -0.0921  0.3355
  693MPD2     C10297   0.630   3.743  10.589 -0.1516 -0.2892 -0.5165
  693MPD2    C110298   0.573   3.680  10.700 -0.1996  0.0359 -0.2462
  693MPD2    C210299   0.646   3.586  10.764 -0.6373  0.1898  0.4491
  693MPD2    C310300   0.787   3.567  10.740 -0.1170 -0.3750 -0.2314
  693MPD2    C410301   0.837   3.635  10.634 -0.8914 -0.6927 -0.0171
  693MPD2    C510302   0.758   3.714  10.560  0.0123 -0.2542 -0.3899
  693MPD2     H10303   0.598   3.540  10.851  0.8810 -0.9024  0.6993
  693MPD2    H110304   0.942   3.633  10.605 -0.6167  2.4138  0.7754
  693MPD2    H210305   0.581   3.830  10.545  1.0859  0.4297 -0.4709
  693MPD2    H310306   0.814   3.771  10.486  0.2916 -1.3959 -1.0457
  693MPD2     N10307   0.871   3.494  10.824  0.0912  0.5379 -0.1772
  693MPD2    H510308   0.972   3.504  10.815  0.3878 -0.7859  1.7859
  693MPD2    N110309   0.441   3.705  10.759 -0.3401  0.0447 -0.2621
  693MPD2    H710310   0.409   3.648  10.836 -0.6740  0.1364 -0.3296
  694TMC3    C110311   0.236   3.781  10.809  0.7120 -0.0339  0.4940
  694TMC3    C210312   0.122   3.761  10.740  0.3576  0.3380  0.1176
  694TMC3    C310313   0.018   3.694  10.799  1.0922  0.3782  0.5731
  694TMC3    C410314   0.262   3.728  10.932  0.6400 -0.7448  0.2745
  694TMC3    C510315   0.165   3.652  10.991 -0.8256  0.6520 -0.8855
  694TMC3    C610316   0.043   3.637  10.926  0.0798  0.4734  0.7658
  694TMC3     C10317   0.347   3.784  10.714 -0.3199 -0.0524 -0.3682
  694TMC3     O10318   0.344   3.844  10.609  0.1105 -0.1308  1.2501
  694TMC3     H10319   0.111   3.799  10.639 -0.4014 -0.2593 -0.0248
  694TMC3    H110320   0.360   3.729  10.978  1.1325 -0.1101 -0.8039
  694TMC3    H210321   4.700   3.579  10.969 -0.6885  0.1965 -1.0487
  694TMC3    C710322   0.198   3.581  11.106 -0.4842  0.3075 -0.1929
  694TMC3    C810323   4.631   3.667  10.736  0.4845  0.2088 -0.1343
  694TMC3    O110324   0.277   3.638  11.183 -0.0669  0.4434  0.5175
  694TMC3    O210325   4.582   3.560  10.773  0.1646 -0.4575  0.4417
  695MPD2     C10326   1.324   0.205  13.922 -0.1138  0.2139 -0.1005
  695MPD2    C110327   1.289   0.328  13.960  0.0169 -0.2690 -0.0314
  695MPD2    C210328   1.154   0.366  13.973  0.3530  0.1961  0.3775
  695MPD2    C310329   1.056   0.280  13.930  0.3820 -0.2032 -0.5680
  695MPD2    C410330   1.090   0.153  13.898 -0.0404 -0.4673  0.6842
  695MPD2    C510331   1.223   0.114  13.890  0.0969  0.0040 -0.0801
  695MPD2     H10332   1.128   0.459  14.022  0.7540 -0.1449  1.2363
  695MPD2    H110333   1.021   0.075  13.868  0.4169 -1.1065  1.2928
  695MPD2    H210334   1.429   0.176  13.921  0.2348  1.4603  0.4416
  695MPD2    H310335   1.252   0.010  13.873 -1.4282  0.1341 -3.5516
  695MPD2     N10336   0.923   0.322  13.932 -0.2419  0.6949 -0.2106
  695MPD2    H510337   0.863   0.243  13.908 -0.2211  0.3463  0.8828
  695MPD2    N110338   1.388   0.425  14.007  0.2798  0.2713 -0.0476
  695MPD2    H710339   1.343   0.509  14.042  0.7310  1.5067 -2.4323
  696TMC3    C110340   0.740   0.454  13.917  0.5069 -0.1216 -0.1958
  696TMC3    C210341   0.690   0.420  14.040  0.3464  0.4163 -0.3917
  696TMC3    C310342   0.596   0.496  14.089  0.3322  0.3849  0.5105
  696TMC3    C410343   0.685   0.559  13.844 -0.3463 -0.0374 -0.7839
  696TMC3    C510344   0.590   0.634  13.909 -0.1319 -0.0181 -0.1434
  696TMC3    C610345   0.535   0.601  14.025  0.2566 -0.2779  0.7500
  696TMC3     C10346   0.875   0.453  13.933 -0.0193 -0.0433  1.2848
  696TMC3     O10347   0.927   0.559  13.956 -0.2123 -0.8474 -0.6558
  696TMC3     H10348   0.733   0.351  14.112  0.8196  0.6298 -0.4693
  696TMC3    H110349   0.734   0.603  13.758 -0.1092  2.1793  0.4903
  696TMC3    H210350   0.447   0.648  14.067 -0.1076  0.9307 -1.3710
  696TMC3    C710351   0.558   0.765  13.847 -0.1605 -0.6340  0.0313
  696TMC3    C810352   0.623   0.534  14.224  0.3855  0.3201 -0.1888
  696TMC3    O110353   0.586   0.769  13.726 -0.2875  0.4812  0.0201
  696TMC3    O210354   0.553   0.501  14.317  0.1784 -0.3712 -0.7856
  697MPD2     C10355   0.558   2.299  15.797  0.2967  0.5558 -0.1163
  697MPD2    C110356   0.531   2.240  15.675 -0.1842  0.5194  0.0910
  697MPD2    C210357   0.504   2.317  15.561 -0.1132 -0.0260 -0.1484
  697MPD2    C310358   0.500   2.458  15.576  0.1074 -0.1354 -0.2059
  697MPD2    C410359   0.520   2.511  15.703 -0.3491  0.2477 -1.0444
  697MPD2    C510360   0.540   2.430  15.813  0.8362 -0.5648  0.6246
  697MPD2     H10361   0.499   2.266  15.465 -0.3180 -1.2146  0.4935
  697MPD2    H110362   0.516   2.617  15.725  0.4431  0.2858 -1.0810
  697MPD2    H210363   0.577   2.245  15.889 -0.4583  1.5795  0.6394
  697MPD2    H310364   0.570   2.468  15.911 -1.0711  1.9348  0.2348
  697MPD2     N10365   0.484   2.544  15.467  0.7595  0.0635 -0.1747
  697MPD2    H510366   0.498   2.510  15.372  3.8363 -0.8991  0.6374
  697MPD2    N110367   0.527   2.097  15.665 -0.4175 -0.0958 -0.1863
  697MPD2    H710368   0.508   2.070  15.569  0.7381  0.7928 -0.6672
  698TMC3    C110369   0.507   2.755  15.365  0.5129 -0.1187  0.3674
  698TMC3    C210370   0.603   2.848  15.406 -0.3736  1.0830 -0.9720
  698TMC3    C310371   0.710   2.886  15.327 -1.3580  0.1008  0.0325
  698TMC3    C410372   0.507   2.710  15.233  0.1619 -0.5142  0.4340
  698TMC3    C510373   0.614   2.747  15.160  0.5101  0.2153 -0.0647
  698TMC3    C610374   0.716   2.823  15.202  1.2312 -0.2305  0.3642
  698TMC3     C10375   0.467   2.675  15.482  0.2849  0.2869 -0.0523
  698TMC3     O10376   0.407   2.739  15.564 -0.5417  0.6473  0.6151
  698TMC3     H10377   0.607   2.865  15.513  0.5427  1.1400 -1.0109
  698TMC3    H110378   0.434   2.644  15.187 -1.5819  1.4198  0.4259
  698TMC3    H210379   0.800   2.842  15.137  0.1018 -0.9479 -1.3311
  698TMC3    C710380   0.636   2.671  15.040 -0.2995 -0.7521 -0.2950
  698TMC3    C810381   0.835   2.879  15.395 -0.0313  0.3983  0.1697
  698TMC3    O110382   0.755   2.644  15.019 -0.2125 -0.4302 -0.3732
  698TMC3    O210383   0.839   2.804  15.492  0.1860 -0.6702 -0.1385
  699TMC3    C110384   0.912   1.058  13.312 -0.4820  0.5469  0.3921
  699TMC3    C210385   0.935   0.925  13.344 -0.6131 -0.4029  0.1140
  699TMC3    C310386   0.828   0.866  13.394 -0.8017  0.5266  0.3133
  699TMC3    C410387   0.793   1.125  13.331  0.1796 -0.0224 -0.2033
  699TMC3    C510388   0.689   1.057  13.388  0.3908 -0.4668 -0.1821
  699TMC3    C610389   0.707   0.924  13.419  0.3253  0.5240  0.1181
  699TMC3     C10390   0.980   1.098  13.189 -0.0426 -0.3725 -0.3327
  699TMC3     O10391   0.912   1.092  13.086  0.6511  0.0763  0.2113
  699TMC3     H10392   1.024   0.871  13.313 -1.0301 -1.3637  0.5977
  699TMC3    H110393   0.782   1.223  13.287  0.2036  0.9317  1.9306
  699TMC3    H210394   0.618   0.864  13.435 -0.0395  1.4017  1.4823
  699TMC3    C710395   0.559   1.109  13.409  0.0013 -0.0817  0.0052
  699TMC3    C810396   0.825   0.723  13.397 -0.1089 -0.6268 -0.3260
  699TMC3    O110397   0.473   1.034  13.458  0.2745  0.1061  0.5569
  699TMC3    O210398   0.720   0.664  13.368 -0.2558 -0.7215 -0.1758
  700TMC3    C110399   4.136   3.123  17.112 -0.0597  0.0437 -0.0491
  700TMC3    C210400   4.210   3.023  17.053 -1.1879 -0.5885  0.2591
  700TMC3    C310401   4.230   2.913  17.128 -1.0534 -0.9755 -0.6728
  700TMC3    C410402   4.092   3.117  17.241 -0.2408  0.5231  0.0464
  700TMC3    C510403   4.134   3.019  17.316  0.6008 -0.1982 -0.4933
  700TMC3    C610404   4.190   2.911  17.258 -0.5543 -0.6240  0.2229
  700TMC3     C10405   4.082   3.224  17.024  0.3338 -0.0398  0.7062
  700TMC3     O10406   3.970   3.261  17.042  0.2387 -0.1316 -0.0570
  700TMC3     H10407   4.233   3.018  16.947 -2.0634 -0.4724  0.0694
  700TMC3    H110408   4.046   3.203  17.289 -0.5664  0.3190  0.0995
  700TMC3    H210409   4.220   2.832  17.328  0.6872  0.4198  0.8749
  700TMC3    C710410   4.134   3.032  17.455 -0.1623  0.0798 -0.3754
  700TMC3    C810411   4.335   2.822  17.089  0.5254  0.2527 -0.4989
  700TMC3    O110412   4.129   2.930  17.524  0.1006 -0.0839  0.5589
  700TMC3    O210413   4.401   2.865  16.996 -0.3511 -0.2816 -0.8247
  701TMC3    C110414   4.662   1.739  15.554 -0.2028  0.4272 -0.5501
  701TMC3    C210415   4.736   1.694  15.448  0.1050  0.8522 -0.4762
  701TMC3    C310416   0.125   1.746  15.428  1.0008  0.4076 -0.9657
  701TMC3    C410417   4.721   1.831  15.639  0.4037  0.2728  0.3143
  701TMC3    C510418   0.102   1.893  15.608 -0.2486  0.0787  1.2649
  701TMC3    C610419   0.188   1.844  15.506  0.4181 -0.1588  0.1274
  701TMC3     C10420   4.522   1.735  15.560  1.3606 -0.3468  0.1508
  701TMC3     O10421   4.464   1.820  15.629  0.0582 -0.2658 -0.6299
  701TMC3     H10422   4.703   1.621  15.375 -2.9118 -0.8507  2.5431
  701TMC3    H110423   4.660   1.864  15.723  0.7734 -0.1992  0.7716
  701TMC3    H210424   0.289   1.877  15.487  0.4806 -1.1200 -1.2183
  701TMC3    C710425   0.128   2.028  15.653 -0.5833  0.1467  0.4899
  701TMC3    C810426   0.187   1.730  15.294  0.5151  0.5698 -0.5857
  701TMC3    O110427   0.212   2.094  15.590  0.3587  0.8441  0.0649
  701TMC3    O210428   0.300   1.680  15.283  0.4063  0.1885  0.1041
  702MPD2     C10429   0.144   4.120  11.015 -0.4149 -0.9029 -0.4219
  702MPD2    C110430   0.022   4.169  11.067  0.3874  0.1164  0.4101
  702MPD2    C210431   4.658   4.189  10.977 -0.7738 -0.2989 -0.5605
  702MPD2    C310432   4.691   4.198  10.843 -0.0743  0.7314 -0.2554
  702MPD2    C410433   0.082   4.168  10.801 -0.3690 -0.6215  0.2113
  702MPD2    C510434   0.171   4.119  10.888  0.4993  0.4538 -0.8418
  702MPD2     H10435   4.565   4.231  11.013 -0.3213  0.9326 -0.8428
  702MPD2    H110436   0.108   4.193  10.699 -0.8833 -0.9689 -0.0082
  702MPD2    H210437   0.220   4.084  11.084  0.9322  1.0059 -0.8976
  702MPD2    H310438   0.272   4.091  10.860  0.3113 -0.0531 -1.0026
  702MPD2     N10439   4.591   4.254  10.752 -0.5126  0.0161 -0.0959
  702MPD2    H510440   4.500   4.281  10.788 -0.0167  0.8833  0.5164
  702MPD2    N110441   4.736   4.190  11.205 -0.5179 -0.1897 -0.4572
  702MPD2    H710442   4.640   4.206  11.233 -0.2426  2.0882 -0.8454
  703TMC3    C110443   4.528   4.412  10.593  0.2717 -0.0143  0.9068
  703TMC3    C210444   4.457   4.459  10.702  0.0207  0.3163  0.6829
  703TMC3    C310445   4.463   4.591  10.729 -0.5911 -0.2939 -0.2748
  703TMC3    C410446   4.614   4.491  10.521 -0.3733  0.0803  0.1329
  703TMC3    C510447   4.625   4.617  10.565  0.1375  0.2315  0.1132
  703TMC3    C610448   4.547   4.675  10.664  0.3733 -0.1877  0.1725
  703TMC3     C10449   4.602   4.289  10.618 -0.2574  0.3392  0.3146
  703TMC3     O10450   4.687   4.247  10.538  0.7437  0.5119 -0.1907
  703TMC3     H10451   4.388   4.398  10.758  1.3898  0.6990  2.7921
  703TMC3    H110452   4.663   4.450  10.434 -1.1503  1.4937 -0.9774
  703TMC3    H210453   4.568   0.040  10.687 -2.2513  0.4176 -0.1417
  703TMC3    C710454   0.020   4.662  10.557  0.0979 -0.2037 -0.3054
  703TMC3    C810455   4.494   4.591  10.870  1.1387  0.6704 -0.2665
  703TMC3    O110456   0.089   4.627  10.464  0.3591  0.1714 -0.2247
  703TMC3    O210457   4.598   4.647  10.892 -0.4291 -0.3937  0.0732
  704TMC3    C110458   1.436   3.041  11.802  0.4577 -0.4146  0.2710
  704TMC3    C210459   1.455   3.051  11.667  0.2316 -0.6321  0.2480
  704TMC3    C310460   1.581   3.022  11.615 -0.1881  0.2215  0.0411
  704TMC3    C410461   1.541   3.003  11.880  0.3861  0.0109 -0.6092
  704TMC3    C510462   1.665   2.970  11.823 -0.6095  0.8909 -0.4167
  704TMC3    C610463   1.685   2.980  11.693  0.4446  0.2707 -0.1543
  704TMC3     C10464   1.315   3.107  11.852  0.4084  0.4613  0.5541
  704TMC3     O10465   1.276   3.088  11.968 -0.1356 -0.3835 -0.1871
  704TMC3     H10466   1.369   3.054  11.602  1.5488 -2.7611 -1.5842
  704TMC3    H110467   1.516   2.998  11.985  0.4831 -3.0597 -0.7309
  704TMC3    H210468   1.785   2.969  11.653 -0.0579 -0.5311 -1.1609
  704TMC3    C710469   1.755   2.883  11.901  0.3782 -0.2225  0.1965
  704TMC3    C810470   1.594   3.024  11.470 -0.2875 -0.1366 -0.5490
  704TMC3    O110471   1.831   2.813  11.832 -0.1762  0.4976  0.1342
  704TMC3    O210472   1.502   3.079  11.410  0.1436  0.3149 -0.6594
  705MPD2     C10473   0.854   0.324  16.702  0.3960  0.1240  0.4660
  705MPD2    C110474   0.879   0.453  16.711 -0.1249 -0.0265  1.1220
  705MPD2    C210475   0.801   0.537  16.781  0.2075  0.0674  0.1805
  705MPD2    C310476   0.675   0.501  16.834 -0.4581  0.5817  0.4625
  705MPD2    C410477   0.653   0.364  16.813 -0.7123  0.3281  0.2056
  705MPD2    C510478   0.729   0.289  16.738  0.2268 -0.2482  0.1093
  705MPD2     H10479   0.841   0.634  16.809  1.1357 -0.5796  1.0810
  705MPD2    H110480   0.556   0.323  16.839 -0.8379 -0.2249 -1.1207
  705MPD2    H210481   0.926   0.246  16.680 -1.5253 -1.7663  0.8789
  705MPD2    H310482   0.699   0.185  16.745 -0.4105 -0.1187 -0.6893
  705MPD2     N10483   0.568   0.581  16.878  0.1328 -0.0668 -0.1445
  705MPD2    H510484   0.481   0.531  16.888 -0.3811  0.2466 -3.1347
  705MPD2    N110485   0.999   0.496  16.641 -0.0934 -0.2444 -0.0010
  705MPD2    H710486   1.024   0.594  16.650 -0.1711 -0.4221  2.3083
  706TMC3    C110487   1.369   0.482  16.359 -0.3968  0.1855  0.3379
  706TMC3    C210488   1.336   0.600  16.293  0.8505  0.0248  0.1203
  706TMC3    C310489   1.228   0.663  16.337  0.2201 -0.0074  0.6503
  706TMC3    C410490   1.295   0.432  16.456 -0.1410  0.3229 -0.1693
  706TMC3    C510491   1.180   0.496  16.485 -0.1075  0.2340 -0.5514
  706TMC3    C610492   1.148   0.618  16.437  0.1484  0.0140 -0.2941
  706TMC3     C10493   1.488   0.409  16.311 -0.0582 -0.0670  0.0436
  706TMC3     O10494   1.557   0.347  16.386 -0.3044 -0.4354 -0.8691
  706TMC3     H10495   1.382   0.646  16.207 -1.3788  2.2197  0.0897
  706TMC3    H110496   1.322   0.334  16.493  0.1918  0.4624 -0.0446
  706TMC3    H210497   1.048   0.659  16.439 -0.7680 -2.3517  2.7593
  706TMC3    C710498   1.087   0.421  16.559 -0.9358  0.0758 -0.1248
  706TMC3    C810499   1.197   0.780  16.257  1.1457 -0.6308  0.0426
  706TMC3    O110500   1.103   0.301  16.554  0.0102 -0.2744 -0.0704
  706TMC3    O210501   1.165   0.774  16.140  0.3715  0.0382 -0.3914
  707TMC3    C110502   2.345   4.635   1.184  0.4695 -0.0771 -0.8162
  707TMC3    C210503   2.438   4.658   1.279  0.3965 -0.5045  0.0969
  707TMC3    C310504   2.400   4.699   1.400  0.2646 -0.6407  0.5844
  707TMC3    C410505   2.217   4.672   1.212 -0.0524 -0.4993  0.8060
  707TMC3    C510506   2.177   4.708   1.338 -0.5870  0.0387 -0.1467
  707TMC3    C610507   2.272   4.728   1.437  0.5067 -0.2271  0.4311
  707TMC3     C10508   2.391   4.576   1.058 -0.6182 -0.0197  0.3182
  707TMC3     O10509   2.506   4.533   1.061  0.0671 -0.0667  0.6016
  707TMC3     H10510   2.540   4.637   1.249  0.0420 -1.3526 -0.5047
  707TMC3    H110511   2.149   4.659   1.129  1.6222 -1.9955 -0.3398
  707TMC3    H210512   2.251   4.731   1.544 -0.2434  1.1332  0.2547
  707TMC3    C710513   2.043   4.687   1.362 -0.5884 -0.5173 -0.4434
  707TMC3    C810514   2.496   4.717   1.508 -0.3785 -0.7209 -0.5064
  707TMC3    O110515   1.980   4.600   1.298 -0.2201  0.3561  0.3580
  707TMC3    O210516   2.451   4.717   1.622 -0.0611 -0.3837 -0.3100
  708MPD2     C10517   4.048   3.251  13.800  0.2872 -0.2045 -0.0504
  708MPD2    C110518   4.064   3.380  13.844  0.5491 -0.1313 -0.3571
  708MPD2    C210519   4.082   3.402  13.981 -0.2090  0.3307 -0.3136
  708MPD2    C310520   4.068   3.298  14.073 -0.2039 -0.0797 -0.0377
  708MPD2    C410521   4.050   3.166  14.024 -0.0070  0.3171  0.1515
  708MPD2    C510522   4.044   3.148  13.884  0.2805  0.8924 -0.3171
  708MPD2     H10523   4.109   3.502  14.014  0.6637  0.2019 -0.6536
  708MPD2    H110524   4.046   3.078  14.087 -1.6857 -0.1310 -0.6026
  708MPD2    H210525   4.064   3.211  13.700 -0.8941 -0.0047 -0.3196
  708MPD2    H310526   4.036   3.052  13.835 -0.7299  0.9050 -0.1687
  708MPD2     N10527   4.072   3.327  14.207 -0.0686  0.2550 -0.1610
  708MPD2    H510528   4.060   3.425  14.229  0.9074  0.3215  0.0730
  708MPD2    N110529   4.058   3.481  13.746 -0.0263  0.5011  0.7360
  708MPD2    H710530   4.003   3.452  13.666  0.8781  1.6807 -0.3114
  709TMC3    C110531   4.017   3.711  13.710  0.0684 -0.5857  0.2765
  709TMC3    C210532   3.934   3.674  13.610  0.3456  0.6975 -0.8647
  709TMC3    C310533   3.821   3.752  13.591  0.4196 -0.8987 -0.9248
  709TMC3    C410534   3.997   3.820  13.789 -0.3687  1.1951 -0.6316
  709TMC3    C510535   3.876   3.887  13.770 -0.1451  1.0763 -0.1003
  709TMC3    C610536   3.796   3.867  13.666 -0.6239 -0.6093 -0.0946
  709TMC3     C10537   4.099   3.611  13.774 -0.4692  0.5567  0.0717
  709TMC3     O10538   4.173   3.652  13.861  0.4770 -0.1279 -0.8508
  709TMC3     H10539   3.955   3.588  13.548 -0.7891  0.5722 -1.0777
  709TMC3    H110540   4.056   3.847  13.876 -1.5599  1.3096  0.1401
  709TMC3    H210541   3.710   3.930  13.649 -2.5385 -2.6962  1.8817
  709TMC3    C710542   3.810   3.877  13.903  0.2278 -0.6261 -0.0753
  709TMC3    C810543   3.742   3.733  13.477  0.4214 -0.5775 -0.2449
  709TMC3    O110544   3.877   3.907  14.000 -0.6228 -1.2552 -0.4431
  709TMC3    O210545   3.622   3.746  13.490  0.1518  0.1011  0.3918
  710TMC3    C110546   0.243   1.010   0.422 -0.6675  0.8544  0.2187
  710TMC3    C210547   0.230   1.030   0.285 -0.4219  0.5238  0.0924
  710TMC3    C310548   0.342   1.040   0.212  0.0947 -0.4357 -0.2158
  710TMC3    C410549   0.368   0.994   0.483 -0.0268 -0.2938  0.4490
  710TMC3    C510550   0.479   1.010   0.404  0.7118 -0.2134 -0.3795
  710TMC3    C610551   0.470   1.045   0.274  0.3698 -0.0775 -0.6009
  710TMC3     C10552   0.131   1.035   0.499 -0.1265  0.7524 -0.1791
  710TMC3     O10553   0.022   1.026   0.446  0.1758 -0.5593  0.0990
  710TMC3     H10554   0.135   1.027   0.233 -1.2085 -1.5523  1.6608
  710TMC3    H110555   0.380   0.954   0.583  2.3960 -1.0898 -0.1479
  710TMC3    H210556   0.566   1.034   0.225  0.3672 -1.6042 -0.2628
  710TMC3    C710557   0.604   0.942   0.447 -1.0179 -0.7626 -0.6791
  710TMC3    C810558   0.347   1.013   0.070 -0.2248 -0.2358 -0.2264
  710TMC3    O110559   0.600   0.845   0.524  0.5357 -0.4883  0.0859
  710TMC3    O210560   0.456   1.021   0.013  0.3849 -0.0418  0.5319
  711TMC3    C110561   4.660   1.190  15.031 -0.3192  0.1307 -0.3890
  711TMC3    C210562   4.682   1.206  15.165  0.2460 -0.2766  0.5792
  711TMC3    C310563   0.057   1.273  15.199  0.9247 -0.3348 -0.2113
  711TMC3    C410564   4.728   1.256  14.933 -0.1473 -0.4053  0.0889
  711TMC3    C510565   0.115   1.305  14.973 -0.1276  0.3186 -0.5834
  711TMC3    C610566   0.145   1.323  15.107 -0.5503  0.2317 -0.3131
  711TMC3     C10567   4.544   1.114  14.990 -0.7320 -0.1953 -0.4610
  711TMC3     O10568   4.501   1.120  14.874  0.8405  0.2163  0.3833
  711TMC3     H10569   4.605   1.190  15.239 -0.6832  0.6723 -0.1872
  711TMC3    H110570   4.706   1.240  14.828 -0.0181 -1.5510  0.2370
  711TMC3    H210571   0.235   1.374  15.138 -1.3727  1.3968  0.1388
  711TMC3    C710572   0.224   1.291  14.879 -0.3284  0.2068  0.4134
  711TMC3    C810573   0.103   1.218  15.326  0.3174 -0.0384 -0.7025
  711TMC3    O110574   0.193   1.277  14.760  0.2534 -1.0229 -0.3457
  711TMC3    O210575   0.029   1.141  15.383 -0.8553  0.1354  0.4724
  712MPD2     C10576   1.739   2.421  13.250 -0.3308 -0.0129  0.6770
  712MPD2    C110577   1.656   2.391  13.352 -0.2446  0.7231 -0.8045
  712MPD2    C210578   1.648   2.471  13.464  0.1383 -0.6054 -0.2970
  712MPD2    C310579   1.725   2.592  13.464 -0.1463 -0.0124 -0.4825
  712MPD2    C410580   1.794   2.626  13.348 -0.2182  0.6556 -0.5604
  712MPD2    C510581   1.805   2.536  13.240 -0.0307  0.5309  0.4012
  712MPD2     H10582   1.586   2.450  13.550  0.2344 -0.5298 -0.2084
  712MPD2    H110583   1.851   2.717  13.331 -1.4266  1.1458 -1.9819
  712MPD2    H210584   1.747   2.348  13.170  0.1189  1.7059 -0.8679
  712MPD2    H310585   1.861   2.568  13.153  0.6960  0.0346  0.6944
  712MPD2     N10586   1.739   2.677  13.568 -0.5694 -0.0098 -0.4132
  712MPD2    H510587   1.812   2.747  13.570 -1.0333  0.4581  0.3399
  712MPD2    N110588   1.584   2.270  13.331  0.8653 -0.2765  0.4293
  712MPD2    H710589   1.611   2.204  13.259  1.3660 -0.2153  0.5610
  713TMC3    C110590   1.711   2.747  13.793 -0.2145  0.3161  0.5731
  713TMC3    C210591   1.840   2.734  13.813  0.4380 -0.6780  0.6965
  713TMC3    C310592   1.900   2.805  13.915  0.2168  0.1321 -1.0845
  713TMC3    C410593   1.636   2.836  13.862 -0.0529  0.1513  0.2727
  713TMC3    C510594   1.694   2.911  13.966  0.2457 -0.2809 -0.5830
  713TMC3    C610595   1.831   2.895  13.986  0.0503 -0.4572  0.1531
  713TMC3     C10596   1.659   2.672  13.678  0.2992 -0.3600 -0.1108
  713TMC3     O10597   1.545   2.627  13.698  0.5391  0.0607  0.1604
  713TMC3     H10598   1.904   2.669  13.754  0.3947 -1.6054  1.6775
  713TMC3    H110599   1.531   2.830  13.833  0.0434 -0.0285 -0.0492
  713TMC3    H210600   1.884   2.948  14.064  0.9041 -0.0341 -0.7106
  713TMC3    C710601   1.629   2.999  14.049  0.1420  0.3549 -0.0096
  713TMC3    C810602   2.040   2.804  13.922 -0.4022  0.3229 -0.1781
  713TMC3    O110603   1.694   3.045  14.138 -0.0697  0.1420  0.1034
  713TMC3    O210604   2.095   2.770  13.822 -0.1333 -0.2654  0.2687
  714MPD2     C10605   4.098   1.703   2.118  0.0381 -0.0670 -0.5895
  714MPD2    C110606   4.096   1.685   1.984 -0.5066 -1.0145 -0.1024
  714MPD2    C210607   3.972   1.682   1.914 -0.0506 -0.3212 -0.6501
  714MPD2    C310608   3.858   1.736   1.975 -1.1418  0.5152 -0.0065
  714MPD2    C410609   3.875   1.791   2.105  0.2933 -0.1199  0.0012
  714MPD2    C510610   3.984   1.759   2.174 -0.1810 -0.0522  0.1293
  714MPD2     H10611   3.965   1.651   1.810 -3.8607 -1.4643 -0.0189
  714MPD2    H110612   3.798   1.839   2.164 -0.7075 -0.2013 -1.2201
  714MPD2    H210613   4.190   1.700   2.175  0.4864 -2.2124 -1.4122
  714MPD2    H310614   3.980   1.779   2.280  0.8961  1.5130 -0.1283
  714MPD2     N10615   3.741   1.743   1.898  0.7819 -0.3375 -0.4987
  714MPD2    H510616   3.738   1.695   1.809 -2.8735 -0.4221 -0.3413
  714MPD2    N110617   4.224   1.653   1.925  0.3308 -0.3553  0.4942
  714MPD2    H710618   4.302   1.674   1.986  0.5310 -0.7342  0.3691
  715TMC3    C110619   4.393   1.601   1.770  0.0192 -0.0031  0.1207
  715TMC3    C210620   4.433   1.523   1.671  0.7552 -0.1085  0.2473
  715TMC3    C310621   4.566   1.530   1.627 -0.5251 -0.1790 -1.0712
  715TMC3    C410622   4.481   1.691   1.822  0.7537  0.4338  0.3637
  715TMC3    C510623   4.606   1.700   1.776 -1.0151  1.0070 -0.5335
  715TMC3    C610624   4.656   1.629   1.677 -0.9185 -0.4044 -0.4033
  715TMC3     C10625   4.248   1.601   1.799  0.1751  0.1051 -0.7768
  715TMC3     O10626   4.166   1.555   1.720  0.1854 -0.3061  0.1500
  715TMC3     H10627   4.360   1.455   1.629  1.1666 -0.3887 -0.0098
  715TMC3    H110628   4.456   1.744   1.914  1.7006 -1.1898  1.5573
  715TMC3    H210629   0.017   1.649   1.640 -0.9441 -0.8324 -0.7023
  715TMC3    C710630   4.709   1.770   1.853 -0.1691 -0.3381 -0.2872
  715TMC3    C810631   4.615   1.415   1.552  0.3239  0.5257 -0.4008
  715TMC3    O110632   0.067   1.810   1.791  0.0902  0.0249 -0.8341
  715TMC3    O210633   4.523   1.350   1.511  0.1526  0.6590  0.1831
  716MPD2     C10634   4.462   4.360  10.083 -0.3072  0.6771 -0.1345
  716MPD2    C110635   4.369   4.270  10.026  0.2461 -0.2451 -0.3730
  716MPD2    C210636   4.383   4.130  10.036 -0.1474  0.0780  0.0034
  716MPD2    C310637   4.481   4.082  10.108 -0.2410  0.2111 -0.1937
  716MPD2    C410638   4.578   4.162  10.165  0.3301  0.2140 -0.4067
  716MPD2    C510639   4.567   4.304  10.154 -0.6156  0.2579  0.2557
  716MPD2     H10640   4.312   4.063   9.990  0.2694 -0.6118  0.3599
  716MPD2    H110641   4.661   4.125  10.225  0.0837 -0.3515 -0.4191
  716MPD2    H210642   4.447   4.467  10.080  0.8257  0.8862  1.9063
  716MPD2    H310643   4.637   4.368  10.208 -0.3384 -0.9761  1.3599
  716MPD2     N10644   4.486   3.942  10.128  0.4603 -0.0046  0.0187
  716MPD2    H510645   4.416   3.888  10.077  0.7388  0.7136 -1.1210
  716MPD2    N110646   4.281   4.331   9.937  0.0223  0.4114  0.2220
  716MPD2    H710647   4.291   4.432   9.939 -0.3781  0.4680 -1.0580
  717TMC3    C110648   4.569   3.729  10.174  0.0264  0.7685 -0.0192
  717TMC3    C210649   4.491   3.680  10.066 -0.2779  0.2891 -0.4366
  717TMC3    C310650   4.463   3.543  10.053  0.1346 -0.0710 -0.4332
  717TMC3    C410651   4.621   3.644  10.266 -0.3979 -0.3990  0.1755
  717TMC3    C510652   4.587   3.511  10.250  0.1696 -0.2784 -0.3436
  717TMC3    C610653   4.510   3.460  10.151 -0.0813  0.3567  0.4170
  717TMC3     C10654   4.580   3.871  10.204 -0.3631  0.1299  0.5134
  717TMC3     O10655   4.661   3.911  10.288  0.1617 -0.5597  0.3205
  717TMC3     H10656   4.455   3.753   9.994 -0.5430  1.0625  0.4761
  717TMC3    H110657   4.678   3.684  10.348  0.5782  1.9821 -1.6898
  717TMC3    H210658   4.495   3.353  10.139  3.2745  0.0005 -0.4838
  717TMC3    C710659   4.640   3.410  10.350 -0.3420  0.3837 -0.0047
  717TMC3    C810660   4.369   3.499   9.950 -0.0606  0.2579 -0.1985
  717TMC3    O110661   4.608   3.293  10.321 -0.4408  0.0897 -0.0112
  717TMC3    O210662   4.351   3.580   9.859 -0.4884  0.1023  0.0747
  718MPD2     C10663   3.138   3.346  12.319 -0.8871  0.1007 -0.9162
  718MPD2    C110664   3.184   3.224  12.267  0.8936 -0.1969  0.0675
  718MPD2    C210665   3.142   3.109  12.335 -0.3689  0.2331 -1.1827
  718MPD2    C310666   3.072   3.114  12.457  0.3631  0.1680  0.5670
  718MPD2    C410667   3.034   3.239  12.506 -0.0406  0.2932  0.4932
  718MPD2    C510668   3.064   3.352  12.433 -0.2564 -0.1870 -0.4673
  718MPD2     H10669   3.186   3.015  12.304  3.0816  1.1106  1.0035
  718MPD2    H110670   2.978   3.248  12.599 -0.1551  0.7272  0.3799
  718MPD2    H210671   3.160   3.438  12.264  0.0408  1.7368  2.1950
  718MPD2    H310672   3.011   3.442  12.463  0.5742  0.9034 -2.2323
  718MPD2     N10673   3.049   2.989  12.515 -0.6171  0.3741  0.2405
  718MPD2    H510674   3.065   2.911  12.452 -2.1506 -1.2182  1.8393
  718MPD2    N110675   3.271   3.223  12.149 -0.3417 -1.0815 -0.2343
  718MPD2    H710676   3.311   3.313  12.125  0.6412 -1.1033  1.3293
  719TMC3    C110677   3.417   3.113  11.994  0.2950 -0.2025  0.2380
  719TMC3    C210678   3.401   3.014  11.905 -0.4353 -0.3578 -0.1341
  719TMC3    C310679   3.509   2.929  11.889  0.6884 -0.2665 -0.7593
  719TMC3    C410680   3.524   3.124  12.071 -0.0717  0.0427 -0.1581
  719TMC3    C510681   3.626   3.038  12.051 -0.1214  0.1219  0.1790
  719TMC3    C610682   3.630   2.945  11.951 -0.5706 -0.7923 -0.1945
  719TMC3     C10683   3.293   3.117  12.068 -0.2889  0.0847 -0.2251
  719TMC3     O10684   3.223   3.014  12.066  0.5153 -0.1528 -0.0572
  719TMC3     H10685   3.306   3.008  11.853  0.3549 -0.0477 -1.6139
  719TMC3    H110686   3.535   3.197  12.150 -0.9965 -1.2005  1.1263
  719TMC3    H210687   3.701   2.865  11.930  0.6100 -0.2417  1.7316
  719TMC3    C710688   3.743   3.051  12.134  0.6712  1.1784  0.1126
  719TMC3    C810689   3.477   2.795  11.913 -0.4159  0.3246  0.6877
  719TMC3    O110690   3.844   3.031  12.069  0.6923 -0.4575 -0.0732
  719TMC3    O210691   3.539   2.713  11.850 -0.2434  0.0442 -0.2084
  720MPD2     C10692   1.845   4.494  13.894  0.8090  0.0457  0.2720
  720MPD2    C110693   1.962   4.496  13.829 -1.1575  0.2403  0.3038
  720MPD2    C210694   2.078   4.525  13.894 -0.6448  0.1560 -0.2678
  720MPD2    C310695   2.090   4.531  14.027  0.2673  0.3853 -0.4505
  720MPD2    C410696   1.971   4.519  14.098  0.2148  0.3018  0.3217
  720MPD2    C510697   1.851   4.494  14.033 -0.2178 -0.5676  0.2168
  720MPD2     H10698   2.158   4.545  13.823 -2.2244 -0.8631 -2.3386
  720MPD2    H110699   1.974   4.505  14.205  0.5121  1.8953  0.5234
  720MPD2    H210700   1.747   4.473  13.853  1.4826  1.1456 -1.9458
  720MPD2    H310701   1.762   4.484  14.093  0.6268 -0.4415  1.4969
  720MPD2     N10702   2.215   4.561  14.081 -0.3948  0.8948 -0.3691
  720MPD2    H510703   2.294   4.573  14.019  3.0204 -0.4134  3.7349
  720MPD2    N110704   1.961   4.491  13.691 -0.1283 -0.1556 -0.7413
  720MPD2    H710705   2.051   4.491  13.644  0.5045  0.0264  0.4782
  721TMC3    C110706   2.372   4.593  14.258  0.0635  0.1177  0.0832
  721TMC3    C210707   2.390   4.627  14.391 -0.6556  0.2628 -0.5347
  721TMC3    C310708   2.518   4.674  14.417 -0.4375  0.1861 -0.6128
  721TMC3    C410709   2.473   4.601  14.161 -0.1791 -0.1543  0.3120
  721TMC3    C510710   2.596   4.650  14.200  0.0385 -0.3788  0.4052
  721TMC3    C610711   2.619   4.697  14.326  0.7245  0.0918 -0.2115
  721TMC3     C10712   2.233   4.568  14.220 -0.4883  0.3869 -0.4787
  721TMC3     O10713   2.152   4.575  14.312 -0.3700  0.0528 -0.3285
  721TMC3     H10714   2.312   4.605  14.462  0.0713  1.4232  0.6271
  721TMC3    H110715   2.452   4.580  14.057  0.9900  0.6230 -0.0892
  721TMC3    H210716   2.710   0.009  14.357  1.0015 -1.8079  2.1314
  721TMC3    C710717   2.693   4.701  14.109  0.1777 -0.3980  0.6483
  721TMC3    C810718   2.542   4.734  14.545 -0.2910 -0.5519  0.1172
  721TMC3    O110719   2.797   4.736  14.160 -0.0366  0.1110 -0.5567
  721TMC3    O210720   2.629   0.083  14.549 -0.4040  0.2429 -0.0575
  722MPD2     C10721   0.993   3.197  13.235 -0.3493  0.6456  0.0920
  722MPD2    C110722   0.885   3.277  13.265 -0.5996 -0.6761  0.2637
  722MPD2    C210723   0.816   3.349  13.169 -0.2022 -0.1726 -0.5793
  722MPD2    C310724   0.844   3.316  13.035 -0.2564  0.3505  1.2680
  722MPD2    C410725   0.947   3.233  13.006  0.4708  0.1122 -0.1644
  722MPD2    C510726   1.021   3.170  13.106  1.0037 -0.2733 -0.6598
  722MPD2     H10727   0.737   3.421  13.189 -0.1092 -0.6886  1.5986
  722MPD2    H110728   0.972   3.212  12.902  0.5378  0.9879 -0.3233
  722MPD2    H210729   1.046   3.137  13.309 -1.4372 -0.0572  0.2965
  722MPD2    H310730   1.104   3.105  13.080  1.5036 -0.0858  0.4873
  722MPD2     N10731   0.753   3.356  12.935  0.4322  0.2221 -0.2956
  722MPD2    H510732   0.674   3.412  12.964  0.4984 -0.6639  1.5878
  722MPD2    N110733   0.846   3.301  13.398  0.1276  0.0078 -0.0270
  722MPD2    H710734   0.765   3.361  13.411  0.6060  0.6843 -0.1816
  723TMC3    C110735   0.609   3.316  12.753 -0.2737 -0.3289  0.1209
  723TMC3    C210736   0.549   3.212  12.682  0.0257  0.1540 -0.0884
  723TMC3    C310737   0.422   3.243  12.638 -0.3605  0.6822 -0.0705
  723TMC3    C410738   0.552   3.435  12.769 -0.6472 -0.0296 -0.0279
  723TMC3    C510739   0.423   3.453  12.727 -0.4020  0.0871  0.6239
  723TMC3    C610740   0.355   3.359  12.655  0.3636 -0.3597 -0.4873
  723TMC3     C10741   0.736   3.286  12.814  0.0343 -0.2182 -0.3376
  723TMC3     O10742   0.806   3.203  12.759 -0.2082  0.2965 -0.5930
  723TMC3     H10743   0.605   3.125  12.651  0.3068 -0.0171  0.9026
  723TMC3    H110744   0.594   3.508  12.838 -2.0568  0.9753 -0.2328
  723TMC3    H210745   0.252   3.377  12.627 -0.0544 -1.9281  0.0372
  723TMC3    C710746   0.347   3.567  12.765  0.0775 -0.3737  0.0627
  723TMC3    C810747   0.344   3.137  12.587  0.3038 -0.4873  0.2580
  723TMC3    O110748   0.368   3.607  12.879  0.1561 -0.1479  0.3854
  723TMC3    O210749   0.239   3.181  12.539 -0.4085 -0.4487  0.5717
  724TMC3    C110750   1.637   1.462  10.248  0.0603 -0.4262 -0.1132
  724TMC3    C210751   1.568   1.495  10.135 -0.0971  0.2838 -0.7578
  724TMC3    C310752   1.605   1.610  10.076 -0.1762  0.7736  0.2380
  724TMC3    C410753   1.738   1.536  10.296 -0.2080 -0.1215 -0.1911
  724TMC3    C510754   1.787   1.638  10.222  0.5785  0.1737 -0.0397
  724TMC3    C610755   1.718   1.678  10.115  0.3482 -0.6021  0.2803
  724TMC3     C10756   1.585   1.360  10.334  0.0742  0.2236 -0.6118
  724TMC3     O10757   1.629   1.367  10.450  0.3182 -0.2512  0.1960
  724TMC3     H10758   1.475   1.442  10.123  0.3222 -0.5410 -0.4158
  724TMC3    H110759   1.798   1.495  10.377  0.7299  3.4863  0.9505
  724TMC3    H210760   1.737   1.766  10.054 -0.3024 -1.6411 -1.4385
  724TMC3    C710761   1.861   1.748  10.283  0.0427 -0.8622  0.1478
  724TMC3    C810762   1.516   1.664   9.985  0.0040  0.3933 -0.1839
  724TMC3    O110763   1.907   1.828  10.204  0.2654  0.2620 -0.3603
  724TMC3    O210764   1.432   1.594   9.933  0.2369 -0.7377  0.2537
  725TMC3    C110765   2.628   0.264  13.237  0.7694  0.1952 -0.7209
  725TMC3    C210766   2.537   0.318  13.151 -0.1524  0.0991  0.3818
  725TMC3    C310767   2.431   0.251  13.099  0.3464 -0.0325  0.7188
  725TMC3    C410768   2.613   0.136  13.279 -0.1818  0.0718  0.1746
  725TMC3    C510769   2.508   0.069  13.221  0.3952  0.4325  0.3749
  725TMC3    C610770   2.418   0.121  13.134 -0.2222 -0.5440 -0.3715
  725TMC3     C10771   2.695   0.353  13.320 -0.1432  0.1213 -0.1684
  725TMC3     O10772   2.737   0.457  13.262  0.1500  0.1418  0.1129
  725TMC3     H10773   2.574   0.408  13.102 -0.1403  1.7124  3.3900
  725TMC3    H110774   2.694   0.089  13.333  0.6172  0.2806 -0.8443
  725TMC3    H210775   2.338   0.061  13.091 -0.8455  1.5339 -2.0686
  725TMC3    C710776   2.510   4.655  13.212  0.5850  0.0796 -0.2393
  725TMC3    C810777   2.382   0.267  12.965 -0.0975 -0.0997  1.0934
  725TMC3    O110778   2.462   4.608  13.107  0.6283  0.2932  0.8079
  725TMC3    O210779   2.280   0.209  12.931 -0.3956  0.0766  0.4189
  726MPD2     C10780   0.719   1.665  10.065  0.3900 -0.4871  0.5221
  726MPD2    C110781   0.721   1.713  10.191  0.0244  0.5640  0.6323
  726MPD2    C210782   0.734   1.629  10.305  0.5516  0.3851  0.7381
  726MPD2    C310783   0.694   1.491  10.279 -0.2697 -0.6315  0.4525
  726MPD2    C410784   0.697   1.441  10.148 -0.1482 -0.0811 -0.2543
  726MPD2    C510785   0.716   1.526  10.045 -0.2941  0.0742  0.3198
  726MPD2     H10786   0.745   1.666  10.406  0.1892 -2.6627  1.9183
  726MPD2    H110787   0.706   1.337  10.119  0.7545 -0.8759  2.9107
  726MPD2    H210788   0.729   1.729   9.978  2.2338  1.5595  2.2218
  726MPD2    H310789   0.735   1.492   9.944  0.1251 -1.0052  0.7667
  726MPD2     N10790   0.664   1.397  10.372 -0.3799 -0.3127 -0.1936
  726MPD2    H510791   0.628   1.313  10.329 -1.0527 -0.1408  0.0256
  726MPD2    N110792   0.729   1.849  10.225 -0.5425 -0.3546  0.0448
  726MPD2    H710793   0.742   1.873  10.323  1.8065  2.2887 -0.9050
  727TMC3    C110794   0.657   2.070  10.198  0.6579  0.4407  0.1176
  727TMC3    C210795   0.762   2.133  10.253  0.1322 -0.4762 -0.1051
  727TMC3    C310796   0.738   2.252  10.316  0.4474 -0.1426  0.3650
  727TMC3    C410797   0.529   2.111  10.212 -0.4853 -0.0487 -0.4139
  727TMC3    C510798   0.504   2.221  10.299 -0.5875 -0.5905 -0.4297
  727TMC3    C610799   0.611   2.292  10.344  0.1221  1.1187 -0.8382
  727TMC3     C10800   0.681   1.944  10.134 -0.2438 -0.0983  0.0491
  727TMC3     O10801   0.631   1.925  10.021 -0.1628  0.1046  0.3018
  727TMC3     H10802   0.863   2.106  10.223  0.1822 -2.9011  2.2385
  727TMC3    H110803   0.452   2.046  10.173 -0.1522 -0.6787 -0.0204
  727TMC3    H210804   0.594   2.370  10.417  0.6623 -0.6077  1.1402
  727TMC3    C710805   0.404   2.213  10.400 -0.0850  0.4872 -0.5784
  727TMC3    C810806   0.847   2.313  10.389 -0.1622  0.4759 -0.0750
  727TMC3    O110807   0.420   2.295  10.493 -0.3210  0.6556  0.5627
  727TMC3    O210808   0.939   2.240  10.418 -0.4930 -0.5355 -0.0148
  728TMC3    C110809   0.277   0.123  15.142 -0.3921  0.0683  0.0299
  728TMC3    C210810   0.330   0.251  15.111 -0.2502  0.5418  0.6136
  728TMC3    C310811   0.283   0.321  15.000 -0.1122  0.2706 -1.0981
  728TMC3    C410812   0.178   0.069  15.062  0.0412 -0.1051 -1.5195
  728TMC3    C510813   0.148   0.138  14.951 -0.1526  0.2800 -0.5705
  728TMC3    C610814   0.203   0.260  14.912  0.2518  0.1048  0.3422
  728TMC3     C10815   0.311   0.072  15.276  0.2415  0.3897 -0.1153
  728TMC3     O10816   0.427   0.083  15.314  0.0929  0.9579 -0.4622
  728TMC3     H10817   0.403   0.300  15.175  2.5073 -1.4349 -1.0305
  728TMC3    H110818   0.130   4.713  15.084 -1.1317  1.4081  2.3872
  728TMC3    H210819   0.174   0.309  14.820 -0.0971 -0.1733  0.3062
  728TMC3    C710820   0.034   0.095  14.866  0.1808  0.9407 -0.7418
  728TMC3    C810821   0.333   0.452  14.972 -0.1761  0.8441  0.1933
  728TMC3    O110822   0.005   4.715  14.888  0.0955  0.1693  0.4589
  728TMC3    O210823   0.449   0.472  15.011 -0.4396 -0.1229  0.1362
  729MPD2     C10824   1.562   1.348  16.442 -0.6631 -0.5172  0.3272
  729MPD2    C110825   1.661   1.299  16.518 -0.5198  0.6406 -0.0991
  729MPD2    C210826   1.633   1.278  16.649  0.0956 -0.6784  0.2021
  729MPD2    C310827   1.504   1.297  16.705  0.0073  0.2989  0.0376
  729MPD2    C410828   1.407   1.354  16.627 -0.2922  0.4699 -0.1058
  729MPD2    C510829   1.442   1.375  16.501 -0.3619 -0.5025  0.0004
  729MPD2     H10830   1.716   1.247  16.712  0.3733  0.0134  0.1648
  729MPD2    H110831   1.308   1.383  16.661 -0.0592  0.6324  0.4351
  729MPD2    H210832   1.585   1.366  16.338 -0.7323 -0.1669  0.3736
  729MPD2    H310833   1.370   1.416  16.431 -1.1461  1.8459  2.2093
  729MPD2     N10834   1.483   1.289  16.843  0.2339  0.5008  0.3120
  729MPD2    H510835   1.392   1.314  16.880 -0.8066  1.0168 -2.5964
  729MPD2    N110836   1.798   1.281  16.467 -0.3878 -0.4899  0.7745
  729MPD2    H710837   1.811   1.309  16.370  2.2047 -1.4548  0.8433
  730TMC3    C110838   1.547   1.322  17.065 -0.3343  0.2542  0.0411
  730TMC3    C210839   1.631   1.279  17.166  0.2206  0.3525  0.1329
  730TMC3    C310840   1.655   1.364  17.269 -0.3247  1.0816 -0.3273
  730TMC3    C410841   1.486   1.445  17.073 -0.0212 -0.1803 -0.3585
  730TMC3    C510842   1.505   1.515  17.191 -0.2411  0.2440 -0.7486
  730TMC3    C610843   1.593   1.479  17.288  0.0906  0.0059  0.1298
  730TMC3     C10844   1.583   1.278  16.935  0.1438  0.1523 -0.5799
  730TMC3     O10845   1.696   1.242  16.923  0.1506 -0.4394  0.0573
  730TMC3     H10846   1.692   1.192  17.149 -0.2285 -0.1716  1.1934
  730TMC3    H110847   1.420   1.474  16.993 -0.2166 -1.4954 -0.6690
  730TMC3    H210848   1.619   1.552  17.363  1.1902 -1.4548  1.1628
  730TMC3    C710849   1.461   1.656  17.183 -0.5487  0.0566 -0.1509
  730TMC3    C810850   1.792   1.368  17.311 -0.4235 -0.1911  0.9618
  730TMC3    O110851   1.414   1.692  17.075 -0.8828 -0.2912 -0.6395
  730TMC3    O210852   1.866   1.307  17.239  0.2462  0.3364 -0.5420
  731MPD2     C10853   1.725   4.677  12.191 -0.7655 -0.1738  0.3795
  731MPD2    C110854   1.803   4.572  12.233 -0.3799  0.2752 -0.2742
  731MPD2    C210855   1.776   4.510  12.350 -0.6610  0.2092  1.1321
  731MPD2    C310856   1.671   4.548  12.424 -0.4466 -0.3406 -0.6204
  731MPD2    C410857   1.604   4.662  12.390 -0.3767 -0.3888  0.1907
  731MPD2    C510858   1.630   4.725  12.276 -0.3317 -0.1610 -0.2215
  731MPD2     H10859   1.817   4.415  12.382 -1.0188 -0.3565 -0.0963
  731MPD2    H110860   1.524   4.710  12.446 -0.3367 -1.6714  1.3373
  731MPD2    H210861   1.745   4.728  12.098 -2.0176 -0.2647  0.0632
  731MPD2    H310862   1.568   0.072  12.251 -2.1849 -1.0121  1.4459
  731MPD2     N10863   1.636   4.474  12.541 -0.2096  0.6126 -0.4880
  731MPD2    H510864   1.686   4.390  12.567  2.1121  2.4885  1.1138
  731MPD2    N110865   1.902   4.526  12.143  0.3522  0.2801 -0.3785
  731MPD2    H710866   1.891   4.560  12.048  0.4732  0.1905 -0.4238
  732TMC3    C110867   2.064   4.397  12.059  0.2092 -0.4562 -0.1626
  732TMC3    C210868   1.975   4.344  11.974  0.4025  0.5506  0.0273
  732TMC3    C310869   2.007   4.236  11.901 -0.1172  0.4047  0.1393
  732TMC3    C410870   2.188   4.342  12.084  0.7230 -0.4491  0.4076
  732TMC3    C510871   2.214   4.227  12.014 -1.1259  0.4391  0.6226
  732TMC3    C610872   2.135   4.182  11.919  0.0159  0.0684  0.1630
  732TMC3     C10873   2.009   4.455  12.177  0.5460 -0.1283 -0.4707
  732TMC3     O10874   2.061   4.415  12.282  0.2234 -0.6498  0.5775
  732TMC3     H10875   1.868   4.366  11.979  0.1304 -1.0516  1.2442
  732TMC3    H110876   2.250   4.368  12.169 -0.5912  0.4269  1.0964
  732TMC3    H210877   2.143   4.076  11.896 -0.4889 -0.1184  0.8181
  732TMC3    C710878   2.321   4.141  12.049 -0.1312  0.3854  0.4016
  732TMC3    C810879   1.916   4.126  11.891 -0.5599  0.1658  0.1684
  732TMC3    O110880   2.376   4.074  11.964  0.4253 -0.1657 -0.1530
  732TMC3    O210881   1.935   4.047  11.799  0.4078 -0.6383  0.2483
  733TMC3    C110882   2.829   2.656  12.692 -0.2636  1.0077  0.1309
  733TMC3    C210883   2.867   2.785  12.718 -0.2742  0.4069 -0.4391
  733TMC3    C310884   2.980   2.831  12.660  0.0202 -0.1469  0.3175
  733TMC3    C410885   2.899   2.575  12.609 -0.5536  0.3474  0.7984
  733TMC3    C510886   3.009   2.624  12.558  0.3104  0.2373  0.5171
  733TMC3    C610887   3.054   2.745  12.587  0.0913  0.0885  0.2777
  733TMC3     C10888   2.693   2.624  12.739  0.4954  0.5434 -0.3394
  733TMC3     O10889   2.624   2.708  12.794 -0.4783 -0.0591  0.2055
  733TMC3     H10890   2.805   2.855  12.772 -0.2868  0.9580 -1.1697
  733TMC3    H110891   2.872   2.473  12.584  0.4474  0.7568 -1.9606
  733TMC3    H210892   3.154   2.785  12.571  0.3265 -1.2919 -1.8406
  733TMC3    C710893   3.100   2.543  12.479  0.9569 -0.4564 -1.1957
  733TMC3    C810894   2.986   2.971  12.634  0.2428 -0.2023 -0.5466
  733TMC3    O110895   3.120   2.427  12.518 -0.1036 -0.4091 -0.6854
  733TMC3    O210896   2.942   3.048  12.717  0.4112 -0.8052  0.1270
  734MPD2     C10897   0.433   0.757  12.370 -0.0714  0.2524 -0.3040
  734MPD2    C110898   0.359   0.667  12.285 -0.4533  0.4962 -0.4556
  734MPD2    C210899   0.376   0.674  12.150 -0.3814  0.3756  0.4331
  734MPD2    C310900   0.454   0.773  12.095 -0.1788  0.0543 -0.3926
  734MPD2    C410901   0.506   0.871  12.177  0.4525 -0.7036  0.5043
  734MPD2    C510902   0.495   0.860  12.315 -0.5519  0.1763 -1.1636
  734MPD2     H10903   0.320   0.612  12.080  0.8023  0.4797 -0.6168
  734MPD2    H110904   0.566   0.952  12.136  1.3375 -2.6849 -2.0881
  734MPD2    H210905   0.403   0.757  12.474  0.6741 -0.3106 -0.0887
  734MPD2    H310906   0.553   0.932  12.372 -1.3270  1.0019 -1.4058
  734MPD2     N10907   0.465   0.779  11.949  0.4604  0.7408  0.2325
  734MPD2    H510908   0.447   0.690  11.903 -1.0156  0.4732  1.3591
  734MPD2    N110909   0.274   0.575  12.343  0.2918  0.0497 -0.6658
  734MPD2    H710910   0.299   0.547  12.437 -2.7757 -0.8330 -0.1177
  735TMC3    C110911   0.137   0.381  12.321 -0.3946 -0.4357  0.2875
  735TMC3    C210912   0.031   0.330  12.249  0.4752  0.2186 -0.0456
  735TMC3    C310913   0.020   0.193  12.229  0.3312  0.4803 -0.3486
  735TMC3    C410914   0.237   0.295  12.350  0.0925 -0.1113  0.3760
  735TMC3    C510915   0.216   0.161  12.346 -0.4334 -0.4434  0.1142
  735TMC3    C610916   0.110   0.107  12.285  0.5716 -0.2946  0.4799
  735TMC3     C10917   0.178   0.504  12.270 -0.4381 -0.3986  0.4640
  735TMC3     O10918   0.135   0.534  12.157 -0.4783 -0.3224  0.4602
  735TMC3     H10919   4.683   0.393  12.233 -0.3904 -0.5949  1.5053
  735TMC3    H110920   0.335   0.324  12.386 -0.0441  2.0103 -0.9480
  735TMC3    H210921   0.110   0.007  12.244  1.1001  0.2585 -0.8753
  735TMC3    C710922   0.336   0.078  12.352  0.1539  0.2056  0.2915
  735TMC3    C810923   4.728   0.183  12.092  0.3132 -0.4143  0.5339
  735TMC3    O110924   0.447   0.133  12.351 -0.6437 -0.1913  0.2697
  735TMC3    O210925   4.688   0.074  12.056  0.2988 -0.3651 -0.4711
  736MPD2     C10926   0.322   4.463  12.481 -0.4461  0.3886 -0.4038
  736MPD2    C110927   0.380   4.578  12.431  0.6028 -0.1220  0.4545
  736MPD2    C210928   0.523   4.586  12.417  0.5985  0.6959 -0.4540
  736MPD2    C310929   0.605   4.482  12.456 -0.5067 -0.5301 -0.1770
  736MPD2    C410930   0.545   4.374  12.513 -0.6091  0.1168 -0.0406
  736MPD2    C510931   0.411   4.361  12.517 -0.7870  0.6390 -0.1444
  736MPD2     H10932   0.573   4.669  12.368 -2.6982  2.1921 -1.2895
  736MPD2    H110933   0.607   4.290  12.543  1.2334  2.2407  2.1364
  736MPD2    H210934   0.216   4.450  12.496 -0.3611 -0.8511 -0.8802
  736MPD2    H310935   0.361   4.268  12.544  1.0058 -0.9903 -2.4281
  736MPD2     N10936   0.743   4.482  12.431 -0.0477 -0.5660  0.0676
  736MPD2    H510937   0.805   4.407  12.460  2.4832  2.1862  1.7611
  736MPD2    N110938   0.298   4.694  12.402  0.6159 -0.3991 -0.6519
  736MPD2    H710939   0.200   4.683  12.428  0.9421 -0.0985  0.6726
  737TMC3    C110940   0.949   4.547  12.363 -0.2057 -0.3597  0.4827
  737TMC3    C210941   1.025   4.662  12.362 -0.3552  0.6315 -0.4678
  737TMC3    C310942   1.127   4.658  12.268 -0.2231  0.2434 -0.1353
  737TMC3    C410943   0.970   4.435  12.291  0.8037  0.8527 -1.3067
  737TMC3    C510944   1.077   4.438  12.211 -0.0172 -0.2083  0.1150
  737TMC3    C610945   1.158   4.550  12.189  0.1222  1.3201 -0.7326
  737TMC3     C10946   0.816   4.590  12.392  0.0890  0.1562  0.1801
  737TMC3     O10947   0.798   4.711  12.408 -0.0574 -0.3685 -0.1031
  737TMC3     H10948   1.016   0.009  12.427 -1.5557  0.3043 -0.2077
  737TMC3    H110949   0.902   4.351  12.296 -0.2870  1.8769  1.8303
  737TMC3    H210950   1.255   4.544  12.141  0.7019 -1.3705  0.7368
  737TMC3    C710951   1.109   4.308  12.151  0.2441 -0.5416 -0.1781
  737TMC3    C810952   1.196   0.041  12.239  0.4766  0.9633  0.4166
  737TMC3    O110953   1.049   4.206  12.188 -0.5649 -0.4212 -0.0763
  737TMC3    O210954   1.228   0.121  12.326  1.0876  0.4516  0.3990
  738MPD2     C10955   1.119   2.759  15.376 -0.1536  0.0709  0.1030
  738MPD2    C110956   1.060   2.849  15.292 -0.1167 -0.2495 -0.1298
  738MPD2    C210957   1.127   2.882  15.172  0.5192 -0.4796 -0.2803
  738MPD2    C310958   1.259   2.838  15.150  1.2791 -0.1024 -0.3967
  738MPD2    C410959   1.314   2.753  15.242 -1.0580 -0.5196  0.3440
  738MPD2    C510960   1.238   2.705  15.339 -0.9778 -0.3188 -0.3681
  738MPD2     H10961   1.074   2.943  15.099  1.4286  1.6997  0.8681
  738MPD2    H110962   1.413   2.710  15.226  0.1058  1.7234  1.5574
  738MPD2    H210963   1.071   2.721  15.465  0.7151 -0.0706  0.5156
  738MPD2    H310964   1.293   2.645  15.410 -2.8359 -1.9224 -0.2802
  738MPD2     N10965   1.337   2.881  15.046 -0.6837 -0.3684 -0.2069
  738MPD2    H510966   1.433   2.849  15.048 -0.3975  0.4778 -0.8742
  738MPD2    N110967   0.935   2.912  15.307  0.1739  0.0973 -0.7913
  738MPD2    H710968   0.914   2.972  15.228 -0.0564  1.0800  0.0259
  739TMC3    C110969   1.410   3.016  14.868  0.2149  0.3827 -0.3422
  739TMC3    C210970   1.365   3.061  14.749 -0.2669  0.6261 -0.0445
  739TMC3    C310971   1.431   3.167  14.691  0.1101 -0.5404 -0.3392
  739TMC3    C410972   1.529   3.061  14.926 -0.8079 -0.0927  0.3592
  739TMC3    C510973   1.579   3.176  14.875  0.2437  0.3487  0.1851
  739TMC3    C610974   1.532   3.231  14.759  0.3815 -0.4179  0.4614
  739TMC3     C10975   1.304   2.975  14.951  0.3745  0.0968 -0.9022
  739TMC3     O10976   1.191   3.005  14.916  0.0323  0.6505  0.3271
  739TMC3     H10977   1.281   3.015  14.697 -0.3136 -1.2717  1.7352
  739TMC3    H110978   1.546   3.046  15.032 -1.6033 -0.4974  0.4279
  739TMC3    H210979   1.594   3.299  14.702  0.6265  0.3255  1.6195
  739TMC3    C710980   1.694   3.230  14.942  0.6495  0.1626  0.8400
  739TMC3    C810981   1.338   3.246  14.606 -1.2377 -0.2986  0.1354
  739TMC3    O110982   1.728   3.165  15.044 -0.5337  0.7766 -0.8928
  739TMC3    O210983   1.243   3.190  14.550 -0.0623 -0.3175 -0.0612
  740TMC3    C110984   1.864   0.241  14.629 -0.5706 -0.3284 -0.4351
  740TMC3    C210985   1.915   0.212  14.754  0.1769  0.2237  0.0919
  740TMC3    C310986   2.052   0.193  14.752  0.2362 -0.5156 -0.7229
  740TMC3    C410987   1.934   0.262  14.517 -0.0840 -0.1458  0.5172
  740TMC3    C510988   2.071   0.232  14.530  0.7960  0.1627 -0.1444
  740TMC3    C610989   2.129   0.189  14.642  0.3201 -0.3549  0.5329
  740TMC3     C10990   1.721   0.265  14.622 -0.1110  0.0351 -0.3221
  740TMC3     O10991   1.680   0.348  14.541 -0.3276 -0.4709 -0.1445
  740TMC3     H10992   1.853   0.229  14.841  2.0561 -0.3345  1.5358
  740TMC3    H110993   1.893   0.293  14.422  1.7914 -0.0627 -0.2795
  740TMC3    H210994   2.237   0.188  14.652  0.1378 -0.9459  2.3919
  740TMC3    C710995   2.168   0.244  14.422  0.5776  0.2205 -0.3374
  740TMC3    C810996   2.113   0.152  14.879 -0.1519 -0.2262 -0.5038
  740TMC3    O110997   2.276   0.292  14.452  0.7047  0.4347 -0.6809
  740TMC3    O210998   2.222   0.202  14.915  0.0832  0.7196 -0.0639
  741TMC3    C110999   1.174   4.115  14.332 -0.0408  0.2544 -0.0005
  741TMC3    C211000   1.052   4.057  14.342  0.0831 -0.2091 -0.3874
  741TMC3    C311001   1.013   4.003  14.457 -0.7459 -0.5805  0.7041
  741TMC3    C411002   1.249   4.135  14.445  0.2426  0.3973  1.5381
  741TMC3    C511003   1.204   4.072  14.560  0.0945 -0.4013 -0.3565
  741TMC3    C611004   1.084   4.006  14.573 -0.1187 -0.7871  0.3015
  741TMC3     C11005   1.207   4.201  14.214 -0.3241  0.1292  0.7585
  741TMC3     O11006   1.325   4.231  14.209  0.1794 -0.0630  0.1902
  741TMC3     H11007   0.988   4.053  14.255 -1.9330  3.0598  0.9477
  741TMC3    H111008   1.335   4.200  14.439  1.1997 -0.8491  1.6211
  741TMC3    H211009   1.054   3.967  14.669 -1.4892  1.1710  0.6764
  741TMC3    C711010   1.305   4.029  14.656 -0.2235 -0.1476  0.1250
  741TMC3    C811011   0.896   3.915  14.451  0.5064 -0.1281 -0.3454
  741TMC3    O111012   1.262   3.951  14.740  0.0811  0.7076  0.3413
  741TMC3    O211013   0.846   3.909  14.338 -0.6136  0.5035  0.8024
  742TMC3    C111014   1.309   2.140  15.743 -0.2012  0.2269 -0.8476
  742TMC3    C211015   1.232   2.189  15.639 -0.2190 -0.4401 -0.5466
  742TMC3    C311016   1.312   2.239  15.535  0.6678 -0.0354 -0.0178
  742TMC3    C411017   1.448   2.142  15.749  0.0928  0.1319  0.1758
  742TMC3    C511018   1.509   2.189  15.645 -0.1805 -0.2483 -0.1194
  742TMC3    C611019   1.446   2.240  15.537 -0.7751 -0.5674 -0.6520
  742TMC3     C11020   1.250   2.130  15.870 -0.9439  1.1626  0.8916
  742TMC3     O11021   1.149   2.197  15.888  0.1362 -0.3462  0.2591
  742TMC3     H11022   1.128   2.161  15.627 -0.3159 -1.0274  1.6166
  742TMC3    H111023   1.511   2.111  15.832 -0.5017 -1.8848 -0.1289
  742TMC3    H211024   1.494   2.266  15.443  1.8345 -1.6710  0.3666
  742TMC3    C711025   1.651   2.218  15.650  0.2803  0.5733  0.2322
  742TMC3    C811026   1.248   2.272  15.400 -0.7956 -0.0493  0.1431
  742TMC3    O111027   1.720   2.140  15.717  0.2508 -0.2203  0.4921
  742TMC3    O211028   1.308   2.253  15.296  0.3478 -0.7255  0.2358
  743MPD2     C11029   3.817   4.443   1.733 -0.0195  0.0986 -0.3371
  743MPD2    C111030   3.806   4.395   1.607  0.1447 -0.3383  0.5673
  743MPD2    C211031   3.902   4.322   1.551 -0.5506  0.7428 -0.1804
  743MPD2    C311032   4.017   4.299   1.623 -0.4441  0.2627 -0.2676
  743MPD2    C411033   4.036   4.357   1.753  0.3937  0.2266 -0.1802
  743MPD2    C511034   3.938   4.439   1.801 -0.0844  0.6443  0.1980
  743MPD2     H11035   3.893   4.280   1.452  3.5566 -0.3950 -0.0768
  743MPD2    H111036   4.124   4.350   1.816  1.0519 -0.1066 -1.1323
  743MPD2    H211037   3.749   4.503   1.793  2.9663  1.1648  2.0453
  743MPD2    H311038   3.945   4.490   1.897  1.0797  0.8980 -0.0281
  743MPD2     N11039   4.107   4.209   1.562  0.0540  0.3983 -0.0743
  743MPD2    H511040   4.088   4.188   1.464  1.4458 -0.0393 -0.2657
  743MPD2    N111041   3.696   4.414   1.527 -0.8169 -0.6034  0.1137
  743MPD2    H711042   3.705   4.368   1.437  2.2529  0.7579 -0.2953
  744TMC3    C111043   3.466   4.457   1.458 -0.0013  0.8612 -0.3701
  744TMC3    C211044   3.344   4.467   1.514 -0.1916  0.2310 -0.3677
  744TMC3    C311045   3.241   4.427   1.425  1.0081  0.3406 -0.3633
  744TMC3    C411046   3.496   4.429   1.330  0.0761  0.2961 -0.0735
  744TMC3    C511047   3.389   4.386   1.250  0.3455  0.3152 -0.0594
  744TMC3    C611048   3.256   4.390   1.290  0.3634 -0.0796 -0.1629
  744TMC3     C11049   3.573   4.470   1.558 -0.1125 -0.1774 -0.6013
  744TMC3     O11050   3.546   4.527   1.663  0.6075  0.3403  0.0435
  744TMC3     H11051   3.324   4.498   1.616 -0.3939  0.1152 -0.3742
  744TMC3    H111052   3.594   4.437   1.286  0.0838  0.2457 -0.0657
  744TMC3    H211053   3.173   4.364   1.226 -0.7521 -0.5929  1.4724
  744TMC3    C711054   3.427   4.330   1.123  0.1171 -0.3462  0.8117
  744TMC3    C811055   3.096   4.472   1.445  0.0970 -0.1058  0.1523
  744TMC3    O111056   3.547   4.340   1.091 -0.8855 -0.3284  0.0038
  744TMC3    O211057   3.013   4.434   1.365  0.0567 -0.5728  0.4437
  745TMC3    C111058   1.372   2.356  13.428  0.4012  0.4387 -0.6129
  745TMC3    C211059   1.303   2.352  13.543  0.3217  0.3392 -0.3339
  745TMC3    C311060   1.251   2.466  13.592  0.2563 -0.2709  0.0385
  745TMC3    C411061   1.378   2.468  13.347 -0.7346  0.0892 -0.4659
  745TMC3    C511062   1.327   2.584  13.399 -0.1042 -0.5708 -0.0290
  745TMC3    C611063   1.265   2.589  13.524  0.3042 -0.3443  0.2259
  745TMC3     C11064   1.466   2.242  13.396  0.7931  0.1535  0.2590
  745TMC3     O11065   1.428   2.131  13.427 -0.3078 -0.3013 -0.1250
  745TMC3     H11066   1.288   2.260  13.597 -1.5294  0.9862  0.2765
  745TMC3    H111067   1.432   2.462  13.254  0.8554  1.2752  0.3880
  745TMC3    H211068   1.202   2.672  13.552 -0.8419 -0.7946 -1.0502
  745TMC3    C711069   1.345   2.712  13.336 -0.3667 -0.0512  0.2431
  745TMC3    C811070   1.207   2.471  13.726 -0.2812  0.1474  0.2579
  745TMC3    O111071   1.270   2.799  13.373 -0.3439 -0.0560 -0.8110
  745TMC3    O211072   1.121   2.387  13.744 -0.2694 -0.1988 -0.2244
  746TMC3    C111073   0.060   4.423  11.577 -0.0388  0.1601  0.7271
  746TMC3    C211074   0.133   4.346  11.482 -0.4771  0.8783  0.2069
  746TMC3    C311075   0.064   4.247  11.421 -1.0223  0.2957 -0.8535
  746TMC3    C411076   4.668   4.383  11.620 -0.0976 -0.3223  0.0191
  746TMC3    C511077   4.625   4.271  11.557  0.9303  0.3465 -0.7980
  746TMC3    C611078   4.678   4.207  11.452 -0.2105 -0.0215 -0.6476
  746TMC3     C11079   0.052   4.559  11.545 -0.3999  0.3348 -0.2551
  746TMC3     O11080   4.701   4.628  11.586  0.4908 -0.1819  1.0396
  746TMC3     H11081   0.231   4.376  11.448 -0.9073  0.8054 -1.0962
  746TMC3    H111082   4.598   4.436  11.683  2.6000  0.8589  1.9998
  746TMC3    H211083   4.629   4.114  11.425  0.7806 -1.1797  1.5867
  746TMC3    C711084   4.482   4.250  11.569 -0.0759  0.4318 -0.3030
  746TMC3    C811085   0.106   4.201  11.289  0.0937  0.4964  0.6625
  746TMC3    O111086   4.427   4.215  11.462  0.7899 -0.0386 -0.1895
  746TMC3    O211087   0.224   4.222  11.268  0.5333  0.1447  0.2867
  747TMC3    C111088   1.826   4.175  11.371 -0.5691 -1.1966  0.2031
  747TMC3    C211089   1.704   4.128  11.421 -0.4467 -0.6580 -0.0647
  747TMC3    C311090   1.667   4.180  11.543  0.1877 -0.0270 -0.1608
  747TMC3    C411091   1.914   4.253  11.446  0.1924 -0.3099 -0.5284
  747TMC3    C511092   1.871   4.306  11.561  0.0104  0.1764  0.0828
  747TMC3    C611093   1.755   4.265  11.612  0.1379  0.4321 -0.3608
  747TMC3     C11094   1.793   4.227  11.250 -0.0266  0.4468  0.5197
  747TMC3     O11095   1.792   4.349  11.248 -0.4900  0.4640 -0.2099
  747TMC3     H11096   1.638   4.066  11.361 -0.1431 -0.2586 -0.8101
  747TMC3    H111097   2.002   4.289  11.394  0.1732  1.1737  0.4747
  747TMC3    H211098   1.727   4.298  11.711 -0.0559  1.0917 -0.6369
  747TMC3    C711099   1.940   4.411  11.611 -0.0773  0.1770 -0.3534
  747TMC3    C811100   1.571   4.105  11.620 -0.4971 -0.0054 -0.4355
  747TMC3    O111101   1.875   4.503  11.660 -0.3229  0.4103 -0.1918
  747TMC3    O211102   1.579   3.982  11.607  0.4093  0.0819 -0.8671
  748MPD2     C11103   3.565   4.619   0.998 -0.3020  0.9819  0.0230
  748MPD2    C111104   3.465   4.675   1.074  0.4916  0.3117  0.7673
  748MPD2    C211105   3.499   0.021   1.178 -0.2524  0.3852 -0.1343
  748MPD2    C311106   3.632   0.063   1.206 -0.3207 -0.0679 -0.0346
  748MPD2    C411107   3.736   0.001   1.129 -0.5449 -0.6286 -0.0530
  748MPD2    C511108   3.694   4.655   1.023  0.1196 -0.3323 -0.5097
  748MPD2     H11109   3.418   0.073   1.228  0.0829  1.3261 -0.5673
  748MPD2    H111110   3.842   0.021   1.136 -0.7273  0.1935  0.3037
  748MPD2    H211111   3.553   4.555   0.912 -0.7975  0.4437  0.4958
  748MPD2    H311112   3.764   4.599   0.963  0.3130 -1.0320  0.3614
  748MPD2     N11113   3.654   0.167   1.297  0.7800 -0.4368  0.3407
  748MPD2    H511114   3.569   0.202   1.340  0.3979 -1.1978  0.2071
  748MPD2    N111115   3.333   4.634   1.031 -0.1459  0.1833  0.3168
  748MPD2    H711116   3.313   4.600   0.938 -1.2739  0.2884  0.5179
  749TMC3    C111117   3.755   0.344   1.414  0.1249  0.3045  0.7207
  749TMC3    C211118   3.870   0.370   1.485 -0.4190  0.8758  0.3292
  749TMC3    C311119   3.899   0.497   1.522 -0.3788 -0.1915  0.2281
  749TMC3    C411120   3.681   0.446   1.368 -0.2954 -0.2738  0.5926
  749TMC3    C511121   3.704   0.576   1.419  0.5846 -0.0982  0.4669
  749TMC3    C611122   3.810   0.605   1.499  0.3710  0.3583  0.4844
  749TMC3     C11123   3.767   0.228   1.336  0.1333  0.9062 -0.1497
  749TMC3     O11124   3.883   0.216   1.300  0.1690  0.0552 -0.4620
  749TMC3     H11125   3.919   0.282   1.525 -1.5651  0.4365  0.7866
  749TMC3    H111126   3.596   0.425   1.305 -0.3692 -0.3785  0.7283
  749TMC3    H211127   3.844   0.702   1.534 -0.3151  0.0705  1.9503
  749TMC3    C711128   3.621   0.695   1.374  0.0263  0.3308 -0.4473
  749TMC3    C811129   4.026   0.536   1.565 -0.2356 -0.0497  0.4329
  749TMC3    O111130   3.640   0.798   1.435 -0.0033 -0.0188  0.6329
  749TMC3    O211131   4.055   0.633   1.632 -0.4653 -0.1349 -0.5370
  750MPD2     C11132   4.159   1.194  11.380  0.6138  0.3680 -0.3569
  750MPD2    C111133   4.041   1.138  11.427  0.7999 -0.8673 -0.4184
  750MPD2    C211134   4.003   1.013  11.382 -0.3650  0.0040 -0.0109
  750MPD2    C311135   4.082   0.951  11.290  0.4058 -0.3590  1.0660
  750MPD2    C411136   4.195   1.003  11.239  0.5026 -0.7468  0.1584
  750MPD2    C511137   4.234   1.127  11.290  0.3592  0.3268  0.1203
  750MPD2     H11138   3.912   0.963  11.412 -0.4326  0.2145  0.1372
  750MPD2    H111139   4.256   0.946  11.170 -0.1843 -0.3068 -0.8042
  750MPD2    H211140   4.192   1.293  11.408  1.1041 -0.0266  0.4433
  750MPD2    H311141   4.327   1.172  11.256  0.3071  1.1959  1.1314
  750MPD2     N11142   4.049   0.821  11.240 -0.8248  0.4975 -0.1320
  750MPD2    H511143   4.107   0.783  11.165 -1.8004 -3.5549  1.1644
  750MPD2    N111144   3.953   1.212  11.508  0.0940 -0.1880  0.8218
  750MPD2    H711145   3.984   1.307  11.524  2.4268 -0.6947 -0.7038
  751TMC3    C111146   3.908   0.638  11.192  0.6288 -0.0713  0.3208
  751TMC3    C211147   3.792   0.573  11.228  0.4834 -0.5136  1.0574
  751TMC3    C311148   3.744   0.488  11.135 -0.3851  0.2540 -0.2066
  751TMC3    C411149   3.975   0.615  11.080  0.2575 -0.0422  0.7626
  751TMC3    C511150   3.925   0.519  10.990  0.1379  0.3913 -0.0301
  751TMC3    C611151   3.803   0.461  11.015 -0.1548 -0.2723  0.7788
  751TMC3     C11152   3.949   0.740  11.288 -0.1484  0.0152  0.0725
  751TMC3     O11153   3.888   0.743  11.391  0.6403 -0.0759 -0.1523
  751TMC3     H11154   3.747   0.586  11.326 -1.1608  0.8917  0.1347
  751TMC3    H111155   4.073   0.657  11.058 -0.1170  0.1168 -0.5893
  751TMC3    H211156   3.768   0.377  10.957  1.2366  1.3221 -2.4097
  751TMC3    C711157   4.025   0.451  10.898  0.5853  0.1361 -0.3973
  751TMC3    C811158   3.674   0.372  11.192  0.1554 -0.5077  0.0329
  751TMC3    O111159   4.139   0.496  10.906 -0.2134  0.2010  0.0740
  751TMC3    O211160   3.725   0.265  11.164 -0.1977 -0.7282 -0.2332
  752TMC3    C111161   2.260   0.813  17.374  0.5926 -0.0075 -0.1048
  752TMC3    C211162   2.272   0.721  17.472 -0.4387  0.0702  0.1552
  752TMC3    C311163   2.171   0.702  17.559 -0.7338  0.2540  0.6402
  752TMC3    C411164   2.142   0.889  17.361 -0.3685 -0.0906  0.4318
  752TMC3    C511165   2.042   0.877  17.458 -0.4489  0.2808  0.2236
  752TMC3    C611166   2.061   0.790  17.559  0.1495 -0.2358 -0.2657
  752TMC3     C11167   2.370   0.827  17.277  0.4994 -0.6337 -0.7881
  752TMC3     O11168   2.475   0.772  17.302 -0.7939 -0.1697 -0.3537
  752TMC3     H11169   2.365   0.666  17.468  0.4000  1.4363  0.8801
  752TMC3    H111170   2.128   0.966  17.285  1.1740 -0.9041 -0.6854
  752TMC3    H211171   1.978   0.770  17.626  1.8060  3.3843  2.8480
  752TMC3    C711172   1.928   0.962  17.463  0.3175  0.1251 -0.1723
  752TMC3    C811173   2.191   0.612  17.677  0.2237  0.0316  0.6904
  752TMC3    O111174   1.884   0.997  17.354  0.1417  0.4572 -0.0752
  752TMC3    O211175   2.134   0.654   0.026 -0.0701 -0.2721  1.1950
  753TMC3    C111176   0.005   2.240  13.335  0.6507 -0.0419 -0.1654
  753TMC3    C211177   0.020   2.203  13.467  0.6512 -0.3313 -0.7269
  753TMC3    C311178   4.650   2.132  13.523 -0.3645  0.2390 -0.1036
  753TMC3    C411179   4.637   2.194  13.256  0.6026 -0.6060  0.4572
  753TMC3    C511180   4.545   2.106  13.314  0.2879  0.0870  0.1143
  753TMC3    C611181   4.564   2.066  13.445 -0.4393  0.1870  0.2099
  753TMC3     C11182   0.086   2.346  13.282  0.4459 -0.1872 -0.8066
  753TMC3     O11183   0.017   2.426  13.222 -0.3034 -0.1461 -0.1465
  753TMC3     H11184   0.103   2.234  13.530  0.3700 -1.4651  0.2105
  753TMC3    H111185   4.631   2.216  13.150 -1.9080 -1.4823  0.4090
  753TMC3    H211186   4.504   1.986  13.487 -0.4196 -0.5816 -1.2374
  753TMC3    C711187   4.448   2.036  13.229 -0.5701  0.6723 -0.0941
  753TMC3    C811188   4.655   2.116  13.669 -0.1824 -0.4323 -0.3121
  753TMC3    O111189   4.460   2.042  13.107  0.0683 -0.1838 -0.2443
  753TMC3    O211190   4.592   2.020  13.715 -0.2748  0.1630  0.1309
  754MPD2     C11191   3.663   1.404  13.356 -0.5341 -0.1935 -0.5059
  754MPD2    C111192   3.664   1.265  13.361 -0.2889  0.3005 -0.1809
  754MPD2    C211193   3.547   1.197  13.393  0.0582  0.5916  1.0243
  754MPD2    C311194   3.439   1.276  13.438  0.2003 -0.0339  1.0490
  754MPD2    C411195   3.446   1.412  13.435 -0.4889 -0.9705  0.0954
  754MPD2    C511196   3.559   1.477  13.393  0.1364  0.3368  0.6271
  754MPD2     H11197   3.548   1.090  13.378 -3.7625  0.8101 -0.8579
  754MPD2    H111198   3.364   1.470  13.474  1.4341  0.1043  2.5557
  754MPD2    H211199   3.745   1.470  13.329 -1.1995  1.4683  1.6038
  754MPD2    H311200   3.551   1.585  13.390 -2.2341  0.1196 -0.7566
  754MPD2     N11201   3.317   1.222  13.478 -0.0727 -0.1562 -0.0964
  754MPD2    H511202   3.245   1.292  13.493  0.7858  0.3703  1.6855
  754MPD2    N111203   3.782   1.204  13.312 -0.0287 -0.5326 -0.1931
  754MPD2    H711204   3.863   1.259  13.283 -0.9954  1.8857  1.7251
  755MPD2     C11205   2.826   1.655  13.998 -0.2571  0.1475  0.6924
  755MPD2    C111206   2.739   1.583  13.918  1.0653 -0.1211  0.5239
  755MPD2    C211207   2.778   1.460  13.863  0.4140 -0.4674  0.4150
  755MPD2    C311208   2.907   1.419  13.870  0.1309  0.1767  0.6797
  755MPD2    C411209   2.996   1.496  13.946 -0.0700  0.3402 -0.4558
  755MPD2    C511210   2.952   1.603  14.012  0.1605 -0.0051  0.1688
  755MPD2     H11211   2.702   1.397  13.816  0.5654  1.2223 -2.0584
  755MPD2    H111212   3.094   1.461  13.977  0.3729  2.1202  0.1320
  755MPD2    H211213   2.794   1.735  14.064 -1.2607  0.6488 -0.3920
  755MPD2    H311214   3.013   1.647  14.090  1.5451  0.1655 -1.0182
  755MPD2     N11215   2.960   1.299  13.814 -0.9487  0.1079  0.3449
  755MPD2    H511216   3.056   1.277  13.839 -0.6419  0.5289 -0.4648
  755MPD2    N111217   2.611   1.639  13.891  0.2488  0.3610 -0.7798
  755MPD2    H711218   2.544   1.590  13.833 -1.2453  0.5362  0.7711
  756MPD2     C11219   3.777   2.130   9.714  0.6373 -0.1629  0.0888
  756MPD2    C111220   3.681   2.076   9.796 -0.1154 -0.3147 -0.1113
  756MPD2    C211221   3.546   2.074   9.752 -0.1673  0.5341 -0.1065
  756MPD2    C311222   3.508   2.131   9.635 -0.3474 -0.5359 -0.6763
  756MPD2    C411223   3.607   2.179   9.560  0.0627  0.6661  0.9611
  756MPD2    C511224   3.740   2.194   9.597  0.6221  0.0872 -0.3494
  756MPD2     H11225   3.474   2.019   9.813 -0.0622 -1.4981 -1.8095
  756MPD2    H111226   3.585   2.236   9.471 -0.0658 -1.3888 -0.3360
  756MPD2    H211227   3.881   2.141   9.744  1.3617 -2.1544 -1.6316
  756MPD2    H311228   3.812   2.239   9.529 -0.6428  0.9560 -1.1238
  756MPD2     N11229   3.373   2.106   9.602  0.0650  0.3239  0.3534
  756MPD2    H511230   3.304   2.075   9.670  0.1542 -0.2667  0.1766
  756MPD2    N111231   3.709   2.007   9.921  0.2093  0.2035  0.2431
  756MPD2    H711232   3.631   1.978   9.978  0.6471  0.5370  1.0109
  757MPD2     C11233   2.835   1.549   9.946  0.0992 -0.1237 -0.2175
  757MPD2    C111234   2.954   1.528   9.879 -0.0232  0.3208 -0.1242
  757MPD2    C211235   3.006   1.622   9.790 -0.3018  0.3201  0.1363
  757MPD2    C311236   2.936   1.736   9.762  0.7672 -0.3520  0.2167
  757MPD2    C411237   2.827   1.764   9.842 -0.0357 -0.3392  0.5285
  757MPD2    C511238   2.776   1.670   9.928  0.1538  0.5036 -0.8180
  757MPD2     H11239   3.095   1.602   9.733  0.5658  1.0103  1.2426
  757MPD2    H111240   2.766   1.854   9.836  0.2427 -0.0413  2.0953
  757MPD2    H211241   2.794   1.486  10.025 -0.3408  0.0236 -0.3304
  757MPD2    H311242   2.692   1.696   9.991 -0.1509 -2.0685 -0.1700
  757MPD2     N11243   2.965   1.821   9.654  0.1810 -0.3486  0.3267
  757MPD2    H511244   3.048   1.786   9.609 -3.0348 -2.5551 -3.8479
  757MPD2    N111245   3.010   1.397   9.912  0.0648 -0.2267  0.1493
  757MPD2    H711246   2.951   1.333   9.963  0.0726  0.8790  1.5377
  758MPD2     C11247   3.366   0.580  16.098 -0.1809  0.0468  0.5350
  758MPD2    C111248   3.467   0.550  16.187 -0.2423 -0.3503  0.8863
  758MPD2    C211249   3.442   0.475  16.302  0.3634 -0.6015  0.8306
  758MPD2    C311250   3.312   0.452  16.344 -0.3287  0.2135  1.0216
  758MPD2    C411251   3.212   0.474  16.254  0.1503  0.2187 -0.1165
  758MPD2    C511252   3.241   0.533  16.128 -0.0014  0.1194 -0.0742
  758MPD2     H11253   3.524   0.476  16.373  0.6719 -4.9615  0.5143
  758MPD2    H111254   3.113   0.464  16.298 -0.1806 -0.4676 -0.9934
  758MPD2    H211255   3.373   0.629  16.002  0.3281  1.3940  1.2539
  758MPD2    H311256   3.168   0.540  16.049 -0.5617  0.7172  0.4865
  758MPD2     N11257   3.277   0.416  16.478 -0.2804  0.4397 -0.0665
  758MPD2    H511258   3.189   0.454  16.510  0.5314  0.9406  1.5760
  758MPD2    N111259   3.601   0.587  16.169  0.0851  0.2525 -0.0506
  758MPD2    H711260   3.668   0.561  16.241  0.5686  0.8157 -0.3021
  759MPD2     C11261   2.754   4.499  10.234 -0.0956 -0.5342 -0.5603
  759MPD2    C111262   2.753   4.390  10.145 -0.3515  0.4591 -0.5252
  759MPD2    C211263   2.827   4.399  10.025  0.0463  0.1980 -0.3789
  759MPD2    C311264   2.923   4.498  10.022  1.1418  0.1064 -0.0022
  759MPD2    C411265   2.925   4.599  10.107 -0.0229 -0.0105 -0.5605
  759MPD2    C511266   2.836   4.603  10.210 -0.6391 -0.5536 -0.0273
  759MPD2     H11267   2.830   4.327   9.945 -2.1569  3.1190 -3.0726
  759MPD2    H111268   2.985   4.685  10.082  0.0688 -0.1278 -0.7458
  759MPD2    H211269   2.683   4.496  10.316 -0.0318  2.3004 -0.4049
  759MPD2    H311270   2.839   4.692  10.273  0.6039  0.4863 -1.5278
  759MPD2     N11271   3.019   4.479   9.921 -0.1328 -0.2103 -0.5540
  759MPD2    H511272   3.008   4.404   9.853  0.5295  0.1853 -1.1066
  759MPD2    N111273   2.682   4.269  10.171 -0.2365 -0.1899  0.5495
  759MPD2    H711274   2.660   4.201  10.100 -0.4016 -1.1561  1.5268
  760MPD2     C11275   2.388   1.351  11.959  0.7151  0.2351 -0.1409
  760MPD2    C111276   2.509   1.364  12.022  0.2119 -0.0494 -0.2446
  760MPD2    C211277   2.582   1.257  12.069  0.1118  0.0956 -0.4644
  760MPD2    C311278   2.530   1.125  12.042 -0.5573 -0.5874  0.6420
  760MPD2    C411279   2.410   1.120  11.972  0.1096  0.1516  0.3590
  760MPD2    C511280   2.339   1.230  11.931 -0.4013 -0.3093  0.3109
  760MPD2     H11281   2.672   1.271  12.128  0.2128 -0.5953 -0.4493
  760MPD2    H111282   2.368   1.024  11.944 -1.2732  1.6950 -2.7948
  760MPD2    H211283   2.325   1.432  11.924  1.4047  0.6603 -0.4068
  760MPD2    H311284   2.247   1.221  11.874 -0.8429  0.3454  0.9113
  760MPD2     N11285   2.591   1.006  12.096  0.0550 -0.7798  0.5699
  760MPD2    H511286   2.566   0.918  12.053  0.6839 -0.3545 -0.6787
  760MPD2    N111287   2.563   1.497  12.048 -0.1872 -0.1681  0.7764
  760MPD2    H711288   2.650   1.503  12.098 -0.5124 -0.3344  1.3599
  761MPD2     C11289   3.377   0.142  11.555  0.1667  0.1112  0.8067
  761MPD2    C111290   3.469   0.090  11.471  0.3682  0.1332 -0.2179
  761MPD2    C211291   3.536   0.180  11.388  0.3879 -0.3178  0.7554
  761MPD2    C311292   3.499   0.314  11.369 -0.3382 -0.2382 -0.4107
  761MPD2    C411293   3.394   0.363  11.446 -0.1846 -0.1804 -1.0446
  761MPD2    C511294   3.347   0.278  11.548  0.6465  0.2816  0.1037
  761MPD2     H11295   3.616   0.130  11.336 -0.0933 -0.0287 -0.2579
  761MPD2    H111296   3.357   0.463  11.430 -1.1876 -0.6038 -1.3487
  761MPD2    H211297   3.325   0.080  11.627 -1.5079  1.7527  0.9819
  761MPD2    H311298   3.265   0.316  11.608 -0.4927  1.2191 -2.0569
  761MPD2     N11299   3.575   0.397  11.280  0.8552 -0.1677 -0.2393
  761MPD2    H511300   3.536   0.491  11.278 -0.6239 -0.7622  0.7750
  761MPD2    N111301   3.520   4.701  11.497 -0.6205 -0.6518 -0.3113
  761MPD2    H711302   3.506   4.666  11.591 -0.7189 -0.3161 -0.2005
  762MPD2     C11303   4.376   4.516  11.362 -0.1979  0.3882 -0.2724
  762MPD2    C111304   4.265   4.519  11.292 -0.4188  0.4150  0.4171
  762MPD2    C211305   4.266   4.519  11.154  0.5606  0.0678  0.3552
  762MPD2    C311306   4.382   4.540  11.082  0.7338 -0.4986  0.8919
  762MPD2    C411307   4.497   4.537  11.155  0.4059  0.1207 -0.6400
  762MPD2    C511308   4.498   4.521  11.291 -0.8227  0.0987  0.2470
  762MPD2     H11309   4.178   4.508  11.092  0.5760 -1.6743  0.6440
  762MPD2    H111310   4.590   4.556  11.104  0.0319 -0.7947 -1.6376
  762MPD2    H211311   4.375   4.507  11.470 -0.3175 -1.3228 -0.4168
  762MPD2    H311312   4.594   4.524  11.341 -1.5587 -0.4241  1.6877
  762MPD2     N11313   4.383   4.554  10.943  0.2047  0.2932 -0.0234
  762MPD2    H511314   4.297   4.543  10.890 -0.0824  0.7910  0.3393
  762MPD2    N111315   4.149   4.529  11.366 -0.2493 -0.2382  0.4669
  762MPD2    H711316   4.174   4.569  11.456  0.9085  1.4141 -0.5838
  763MPD2     C11317   0.613   0.704  16.412  0.7831 -0.1107  0.2300
  763MPD2    C111318   0.506   0.742  16.331 -0.2429  0.5297 -0.1129
  763MPD2    C211319   0.445   0.867  16.355 -0.1870  0.3170  0.7528
  763MPD2    C311320   0.469   0.946  16.474  0.8474  0.1835 -0.3815
  763MPD2    C411321   0.573   0.900  16.548  0.7515 -0.7657 -0.2170
  763MPD2    C511322   0.653   0.791  16.517  0.3908  0.4959 -0.2982
  763MPD2     H11323   0.367   0.898  16.287  1.5851 -1.1162 -1.8951
  763MPD2    H111324   0.610   0.954  16.635 -0.2122 -1.9232  0.9137
  763MPD2    H211325   0.663   0.609  16.404 -2.0357 -1.6117  0.1823
  763MPD2    H311326   0.723   0.752  16.590 -0.5669 -1.6198 -0.5275
  763MPD2     N11327   0.396   1.064  16.509  0.5179 -0.1588 -0.0668
  763MPD2    H511328   0.423   1.116  16.591  1.5372  1.4170 -1.3957
  763MPD2    N111329   0.468   0.669  16.215 -0.2147  0.1622 -0.5202
  763MPD2    H711330   0.398   0.704  16.150 -0.4235 -0.6941 -0.7525
  764MPD2     C11331   2.550   2.832   0.569  0.0364 -0.0037 -0.2254
  764MPD2    C111332   2.553   2.703   0.516 -0.2915  0.2808 -0.6907
  764MPD2    C211333   2.630   2.607   0.582  0.0629 -0.6568 -0.0995
  764MPD2    C311334   2.673   2.626   0.708 -0.2543  0.1060  0.2522
  764MPD2    C411335   2.669   2.752   0.757 -0.6181 -0.4496 -0.5819
  764MPD2    C511336   2.616   2.857   0.685  0.4075  0.7568  0.5481
  764MPD2     H11337   2.636   2.507   0.541 -0.0354 -0.7533  0.1247
  764MPD2    H111338   2.700   2.773   0.859  0.9025 -0.2867 -1.0710
  764MPD2    H211339   2.495   2.916   0.527 -0.0782 -0.3287 -0.7198
  764MPD2    H311340   2.615   2.958   0.724  1.1439  1.0755 -0.2743
  764MPD2     N11341   2.739   2.519   0.776  0.5690 -0.6366 -0.1151
  764MPD2    H511342   2.750   2.430   0.729  1.5907  0.2530 -1.5888
  764MPD2    N111343   2.499   2.661   0.392  0.4799 -0.5736 -0.1375
  764MPD2    H711344   2.526   2.570   0.356  1.0547  0.1353 -1.5221
  765MPD2     C11345   4.111   0.634  15.558  0.2096  0.0844 -0.0791
  765MPD2    C111346   4.008   0.550  15.591  0.5127  0.3140  0.1500
  765MPD2    C211347   4.032   0.412  15.621  0.8248 -0.6813 -0.2236
  765MPD2    C311348   4.162   0.363  15.613  0.4838  0.9209  0.1273
  765MPD2    C411349   4.258   0.454  15.574 -0.7956  0.2347  0.4384
  765MPD2    C511350   4.234   0.590  15.561 -0.6516  0.8218 -0.4079
  765MPD2     H11351   3.951   0.348  15.653  1.9650 -3.2244 -2.3881
  765MPD2    H111352   4.356   0.409  15.561  0.5635  2.9337  1.3387
  765MPD2    H211353   4.096   0.736  15.522 -0.3829  0.0946  0.1976
  765MPD2    H311354   4.320   0.637  15.515  0.3175  0.0735  0.6509
  765MPD2     N11355   4.202   0.225  15.642  0.0186  0.1531  0.3960
  765MPD2    H511356   4.301   0.203  15.630  0.5314  2.2001  1.0018
  765MPD2    N111357   3.878   0.611  15.590 -0.0086 -0.0494 -0.2104
  765MPD2    H711358   3.869   0.704  15.553  2.0449 -1.0188 -3.1277
  766MPD2     C11359   2.938   0.732  15.656 -0.2556  0.1931 -0.3319
  766MPD2    C111360   3.049   0.657  15.623 -0.1332 -0.3346  0.0053
  766MPD2    C211361   3.024   0.562  15.519  0.2421  0.7436  0.4452
  766MPD2    C311362   2.901   0.536  15.466  0.2589  0.5269 -0.1722
  766MPD2    C411363   2.792   0.610  15.509 -0.7218 -0.1522 -0.9405
  766MPD2    C511364   2.813   0.703  15.609  0.3146  0.2975  0.0056
  766MPD2     H11365   3.113   0.513  15.482 -1.1336 -0.1767 -1.6315
  766MPD2    H111366   2.694   0.599  15.464 -1.3546  0.3004  0.3381
  766MPD2    H211367   2.950   0.794  15.744 -1.9680 -1.1923  0.8747
  766MPD2    H311368   2.729   0.764  15.639 -0.0770  0.1335 -0.7666
  766MPD2     N11369   2.891   0.468  15.347  0.0626  0.7673  0.2037
  766MPD2    H511370   2.812   0.474  15.284  0.9309  0.2546 -0.9392
  766MPD2    N111371   3.179   0.684  15.677 -0.6278  0.0303 -0.2861
  766MPD2    H711372   3.186   0.762  15.741  0.9520 -0.5041  0.1898
  767MPD2     C11373   2.472   0.852  15.344 -0.8022  0.4003  0.0255
  767MPD2    C111374   2.601   0.843  15.295  0.8309 -0.2577  0.3995
  767MPD2    C211375   2.622   0.766  15.184 -0.3474 -0.6187  0.1118
  767MPD2    C311376   2.521   0.695  15.119 -0.4181 -0.4215  0.4119
  767MPD2    C411377   2.399   0.708  15.176 -0.2304  0.0523 -0.3170
  767MPD2    C511378   2.374   0.783  15.285 -0.5939  0.5792 -0.6332
  767MPD2     H11379   2.723   0.756  15.144 -0.2902  0.7983 -0.1117
  767MPD2    H111380   2.313   0.650  15.144  1.0768 -2.3756  0.5118
  767MPD2    H211381   2.466   0.907  15.437  3.3272 -1.6157  1.5051
  767MPD2    H311382   2.277   0.786  15.334  0.2488  2.4413  0.9164
  767MPD2     N11383   2.554   0.613  15.010  0.3687  0.0506 -0.1731
  767MPD2    H511384   2.653   0.610  14.989  0.2241 -0.7975 -0.7532
  767MPD2    N111385   2.701   0.921  15.363 -0.1639  0.4929 -0.6193
  767MPD2    H711386   2.671   0.984  15.436 -1.3542 -2.4730  1.4293
  768MPD2     C11387   3.997   3.805  10.997 -0.0275  0.5826 -0.5072
  768MPD2    C111388   4.056   3.902  11.078 -0.2614 -0.0113 -0.2609
  768MPD2    C211389   4.189   3.880  11.117  0.1229  0.1095  0.5603
  768MPD2    C311390   4.254   3.763  11.079  0.1259 -0.2272  0.4671
  768MPD2    C411391   4.192   3.670  11.008 -0.3379  0.5327  0.4261
  768MPD2    C511392   4.068   3.695  10.956  0.6089 -0.0595 -0.0499
  768MPD2     H11393   4.235   3.942  11.193 -2.7179  0.2414  2.1547
  768MPD2    H111394   4.248   3.580  10.985  2.2740  3.0213 -2.9951
  768MPD2    H211395   3.896   3.824  10.961 -0.4312 -0.3908  0.0995
  768MPD2    H311396   4.029   3.621  10.887 -0.2731  0.6519 -0.3144
  768MPD2     N11397   4.374   3.730  11.136  0.5396 -0.0244  0.3203
  768MPD2    H511398   4.416   3.641  11.113  0.5172 -0.3023  1.3542
  768MPD2    N111399   3.987   4.002  11.142 -0.6468  0.4285 -0.0795
  768MPD2    H711400   4.032   4.056  11.215 -1.1549  0.4332  0.2295
  769MPD2     C11401   0.093   1.673  14.789 -0.0301 -0.3874  0.4400
  769MPD2    C111402   4.732   1.754  14.839 -0.8383  0.4325  0.3967
  769MPD2    C211403   4.731   1.776  14.974 -0.5085 -0.2861 -0.3636
  769MPD2    C311404   0.095   1.734  15.056  0.5302  0.5084 -0.2980
  769MPD2    C411405   0.196   1.662  15.000 -0.3517 -0.0076  0.2896
  769MPD2    C511406   0.189   1.627  14.870 -0.3206 -0.6263  0.7649
  769MPD2     H11407   4.649   1.825  15.024 -0.8724 -2.6156  1.3046
  769MPD2    H111408   0.279   1.620  15.055  1.0299  1.3722 -0.7390
  769MPD2    H211409   0.100   1.661  14.682 -0.0574  0.1190  0.3789
  769MPD2    H311410   0.270   1.566  14.830  0.4123  1.2053 -0.5161
  769MPD2     N11411   0.090   1.764  15.199  0.0603  0.3412  0.6442
  769MPD2    H511412   0.001   1.808  15.222 -0.5496 -0.5576  0.0121
  769MPD2    N111413   4.629   1.791  14.750 -0.4449 -0.0488 -0.0332
  769MPD2    H711414   4.639   1.756  14.655 -1.6537  2.9438 -1.2517
  770MPD2     C11415   3.870   1.846  15.076  0.6948  0.1383  0.0269
  770MPD2    C111416   3.997   1.780  15.062  0.1576 -0.7811  0.6902
  770MPD2    C211417   4.100   1.834  14.997 -0.3877  0.0717  0.7163
  770MPD2    C311418   4.068   1.941  14.909 -0.2645 -0.5211 -0.2920
  770MPD2    C411419   3.951   2.006  14.919 -1.0762 -0.6821 -0.3268
  770MPD2    C511420   3.850   1.961  15.006 -0.1937 -0.2652  0.0243
  770MPD2     H11421   4.194   1.782  14.986 -0.6114 -0.6160  2.0664
  770MPD2    H111422   3.917   2.083  14.851 -0.8520 -0.3802 -0.0959
  770MPD2    H211423   3.789   1.806  15.136  2.9981 -2.6574  1.3067
  770MPD2    H311424   3.764   2.025  15.019  0.5793  1.4435 -3.0167
  770MPD2     N11425   4.161   1.976  14.809 -0.3050 -0.2031 -0.1334
  770MPD2    H511426   4.243   1.919  14.819 -1.7181 -2.3449 -0.8266
  770MPD2    N111427   4.008   1.657  15.133  0.0587 -0.3592 -0.2997
  770MPD2    H711428   3.923   1.616  15.171 -0.2408  0.6110  0.0954
  771MPD2     C11429   0.247   4.280  13.695 -0.3425  0.9107 -0.0152
  771MPD2    C111430   0.213   4.397  13.627 -1.1652 -0.4364 -0.7142
  771MPD2    C211431   0.110   4.396  13.539 -0.1041  0.1315  0.0471
  771MPD2    C311432   0.044   4.279  13.515 -0.1739 -0.7389 -0.9766
  771MPD2    C411433   0.065   4.171  13.599  0.5029  0.3753 -0.4929
  771MPD2    C511434   0.165   4.166  13.686 -0.2831  0.2469 -0.3312
  771MPD2     H11435   0.081   4.479  13.476  3.2655  1.0740 -0.2747
  771MPD2    H111436   0.006   4.081  13.588  0.2227  0.7997 -2.4625
  771MPD2    H211437   0.328   4.269  13.766  0.5638 -1.0356 -1.3705
  771MPD2    H311438   0.189   4.078  13.745 -0.5225 -0.2752 -1.0243
  771MPD2     N11439   4.694   4.282  13.405  0.0477  0.0177 -0.0183
  771MPD2    H511440   4.676   4.374  13.366  1.5652  0.6809  0.8266
  771MPD2    N111441   0.298   4.511  13.629 -0.4305  0.0973  0.1100
  771MPD2    H711442   0.257   4.594  13.588  1.3336  0.8856 -0.0336
  772MPD2     C11443   0.271   0.318  14.140  0.3932  1.1306  0.2639
  772MPD2    C111444   0.193   0.234  14.062 -0.7891 -0.3518  0.4454
  772MPD2    C211445   0.062   0.208  14.089 -0.2565 -0.4417 -0.4740
  772MPD2    C311446   4.734   0.279  14.186 -0.1555 -0.6303  0.3203
  772MPD2    C411447   0.072   0.364  14.263  0.2152 -0.2072 -0.4856
  772MPD2    C511448   0.212   0.391  14.240 -0.2480 -0.1321  0.1559
  772MPD2     H11449   0.013   0.144  14.017 -0.7913  0.6860 -1.1110
  772MPD2    H111450   0.025   0.420  14.343 -1.3128 -0.0226 -1.5157
  772MPD2    H211451   0.374   0.328  14.107 -0.3712  1.5165 -2.0603
  772MPD2    H311452   0.266   0.451  14.314 -2.2055  0.2297  1.2842
  772MPD2     N11453   4.596   0.275  14.212 -0.1692 -0.2376 -0.3505
  772MPD2    H511454   4.560   0.344  14.277  0.0765  0.6348 -1.1457
  772MPD2    N111455   0.245   0.162  13.951 -0.2391 -0.1811 -0.0671
  772MPD2    H711456   0.218   0.065  13.941  1.3242 -0.8307  1.8186
  773MPD2     C11457   3.939   1.271   0.847  0.9930 -0.4559 -0.1830
  773MPD2    C111458   3.869   1.154   0.828  0.3802  0.4702 -0.2472
  773MPD2    C211459   3.940   1.045   0.786  0.4605  0.3543  0.6412
  773MPD2    C311460   4.074   1.050   0.743 -0.1348 -0.2523 -0.4696
  773MPD2    C411461   4.142   1.166   0.762 -0.9255 -0.4032  0.2492
  773MPD2    C511462   4.076   1.270   0.821 -0.7267  0.3137 -0.1056
  773MPD2     H11463   3.906   0.942   0.782  2.8473 -0.3948 -0.2643
  773MPD2    H111464   4.247   1.179   0.736 -0.7702 -0.7950  0.6843
  773MPD2    H211465   3.892   1.359   0.890 -1.9255 -1.0043 -2.2700
  773MPD2    H311466   4.127   1.365   0.827  0.1591 -0.1943  0.4348
  773MPD2     N11467   4.134   0.931   0.688 -0.2598  0.3440  0.0234
  773MPD2    H511468   4.078   0.847   0.685  1.9383 -1.0755 -1.3408
  773MPD2    N111469   3.729   1.142   0.844  0.9022  0.4173  0.4300
  773MPD2    H711470   3.686   1.062   0.800 -2.7980  2.6710 -0.1225
  774MPD2     C11471   3.771   0.353  13.595  0.0615  0.0378  0.1267
  774MPD2    C111472   3.687   0.466  13.579  0.2711 -0.3399 -0.2828
  774MPD2    C211473   3.728   0.573  13.496 -0.0996  0.7373 -0.2327
  774MPD2    C311474   3.852   0.567  13.432 -0.2998 -0.6241  0.3379
  774MPD2    C411475   3.929   0.451  13.458  0.1215  0.2755  0.2540
  774MPD2    C511476   3.898   0.348  13.541  0.3345 -1.2623  0.2339
  774MPD2     H11477   3.675   0.668  13.494 -1.0719  0.1890 -0.3604
  774MPD2    H111478   4.021   0.442  13.400 -0.3985 -0.4255 -0.4578
  774MPD2    H211479   3.738   0.268  13.654 -0.3962  0.5684  0.6302
  774MPD2    H311480   3.955   0.258  13.560  0.3173 -0.9474  1.8005
  774MPD2     N11481   3.907   0.687  13.372  0.4999 -0.5191 -0.0240
  774MPD2    H511482   3.851   0.768  13.348  1.7186  0.8180  1.6654
  774MPD2    N111483   3.572   0.476  13.658  0.2860 -0.0746 -0.7322
  774MPD2    H711484   3.571   0.411  13.736  3.8899 -0.1232 -0.7085
  775MPD2     C11485   4.590   1.278  15.783  0.1030 -0.1187 -0.1230
  775MPD2    C111486   4.589   1.409  15.809  0.1632  0.1532 -0.0443
  775MPD2    C211487   4.711   1.487  15.802  0.1923 -0.1878 -0.8697
  775MPD2    C311488   0.091   1.429  15.773  0.0304 -0.0105  0.7292
  775MPD2    C411489   0.093   1.292  15.761 -0.3975  1.0964 -0.4083
  775MPD2    C511490   4.718   1.222  15.756  0.1236  0.2454  0.3099
  775MPD2     H11491   4.707   1.592  15.828  3.2147 -0.5271  0.8767
  775MPD2    H111492   0.187   1.238  15.757 -0.7241  0.4479  0.7625
  775MPD2    H211493   4.497   1.221  15.781  0.2403 -0.3339 -0.3333
  775MPD2    H311494   4.732   1.116  15.739 -1.7290  0.5211 -2.8587
  775MPD2     N11495   0.213   1.497  15.766 -0.4764  0.1848  0.7381
  775MPD2    H511496   0.295   1.453  15.725 -0.6313 -0.5712  1.2352
  775MPD2    N111497   4.460   1.463  15.845 -0.3072  0.0205  0.3125
  775MPD2    H711498   4.379   1.407  15.820  0.6011  0.3159 -3.3956
  776MPD2     C11499   3.457   1.885  11.761  0.2468 -0.8650 -0.2866
  776MPD2    C111500   3.522   1.803  11.668 -0.1711  0.1571 -0.4918
  776MPD2    C211501   3.577   1.865  11.554  0.4309 -0.1405 -0.1005
  776MPD2    C311502   3.565   2.002  11.536 -0.1314 -0.4752  0.3621
  776MPD2    C411503   3.505   2.079  11.630 -0.5031 -0.4535 -0.8343
  776MPD2    C511504   3.452   2.021  11.740  0.0098 -0.6017 -0.4391
  776MPD2     H11505   3.635   1.804  11.486  0.0428  0.1142 -0.6646
  776MPD2    H111506   3.497   2.187  11.636  1.7842 -0.3923  1.2265
  776MPD2    H211507   3.425   1.843  11.856  1.9035  2.2959  1.6525
  776MPD2    H311508   3.420   2.085  11.821 -0.5649 -0.8332 -0.4893
  776MPD2     N11509   3.633   2.066  11.425 -0.2174 -0.4245 -0.1733
  776MPD2    H511510   3.657   2.163  11.440 -0.6482 -0.5567  1.4244
  776MPD2    N111511   3.561   1.670  11.702  0.0650 -0.2537 -0.2823
  776MPD2    H711512   3.524   1.630  11.788  0.7082  0.2980  0.2481
  777MPD2     C11513   4.345   4.738   0.681  0.0639  0.0005 -0.8599
  777MPD2    C111514   4.355   4.633   0.764 -0.3204  0.5136 -0.0864
  777MPD2    C211515   4.280   4.525   0.735 -0.1027  0.7391  0.4402
  777MPD2    C311516   4.200   4.511   0.617  0.5195 -0.3177  0.0111
  777MPD2    C411517   4.187   4.630   0.542 -0.0623  0.4603  0.0282
  777MPD2    C511518   4.254   4.737   0.587  0.7337  0.2904  0.0787
  777MPD2     H11519   4.291   4.441   0.802  0.5497 -0.4097 -1.0889
  777MPD2    H111520   4.134   4.628   0.447  0.5126 -1.3734 -0.2525
  777MPD2    H211521   4.407   0.084   0.708  1.3225 -0.9278 -0.8315
  777MPD2    H311522   4.247   0.092   0.532  1.3797 -0.9425 -2.1172
  777MPD2     N11523   4.127   4.392   0.590 -0.4890  0.4403 -0.1457
  777MPD2    H511524   4.107   4.334   0.671  2.9892  0.7212  0.9052
  777MPD2    N111525   4.424   4.643   0.885 -0.3617  0.6619  0.3154
  777MPD2    H711526   4.460   4.734   0.910  0.2977 -0.1330  2.2335
  778MPD2     C11527   0.284   4.273  15.269 -0.0060  0.4176 -0.1197
  778MPD2    C111528   0.258   4.198  15.156  0.4188  0.2235  1.2577
  778MPD2    C211529   0.326   4.225  15.039 -0.8451 -0.0932  0.1948
  778MPD2    C311530   0.416   4.334  15.027 -0.2056 -0.5069 -0.1677
  778MPD2    C411531   0.438   4.410  15.141  0.5669  0.5379  0.2664
  778MPD2    C511532   0.367   4.383  15.257 -0.2552  0.1558  0.1811
  778MPD2     H11533   0.314   4.156  14.957  0.7841  0.8553 -0.8429
  778MPD2    H111534   0.506   4.495  15.141  2.2116 -0.7795  1.0615
  778MPD2    H211535   0.253   4.247  15.370 -2.5365  0.6104 -0.8509
  778MPD2    H311536   0.391   4.443  15.344 -0.4497 -0.0014  0.3425
  778MPD2     N11537   0.475   4.365  14.903 -0.7895 -0.2244 -0.1615
  778MPD2    H511538   0.450   4.305  14.824 -0.7084  1.5194 -1.5284
  778MPD2    N111539   0.165   4.083  15.165  0.0203 -0.0793 -0.1225
  778MPD2    H711540   0.132   4.052  15.074 -0.3969  0.9193 -0.3155
  779MPD2     C11541   4.471   3.259  14.248  0.2982  0.1008  0.4703
  779MPD2    C111542   4.600   3.248  14.304 -1.1755 -0.0039 -0.1209
  779MPD2    C211543   4.669   3.366  14.345 -0.1834 -0.4438  0.5467
  779MPD2    C311544   4.604   3.489  14.333 -0.1203 -0.0032  0.2996
  779MPD2    C411545   4.479   3.496  14.272  0.0814 -0.5073 -0.3904
  779MPD2    C511546   4.410   3.383  14.230  0.6222 -0.2820 -0.7486
  779MPD2     H11547   0.027   3.354  14.393 -0.0920 -2.7867 -0.2393
  779MPD2    H111548   4.427   3.589  14.258 -1.6328 -1.2336  1.1382
  779MPD2    H211549   4.418   3.169  14.219 -0.4303  0.3477  1.0412
  779MPD2    H311550   4.323   3.397  14.167 -0.4820 -0.1913  0.7745
  779MPD2     N11551   4.689   3.601  14.359  0.7999 -0.1250  0.1105
  779MPD2    H511552   0.040   3.583  14.403  1.7530 -1.1093 -2.2159
  779MPD2    N111553   4.668   3.125  14.310  0.2853 -0.7370  0.6651
  779MPD2    H711554   0.025   3.121  14.345  1.0838 -0.8892 -1.5004
  780MPD2     C11555   4.494   3.535   1.172 -0.1352  0.0700 -0.1003
  780MPD2    C111556   4.439   3.425   1.105 -0.4210  0.2242 -0.0629
  780MPD2    C211557   4.444   3.429   0.963  0.4466  0.8991  0.6858
  780MPD2    C311558   4.511   3.527   0.891  0.4518  0.6120 -0.7279
  780MPD2    C411559   4.565   3.632   0.959  0.1209 -0.8368 -0.5200
  780MPD2    C511560   4.549   3.631   1.097 -0.4361  0.3084  0.2596
  780MPD2     H11561   4.398   3.342   0.917  1.1818  1.3627 -0.9211
  780MPD2    H111562   4.605   3.721   0.912 -0.6721 -0.1617  0.0821
  780MPD2    H211563   4.483   3.555   1.278  0.7450  0.7955 -0.1443
  780MPD2    H311564   4.588   3.710   1.161  0.2262  0.3076 -0.1493
  780MPD2     N11565   4.534   3.503   0.758 -0.3204 -0.3370  0.5356
  780MPD2    H511566   4.493   3.415   0.726 -1.2477  0.2675  0.0651
  780MPD2    N111567   4.374   3.317   1.175  0.1445 -0.3640 -0.4382
  780MPD2    H711568   4.361   3.319   1.276 -0.1539 -1.6695 -0.4606
  781MPD2     C11569   1.534   0.654  12.147 -0.2075  0.5844  0.3875
  781MPD2    C111570   1.620   0.569  12.210  0.2065  0.5740  0.3607
  781MPD2    C211571   1.748   0.557  12.163 -0.2692 -0.3355  0.3002
  781MPD2    C311572   1.790   0.626  12.052  0.5001  0.2092 -0.2334
  781MPD2    C411573   1.708   0.726  12.002  0.3116 -0.1654 -0.3574
  781MPD2    C511574   1.579   0.733  12.045 -0.8095  0.0486  0.1743
  781MPD2     H11575   1.807   0.490  12.225  3.6171  1.2696 -1.6505
  781MPD2    H111576   1.738   0.794  11.924  0.1292 -0.8055 -0.9830
  781MPD2    H211577   1.433   0.679  12.178 -1.0335 -1.3915 -0.6384
  781MPD2    H311578   1.511   0.805  12.000  0.8266  0.2279 -2.0134
  781MPD2     N11579   1.910   0.599  11.988  0.0720  0.5198 -0.5525
  781MPD2    H511580   1.946   0.670  11.925  2.5589  0.3413  0.6516
  781MPD2    N111581   1.587   0.492  12.325 -0.2446  0.3250 -0.0437
  781MPD2    H711582   1.658   0.425  12.355 -0.3097 -0.6357 -2.0609
  782MPD2     C11583   4.493   1.071  10.408  0.4873 -0.9749  0.1952
  782MPD2    C111584   4.611   0.999  10.410  0.4168 -0.0920  0.4163
  782MPD2    C211585   4.732   1.061  10.442 -0.1686  1.2265 -0.2095
  782MPD2    C311586   4.729   1.191  10.483 -0.7331 -0.0840 -0.5712
  782MPD2    C411587   4.608   1.257  10.496 -0.2001  0.1705  1.0078
  782MPD2    C511588   4.491   1.199  10.462  0.0237 -0.1593  0.1982
  782MPD2     H11589   0.086   1.004  10.442 -0.6303  0.4635  1.0618
  782MPD2    H111590   4.606   1.351  10.549 -1.1062  1.3008 -1.0477
  782MPD2    H211591   4.398   1.024  10.384  1.3577 -1.6675 -1.9443
  782MPD2    H311592   4.397   1.253  10.469 -0.7557 -1.8318  2.7504
  782MPD2     N11593   0.106   1.262  10.522 -0.1295  0.1049  0.2005
  782MPD2    H511594   0.107   1.348  10.576 -2.1659  0.3213 -0.1091
  782MPD2    N111595   4.627   0.864  10.369 -0.0090  0.6845  0.3919
  782MPD2    H711596   4.718   0.822  10.384 -0.1084  0.4040  0.2309
  783MPD2     C11597   3.983   0.218  10.631  0.2468  0.0032 -0.2387
  783MPD2    C111598   4.042   0.320  10.694  0.1771  0.0644 -0.2740
  783MPD2    C211599   4.150   0.391  10.641 -0.5382  0.1595 -0.4241
  783MPD2    C311600   4.215   0.341  10.531  0.0903  0.3558 -1.3681
  783MPD2    C411601   4.158   0.226  10.476 -0.8378  0.3323 -0.3729
  783MPD2    C511602   4.045   0.160  10.525 -0.8965  0.1261  0.2898
  783MPD2     H11603   4.192   0.483  10.678 -1.1707  0.6140 -0.8436
  783MPD2    H111604   4.194   0.195  10.378 -1.0930 -0.0635 -0.3405
  783MPD2    H211605   3.900   0.168  10.679  0.3288  1.2755  1.2203
  783MPD2    H311606   4.000   0.077  10.474 -0.9212  1.8754 -2.5291
  783MPD2     N11607   4.329   0.405  10.487  0.5053  0.1439  0.0071
  783MPD2    H511608   4.346   0.500  10.519  0.5267  0.7066 -1.6690
  783MPD2    N111609   3.974   0.362  10.810  0.1812 -0.8228 -0.5009
  783MPD2    H711610   3.885   0.319  10.834  0.8611 -1.1099  1.5261
  784MPD2     C11611   1.855   1.503   0.534 -0.0670  0.7156  0.2532
  784MPD2    C111612   1.869   1.623   0.604 -0.3627 -0.1049  0.7110
  784MPD2    C211613   1.761   1.708   0.614  0.5793  0.1388 -0.0701
  784MPD2    C311614   1.640   1.672   0.553  0.5247  0.2614 -0.7695
  784MPD2    C411615   1.630   1.560   0.471 -0.2480 -0.4089 -0.1364
  784MPD2    C511616   1.744   1.479   0.458  0.5618  0.3624 -0.3959
  784MPD2     H11617   1.769   1.803   0.666  3.1115 -0.1426  0.0196
  784MPD2    H111618   1.539   1.537   0.416 -1.8894 -0.7431  2.7315
  784MPD2    H211619   1.937   1.432   0.537  0.9080  1.8144 -0.2330
  784MPD2    H311620   1.747   1.391   0.394 -2.0353  0.8275 -1.1754
  784MPD2     N11621   1.535   1.760   0.572 -0.1157  0.3832 -0.0973
  784MPD2    H511622   1.562   1.839   0.629 -0.9551  0.0505  0.7532
  784MPD2    N111623   1.986   1.669   0.677  0.0266  0.4131  0.1956
  784MPD2    H711624   1.986   1.764   0.714 -1.0005  0.8211 -0.8233
  785MPD2     C11625   2.830   4.100  11.136 -0.1851  0.1369 -0.8668
  785MPD2    C111626   2.716   4.178  11.154  0.1093  0.4409 -0.1974
  785MPD2    C211627   2.597   4.142  11.102 -0.7434  0.0524 -0.6577
  785MPD2    C311628   2.582   4.027  11.032 -1.0203  0.0391 -0.1696
  785MPD2    C411629   2.691   3.946  11.013 -1.0680  0.2964  0.3916
  785MPD2    C511630   2.812   3.976  11.076  0.5871 -0.8348 -0.2906
  785MPD2     H11631   2.509   4.206  11.112 -1.1044 -0.4533 -0.6145
  785MPD2    H111632   2.691   3.856  10.952 -0.5641  0.9338 -0.5520
  785MPD2    H211633   2.920   4.123  11.190 -0.1588 -1.6926 -0.1428
  785MPD2    H311634   2.904   3.918  11.073 -1.2536 -3.6705 -2.6876
  785MPD2     N11635   2.450   3.998  10.982  0.1756 -0.4758 -0.6770
  785MPD2    H511636   2.373   4.051  11.020  1.6875  0.5158  0.9781
  785MPD2    N111637   2.738   4.307  11.206 -0.0000  0.2185  1.1831
  785MPD2    H711638   2.834   4.339  11.210 -0.7049  2.4423  0.2959
  786MPD2     C11639   0.793   2.369  15.169 -0.5334  0.5407 -0.0800
  786MPD2    C111640   0.900   2.290  15.131 -0.1142 -0.6951  0.1939
  786MPD2    C211641   1.009   2.279  15.216 -0.4555  0.7741  0.0005
  786MPD2    C311642   1.015   2.339  15.338 -0.3165 -0.2856  0.2718
  786MPD2    C411643   0.915   2.415  15.376  0.1451 -0.5646 -0.2090
  786MPD2    C511644   0.803   2.433  15.293 -0.6573  0.5033  0.2339
  786MPD2     H11645   1.098   2.232  15.176 -2.0072 -1.5711 -0.6525
  786MPD2    H111646   0.919   2.468  15.470  1.0089 -0.1484 -0.4828
  786MPD2    H211647   0.695   2.375  15.122 -0.4683  0.6046 -0.2070
  786MPD2    H311648   0.711   2.474  15.332  0.1383  1.3982  1.1680
  786MPD2     N11649   1.122   2.324  15.428  0.0276  0.1825 -0.4707
  786MPD2    H511650   1.100   2.343  15.525 -0.0031  0.5294 -0.5472
  786MPD2    N111651   0.916   2.220  15.011  0.0657  0.1962  0.0460
  786MPD2    H711652   1.004   2.170  15.004  0.2724  0.9077 -2.7686
  787MPD2     C11653   1.282   1.698  14.972  0.0997 -0.4999 -0.5100
  787MPD2    C111654   1.232   1.734  14.850 -0.6787  0.2194  0.2232
  787MPD2    C211655   1.295   1.677  14.737 -0.1562 -0.1103 -0.6877
  787MPD2    C311656   1.412   1.603  14.749 -0.4496 -0.2275 -0.1835
  787MPD2    C411657   1.458   1.574  14.874 -0.3585 -0.0830  0.0940
  787MPD2    C511658   1.393   1.620  14.982 -0.2673 -0.1312 -0.0881
  787MPD2     H11659   1.264   1.709  14.638  0.1601  1.9396 -0.1214
  787MPD2    H111660   1.544   1.514  14.901  0.5571  0.2579 -2.0680
  787MPD2    H211661   1.245   1.743  15.063 -0.0856  2.1885 -1.9350
  787MPD2    H311662   1.424   1.596  15.083 -1.2681  2.0916  0.7463
  787MPD2     N11663   1.478   1.563  14.628 -0.3462 -0.1438  0.3311
  787MPD2    H511664   1.445   1.591  14.536 -0.1914 -0.8660  0.0504
  787MPD2    N111665   1.124   1.814  14.841 -0.0244  0.6273  0.4231
  787MPD2    H711666   1.096   1.867  14.922  0.5699 -0.8249  1.5708
  788MPD2     C11667   2.845   1.328   1.059 -0.3633 -0.1178 -0.8464
  788MPD2    C111668   2.847   1.210   0.977 -0.5179 -0.2320  0.4616
  788MPD2    C211669   2.856   1.219   0.844  0.0014 -0.2590 -0.3987
  788MPD2    C311670   2.866   1.344   0.781  0.5702 -0.0722 -0.7800
  788MPD2    C411671   2.879   1.459   0.852 -0.0694 -0.3714 -0.5076
  788MPD2    C511672   2.871   1.442   0.993 -0.1397  0.3374 -0.9258
  788MPD2     H11673   2.854   1.124   0.791 -1.5060  0.4394 -1.6118
  788MPD2    H111674   2.883   1.562   0.820 -0.0074  0.2380  1.4504
  788MPD2    H211675   2.820   1.323   1.165  1.2384 -0.5524 -0.4853
  788MPD2    H311676   2.877   1.533   1.051  0.2793 -0.6756  0.6334
  788MPD2     N11677   2.854   1.358   0.639 -0.1610 -0.7336  0.1552
  788MPD2    H511678   2.854   1.456   0.615 -0.3955 -1.2073 -1.7511
  788MPD2    N111679   2.831   1.085   1.041  0.1634  0.0457 -0.0864
  788MPD2    H711680   2.855   1.003   0.984  1.8190 -0.1357  0.8539
  789MPD2     C11681   2.920   0.251  16.780  0.1631  0.2523 -0.4206
  789MPD2    C111682   2.857   0.318  16.677 -0.2295 -0.0376  0.3408
  789MPD2    C211683   2.771   0.414  16.710 -0.0954 -0.1740  0.1348
  789MPD2    C311684   2.730   0.439  16.839  1.6865 -0.1203  0.1784
  789MPD2    C411685   2.803   0.383  16.941 -0.0496  0.0050  0.5422
  789MPD2    C511686   2.894   0.288  16.910 -0.5002  0.1092 -0.2275
  789MPD2     H11687   2.744   0.472  16.623  0.0739  0.2394  0.3608
  789MPD2    H111688   2.780   0.414  17.043 -2.1633 -0.4131  0.2082
  789MPD2    H211689   2.994   0.173  16.765 -0.1690  0.0578 -1.0676
  789MPD2    H311690   2.949   0.242  16.991 -3.8977 -1.2661  1.3004
  789MPD2     N11691   2.626   0.522  16.874 -0.6006 -0.0654 -0.2910
  789MPD2    H511692   2.601   0.522  16.972  0.5151  0.3610 -0.0102
  789MPD2    N111693   2.883   0.290  16.540 -0.7065 -0.0848  0.7387
  789MPD2    H711694   2.818   0.336  16.477 -0.8191 -1.7135 -0.3355
  790MPD2     C11695   4.342   2.231  13.693  0.6691  0.2475  0.3044
  790MPD2    C111696   4.263   2.117  13.672  0.0219  0.3788 -0.0712
  790MPD2    C211697   4.189   2.118  13.557  0.1264  0.5672  0.1270
  790MPD2    C311698   4.179   2.231  13.475  0.1722  0.8067  0.5976
  790MPD2    C411699   4.240   2.351  13.511 -0.7445  0.4226 -0.4594
  790MPD2    C511700   4.323   2.343  13.621  0.3406  0.4686 -0.4069
  790MPD2     H11701   4.134   2.026  13.540 -0.6045  1.5406 -2.7804
  790MPD2    H111702   4.249   2.431  13.439 -0.4590  0.6410 -0.1805
  790MPD2    H211703   4.423   2.240  13.764  1.8026  0.1642 -0.9979
  790MPD2    H311704   4.386   2.431  13.629  1.0106 -0.1675  1.2477
  790MPD2     N11705   4.115   2.214  13.351  0.7330  0.3056 -0.6168
  790MPD2    H511706   4.063   2.129  13.333 -0.1390  1.0787 -1.7165
  790MPD2    N111707   4.294   2.002  13.752 -0.7718  0.2066  0.4646
  790MPD2    H711708   4.381   2.013  13.804  0.9837 -1.6403 -2.0892
  791MPD2     C11709   3.639   2.273  12.755 -0.3283  1.1972 -0.1031
  791MPD2    C111710   3.642   2.170  12.847  0.0678  0.6050  0.1974
  791MPD2    C211711   3.529   2.087  12.861  0.2170  0.4244 -0.3374
  791MPD2    C311712   3.422   2.102  12.772  0.3651 -0.3886 -0.2166
  791MPD2    C411713   3.417   2.218  12.689 -1.0069  0.0327  0.0923
  791MPD2    C511714   3.524   2.300  12.691 -0.1326 -0.3555 -0.0004
  791MPD2     H11715   3.512   2.012  12.937  0.2488  1.9591  1.1781
  791MPD2    H111716   3.336   2.247  12.623 -1.7645  0.1392  1.0509
  791MPD2    H211717   3.728   2.333  12.741 -0.1020  0.9833  0.4386
  791MPD2    H311718   3.530   2.386  12.626  1.6098  0.2967  1.0301
  791MPD2     N11719   3.315   2.014  12.784  0.2136 -0.3722 -0.6474
  791MPD2    H511720   3.318   1.950  12.863 -1.3325 -0.1493 -0.4035
  791MPD2    N111721   3.759   2.157  12.916  0.6409 -0.4094  0.6005
  791MPD2    H711722   3.832   2.224  12.893 -1.9476  1.9484 -0.7135
  792MPD2     C11723   4.250   1.871  11.563  0.4665  0.5293  0.6023
  792MPD2    C111724   4.249   1.898  11.430 -0.0309  0.1649 -0.4959
  792MPD2    C211725   4.145   1.848  11.350  1.4053  0.2600 -0.4857
  792MPD2    C311726   4.033   1.786  11.415  0.1217  0.0027  0.1671
  792MPD2    C411727   4.034   1.771  11.556  0.6908  0.5541  0.4342
  792MPD2    C511728   4.143   1.812  11.631  0.4068 -0.9897 -0.8727
  792MPD2     H11729   4.150   1.862  11.243 -0.2904  0.4756 -0.5412
  792MPD2    H111730   3.948   1.722  11.600  0.8598  0.2453  0.4229
  792MPD2    H211731   4.335   1.902  11.623  1.0490  1.9625 -0.9657
  792MPD2    H311732   4.132   1.811  11.739 -1.9034 -1.6448 -1.1141
  792MPD2     N11733   3.920   1.730  11.351 -0.7577 -0.4740 -0.0800
  792MPD2    H511734   3.854   1.679  11.409  0.8785  0.2820  2.4289
  792MPD2    N111735   4.355   1.976  11.378 -0.5969 -0.2281 -0.4691
  792MPD2    H711736   4.411   2.015  11.452  0.2085  1.5462 -2.0151
  793MPD2     C11737   3.458   1.527  10.483 -0.2795 -0.6233  0.4111
  793MPD2    C111738   3.581   1.594  10.514  0.3376  0.1079 -0.4406
  793MPD2    C211739   3.614   1.606  10.650 -0.1989  0.1500  0.2015
  793MPD2    C311740   3.524   1.565  10.749  0.1491 -0.2486 -0.3180
  793MPD2    C411741   3.402   1.521  10.712 -0.5099 -0.6512  0.1439
  793MPD2    C511742   3.375   1.486  10.583 -0.3030  0.2600  0.0263
  793MPD2     H11743   3.699   1.667  10.677  0.3087 -0.1398 -0.7346
  793MPD2    H111744   3.327   1.496  10.786 -0.6798  0.4075  0.3281
  793MPD2    H211745   3.419   1.516  10.383 -1.4882  2.3312  0.5598
  793MPD2    H311746   3.282   1.441  10.549  0.0322  0.9895 -1.8540
  793MPD2     N11747   3.572   1.587  10.882  0.4967 -0.7915  0.2686
  793MPD2    H511748   3.660   1.634  10.898 -0.0152 -0.1984  1.2934
  793MPD2    N111749   3.674   1.648  10.420 -0.2443  0.4494 -0.0722
  793MPD2    H711750   3.751   1.694  10.467 -2.0340  1.2499  2.0871
  794MPD2     C11751   3.067   1.664   0.640 -0.4015  0.4461  0.2911
  794MPD2    C111752   3.101   1.544   0.569  0.5510 -0.1338 -0.4598
  794MPD2    C211753   3.069   1.539   0.431  0.3775  0.0797  0.2167
  794MPD2    C311754   3.005   1.644   0.370  0.2231  0.0619  0.1877
  794MPD2    C411755   2.977   1.759   0.442  0.2340 -0.4031  0.7846
  794MPD2    C511756   3.014   1.772   0.574 -0.5200  0.0282 -0.2329
  794MPD2     H11757   3.075   1.438   0.391 -0.7067  0.9233 -2.0941
  794MPD2    H111758   2.929   1.848   0.404 -1.8976 -1.8186  0.1752
  794MPD2    H211759   3.097   1.687   0.741 -0.1324 -2.4094  0.8812
  794MPD2    H311760   2.996   1.864   0.628 -1.0386  0.2200 -0.7311
  794MPD2     N11761   2.965   1.652   0.235  0.3386 -0.2075 -0.3379
  794MPD2    H511762   2.925   1.743   0.216  0.7325  0.5519  2.4068
  794MPD2    N111763   3.166   1.428   0.625 -0.5990 -0.2256  0.3305
  794MPD2    H711764   3.190   1.355   0.559 -0.4881 -1.0659  1.2949
  795MPD2     C11765   1.232   3.315  14.151  0.5325 -0.3845  0.4018
  795MPD2    C111766   1.202   3.245  14.035  0.1417  0.1015  0.0856
  795MPD2    C211767   1.288   3.142  13.997 -0.4942  0.1476  0.0873
  795MPD2    C311768   1.409   3.125  14.053  0.2729  0.7350  0.0196
  795MPD2    C411769   1.434   3.182  14.173 -0.4369  0.4859 -0.3756
  795MPD2    C511770   1.349   3.280  14.217 -0.2130 -0.7118  0.2372
  795MPD2     H11771   1.258   3.078  13.915  0.8962 -0.9041  0.3912
  795MPD2    H111772   1.530   3.175  14.223 -0.0323 -0.2214 -1.2722
  795MPD2    H211773   1.172   3.400  14.184 -1.3710 -1.0414 -1.3635
  795MPD2    H311774   1.377   3.340  14.302  0.1191  2.2437 -1.9586
  795MPD2     N11775   1.496   3.024  14.000  0.2440  0.3808 -0.0338
  795MPD2    H511776   1.460   2.975  13.919 -1.0133  0.2758  0.5959
  795MPD2    N111777   1.097   3.274  13.950 -0.1130 -0.5511 -0.0413
  795MPD2    H711778   1.071   3.197  13.889 -1.6761 -2.1108  2.5386
  796MPD2     C11779   0.920   0.253  16.071  0.6534 -0.2186 -0.0755
  796MPD2    C111780   0.896   0.299  16.198  0.2049 -0.0694  0.4679
  796MPD2    C211781   0.872   0.436  16.217 -0.1927 -0.3429  0.4630
  796MPD2    C311782   0.856   0.530  16.114 -0.0948  0.4745 -0.2251
  796MPD2    C411783   0.876   0.479  15.988  0.1060 -0.4783  0.1656
  796MPD2    C511784   0.907   0.345  15.969  0.2782 -0.1447  0.2727
  796MPD2     H11785   0.856   0.474  16.318 -0.0368  1.9309 -0.3543
  796MPD2    H111786   0.874   0.542  15.900 -2.4130 -0.3579  0.3230
  796MPD2    H211787   0.956   0.154  16.047  1.2170  0.0670 -0.3844
  796MPD2    H311788   0.926   0.307  15.869 -1.5925  0.0811 -0.1659
  796MPD2     N11789   0.843   0.673  16.131 -0.3723  0.3249 -0.1679
  796MPD2    H511790   0.818   0.704  16.224  1.3855  0.4787  0.2450
  796MPD2    N111791   0.912   0.207  16.310  0.1202  0.0985 -0.0116
  796MPD2    H711792   0.926   0.250  16.401  0.8094 -0.9617  0.3828
  797MPD2     C11793   1.212   4.236   0.024 -0.1642  0.0876  0.7115
  797MPD2    C111794   1.248   4.370   0.023 -0.2649 -0.7716  0.6778
  797MPD2    C211795   1.327   4.424  17.681 -0.0521  0.2989 -0.5015
  797MPD2    C311796   1.359   4.351  17.570 -0.4313  0.3128 -0.7244
  797MPD2    C411797   1.314   4.220  17.559  0.0256 -0.2457 -0.1817
  797MPD2    C511798   1.234   4.168  17.660 -0.8717  0.0990  0.5165
  797MPD2     H11799   1.368   4.523  17.694  1.8308 -0.3754 -1.1959
  797MPD2    H111800   1.334   4.170  17.465 -0.9841 -0.6013 -0.2026
  797MPD2    H211801   1.150   4.202   0.107 -0.4731 -0.2182  0.3572
  797MPD2    H311802   1.187   4.071  17.665  1.5056 -1.0728  0.1527
  797MPD2     N11803   1.453   4.403  17.475 -0.2742 -0.2944 -0.1307
  797MPD2    H511804   1.491   4.494  17.501 -2.4613  0.1830  1.4159
  797MPD2    N111805   1.208   4.463   0.126  0.7423 -0.2352  0.6580
  797MPD2    H711806   1.247   4.555   0.108  0.7107 -1.1076 -3.8931
  798MPD2     C11807   1.807   0.181   0.017 -1.3833 -0.1211  0.6660
  798MPD2    C111808   1.712   0.086  17.721 -0.0565 -0.2518  0.4323
  798MPD2    C211809   1.597   0.053   0.035 -0.5406  0.5549 -0.4158
  798MPD2    C311810   1.578   0.089   0.165 -0.1162  0.1609  0.2667
  798MPD2    C411811   1.671   0.178   0.218  0.3239 -0.1231  0.4467
  798MPD2    C511812   1.782   0.221   0.147 -0.3526 -0.4682  0.5321
  798MPD2     H11813   1.529   4.718  17.746 -2.2979  0.2696  3.0384
  798MPD2    H111814   1.654   0.223   0.315  2.6569 -0.3804  0.9775
  798MPD2    H211815   1.908   0.188  17.730 -1.5006 -0.9955  0.2035
  798MPD2    H311816   1.843   0.288   0.206 -0.7725  0.5111 -0.1570
  798MPD2     N11817   1.463   0.038   0.231  0.6222 -0.3021  0.2497
  798MPD2    H511818   1.405   4.714   0.176 -0.9682  2.1725 -0.8565
  798MPD2    N111819   1.737   0.013  17.602  0.0191 -0.4158  0.3278
  798MPD2    H711820   1.796   0.053  17.529  0.3228  0.3321  0.9832
  799MPD2     C11821   1.230   1.245  14.850 -0.7230  0.2363  0.5770
  799MPD2    C111822   1.176   1.178  14.742  0.1269  0.3098  0.0786
  799MPD2    C211823   1.089   1.250  14.660 -0.4004  0.4074 -0.8329
  799MPD2    C311824   1.042   1.377  14.700 -0.4026  0.0672 -0.2288
  799MPD2    C411825   1.084   1.436  14.816  0.0977 -0.1558  0.5246
  799MPD2    C511826   1.183   1.369  14.883 -0.3043  0.3250  0.3573
  799MPD2     H11827   1.056   1.205  14.567  0.0344 -1.4546 -0.0958
  799MPD2    H111828   1.060   1.538  14.840  1.0763  0.3693 -0.7352
  799MPD2    H211829   1.309   1.203  14.911 -1.6257 -1.7178  0.4104
  799MPD2    H311830   1.222   1.417  14.972  0.8671  0.5091 -0.2582
  799MPD2     N11831   0.948   1.450  14.614  0.7199 -0.4980  0.1841
  799MPD2    H511832   0.932   1.546  14.641  0.1693 -0.6640  0.4687
  799MPD2    N111833   1.221   1.053  14.698 -0.4758 -0.2209  0.4751
  799MPD2    H711834   1.184   1.020  14.610  3.7789 -0.1167 -1.3698
  800MPD2     C11835   1.202   2.593  14.215 -0.8886 -0.0210 -0.4058
  800MPD2    C111836   1.329   2.621  14.177 -0.1738 -0.2541  0.4230
  800MPD2    C211837   1.357   2.603  14.038 -0.8596 -0.1682 -0.2680
  800MPD2    C311838   1.265   2.546  13.951 -0.3140  0.0667  0.2566
  800MPD2    C411839   1.145   2.501  14.008 -0.8477  0.1281 -0.9228
  800MPD2    C511840   1.114   2.535  14.134 -0.2899  0.3025  0.2229
  800MPD2     H11841   1.456   2.629  14.002 -1.4869  2.4946 -0.1197
  800MPD2    H111842   1.079   2.441  13.947 -0.2088 -1.0981 -0.3910
  800MPD2    H211843   1.176   2.606  14.319  0.1036 -0.4585 -0.0999
  800MPD2    H311844   1.030   2.481  14.177 -1.1760  0.6472 -1.0525
  800MPD2     N11845   1.290   2.545  13.811  0.5957 -0.1051  0.4477
  800MPD2    H511846   1.376   2.584  13.774  1.1025 -3.2684 -1.6156
  800MPD2    N111847   1.428   2.647  14.273 -0.1292 -0.6888  0.5493
  800MPD2    H711848   1.402   2.652  14.371 -1.0728  3.4087  0.0929
  801MPD2     C11849   1.342   2.485  14.948 -0.2365 -0.0294  0.8723
  801MPD2    C111850   1.316   2.553  14.833  0.0696 -0.6056  0.1307
  801MPD2    C211851   1.202   2.617  14.805 -0.1262  0.4599 -0.6175
  801MPD2    C311852   1.096   2.617  14.896  0.2948 -0.6431  0.5250
  801MPD2    C411853   1.107   2.538  15.007 -0.4425 -0.4804 -0.4613
  801MPD2    C511854   1.233   2.477  15.032 -0.1133  0.3203 -0.4521
  801MPD2     H11855   1.182   2.674  14.715  1.2600 -0.3691 -1.4612
  801MPD2    H111856   1.034   2.539  15.087 -1.9623  0.4794 -1.8783
  801MPD2    H211857   1.431   2.428  14.970 -0.3596 -1.2378 -1.7439
  801MPD2    H311858   1.254   2.418  15.120  0.6040 -0.5850 -1.2383
  801MPD2     N11859   0.977   2.682  14.871  0.1649 -0.0581 -0.7028
  801MPD2    H511860   0.906   2.685  14.943 -0.5477  2.2824 -1.4984
  801MPD2    N111861   1.409   2.569  14.733 -0.4741  0.1461 -0.1610
  801MPD2    H711862   1.384   2.618  14.648 -1.4224  0.8235  0.5116
  802MPD2     C11863   4.735   3.873  17.269 -0.9081  0.0664 -0.2420
  802MPD2    C111864   0.108   3.955  17.302  0.9881 -0.8984  0.1502
  802MPD2    C211865   0.223   3.892  17.323  0.6065 -0.0844  0.1324
  802MPD2    C311866   0.241   3.760  17.298 -0.3302 -0.4315  0.1825
  802MPD2    C411867   0.137   3.684  17.246 -0.0539 -0.2797  0.0503
  802MPD2    C511868   0.013   3.740  17.235 -0.5591  0.2305 -0.1885
  802MPD2     H11869   0.306   3.950  17.362  0.2424  1.5746 -1.5412
  802MPD2    H111870   0.137   3.577  17.230 -1.4630 -0.1062 -1.0807
  802MPD2    H211871   4.635   3.912  17.256 -0.2098  2.0007  0.1851
  802MPD2    H311872   4.661   3.687  17.211 -0.1316  0.2375 -1.8156
  802MPD2     N11873   0.370   3.705  17.314 -0.5988  0.4219  0.2655
  802MPD2    H511874   0.446   3.772  17.321 -1.5429  1.7223 -1.6308
  802MPD2    N111875   0.096   4.089  17.344  0.4841 -0.1101  0.0556
  802MPD2    H711876   0.169   4.128  17.403  0.4372 -0.0580  0.0794
  803MPD2     C11877   2.554   2.321  11.328  0.3310 -0.1737  0.0476
  803MPD2    C111878   2.473   2.414  11.382  0.6735 -0.8625  0.2328
  803MPD2    C211879   2.397   2.385  11.494 -0.4150  0.6985 -0.9342
  803MPD2    C311880   2.433   2.281  11.583 -0.0747  0.3672 -0.2377
  803MPD2    C411881   2.514   2.184  11.532  0.0510 -0.9002 -0.7226
  803MPD2    C511882   2.574   2.207  11.403 -0.2999  0.2973 -0.1016
  803MPD2     H11883   2.340   2.472  11.526 -0.6672  0.0820  0.2822
  803MPD2    H111884   2.532   2.095  11.592  0.8024 -0.0255  0.3448
  803MPD2    H211885   2.614   2.345  11.242 -0.4802 -0.9233 -0.7324
  803MPD2    H311886   2.640   2.128  11.370 -1.0278 -0.6485  0.7104
  803MPD2     N11887   2.388   2.269  11.716 -0.9597 -0.9072  0.1308
  803MPD2    H511888   2.429   2.195  11.772  1.0689  2.2137  2.7608
  803MPD2    N111889   2.434   2.531  11.311 -0.6754 -0.4968  0.1475
  803MPD2    H711890   2.359   2.594  11.338 -0.2434 -0.3591  1.0099
  804MPD2     C11891   1.271   3.279  16.722  0.0141  0.4834 -0.1812
  804MPD2    C111892   1.231   3.265  16.854 -0.2597  0.6445  0.2968
  804MPD2    C211893   1.272   3.353  16.953  0.9304  0.6011  0.7129
  804MPD2    C311894   1.373   3.444  16.929 -0.1922 -0.7867 -0.8411
  804MPD2    C411895   1.420   3.456  16.797 -0.5352  0.0874  0.8037
  804MPD2    C511896   1.374   3.368  16.701  0.8708  0.2713 -0.2099
  804MPD2     H11897   1.242   3.332  17.055 -0.0441 -0.1462  0.2695
  804MPD2    H111898   1.503   3.521  16.769 -2.5927  0.9957 -3.1897
  804MPD2    H211899   1.242   3.214  16.641  1.8440 -0.1032 -0.3560
  804MPD2    H311900   1.404   3.374  16.597  1.5062 -0.2464 -0.0523
  804MPD2     N11901   1.437   3.511  17.035 -0.8245 -0.0118 -0.6202
  804MPD2    H511902   1.406   3.491  17.130 -0.3891 -1.4816 -0.7930
  804MPD2    N111903   1.161   3.156  16.897 -0.1925  0.0875 -0.1502
  804MPD2    H711904   1.129   3.158  16.993  1.3743  0.1316  0.3774
  805MPD2     C11905   0.264   1.094  15.537 -0.1943  0.2724 -0.3121
  805MPD2    C111906   0.312   1.204  15.460 -0.5654 -0.1807 -0.5706
  805MPD2    C211907   0.438   1.254  15.482  0.0764 -0.6913 -0.2843
  805MPD2    C311908   0.518   1.198  15.574 -0.4072 -0.6866 -0.0239
  805MPD2    C411909   0.469   1.087  15.644 -0.5578 -0.1463 -0.4218
  805MPD2    C511910   0.343   1.039  15.630  0.2683 -0.0258  0.1535
  805MPD2     H11911   0.480   1.341  15.432 -1.5910  0.6370  0.6064
  805MPD2    H111912   0.528   1.030  15.715  0.2051  0.3855 -0.6308
  805MPD2    H211913   0.168   1.044  15.533 -0.3518  0.6913 -1.6560
  805MPD2    H311914   0.290   0.968  15.693 -2.0763 -0.1931 -1.9908
  805MPD2     N11915   0.648   1.257  15.597  0.3327 -0.3800 -0.5040
  805MPD2    H511916   0.660   1.344  15.547  1.1858 -0.9874 -1.3376
  805MPD2    N111917   0.236   1.252  15.356 -0.8681 -0.0351 -0.6206
  805MPD2    H711918   0.284   1.318  15.295  1.4574 -0.1304  1.0934
  806MPD2     C11919   0.458   1.623   0.859 -0.0531  0.1104 -0.3404
  806MPD2    C111920   0.593   1.621   0.851 -0.4584  0.1573  1.1711
  806MPD2    C211921   0.656   1.645   0.728  0.2162 -0.1679  0.4923
  806MPD2    C311922   0.587   1.655   0.610  0.1891  0.4296 -0.4158
  806MPD2    C411923   0.444   1.658   0.619 -0.9481 -0.9270 -0.4398
  806MPD2    C511924   0.385   1.643   0.738 -0.0184 -0.1718  0.4801
  806MPD2     H11925   0.764   1.649   0.738  0.2594 -0.5477  0.1656
  806MPD2    H111926   0.383   1.682   0.533 -0.6854 -0.1504 -0.4123
  806MPD2    H211927   0.409   1.609   0.955  1.0142  3.7123  0.7144
  806MPD2    H311928   0.277   1.649   0.736  0.0670  1.4916  1.0578
  806MPD2     N11929   0.656   1.703   0.499 -0.3136 -0.1670  0.5941
  806MPD2    H511930   0.751   1.732   0.519  0.4032 -1.9381 -0.2233
  806MPD2    N111931   0.670   1.612   0.967  0.8403 -0.0278  0.2035
  806MPD2    H711932   0.620   1.636   1.052  0.8447  1.0138 -0.0931
  807MPD2     C11933   0.605   1.628   1.687 -0.4723  0.6652  0.0197
  807MPD2    C111934   0.635   1.540   1.584  0.4776  0.5805  0.1894
  807MPD2    C211935   0.610   1.407   1.594  1.0066  0.2171  0.0353
  807MPD2    C311936   0.558   1.355   1.716 -0.3046 -0.7310  0.4680
  807MPD2    C411937   0.530   1.435   1.823  0.3160  0.0155  0.3250
  807MPD2    C511938   0.553   1.578   1.810  0.1506 -0.1416  0.5656
  807MPD2     H11939   0.633   1.339   1.512 -3.4396  1.0713 -1.9412
  807MPD2    H111940   0.491   1.401   1.919  0.2026 -2.3255 -0.5536
  807MPD2    H211941   0.641   1.731   1.683  3.0475 -0.5831 -0.4348
  807MPD2    H311942   0.556   1.637   1.901 -0.1753 -0.9699  1.1152
  807MPD2     N11943   0.538   1.213   1.731  0.2907  0.8700 -0.6124
  807MPD2    H511944   0.585   1.147   1.670  1.0853  1.2318 -0.3908
  807MPD2    N111945   0.711   1.582   1.472  1.3235 -0.4432 -0.2373
  807MPD2    H711946   0.725   1.512   1.400 -1.0234 -0.9496 -0.1831
  808MPD2     C11947   1.298   3.008   9.637  1.4371  0.0907 -0.1063
  808MPD2    C111948   1.397   3.009   9.736 -0.6716  0.2596 -0.3303
  808MPD2    C211949   1.441   3.131   9.774  0.1909 -0.0876 -0.4783
  808MPD2    C311950   1.412   3.241   9.699  0.3354  0.4837  0.1099
  808MPD2    C411951   1.321   3.237   9.598 -0.3569  0.6232  0.2228
  808MPD2    C511952   1.263   3.122   9.566 -0.5448  0.1382  0.7622
  808MPD2     H11953   1.507   3.137   9.860  0.1433 -0.3605 -0.4223
  808MPD2    H111954   1.301   3.331   9.548  0.3796  1.4950  1.5487
  808MPD2    H211955   1.249   2.915   9.610  2.7951 -0.1779 -1.6863
  808MPD2    H311956   1.194   3.109   9.483  0.7867  1.6228 -0.5865
  808MPD2     N11957   1.476   3.365   9.703  0.4322 -0.1262  1.2637
  808MPD2    H511958   1.443   3.434   9.637 -2.9293 -1.6895  1.3020
  808MPD2    N111959   1.426   2.897   9.816 -0.8240  0.1591 -0.4797
  808MPD2    H711960   1.477   2.920   9.901 -0.8362  2.5059 -1.1021
  809MPD2     C11961   2.245   3.536   9.163  0.1793 -0.5701  0.5432
  809MPD2    C111962   2.165   3.439   9.219  0.2694  0.4210 -0.3357
  809MPD2    C211963   2.055   3.475   9.283  0.1138  0.0980  0.5214
  809MPD2    C311964   2.007   3.603   9.275  0.5894  0.4623 -0.3959
  809MPD2    C411965   2.082   3.697   9.206 -0.3899  0.1991 -0.7516
  809MPD2    C511966   2.203   3.663   9.150 -0.3466 -0.1424 -0.3398
  809MPD2     H11967   2.003   3.402   9.344  0.2853  1.3457  2.1659
  809MPD2    H111968   2.047   3.798   9.223  1.4086  0.8912 -1.1029
  809MPD2    H211969   2.345   3.513   9.129  0.1634  0.0041  0.1086
  809MPD2    H311970   2.255   3.741   9.095  0.8622 -2.4537 -2.4960
  809MPD2     N11971   1.901   3.647   9.359  0.1550 -0.1984  0.3539
  809MPD2    H511972   1.899   3.746   9.381  0.3823  0.3297 -1.9418
  809MPD2    N111973   2.209   3.304   9.230 -0.4164 -0.0510  0.0199
  809MPD2    H711974   2.297   3.289   9.182  0.8241  1.5238  1.7841
  810MPD2     C11975   1.432   1.735  10.611 -0.6129 -0.5923  0.0942
  810MPD2    C111976   1.373   1.829  10.535  0.3331 -0.1910 -0.2569
  810MPD2    C211977   1.376   1.959  10.578  0.8092 -1.0065 -0.0055
  810MPD2    C311978   1.445   1.996  10.698 -0.2452  0.0246  0.1221
  810MPD2    C411979   1.497   1.898  10.778  0.4148 -0.6526  0.4131
  810MPD2    C511980   1.495   1.773  10.729 -1.1128  0.3129  0.2131
  810MPD2     H11981   1.310   2.031  10.530  1.1964 -0.8185 -0.2608
  810MPD2    H111982   1.555   1.916  10.868  1.6725 -1.3934 -0.2472
  810MPD2    H211983   1.434   1.632  10.577 -3.5678 -1.2841  2.0155
  810MPD2    H311984   1.554   1.695  10.776  1.1915  1.8850 -0.1038
  810MPD2     N11985   1.450   2.133  10.727  0.4204  0.3098  0.0916
  810MPD2    H511986   1.407   2.195  10.659  1.6305 -0.4806 -1.3884
  810MPD2    N111987   1.317   1.796  10.411  0.5170  0.1668  0.5311
  810MPD2    H711988   1.273   1.878  10.370 -0.2880 -0.7172 -0.3434
  811MPD2     C11989   0.855   2.000   9.726  0.3503 -0.0868 -0.2708
  811MPD2    C111990   0.931   2.024   9.836 -0.4736 -0.5877  0.1605
  811MPD2    C211991   0.912   2.142   9.900  0.5981 -0.6067  0.3777
  811MPD2    C311992   0.817   2.238   9.865  0.1929  0.3080  0.0063
  811MPD2    C411993   0.745   2.212   9.753  0.2858 -0.4633 -0.6102
  811MPD2    C511994   0.761   2.089   9.687 -0.5861  0.9060 -0.6988
  811MPD2     H11995   0.969   2.160   9.990  0.8172 -0.5759  0.2332
  811MPD2    H111996   0.664   2.272   9.715  1.8319  0.4780 -2.4143
  811MPD2    H211997   0.853   1.904   9.674 -0.3187 -0.1813 -0.0673
  811MPD2    H311998   0.693   2.068   9.606  2.0760  0.1876 -2.7495
  811MPD2     N11999   0.810   2.350   9.945 -0.4406 -0.2706  0.9770
  811MPD2    H512000   0.893   2.367   9.999  0.1872 -1.2792  0.3388
  811MPD2    N112001   1.005   1.910   9.889 -0.0471 -0.2457  0.1857
  811MPD2    H712002   1.001   1.822   9.838  0.7696  0.3543 -0.9046
  812MPD2     C12003   4.511   1.752  12.147 -0.3006 -0.8855 -0.1602
  812MPD2    C112004   4.615   1.839  12.175  0.1261 -0.3749 -0.1116
  812MPD2    C212005   4.701   1.810  12.279 -0.4191 -0.1050 -0.2420
  812MPD2    C312006   4.673   1.704  12.365 -0.0498  0.4707 -0.3812
  812MPD2    C412007   4.572   1.618  12.333  0.6023 -0.8621  0.1596
  812MPD2    C512008   4.496   1.637  12.225 -0.1669  0.2072  0.3077
  812MPD2     H12009   0.047   1.875  12.297 -1.6540  1.2042  0.8219
  812MPD2    H112010   4.561   1.521  12.380 -0.2735 -0.4224  0.8732
  812MPD2    H212011   4.448   1.784  12.065  1.3760 -1.6008 -1.7337
  812MPD2    H312012   4.409   1.575  12.206 -0.1180  0.1300  0.3359
  812MPD2     N12013   0.007   1.706  12.488 -0.5617  0.6420 -0.0419
  812MPD2    H512014   0.080   1.776  12.498 -0.6057  0.4832  1.3911
  812MPD2    N112015   4.619   1.952  12.084  0.6717 -0.0519  0.0865
  812MPD2    H712016   4.539   1.973  12.025 -0.0091  0.6099  1.2333
  813MPD2     C12017   3.550   3.693  12.709  0.2518  0.0546  0.2943
  813MPD2    C112018   3.628   3.795  12.752  0.3447  0.0337 -0.4724
  813MPD2    C212019   3.593   3.864  12.868  0.0682 -0.1631 -0.1189
  813MPD2    C312020   3.472   3.831  12.933 -0.4329 -0.3873 -0.4437
  813MPD2    C412021   3.390   3.735  12.874  0.6617  0.2073 -0.3002
  813MPD2    C512022   3.429   3.670  12.765 -0.0514 -1.0087  0.8718
  813MPD2     H12023   3.653   3.950  12.897  0.2559 -0.7920  1.3585
  813MPD2    H112024   3.289   3.710  12.905 -0.3452  1.9895 -2.1786
  813MPD2    H212025   3.580   3.645  12.617 -0.9952 -4.1725  2.0927
  813MPD2    H312026   3.364   3.595  12.722 -1.7153 -0.1356  1.8829
  813MPD2     N12027   3.421   3.913  13.035 -0.1684  0.0508 -0.5053
  813MPD2    H512028   3.480   3.989  13.068  1.3288 -0.5829 -1.7403
  813MPD2    N112029   3.757   3.826  12.700  0.0703 -0.0159  0.3760
  813MPD2    H712030   3.818   3.886  12.755 -3.6059  2.8099  1.3464
  814MPD2     C12031   4.536   0.662  12.214  0.7098 -0.3637  0.9455
  814MPD2    C112032   4.594   0.730  12.113 -0.4263  0.1152 -0.3770
  814MPD2    C212033   4.689   0.825  12.145 -0.5231 -0.2925 -0.0755
  814MPD2    C312034   4.717   0.856  12.272 -0.0569  0.0822  0.0320
  814MPD2    C412035   4.654   0.795  12.370 -0.3101 -0.0567 -0.2212
  814MPD2    C512036   4.563   0.698  12.342 -0.1016 -0.0342 -0.3070
  814MPD2     H12037   0.002   0.881  12.068 -0.3137  0.7073  0.7948
  814MPD2    H112038   4.690   0.821  12.469  1.1463 -0.4560 -0.6412
  814MPD2    H212039   4.474   0.573  12.202 -0.4398  0.5473  0.0967
  814MPD2    H312040   4.525   0.640  12.425 -0.8337  0.2835 -0.4176
  814MPD2     N12041   0.079   0.950  12.309  0.0125  0.4542 -0.3437
  814MPD2    H512042   0.091   0.964  12.408  1.2632 -0.6556 -0.3300
  814MPD2    N112043   4.576   0.694  11.973 -0.1685  0.5441 -0.1691
  814MPD2    H712044   4.631   0.746  11.906  1.1793  0.7326  1.0995
  815MPD2     C12045   0.278   2.651  12.064 -0.4482  0.0307 -0.0361
  815MPD2    C112046   0.227   2.738  11.971  0.6360  0.1863 -0.0466
  815MPD2    C212047   0.131   2.830  12.006  0.0193  0.1441 -0.6374
  815MPD2    C312048   0.092   2.842  12.141  0.4270  0.1496 -0.1628
  815MPD2    C412049   0.129   2.749  12.228 -0.8981 -0.3560  0.3231
  815MPD2    C512050   0.231   2.663  12.194  0.1927 -0.9081 -0.3127
  815MPD2     H12051   0.107   2.907  11.933 -1.1868 -0.3669 -0.7853
  815MPD2    H112052   0.093   2.757  12.330 -2.7601  0.8895 -0.4139
  815MPD2    H212053   0.362   2.585  12.043  0.1870  0.8641 -0.1285
  815MPD2    H312054   0.262   2.593  12.271 -0.2063 -0.5994  0.1374
  815MPD2     N12055   0.009   2.951  12.171 -0.3920  0.0179  0.6844
  815MPD2    H512056   4.728   3.012  12.093 -2.4781 -0.3991  0.8620
  815MPD2    N112057   0.279   2.730  11.843  0.3927  0.4629 -0.1253
  815MPD2    H712058   0.355   2.664  11.832 -0.7891 -0.6876 -1.2413
  816MPD2     C12059   4.329   2.460  17.141 -0.0747 -0.6708  0.0905
  816MPD2    C112060   4.374   2.578  17.091  0.0993  0.3481  0.4345
  816MPD2    C212061   4.493   2.580  17.023 -0.8504  0.1555 -0.4931
  816MPD2    C312062   4.568   2.467  17.003  0.7415  0.2950 -0.0757
  816MPD2    C412063   4.525   2.347  17.058  0.0484  0.0176 -0.2285
  816MPD2    C512064   4.402   2.345  17.118  0.3233  0.3497  0.1896
  816MPD2     H12065   4.535   2.674  16.988  0.1086 -0.3882 -0.7869
  816MPD2    H112066   4.591   2.261  17.054  0.6553  0.5069 -0.8164
  816MPD2    H212067   4.233   2.456  17.191  0.3003 -0.9365  0.7856
  816MPD2    H312068   4.372   2.251  17.163  1.7546 -1.2442 -2.1355
  816MPD2     N12069   4.682   2.477  16.915  0.0423 -0.2392 -0.4438
  816MPD2    H512070   4.705   2.570  16.883  0.0696  0.5844  1.9835
  816MPD2    N112071   4.306   2.698  17.137 -0.1560 -0.1121  0.1918
  816MPD2    H712072   4.220   2.686  17.190  0.2462 -2.6875  0.2384
  817MPD2     C12073   4.463   4.421   9.617  0.3654  0.5483  0.2435
  817MPD2    C112074   4.416   4.296   9.585 -0.1159  0.4995 -0.3432
  817MPD2    C212075   4.312   4.293   9.489  0.3315  0.1566 -0.7180
  817MPD2    C312076   4.263   4.412   9.436 -0.3584 -0.6750  0.0235
  817MPD2    C412077   4.319   4.532   9.463  0.1353  0.1935 -0.0878
  817MPD2    C512078   4.414   4.532   9.559 -0.1996 -0.0249 -0.9947
  817MPD2     H12079   4.274   4.200   9.450  0.6532  0.0306 -0.7362
  817MPD2    H112080   4.292   4.629   9.423  1.1676 -0.2793 -1.9449
  817MPD2    H212081   4.545   4.433   9.688  1.5279  0.8297 -1.1460
  817MPD2    H312082   4.467   4.623   9.584 -0.4822 -0.3487  0.7924
  817MPD2     N12083   4.178   4.398   9.325 -0.3889 -0.0005  0.3937
  817MPD2    H512084   4.145   4.307   9.296  0.3704  0.0723 -0.7333
  817MPD2    N112085   4.461   4.169   9.635  0.1152  0.3629 -0.5176
  817MPD2    H712086   4.412   4.088   9.598 -1.5681  1.3243 -0.3684
  818MPD2     C12087   3.180   0.190  10.491 -0.5446 -0.6603 -0.6004
  818MPD2    C112088   3.150   0.126  10.609 -0.4857 -0.1207 -0.3781
  818MPD2    C212089   3.097   4.733  10.603  0.1530 -0.4269  0.7006
  818MPD2    C312090   3.097   4.659  10.484  0.1748 -0.1809  0.0506
  818MPD2    C412091   3.139   4.721  10.370  0.2666 -0.3908 -0.3129
  818MPD2    C512092   3.169   0.114  10.382 -0.2850 -0.0871  0.2934
  818MPD2     H12093   3.053   4.688  10.691  1.6603 -2.8422  0.2067
  818MPD2    H112094   3.128   4.675  10.272 -1.9187  0.3213 -0.4086
  818MPD2    H212095   3.214   0.293  10.491 -2.8962  0.1219 -1.6802
  818MPD2    H312096   3.195   0.165  10.290  0.7609 -1.1630 -0.0000
  818MPD2     N12097   3.065   4.524  10.473 -0.3888  1.2046 -0.2931
  818MPD2    H512098   3.073   4.483  10.380  0.5227  3.5182 -1.2585
  818MPD2    N112099   3.153   0.190  10.737  0.6772  0.1508  0.2200
  818MPD2    H712100   3.117   0.130  10.811  1.8058 -1.7979 -0.8098
  819MPD2     C12101   1.301   1.394  15.575  0.5133  0.4799  0.8578
  819MPD2    C112102   1.257   1.258  15.574 -0.0458 -0.0860  0.2015
  819MPD2    C212103   1.284   1.184  15.686 -0.1737  0.0555 -0.2390
  819MPD2    C312104   1.357   1.227  15.795  0.1179  0.0872  0.1235
  819MPD2    C412105   1.396   1.357  15.794 -0.1922 -0.1459  0.3927
  819MPD2    C512106   1.373   1.441  15.687  0.2771  0.3045 -0.0169
  819MPD2     H12107   1.256   1.079  15.691  1.2513 -0.3054  0.1793
  819MPD2    H112108   1.441   1.399  15.882  0.1047 -1.2952  0.7924
  819MPD2    H212109   1.281   1.463  15.495  3.6645  0.1989 -0.1913
  819MPD2    H312110   1.420   1.538  15.682  1.7003 -0.4305 -0.8206
  819MPD2     N12111   1.373   1.138  15.902  0.2309 -0.5149  0.4523
  819MPD2    H512112   1.319   1.052  15.910 -1.1059  0.0790 -2.2862
  819MPD2    N112113   1.188   1.201  15.461  0.0813 -0.3626 -0.0792
  819MPD2    H712114   1.169   1.264  15.384  1.0868  0.1158  0.0697
  820MPD2     C12115   0.484   1.251  14.749  0.7283 -1.1462 -0.3561
  820MPD2    C112116   0.471   1.268  14.879 -0.8091 -0.3665 -0.1108
  820MPD2    C212117   0.581   1.248  14.959  0.2429  0.2210 -0.5160
  820MPD2    C312118   0.708   1.214  14.901 -0.5409  0.5175  0.5735
  820MPD2    C412119   0.717   1.201  14.762 -0.5436  0.0819  0.5904
  820MPD2    C512120   0.604   1.227  14.687  0.8545  0.1142  0.6272
  820MPD2     H12121   0.567   1.238  15.066  0.7118 -0.6882 -0.5331
  820MPD2    H112122   0.809   1.187  14.708  0.0764 -1.3340  2.0133
  820MPD2    H212123   0.393   1.238  14.692 -0.0547  4.5582 -0.4103
  820MPD2    H312124   0.616   1.206  14.581 -1.6343 -0.1842  0.4172
  820MPD2     N12125   0.826   1.184  14.972  0.2340  0.3073 -0.1987
  820MPD2    H512126   0.909   1.158  14.920  0.4755  0.9551 -0.1403
  820MPD2    N112127   0.343   1.276  14.941 -0.4748 -0.4087  0.2738
  820MPD2    H712128   0.344   1.279  15.043  2.2318  2.0347  0.1826
  821MPD2     C12129   1.399   2.964  13.169  0.4469 -0.4266 -0.1743
  821MPD2    C112130   1.477   2.849  13.167 -0.2851  0.3182  0.1218
  821MPD2    C212131   1.580   2.828  13.074  0.3420  0.0003  0.8560
  821MPD2    C312132   1.602   2.923  12.974 -0.1870  0.0820  0.4498
  821MPD2    C412133   1.518   3.035  12.975 -0.4222 -0.2539  0.0255
  821MPD2    C512134   1.420   3.056  13.070  0.0592  0.7677  0.1357
  821MPD2     H12135   1.630   2.731  13.075 -1.1785 -0.7685  2.0036
  821MPD2    H112136   1.542   3.111  12.901 -0.9153 -0.0735  0.0542
  821MPD2    H212137   1.324   2.984  13.245  0.3799  1.1908 -0.6805
  821MPD2    H312138   1.367   3.151  13.065 -0.1440  0.6325 -0.2594
  821MPD2     N12139   1.701   2.916  12.873 -0.0207  0.0986  0.8008
  821MPD2    H512140   1.698   2.985  12.798 -1.8829 -1.7969 -0.8490
  821MPD2    N112141   1.454   2.737  13.253  0.0761 -0.2872 -0.1199
  821MPD2    H712142   1.518   2.658  13.251  0.3545 -0.0712  0.2046
  822MPD2     C12143   2.328   2.601  15.760  0.1018  0.9597  0.2318
  822MPD2    C112144   2.271   2.565  15.885  0.6058 -0.3519  0.3794
  822MPD2    C212145   2.160   2.640  15.920 -1.0149  0.3304  0.2666
  822MPD2    C312146   2.113   2.741  15.841 -0.1801  0.2117 -0.0152
  822MPD2    C412147   2.172   2.778  15.729 -0.1627  0.3478  0.7272
  822MPD2    C512148   2.283   2.706  15.687 -0.0210  0.2306  0.3886
  822MPD2     H12149   2.112   2.626  16.016  2.1921  1.6143  2.0408
  822MPD2    H112150   2.134   2.861  15.669  2.4369 -0.2198 -1.7269
  822MPD2    H212151   2.425   2.561  15.732 -0.5045 -0.3352  0.0103
  822MPD2    H312152   2.330   2.726  15.591  0.3541 -0.7758  0.3638
  822MPD2     N12153   2.015   2.815  15.913  0.3688 -0.1823  0.4648
  822MPD2    H512154   1.990   2.776  16.002 -1.0764  0.4902  0.3539
  822MPD2    N112155   2.325   2.460  15.972 -0.5995  0.2276  0.9151
  822MPD2    H712156   2.291   2.449  16.067 -0.9943  0.0341  0.7539
  823MPD2     C12157   1.525   2.912  16.566 -0.6247 -0.1794 -0.4223
  823MPD2    C112158   1.606   2.836  16.488 -0.2244  0.2011  0.5561
  823MPD2    C212159   1.673   2.723  16.536  0.2542  0.3165 -0.1555
  823MPD2    C312160   1.661   2.691  16.668  0.5122  0.5057  0.4965
  823MPD2    C412161   1.570   2.758  16.740 -0.6918  0.0791  0.8437
  823MPD2    C512162   1.517   2.873  16.698  0.0015 -0.0175 -0.0448
  823MPD2     H12163   1.743   2.662  16.480 -2.2198 -0.8058 -1.9725
  823MPD2    H112164   1.554   2.735  16.845 -0.6999  0.9811  1.0450
  823MPD2    H212165   1.475   3.003  16.534  1.0285  0.9112  0.1053
  823MPD2    H312166   1.449   2.926  16.763  1.1466  1.0861  0.2591
  823MPD2     N12167   1.724   2.584  16.735 -0.2240 -0.0166  1.1499
  823MPD2    H512168   1.679   2.554  16.821 -0.1191 -2.7766  0.2423
  823MPD2    N112169   1.628   2.883  16.361 -0.5341 -0.2612 -0.0741
  823MPD2    H712170   1.591   2.976  16.344 -1.5091 -1.0667 -2.2998
  824MPD2     C12171   2.698   1.715  15.906 -0.4167 -0.2927 -0.1641
  824MPD2    C112172   2.747   1.843  15.898  0.0355  0.1468 -0.0214
  824MPD2    C212173   2.859   1.865  15.826  0.2437 -0.0146  0.3744
  824MPD2    C312174   2.938   1.762  15.772 -0.2256 -0.2805  0.2988
  824MPD2    C412175   2.892   1.633  15.776 -0.3043  0.3738 -0.2014
  824MPD2    C512176   2.771   1.613  15.845 -0.2306 -0.5505  0.1382
  824MPD2     H12177   2.892   1.968  15.819  1.2939 -0.4738 -1.3692
  824MPD2    H112178   2.941   1.549  15.729  0.6165  0.9569 -0.2640
  824MPD2    H212179   2.606   1.695  15.958 -1.9233  1.9687 -1.9412
  824MPD2    H312180   2.732   1.512  15.847 -2.0044  0.1536  1.6154
  824MPD2     N12181   3.059   1.795  15.714  0.2507 -0.1638 -0.3001
  824MPD2    H512182   3.076   1.895  15.713 -1.6986  0.1851  0.9303
  824MPD2    N112183   2.686   1.954  15.963 -0.4081  0.0818  0.0315
  824MPD2    H712184   2.732   2.045  15.954 -0.5345  0.2135  0.7260
  825MPD2     C12185   3.520   2.139  15.097 -0.7183  0.2894  0.7195
  825MPD2    C112186   3.482   2.150  15.226 -0.0783  0.2705 -0.1268
  825MPD2    C212187   3.471   2.277  15.282 -0.6154  0.9897 -0.0569
  825MPD2    C312188   3.498   2.389  15.195  0.4330 -0.7466 -0.5519
  825MPD2    C412189   3.516   2.376  15.060  0.5200  0.0595 -0.1746
  825MPD2    C512190   3.524   2.243  15.008  0.6553 -0.8313  0.5168
  825MPD2     H12191   3.443   2.291  15.386  0.3561 -0.0021  0.3451
  825MPD2    H112192   3.516   2.456  14.986 -0.5901 -1.1068 -1.4277
  825MPD2    H212193   3.531   2.040  15.054 -0.6150  1.3948 -1.8081
  825MPD2    H312194   3.534   2.239  14.900 -0.3006 -4.2234  0.5836
  825MPD2     N12195   3.488   2.520  15.246 -0.2287 -0.0986  0.1714
  825MPD2    H512196   3.507   2.597  15.182 -1.3278 -0.2130 -0.2810
  825MPD2    N112197   3.453   2.030  15.306 -0.4817  0.1208  0.0830
  825MPD2    H712198   3.485   1.940  15.271  0.0549  0.8297 -1.2400
  826MPD2     C12199   3.229   1.862  14.046 -0.4132  0.6667  0.4604
  826MPD2    C112200   3.215   1.883  13.909  0.6541  0.0784 -0.7837
  826MPD2    C212201   3.100   1.926  13.854  0.3265 -0.3701  0.1429
  826MPD2    C312202   2.997   1.962  13.947  0.5629 -0.2138  0.2405
  826MPD2    C412203   3.019   1.949  14.084  0.0350 -0.2307  0.6017
  826MPD2    C512204   3.131   1.897  14.132  0.6009 -0.0338  0.3999
  826MPD2     H12205   3.091   1.924  13.746 -2.3230 -0.2782  0.3696
  826MPD2    H112206   2.948   1.973  14.163  0.0440 -1.9604  1.1282
  826MPD2    H212207   3.322   1.826  14.089 -0.5314 -0.0922  0.0677
  826MPD2    H312208   3.154   1.887  14.238  1.0031  0.0407  0.3189
  826MPD2     N12209   2.868   2.012  13.910  0.1961  0.1567  0.2464
  826MPD2    H512210   2.795   2.000  13.980  0.2918 -2.3441 -0.0660
  826MPD2    N112211   3.335   1.859  13.829 -0.4670  0.0083 -0.6321
  826MPD2    H712212   3.423   1.834  13.872 -1.1380 -0.0304  0.7291
  827MPD2     C12213   3.569   3.673  10.286 -0.1561  0.0969  0.3258
  827MPD2    C112214   3.622   3.544  10.287  0.5585  0.2134  0.3803
  827MPD2    C212215   3.562   3.458  10.190 -0.1841  0.5484  0.1340
  827MPD2    C312216   3.466   3.499  10.102  0.6567  0.4815 -0.3156
  827MPD2    C412217   3.418   3.627  10.106  0.0638  0.0687 -0.4750
  827MPD2    C512218   3.475   3.712  10.195 -0.1585  0.0274 -0.4234
  827MPD2     H12219   3.609   3.360  10.190 -1.0396  0.1254  1.8802
  827MPD2    H112220   3.341   3.663  10.038 -0.3667  0.3068  0.1435
  827MPD2    H212221   3.602   3.744  10.360  0.1112 -1.4181  1.6675
  827MPD2    H312222   3.441   3.814  10.188 -0.5513  0.0952  2.2441
  827MPD2     N12223   3.424   3.399  10.012 -0.2114 -0.2858 -0.5035
  827MPD2    H512224   3.471   3.310  10.030 -0.6798 -0.3125  0.5745
  827MPD2    N112225   3.707   3.496  10.387  0.3653  0.2243  0.0859
  827MPD2    H712226   3.719   3.553  10.470 -3.4861 -1.2632  1.6740
  828MPD2     C12227   1.935   3.144  11.956 -0.0202  0.2049  1.0609
  828MPD2    C112228   1.829   3.219  11.907 -0.8718 -0.2017 -0.2455
  828MPD2    C212229   1.821   3.252  11.777  0.2361  0.0603  0.5021
  828MPD2    C312230   1.918   3.218  11.688 -0.1572 -0.1511 -0.2202
  828MPD2    C412231   2.025   3.143  11.740 -0.4548 -0.1495 -0.5898
  828MPD2    C512232   2.035   3.115  11.871  0.1474  0.2334 -0.4316
  828MPD2     H12233   1.729   3.300  11.745  0.5054  0.4015  0.2458
  828MPD2    H112234   2.114   3.133  11.677 -0.9933  0.0621 -1.3838
  828MPD2    H212235   1.940   3.107  12.058  2.5639 -0.3833  0.7127
  828MPD2    H312236   2.123   3.067  11.913 -1.2513 -1.7885  0.1905
  828MPD2     N12237   1.918   3.231  11.549 -0.5260  0.2012  0.0573
  828MPD2    H512238   1.998   3.206  11.492  0.9657 -0.1484  2.3311
  828MPD2    N112239   1.717   3.250  11.992 -0.1291 -0.0136 -0.3976
  828MPD2    H712240   1.637   3.294  11.949  0.0028  0.2219 -0.3972
  829MPD2     C12241   1.125   3.768  11.727  0.4053 -0.6309 -0.4514
  829MPD2    C112242   1.050   3.708  11.825 -0.1032  0.0965  0.3785
  829MPD2    C212243   1.106   3.616  11.911  0.0196  0.4401  0.4654
  829MPD2    C312244   1.241   3.596  11.899  0.1566  0.0113 -0.1734
  829MPD2    C412245   1.317   3.657  11.799  0.4573  0.3435  0.5389
  829MPD2    C512246   1.260   3.751  11.717  0.1905  0.0768 -0.5852
  829MPD2     H12247   1.044   3.556  11.978 -0.5078  0.8387  0.3381
  829MPD2    H112248   1.422   3.646  11.777 -0.0340 -0.9935 -1.1062
  829MPD2    H212249   1.069   3.829  11.657  2.8820  0.1546 -1.7429
  829MPD2    H312250   1.316   3.806  11.642 -1.0166  3.2709  0.8126
  829MPD2     N12251   1.309   3.496  11.977  0.2245 -0.1967  0.0069
  829MPD2    H512252   1.406   3.478  11.954  0.3858  0.8558 -0.1428
  829MPD2    N112253   0.910   3.722  11.814 -0.3420 -0.7485 -0.1902
  829MPD2    H712254   0.875   3.788  11.745  1.0084 -1.1226 -1.2444
  830MPD2     C12255   1.434   0.706  15.589 -0.2319 -0.2534 -0.0642
  830MPD2    C112256   1.534   0.728  15.688  0.2376 -0.7928 -0.5285
  830MPD2    C212257   1.663   0.754  15.642 -0.3063 -0.2207  0.3486
  830MPD2    C312258   1.691   0.756  15.507 -0.1016  0.8608 -0.6414
  830MPD2    C412259   1.595   0.718  15.415 -0.0978 -0.5869  0.2041
  830MPD2    C512260   1.472   0.701  15.459 -0.0504  0.1715 -0.3958
  830MPD2     H12261   1.733   0.782  15.720 -0.0283  0.5381 -0.1716
  830MPD2    H112262   1.608   0.725  15.307  1.6000 -0.2414  0.4312
  830MPD2    H212263   1.329   0.698  15.612  0.3293  0.7542  2.8398
  830MPD2    H312264   1.395   0.695  15.383 -1.8069  3.7402  1.1259
  830MPD2     N12265   1.808   0.815  15.456  0.6353  0.2927  0.1486
  830MPD2    H512266   1.822   0.833  15.357 -3.8549  0.6877 -0.3771
  830MPD2    N112267   1.502   0.742  15.825 -0.5931 -0.3931  0.1044
  830MPD2    H712268   1.404   0.735  15.849 -0.4198 -0.3290  0.8252
  831MPD2     C12269   2.196   2.940  16.294  0.4579 -0.1314  0.0129
  831MPD2    C112270   2.257   2.828  16.242  0.1024 -0.5878 -0.3692
  831MPD2    C212271   2.191   2.707  16.241  0.4621  0.4029 -0.0470
  831MPD2    C312272   2.067   2.691  16.300 -0.2806  0.4706 -0.3748
  831MPD2    C412273   2.009   2.802  16.358 -0.2762  0.5150 -0.5327
  831MPD2    C512274   2.067   2.926  16.350  0.4349 -0.6293 -0.0896
  831MPD2     H12275   2.234   2.621  16.190 -0.4080  1.0525 -1.8969
  831MPD2    H112276   1.914   2.792  16.409 -1.0532 -2.7838 -2.6063
  831MPD2    H212277   2.248   3.035  16.294  0.5529 -0.1917  1.1718
  831MPD2    H312278   2.011   3.007  16.396 -1.3163 -0.3614 -2.6850
  831MPD2     N12279   1.995   2.573  16.296  0.0740 -0.3111  0.4136
  831MPD2    H512280   1.898   2.577  16.327  0.0504 -1.5671  0.4980
  831MPD2    N112281   2.372   2.840  16.163  0.3907  0.4920 -0.2607
  831MPD2    H712282   2.399   2.932  16.130  0.3271  0.0352 -1.5845
  832MPD2     C12283   0.597   4.040  17.034  0.5388 -0.2390  0.2093
  832MPD2    C112284   0.500   4.129  17.085  0.1884 -0.5138  0.2777
  832MPD2    C212285   0.368   4.110  17.056 -0.1315 -0.1857 -0.1518
  832MPD2    C312286   0.328   3.992  16.996  0.5649 -0.6133  0.2915
  832MPD2    C412287   0.423   3.898  16.967 -0.7908 -0.1723  0.3426
  832MPD2    C512288   0.558   3.923  16.973 -0.1660  0.0068 -0.0945
  832MPD2     H12289   0.293   4.183  17.085  1.1784  0.3586  1.8525
  832MPD2    H112290   0.402   3.805  16.916  1.1242  0.4442 -1.5569
  832MPD2    H212291   0.702   4.059  17.048  1.0652 -1.9439 -1.4398
  832MPD2    H312292   0.632   3.850  16.940  1.1330 -0.2947  3.4737
  832MPD2     N12293   0.196   3.961  16.958 -0.6714  0.7883 -0.1789
  832MPD2    H512294   0.185   3.866  16.923  1.1638 -0.0572  1.5552
  832MPD2    N112295   0.537   4.253  17.148  0.1843  0.1449 -0.0191
  832MPD2    H712296   0.460   4.305  17.189  1.0192  0.1060  1.6118
  833MPD2     C12297   2.367   0.886  13.313  0.4557  1.1382 -0.3120
  833MPD2    C112298   2.472   0.975  13.332 -0.2470  0.3364 -1.1468
  833MPD2    C212299   2.601   0.933  13.329  0.3478 -0.1969 -0.1272
  833MPD2    C312300   2.626   0.805  13.293 -0.1896 -0.3999  0.0209
  833MPD2    C412301   2.525   0.710  13.271 -0.2862 -0.3540  0.4890
  833MPD2    C512302   2.391   0.749  13.289 -0.0632 -0.1199  0.6932
  833MPD2     H12303   2.681   1.003  13.351  1.2841 -0.8759 -1.4707
  833MPD2    H112304   2.557   0.616  13.228  1.3110  0.8921 -1.1022
  833MPD2    H212305   2.263   0.912  13.304  0.4857  0.3905 -2.9613
  833MPD2    H312306   2.317   0.672  13.270 -1.2804  1.3109 -0.3680
  833MPD2     N12307   2.749   0.759  13.244  0.0335  0.5314 -0.5329
  833MPD2    H512308   2.737   0.676  13.188  2.7269  0.4197 -0.9477
  833MPD2    N112309   2.433   1.113  13.350  0.0032  0.2731 -0.7450
  833MPD2    H712310   2.336   1.134  13.371 -0.2056 -0.9479 -0.5385
  834MPD2     C12311   2.866   0.117  12.589 -0.0158 -0.6869  0.2034
  834MPD2    C112312   2.916   0.220  12.515  0.2123  0.4047  0.3533
  834MPD2    C212313   2.908   0.345  12.577 -0.0361 -0.5596 -0.1677
  834MPD2    C312314   2.855   0.361  12.704 -0.1585  0.2577 -0.4219
  834MPD2    C412315   2.803   0.252  12.772  0.0161  0.1996  0.1125
  834MPD2    C512316   2.814   0.129  12.714 -0.2397  0.1950  0.4110
  834MPD2     H12317   2.934   0.435  12.522  1.8908  0.2371  2.0402
  834MPD2    H112318   2.761   0.263  12.871  1.1264 -0.6230  0.6724
  834MPD2    H212319   2.848   0.023  12.539  0.4407  0.9951 -3.0851
  834MPD2    H312320   2.779   0.042  12.769  1.2808 -0.0004  1.0811
  834MPD2     N12321   2.877   0.493  12.760  0.3461 -0.2713 -0.0550
  834MPD2    H512322   2.951   0.545  12.714  0.6034  1.3993  2.2134
  834MPD2    N112323   2.968   0.196  12.386 -0.7282  0.0245 -0.3371
  834MPD2    H712324   2.950   0.109  12.338 -0.2208  1.1284 -2.5060
  835MPD2     C12325   3.117   3.055  11.029  0.3389 -0.0045  0.3450
  835MPD2    C112326   3.045   3.174  11.022 -0.6562  0.0142 -0.1186
  835MPD2    C212327   3.062   3.271  11.116 -0.1977  0.1210 -0.1079
  835MPD2    C312328   3.154   3.246  11.215  0.2790  0.2089 -1.1108
  835MPD2    C412329   3.213   3.122  11.231 -0.6021 -0.0776 -0.8869
  835MPD2    C512330   3.188   3.026  11.139 -0.3545  0.1281 -0.1018
  835MPD2     H12331   3.017   3.369  11.106  0.4569  0.2563 -1.6939
  835MPD2    H112332   3.292   3.095  11.300  0.0022  3.7969 -0.0718
  835MPD2    H212333   3.111   2.977  10.954  1.3364  1.8149 -1.6331
  835MPD2    H312334   3.236   2.929  11.150 -2.7315 -1.1238 -0.7151
  835MPD2     N12335   3.191   3.344  11.315  0.2457 -0.0065  0.2326
  835MPD2    H512336   3.264   3.316  11.379 -0.6904  1.1386  1.7761
  835MPD2    N112337   2.964   3.201  10.914 -0.6134  0.0442 -0.4032
  835MPD2    H712338   2.953   3.300  10.895 -0.8449 -0.3161 -2.1499
  836MPD2     C12339   2.927   4.005  11.777 -0.4048  0.0143  0.0017
  836MPD2    C112340   2.901   3.870  11.772 -0.1875 -0.5622 -0.1849
  836MPD2    C212341   2.780   3.812  11.813  0.3248 -0.2961 -0.1433
  836MPD2    C312342   2.690   3.901  11.869 -0.6428  0.1093 -0.3727
  836MPD2    C412343   2.708   4.036  11.860 -0.0004 -0.4381 -0.0545
  836MPD2    C512344   2.826   4.086  11.816 -0.2849  0.0321  0.1677
  836MPD2     H12345   2.761   3.706  11.802  0.9969 -0.3728 -0.5762
  836MPD2    H112346   2.626   4.104  11.883 -0.4367 -0.6794 -0.8938
  836MPD2    H212347   3.017   4.050  11.736  0.1917  0.5439  1.9082
  836MPD2    H312348   2.846   4.192  11.820 -2.3454  0.4775 -1.6881
  836MPD2     N12349   2.570   3.863  11.941  0.4433 -0.1702  0.5539
  836MPD2    H512350   2.495   3.931  11.952  0.8037  0.5377 -1.2609
  836MPD2    N112351   2.988   3.785  11.706 -0.6115  0.2006  0.7071
  836MPD2    H712352   2.960   3.689  11.690  0.0682  0.1094  0.0867
  837MPD2     C12353   1.208   2.892  10.356  0.3771 -0.2742 -0.3463
  837MPD2    C112354   1.158   2.942  10.240  0.2066 -0.1447 -0.5143
  837MPD2    C212355   1.166   3.084  10.219 -0.7443 -0.0653 -0.4722
  837MPD2    C312356   1.212   3.167  10.319  0.0226  0.2886  0.5040
  837MPD2    C412357   1.275   3.108  10.429  0.4595  0.5867 -0.3180
  837MPD2    C512358   1.264   2.972  10.452 -0.3788  0.6083  0.7740
  837MPD2     H12359   1.132   3.123  10.124 -1.6753 -0.4408 -0.2991
  837MPD2    H112360   1.293   3.170  10.516 -1.3237 -0.5838  0.8878
  837MPD2    H212361   1.201   2.789  10.389 -1.8231  0.2940  0.9956
  837MPD2    H312362   1.286   2.922  10.546 -0.6878 -0.0813  0.4717
  837MPD2     N12363   1.177   3.305  10.309  0.2642  0.1114  0.2553
  837MPD2    H512364   1.131   3.337  10.224 -1.9200  0.7392  1.6806
  837MPD2    N112365   1.084   2.866  10.139  0.0683  0.0889  0.1800
  837MPD2    H712366   1.059   2.924  10.060  3.4563  0.3355 -0.7315
  838MPD2     C12367   0.032   1.393  12.110  0.0784  0.7174 -0.3228
  838MPD2    C112368   4.688   1.311  12.040 -0.1113  0.2245  0.0178
  838MPD2    C212369   4.602   1.225  12.111  0.3622  0.8109 -0.4873
  838MPD2    C312370   4.610   1.224  12.253 -0.6056 -0.9998  0.1834
  838MPD2    C412371   4.699   1.309  12.318 -1.0364 -0.4198 -1.0652
  838MPD2    C512372   0.038   1.393  12.243  0.4835 -0.0637  0.4782
  838MPD2     H12373   4.530   1.162  12.061  0.4451 -0.2532  0.7260
  838MPD2    H112374   4.697   1.320  12.426 -1.2787 -2.8935 -0.8060
  838MPD2    H212375   0.103   1.456  12.058 -0.6950  0.0977 -2.1495
  838MPD2    H312376   0.120   1.441  12.294  0.8025  0.8051 -0.8494
  838MPD2     N12377   4.524   1.136  12.325  0.4845  0.4674 -0.4739
  838MPD2    H512378   4.464   1.073  12.273 -1.4333  1.0078  1.0778
  838MPD2    N112379   4.672   1.309  11.897  0.7442  0.1946  0.4397
  838MPD2    H712380   4.596   1.250  11.865 -0.1106  0.8243  1.2954
  839MPD2     C12381   4.254   0.681  11.545  0.5136  0.4363 -1.1977
  839MPD2    C112382   4.327   0.712  11.435  0.0534  0.1968 -0.0954
  839MPD2    C212383   4.399   0.830  11.431  0.0924 -0.0078 -0.1534
  839MPD2    C312384   4.412   0.910  11.548  0.5341 -1.2123 -0.0018
  839MPD2    C412385   4.336   0.878  11.659  0.1181  0.1434 -0.2328
  839MPD2    C512386   4.264   0.758  11.658 -0.0716 -0.1860 -0.1117
  839MPD2     H12387   4.459   0.851  11.343  3.6376  1.3752  2.5692
  839MPD2    H112388   4.341   0.947  11.743 -0.6867  0.9935 -0.8886
  839MPD2    H212389   4.192   0.593  11.552  2.1281 -0.6153  0.2165
  839MPD2    H312390   4.209   0.730  11.747  1.2133  1.6708  1.2778
  839MPD2     N12391   4.486   1.037  11.558  0.1783  0.5232 -0.2336
  839MPD2    H512392   4.484   1.077  11.651 -0.2895 -1.8022  0.7414
  839MPD2    N112393   4.315   0.634  11.317  0.1888  0.8348 -0.4171
  839MPD2    H712394   4.383   0.656  11.244 -0.5127  3.3922 -0.2801
  840MPD2     C12395   4.192   3.791  10.502  0.4138 -0.5726  0.0973
  840MPD2    C112396   4.220   3.686  10.587  0.3623 -0.3731  0.1457
  840MPD2    C212397   4.348   3.673  10.636 -0.6973  0.6685 -0.3916
  840MPD2    C312398   4.445   3.768  10.608  0.2016  0.2054  0.1482
  840MPD2    C412399   4.409   3.874  10.521 -0.3020 -0.1335 -0.4546
  840MPD2    C512400   4.286   3.883  10.470 -0.0612 -0.7731  0.1204
  840MPD2     H12401   4.369   3.587  10.699  1.1110 -0.3418 -2.3613
  840MPD2    H112402   4.480   3.951  10.494 -0.0753 -1.1076 -2.6255
  840MPD2    H212403   4.096   3.785  10.453 -0.1725 -1.9655  1.4184
  840MPD2    H312404   4.260   3.964  10.402 -0.8635 -0.7225  0.4879
  840MPD2     N12405   4.580   3.758  10.651 -0.4292  0.6084  0.3222
  840MPD2    H512406   4.637   3.840  10.633  2.3246 -1.1760  0.9623
  840MPD2    N112407   4.119   3.593  10.617 -0.2000  0.1552  0.5624
  840MPD2    H712408   4.032   3.615  10.570  0.8087 -1.2849 -2.0349
  841MPD2     C12409   3.669   3.136  14.781  0.6746  0.1746  0.4130
  841MPD2    C112410   3.665   3.113  14.640  0.1586 -0.5075  0.5033
  841MPD2    C212411   3.774   3.055  14.580 -0.8167  0.6741 -0.2382
  841MPD2    C312412   3.880   3.010  14.653 -0.1298  0.5108  0.3135
  841MPD2    C412413   3.886   3.035  14.788 -0.4812 -0.0915  0.0887
  841MPD2    C512414   3.779   3.086  14.850  0.5819 -0.4020  0.0676
  841MPD2     H12415   3.772   3.037  14.473  1.6677  0.5809 -0.2613
  841MPD2    H112416   3.971   3.008  14.849  0.7737 -0.6805 -1.9439
  841MPD2    H212417   3.583   3.180  14.830  0.5097 -0.1203  0.3904
  841MPD2    H312418   3.779   3.093  14.958  0.4455  0.8160 -0.0148
  841MPD2     N12419   4.004   2.987  14.581  0.1552 -0.4177  0.0372
  841MPD2    H512420   4.008   3.020  14.486 -2.4575  0.6636  0.3153
  841MPD2    N112421   3.561   3.154  14.557 -0.5067 -0.8048 -0.3341
  841MPD2    H712422   3.564   3.120  14.461 -2.6429 -1.9557 -0.0118
  842MPD2     C12423   4.480   4.264  16.847  0.4389 -0.1312 -0.2538
  842MPD2    C112424   4.369   4.219  16.782 -0.0150 -0.1941 -0.4946
  842MPD2    C212425   4.290   4.113  16.830 -0.0216  0.5771 -0.2489
  842MPD2    C312426   4.324   4.051  16.950 -0.3326  0.7439  0.3120
  842MPD2    C412427   4.438   4.092  17.021  0.1608  0.0761 -0.3574
  842MPD2    C512428   4.509   4.197  16.969 -0.5674  0.0704 -0.7215
  842MPD2     H12429   4.194   4.086  16.788 -0.2335  1.1216 -0.1131
  842MPD2    H112430   4.466   4.038  17.111  2.2444  0.6467 -0.6534
  842MPD2    H212431   4.530   4.355  16.816  0.5820  0.3021  1.2250
  842MPD2    H312432   4.596   4.236  17.022 -0.5572  0.8494 -1.3080
  842MPD2     N12433   4.235   3.952  16.994  0.1911  1.1237 -0.8867
  842MPD2    H512434   4.147   3.954  16.944  0.0464 -1.8223 -0.7502
  842MPD2    N112435   4.321   4.288  16.667 -0.2484 -0.1729 -0.2159
  842MPD2    H712436   4.358   4.382  16.661  0.1725 -0.2722  0.8179
  843MPD2     C12437   1.182   0.635   0.037 -0.3258  0.0684  1.0850
  843MPD2    C112438   1.307   0.579   0.014  0.3295 -0.7442 -0.2857
  843MPD2    C212439   1.411   0.618   0.097  0.0886  0.2773  0.2807
  843MPD2    C312440   1.399   0.711   0.198  0.2512  0.3524  0.0336
  843MPD2    C412441   1.279   0.781   0.208  0.0529  0.1765 -0.6417
  843MPD2    C512442   1.173   0.738   0.129 -0.6655 -0.6002 -0.1992
  843MPD2     H12443   1.513   0.590   0.077 -0.1811 -0.6088  0.1556
  843MPD2    H112444   1.263   0.855   0.285  0.0576 -0.2922 -0.1912
  843MPD2    H212445   1.093   0.616  17.730 -0.3937 -1.9118  1.8022
  843MPD2    H312446   1.076   0.786   0.132 -0.0740  0.5309  1.3516
  843MPD2     N12447   1.508   0.752   0.277 -0.7319 -0.0635 -0.3720
  843MPD2    H512448   1.514   0.837   0.333 -1.6032  0.5565 -1.2024
  843MPD2    N112449   1.322   0.494  17.653 -0.0312 -0.2925  0.0095
  843MPD2    H712450   1.246   0.491  17.586  0.1810 -1.0861 -0.1917
  844MPD2     C12451   0.201   3.697  16.448 -0.4156  0.2568 -0.1346
  844MPD2    C112452   0.332   3.680  16.411  0.4228 -0.3930  0.2758
  844MPD2    C212453   0.432   3.772  16.444 -0.1490  0.0534  1.2949
  844MPD2    C312454   0.402   3.878  16.534 -0.0563  0.0947  0.1220
  844MPD2    C412455   0.272   3.892  16.566  0.3969  0.6038  0.0778
  844MPD2    C512456   0.176   3.810  16.528  0.7634 -0.5687  0.2792
  844MPD2     H12457   0.529   3.758  16.400  0.0336  0.6353  1.5148
  844MPD2    H112458   0.246   3.966  16.641  1.4895  1.2852 -0.2089
  844MPD2    H212459   0.119   3.631  16.421 -0.5894 -0.2005  1.5160
  844MPD2    H312460   0.071   3.822  16.551  0.7126  1.6403 -1.1667
  844MPD2     N12461   0.510   3.963  16.569  0.2631 -0.1254 -0.2041
  844MPD2    H512462   0.602   3.929  16.544 -0.1151 -1.7017  0.5274
  844MPD2    N112463   0.371   3.576  16.319 -0.2665  0.3254 -0.8880
  844MPD2    H712464   0.460   3.578  16.271 -0.4231  1.4676 -1.1370
  845MPD2     C12465   0.542   0.152  17.023 -1.0070 -0.0445  0.0331
  845MPD2    C112466   0.437   0.066  17.029  0.0643 -0.5285 -0.5969
  845MPD2    C212467   0.459   4.677  16.977 -0.4568  0.1015  0.4077
  845MPD2    C312468   0.584   4.632  16.930  0.8362  0.0032 -0.2169
  845MPD2    C412469   0.683   4.723  16.942  1.0781  0.4629 -0.1025
  845MPD2    C512470   0.668   0.112  16.995  0.2029 -0.0701  0.3952
  845MPD2     H12471   0.370   4.615  16.975 -1.9370  2.2435 -0.5336
  845MPD2    H112472   0.783   4.696  16.913  0.7555 -0.8129 -0.0062
  845MPD2    H212473   0.532   0.253  17.064 -0.0336 -0.1204  0.4836
  845MPD2    H312474   0.745   0.187  17.005 -0.6174  0.5212  2.2396
  845MPD2     N12475   0.597   4.507  16.875 -0.0001 -0.7520  0.2345
  845MPD2    H512476   0.517   4.444  16.867  1.1265 -2.2739  0.8376
  845MPD2    N112477   0.312   0.115  17.077  0.1164 -0.7973 -0.4378
  845MPD2    H712478   0.309   0.216  17.085 -0.1103 -0.8798  0.4733
  846MPD2     C12479   2.309   0.159  13.936 -0.4098 -0.5807  0.2981
  846MPD2    C112480   2.175   0.143  13.949  0.3165 -0.5752  0.3987
  846MPD2    C212481   2.116   0.147  14.072  0.9245 -0.2518  0.3135
  846MPD2    C312482   2.193   0.182  14.187 -0.2696 -0.1689  0.2293
  846MPD2    C412483   2.330   0.194  14.179 -0.1666 -0.1729 -0.1648
  846MPD2    C512484   2.381   0.184  14.046 -0.1614  0.2925 -0.4776
  846MPD2     H12485   2.009   0.141  14.083  0.9354 -1.6308 -0.2361
  846MPD2    H112486   2.395   0.228  14.259  0.0972 -0.4971 -0.2380
  846MPD2    H212487   2.355   0.169  13.839  1.7243  1.5187  1.5285
  846MPD2    H312488   2.486   0.206  14.027  0.0058 -1.0396 -1.0661
  846MPD2     N12489   2.122   0.187  14.307 -0.2874 -0.4989  0.3883
  846MPD2    H512490   2.031   0.142  14.306  0.3900 -1.7645 -2.8289
  846MPD2    N112491   2.087   0.109  13.840 -0.4706 -0.4701  0.4187
  846MPD2    H712492   1.988   0.120  13.861  0.1524 -1.5881  3.7975
  847MPD2     C12493   2.290   1.625  14.556  0.4954 -0.2067 -0.2576
  847MPD2    C112494   2.303   1.730  14.650  0.6101 -0.5787 -0.5505
  847MPD2    C212495   2.387   1.707  14.754  0.3467  0.3474 -1.0909
  847MPD2    C312496   2.439   1.582  14.789  0.6294  0.3896  0.2640
  847MPD2    C412497   2.433   1.494  14.687 -0.5738 -0.2337 -0.3654
  847MPD2    C512498   2.364   1.514  14.574 -0.2311  0.7844 -0.0481
  847MPD2     H12499   2.391   1.780  14.834 -0.8224  0.8811 -1.5229
  847MPD2    H112500   2.487   1.401  14.697 -0.6292 -0.4857 -2.3443
  847MPD2    H212501   2.224   1.631  14.470  0.8137 -0.2683 -0.5071
  847MPD2    H312502   2.348   1.444  14.493 -0.8192  0.0220  0.7348
  847MPD2     N12503   2.506   1.564  14.906  0.7097  0.2222 -0.0168
  847MPD2    H512504   2.501   1.651  14.959 -0.7295 -0.4713  0.9818
  847MPD2    N112505   2.226   1.851  14.645 -0.0500  0.5759  0.2561
  847MPD2    H712506   2.246   1.912  14.723 -0.4749  1.6261 -0.4517
  848MPD2     C12507   4.485   4.213  16.289  0.5176 -0.2980 -0.0311
  848MPD2    C112508   4.601   4.238  16.355  0.1417 -0.8250 -0.4442
  848MPD2    C212509   4.673   4.354  16.315 -0.0585 -0.0883 -0.1848
  848MPD2    C312510   4.640   4.433  16.204 -0.5427 -0.1955 -0.2407
  848MPD2    C412511   4.542   4.382  16.120  0.1974  0.5122  0.5113
  848MPD2    C512512   4.468   4.282  16.167 -0.1667 -0.2961  0.7380
  848MPD2     H12513   0.012   4.387  16.383  1.2067  0.2015 -1.7620
  848MPD2    H112514   4.502   4.426  16.029  0.7063  2.2916  1.1402
  848MPD2    H212515   4.415   4.139  16.325 -1.3902  1.4319 -0.1709
  848MPD2    H312516   4.389   4.250  16.101  0.4744  0.7374 -0.5521
  848MPD2     N12517   4.714   4.547  16.158 -0.0094  0.2689  0.0762
  848MPD2    H512518   4.694   4.575  16.063  2.5021 -2.3961 -1.2344
  848MPD2    N112519   4.644   4.171  16.472 -0.3680 -0.6146 -0.1947
  848MPD2    H712520   4.709   4.220  16.532 -1.3669  0.4286  0.0320
  849MPD2     C12521   3.508   3.712  14.015 -0.7865 -0.2251  0.0011
  849MPD2    C112522   3.642   3.752  14.016  0.2480  0.4120  0.0009
  849MPD2    C212523   3.720   3.708  14.119 -0.2839  0.3749 -0.1384
  849MPD2    C312524   3.670   3.632  14.221 -0.0629  0.3739 -0.3373
  849MPD2    C412525   3.537   3.596  14.216 -0.3619  0.3247  0.3260
  849MPD2    C512526   3.451   3.641  14.114 -0.3402  0.4853  0.2750
  849MPD2     H12527   3.827   3.723  14.123 -0.0739 -1.3328  0.4474
  849MPD2    H112528   3.490   3.530  14.288 -1.9593  1.2143  0.0985
  849MPD2    H212529   3.439   3.730  13.933 -0.2282 -2.0181 -0.8760
  849MPD2    H312530   3.350   3.602  14.112 -0.1917  0.0848  0.6606
  849MPD2     N12531   3.762   3.588  14.324  1.0002 -0.1013  0.6177
  849MPD2    H512532   3.856   3.628  14.319  0.4742  0.8938 -1.2448
  849MPD2    N112533   3.686   3.817  13.900  0.3628  0.4573  0.2454
  849MPD2    H712534   3.625   3.820  13.820  1.0679  0.0864 -0.3055
  850MPD2     C12535   2.562   2.196  15.155  0.3726  0.6791  0.8372
  850MPD2    C112536   2.653   2.142  15.235  0.7741  0.2750  0.1840
  850MPD2    C212537   2.778   2.113  15.185  0.1912  0.0645 -1.0027
  850MPD2    C312538   2.818   2.144  15.054 -0.3131  0.1819 -0.6862
  850MPD2    C412539   2.718   2.195  14.968 -0.1945 -0.3805 -0.2750
  850MPD2    C512540   2.596   2.224  15.023  0.2512 -0.6682 -0.5573
  850MPD2     H12541   2.852   2.082  15.259  0.0193 -1.6156 -1.5299
  850MPD2    H112542   2.745   2.217  14.865 -0.6382  0.4499 -0.2165
  850MPD2    H212543   2.458   2.210  15.182 -0.0663 -3.0918  1.0240
  850MPD2    H312544   2.529   2.283  14.961 -1.7953 -2.3175  0.0973
  850MPD2     N12545   2.952   2.139  15.007  0.1321 -0.0613  0.3922
  850MPD2    H512546   2.967   2.167  14.911 -3.8585  0.6674  0.0050
  850MPD2    N112547   2.621   2.117  15.370 -0.3026  0.0972 -0.1449
  850MPD2    H712548   2.682   2.062  15.430 -1.0948 -1.9396 -1.2196
  851MPD2     C12549   2.323   1.565  15.964  0.0917 -0.0650 -0.5206
  851MPD2    C112550   2.346   1.610  15.833 -0.2068  0.4061 -0.7063
  851MPD2    C212551   2.322   1.514  15.733  0.1041  0.5879 -0.7282
  851MPD2    C312552   2.292   1.378  15.759 -0.0236  0.2971  0.7096
  851MPD2    C412553   2.274   1.345  15.893 -0.7352  1.0306  0.3911
  851MPD2    C512554   2.289   1.436  15.994  0.4946  0.6689  0.4082
  851MPD2     H12555   2.327   1.540  15.627 -1.0705 -1.7456 -1.3499
  851MPD2    H112556   2.239   1.246  15.920  0.4751  1.3228  2.9916
  851MPD2    H212557   2.323   1.631  16.049 -3.1398  0.1212 -0.6756
  851MPD2    H312558   2.261   1.410  16.095 -1.3529  1.6922  0.1734
  851MPD2     N12559   2.265   1.298  15.648 -0.0500 -0.0575 -0.3124
  851MPD2    H512560   2.277   1.340  15.557  3.0421 -1.1075 -0.3935
  851MPD2    N112561   2.382   1.744  15.811  0.4349  0.6940 -0.5304
  851MPD2    H712562   2.386   1.803  15.893 -1.2561  1.3494 -0.9308
  852MPD2     C12563   2.160   4.331  10.308 -0.0581 -0.4263  0.0288
  852MPD2    C112564   2.251   4.346  10.416 -0.7907  0.0779  0.3707
  852MPD2    C212565   2.335   4.457  10.420  0.6197  0.0234  0.4711
  852MPD2    C312566   2.332   4.543  10.308  0.3003 -0.9489  0.4993
  852MPD2    C412567   2.247   4.526  10.204 -0.4059 -0.4210  0.0414
  852MPD2    C512568   2.161   4.420  10.204  0.0012  0.2612 -0.0687
  852MPD2     H12569   2.407   4.466  10.500 -1.1997  1.4579  1.9653
  852MPD2    H112570   2.239   4.598  10.124  1.0179  0.4402  0.6758
  852MPD2    H212571   2.096   4.243  10.303  0.7025 -1.0513  1.3918
  852MPD2    H312572   2.094   4.404  10.121 -1.2837 -1.2978  1.2750
  852MPD2     N12573   2.435   4.637  10.304  0.2667  0.1389  0.1438
  852MPD2    H512574   2.512   4.622  10.369  0.1805 -1.3454 -0.0921
  852MPD2    N112575   2.249   4.265  10.534 -0.3699 -0.0250 -0.6049
  852MPD2    H712576   2.292   4.307  10.615 -0.8690 -0.9664  0.1474
  853MPD2     C12577   3.853   4.200  12.189 -0.0840  0.2351 -0.5889
  853MPD2    C112578   3.898   4.316  12.241 -0.3458  0.2561 -0.0695
  853MPD2    C212579   4.032   4.336  12.268  0.5766 -0.7626  0.0166
  853MPD2    C312580   4.126   4.238  12.261 -0.0364  0.0727  0.3115
  853MPD2    C412581   4.075   4.112  12.234  0.1605 -0.7278 -0.1208
  853MPD2    C512582   3.945   4.097  12.197  0.9291 -0.2456 -0.2564
  853MPD2     H12583   4.064   4.435  12.298 -2.2081  0.0185  0.3738
  853MPD2    H112584   4.142   4.027  12.228  2.0445  0.7270  0.3918
  853MPD2    H212585   3.751   4.187  12.155 -0.7062 -1.3422  1.9265
  853MPD2    H312586   3.913   3.999  12.164  0.6695 -1.3124  3.1612
  853MPD2     N12587   4.268   4.261  12.256  0.3884  0.2411  0.8150
  853MPD2    H512588   4.326   4.179  12.242 -0.9325 -0.1159 -2.5507
  853MPD2    N112589   3.802   4.412  12.269  0.1957  0.0810  0.1422
  853MPD2    H712590   3.712   4.397  12.224  1.0107 -0.8019 -1.1891
  854MPD2     C12591   0.562   4.625  13.295  0.6096 -0.0622 -0.8325
  854MPD2    C112592   0.691   4.665  13.297 -0.4482  0.4013  0.5004
  854MPD2    C212593   0.787   4.576  13.354 -0.1660 -0.0401 -0.2045
  854MPD2    C312594   0.748   4.456  13.401  0.4091 -0.5677  0.3247
  854MPD2    C412595   0.618   4.418  13.401 -0.4463 -0.3084 -0.5829
  854MPD2    C512596   0.522   4.501  13.348 -0.0335 -0.2278 -0.5785
  854MPD2     H12597   0.889   4.611  13.360 -0.3061  0.5393 -1.3437
  854MPD2    H112598   0.579   4.327  13.445  0.9510 -0.6192  0.0070
  854MPD2    H212599   0.489   4.693  13.253  0.4735  0.4333  0.1928
  854MPD2    H312600   0.418   4.473  13.350  0.2069 -0.8868  2.1643
  854MPD2     N12601   0.838   4.365  13.453  0.0568 -0.2534 -0.0308
  854MPD2    H512602   0.797   4.282  13.494 -3.1832  1.6092  0.5019
  854MPD2    N112603   0.721   0.051  13.242 -0.4017  0.8294 -0.3153
  854MPD2    H712604   0.638   0.098  13.209 -0.6920  0.7089  0.2557
  855MPD2     C12605   0.519   3.960  14.032 -0.5243 -0.4145 -0.0431
  855MPD2    C112606   0.634   3.891  14.045  0.2033  0.0240  0.6495
  855MPD2    C212607   0.738   3.930  13.966  0.4768  0.6682 -0.3129
  855MPD2    C312608   0.739   4.050  13.892  0.0570  1.1907 -0.5021
  855MPD2    C412609   0.621   4.116  13.893  0.3169 -0.1791  0.0395
  855MPD2    C512610   0.511   4.073  13.959 -0.0431  0.8494 -0.9390
  855MPD2     H12611   0.828   3.869  13.970 -0.0451 -0.0402  0.7717
  855MPD2    H112612   0.608   4.200  13.826  0.7514 -0.0365  0.1373
  855MPD2    H212613   0.424   3.938  14.079 -1.5136  2.0985 -0.8600
  855MPD2    H312614   0.410   4.110  13.946 -0.9585 -1.2535  0.2368
  855MPD2     N12615   0.845   4.106  13.815 -0.2119  0.2390  0.2992
  855MPD2    H512616   0.825   4.188  13.759 -0.1674  1.0451  1.4766
  855MPD2    N112617   0.653   3.783  14.125  0.8623  0.5782 -1.0475
  855MPD2    H712618   0.748   3.749  14.129  0.8248  0.7802  1.1601
  856MPD2     C12619   2.598   0.559  14.128 -0.8826  0.3357  0.4437
  856MPD2    C112620   2.667   0.678  14.134  0.3818  0.4520 -0.1533
  856MPD2    C212621   2.620   0.782  14.041  0.7660  0.3604  0.3080
  856MPD2    C312622   2.504   0.765  13.960  0.1038 -0.0601 -0.0890
  856MPD2    C412623   2.438   0.646  13.970 -0.7752  0.1360 -0.5813
  856MPD2    C512624   2.495   0.542  14.043  0.2227  0.7971 -0.1810
  856MPD2     H12625   2.674   0.876  14.038 -0.0974  0.9002  1.6105
  856MPD2    H112626   2.346   0.630  13.915 -1.3646 -0.1078  0.4683
  856MPD2    H212627   2.623   0.481  14.199 -1.7248  0.7008  1.1500
  856MPD2    H312628   2.436   0.451  14.047 -0.0684  0.9823 -0.2517
  856MPD2     N12629   2.450   0.865  13.875  0.0187 -0.0919 -0.2016
  856MPD2    H512630   2.360   0.835  13.840  0.7926 -0.6465 -1.7239
  856MPD2    N112631   2.787   0.698  14.205  0.0663  0.1260  0.2738
  856MPD2    H712632   2.835   0.788  14.201  1.4608 -0.6352 -0.3933
  857MPD2     C12633   0.116   2.691  12.687  0.2770 -0.0248 -0.1697
  857MPD2    C112634   0.246   2.664  12.690 -0.3214  0.2388 -0.0988
  857MPD2    C212635   0.336   2.770  12.680  0.3915 -0.1204  0.1966
  857MPD2    C312636   0.284   2.901  12.651 -0.2336  0.4821 -0.6976
  857MPD2    C412637   0.147   2.917  12.638  0.1139  0.8746  0.0020
  857MPD2    C512638   0.067   2.816  12.668 -0.0476  0.2690  0.2302
  857MPD2     H12639   0.442   2.747  12.680 -0.1406 -2.5620  0.5425
  857MPD2    H112640   0.105   3.016  12.623  0.1808  0.7891 -0.7660
  857MPD2    H212641   0.044   2.618  12.722  2.0717 -1.9770 -0.5737
  857MPD2    H312642   4.700   2.840  12.678 -0.4483 -1.2709 -0.2651
  857MPD2     N12643   0.377   3.011  12.639  0.3476  0.1569  0.1456
  857MPD2    H512644   0.468   2.986  12.675 -0.0279 -1.6323 -0.1116
  857MPD2    N112645   0.280   2.527  12.715  0.5960 -0.1680  1.0629
  857MPD2    H712646   0.208   2.458  12.696  0.3494  0.4790 -0.3143
  858MPD2     C12647   4.634   1.763  16.626  0.2813  0.1894 -0.3774
  858MPD2    C112648   0.032   1.739  16.637  0.5841  0.0032  0.2571
  858MPD2    C212649   0.108   1.825  16.713  0.0011  0.3368 -0.1220
  858MPD2    C312650   0.050   1.929  16.783  0.5720 -0.1273  0.4707
  858MPD2    C412651   4.658   1.951  16.778  0.0730 -0.1460  0.5736
  858MPD2    C512652   4.580   1.875  16.688  0.0558 -0.6073 -1.1756
  858MPD2     H12653   0.213   1.800  16.717  0.0398  0.5811  0.2898
  858MPD2    H112654   4.606   2.025  16.838  0.1021  0.6359 -0.3657
  858MPD2    H212655   4.566   1.705  16.565  0.2203  0.3494 -0.4612
  858MPD2    H312656   4.473   1.892  16.686 -0.5088 -3.7168  1.9414
  858MPD2     N12657   0.132   1.992  16.886 -0.3996  0.7664 -0.2939
  858MPD2    H512658   0.086   2.060  16.945 -0.4934  1.8155 -1.5790
  858MPD2    N112659   0.100   1.636  16.577 -0.1953  0.3736  0.6515
  858MPD2    H712660   0.201   1.648  16.584 -0.0590 -1.5970  2.1603
  859MPD2     C12661   4.077   3.437  14.886 -0.3615  0.1056 -0.3504
  859MPD2    C112662   4.181   3.509  14.952 -0.1461  0.6867  0.1103
  859MPD2    C212663   4.269   3.439  15.028 -0.4830  0.1726 -0.2632
  859MPD2    C312664   4.248   3.300  15.051  0.0971  0.1543  0.1404
  859MPD2    C412665   4.144   3.236  14.993  0.2702 -0.1380  0.1681
  859MPD2    C512666   4.064   3.303  14.910 -0.2531 -0.5137  0.3356
  859MPD2     H12667   4.354   3.478  15.083  1.1561 -1.0369 -1.9704
  859MPD2    H112668   4.122   3.131  15.010  1.1317 -0.4636 -0.7292
  859MPD2    H212669   4.006   3.485  14.820  0.3651  1.2722 -0.2692
  859MPD2    H312670   3.974   3.251  14.878 -1.5327  0.9646  1.5790
  859MPD2     N12671   4.328   3.218  15.139  0.1702  0.4494 -0.1043
  859MPD2    H512672   4.309   3.119  15.133  0.5377  0.2834  1.4516
  859MPD2    N112673   4.189   3.652  14.932 -1.0920 -0.3763  0.6877
  859MPD2    H712674   4.110   3.694  14.886 -1.3978  0.1086  1.6487
  860MPD2     C12675   1.723   3.896  11.940  0.7539  0.5683  0.5814
  860MPD2    C112676   1.720   4.020  12.010  0.3416 -0.7702 -0.1044
  860MPD2    C212677   1.629   4.039  12.114  0.0318  0.8693 -0.2004
  860MPD2    C312678   1.543   3.934  12.149  0.6730 -0.1002 -0.0074
  860MPD2    C412679   1.549   3.818  12.074 -0.1407  0.3306  0.1051
  860MPD2    C512680   1.633   3.800  11.967 -0.1186 -0.7786  0.3034
  860MPD2     H12681   1.624   4.135  12.164  1.1512  0.6524  0.3271
  860MPD2    H112682   1.485   3.733  12.095  1.1512 -0.7907 -0.4116
  860MPD2    H212683   1.801   3.884  11.866 -0.6381 -0.4860 -0.7120
  860MPD2    H312684   1.653   3.700  11.929 -0.3383 -1.4323  1.8712
  860MPD2     N12685   1.450   3.966  12.252 -0.1550  0.2739 -0.7995
  860MPD2    H512686   1.450   4.063  12.280 -0.2833  0.9345 -3.0914
  860MPD2    N112687   1.824   4.114  11.990 -0.5887 -0.4491  0.6562
  860MPD2    H712688   1.824   4.182  12.065 -0.1633  1.8945 -1.4795
  861MPD2     C12689   1.326   1.889  11.112  0.7270 -0.1098  0.5657
  861MPD2    C112690   1.293   2.018  11.126 -0.4016 -0.1751  0.4100
  861MPD2    C212691   1.226   2.071  11.018 -0.4323 -0.0627  0.3916
  861MPD2    C312692   1.168   1.992  10.916  0.1509 -0.4464 -0.1251
  861MPD2    C412693   1.189   1.854  10.916  0.4554  0.4402  0.2733
  861MPD2    C512694   1.269   1.810  11.013 -0.6702 -0.1987 -0.7058
  861MPD2     H12695   1.206   2.178  11.023  1.1813  0.3103 -0.8902
  861MPD2    H112696   1.134   1.790  10.848  1.6790 -0.2321 -0.0972
  861MPD2    H212697   1.379   1.842  11.194  0.9387  0.5394  0.7971
  861MPD2    H312698   1.305   1.707  11.008 -2.3517 -0.9478  2.4213
  861MPD2     N12699   1.078   2.040  10.819  0.0992  0.1133  0.0901
  861MPD2    H512700   1.023   1.974  10.765  0.9351  0.6248 -1.3744
  861MPD2    N112701   1.316   2.104  11.231  0.5331  0.2028  0.2285
  861MPD2    H712702   1.288   2.200  11.213 -5.6847 -1.7403 -0.2930
  862MPD2     C12703   0.464   1.790  10.462 -0.5926 -0.2378 -0.4317
  862MPD2    C112704   0.450   1.857  10.585 -0.3749  0.6156 -0.0195
  862MPD2    C212705   0.333   1.835  10.656  0.3097  0.0017 -0.4479
  862MPD2    C312706   0.253   1.726  10.627  0.0486  0.6164 -0.9332
  862MPD2    C412707   0.284   1.650  10.523 -0.1858 -0.0722 -0.5980
  862MPD2    C512708   0.382   1.679  10.441 -0.6906 -0.5361  0.1289
  862MPD2     H12709   0.302   1.895  10.741 -2.3121 -2.0326  0.0265
  862MPD2    H112710   0.226   1.563  10.497  1.9450 -1.1751 -1.6614
  862MPD2    H212711   0.543   1.811  10.391  0.3080  2.4876  1.4148
  862MPD2    H312712   0.403   1.604  10.365 -1.0586 -0.2067 -0.2927
  862MPD2     N12713   0.146   1.706  10.717  0.5237  0.2839  0.1522
  862MPD2    H512714   0.144   1.768  10.797  0.1470  0.5135 -0.0301
  862MPD2    N112715   0.537   1.957  10.629 -0.5552 -0.4902 -1.1798
  862MPD2    H712716   0.501   2.009  10.708  1.7945  0.9789 -1.0714
  863MPD2     C12717   3.690   0.089  17.110 -0.3901 -0.2866  0.2823
  863MPD2    C112718   3.660   0.217  17.117 -0.4680  0.3685  0.6961
  863MPD2    C212719   3.729   0.302  17.202 -0.3363 -0.6905  0.3948
  863MPD2    C312720   3.833   0.252  17.281  0.1200  0.2655  0.1142
  863MPD2    C412721   3.860   0.115  17.273  0.6548 -0.0857  0.1844
  863MPD2    C512722   3.799   0.033  17.178  0.5154  0.2393  0.2415
  863MPD2     H12723   3.710   0.409  17.194  0.3477 -0.7394 -1.9035
  863MPD2    H112724   3.946   0.080  17.330  0.1537 -0.0024  0.9904
  863MPD2    H212725   3.645   0.022  17.038 -0.0530 -1.0606  0.7908
  863MPD2    H312726   3.834   4.671  17.156  1.0938  0.4628  0.1507
  863MPD2     N12727   3.884   0.323  17.388 -0.7471  0.2625  0.5003
  863MPD2    H512728   3.965   0.289  17.439  0.7651  2.8231 -0.1967
  863MPD2    N112729   3.559   0.260  17.025 -0.0679  0.0439  0.0554
  863MPD2    H712730   3.518   0.196  16.958  1.5420  0.7423 -1.5762
  864MPD2     C12731   3.945   2.386  17.009  0.3975  0.1612 -0.5811
  864MPD2    C112732   4.003   2.265  16.964  0.1845  0.2743  0.4112
  864MPD2    C212733   4.117   2.276  16.885 -0.5156  0.6853  0.8535
  864MPD2    C312734   4.168   2.399  16.844  0.3064  0.1641  0.0500
  864MPD2    C412735   4.104   2.512  16.890  0.6533 -0.2464  0.2817
  864MPD2    C512736   4.004   2.507  16.977 -0.3831 -0.3749  0.6706
  864MPD2     H12737   4.153   2.188  16.832 -2.3877  0.8712 -0.7030
  864MPD2    H112738   4.130   2.610  16.853 -3.2136  0.7323  0.1933
  864MPD2    H212739   3.850   2.393  17.061  0.2937  0.6185 -0.8316
  864MPD2    H312740   3.943   2.594  17.001  0.4816  0.6922 -0.9789
  864MPD2     N12741   4.277   2.419  16.756  0.4353 -0.0245 -0.0010
  864MPD2    H512742   4.303   2.517  16.747  0.9976 -0.1042  0.7496
  864MPD2    N112743   3.937   2.146  16.995  0.0624 -0.2400  0.3833
  864MPD2    H712744   3.856   2.153  17.055  0.5881  0.7050  0.9869
  865MPD2     C12745   4.299   2.295  15.913 -0.2527 -0.2715 -0.2415
  865MPD2    C112746   4.342   2.197  16.000 -0.2776  0.3753 -0.0497
  865MPD2    C212747   4.398   2.235  16.120 -0.4007 -0.7137 -0.1633
  865MPD2    C312748   4.404   2.372  16.159  0.7174  0.0001 -0.4074
  865MPD2    C412749   4.353   2.469  16.071 -0.1556  0.6184 -0.2432
  865MPD2    C512750   4.302   2.428  15.951 -0.5014 -0.1804  0.0122
  865MPD2     H12751   4.456   2.164  16.178 -1.5151 -1.0956  0.4694
  865MPD2    H112752   4.360   2.576  16.083  1.4597  0.6065 -1.0209
  865MPD2    H212753   4.278   2.272  15.809  0.1819 -1.8389  0.0233
  865MPD2    H312754   4.278   2.507  15.881 -1.2769  1.8159  2.5113
  865MPD2     N12755   4.454   2.412  16.281  0.2917 -0.2598  0.8444
  865MPD2    H512756   4.470   2.332  16.341  0.5960 -0.7977  0.0564
  865MPD2    N112757   4.329   2.057  15.966 -0.0569  0.0389 -0.7463
  865MPD2    H712758   4.291   2.035  15.874  3.8302 -1.0443 -2.0978
  866MPD2     C12759   1.672   2.515  11.281 -0.1392 -0.8257  0.2990
  866MPD2    C112760   1.614   2.412  11.205 -0.0601  0.0516 -0.6481
  866MPD2    C212761   1.487   2.427  11.157 -0.0923  0.1431  0.9225
  866MPD2    C312762   1.433   2.552  11.163  0.2264  0.0030  0.1156
  866MPD2    C412763   1.497   2.657  11.223  0.1269  0.4709 -0.1383
  866MPD2    C512764   1.616   2.639  11.285  0.0343  0.0324  0.1686
  866MPD2     H12765   1.433   2.350  11.103 -0.5250  1.3405 -0.3478
  866MPD2    H112766   1.446   2.751  11.242 -1.0978 -0.1439 -0.4209
  866MPD2    H212767   1.768   2.512  11.331 -0.7559 -1.0793  1.4710
  866MPD2    H312768   1.661   2.710  11.353  2.4470 -1.5100  0.1754
  866MPD2     N12769   1.303   2.575  11.113 -0.3707 -0.2987  0.2566
  866MPD2    H512770   1.270   2.671  11.104 -0.6931 -0.2951  1.4031
  866MPD2    N112771   1.661   2.279  11.182 -0.0918  0.1700 -0.3762
  866MPD2    H712772   1.604   2.217  11.126 -0.8926 -1.5488  2.3534
  867MPD2     C12773   2.377   1.945  17.451  0.0522  0.5416 -0.1922
  867MPD2    C112774   2.463   1.962  17.557 -0.3021 -0.2956 -0.0250
  867MPD2    C212775   2.438   2.074  17.638  0.2653  0.1614  0.6159
  867MPD2    C312776   2.357   2.178  17.596  0.2987 -0.0273  0.0353
  867MPD2    C412777   2.262   2.148  17.505  0.0563 -0.5075 -0.0944
  867MPD2    C512778   2.271   2.029  17.439 -0.2818 -1.0832  1.0505
  867MPD2     H12779   2.492   2.094  17.730  1.1359 -2.2185  0.6214
  867MPD2    H112780   2.188   2.218  17.469  2.9397  1.1838 -2.7397
  867MPD2    H212781   2.364   1.863  17.382 -0.1993 -0.3725  0.9398
  867MPD2    H312782   2.210   2.013  17.351  3.5212 -1.5480 -1.4804
  867MPD2     N12783   2.359   2.308  17.643 -0.0103  0.0984  0.3926
  867MPD2    H512784   2.291   2.370  17.601  0.3511 -0.6232 -1.2485
  867MPD2    N112785   2.558   1.860  17.572  0.1306  0.2408 -0.2395
  867MPD2    H712786   2.567   1.795  17.494  0.0524 -0.3954  0.2759
  868MPD2     C12787   0.455   1.463  13.426  0.5102 -0.3428  0.3519
  868MPD2    C112788   0.438   1.328  13.424 -0.6094 -0.7181 -0.3184
  868MPD2    C212789   0.312   1.280  13.455  0.1412  0.0404 -0.3463
  868MPD2    C312790   0.211   1.363  13.505 -0.0910 -0.6399  0.1479
  868MPD2    C412791   0.237   1.498  13.525  0.6305  0.1394  0.2135
  868MPD2    C512792   0.352   1.546  13.470  0.1340  0.2908  0.2050
  868MPD2     H12793   0.286   1.175  13.459  0.2707  0.0272  0.0848
  868MPD2    H112794   0.165   1.564  13.572 -1.7203 -1.7139 -0.7789
  868MPD2    H212795   0.547   1.518  13.406  1.2737 -1.9312 -0.4832
  868MPD2    H312796   0.374   1.650  13.490 -0.7548  0.4754  0.1961
  868MPD2     N12797   0.088   1.300  13.545  0.2287 -0.0436 -0.2104
  868MPD2    H512798   0.073   1.205  13.514  1.8328 -0.2432 -0.4045
  868MPD2    N112799   0.556   1.246  13.409 -0.7066 -0.4307 -0.1337
  868MPD2    H712800   0.637   1.298  13.378 -1.2276  0.8386  0.6211
  869MPD2     C12801   0.674   3.605   0.220 -0.3974  0.1087  0.1849
  869MPD2    C112802   0.565   3.693   0.218  0.6108  0.1951  0.4471
  869MPD2    C212803   0.581   3.823   0.181  0.5942 -0.2654 -0.4909
  869MPD2    C312804   0.699   3.860   0.125  0.1694 -0.5080 -0.7271
  869MPD2    C412805   0.809   3.779   0.134 -1.5250 -0.2034 -0.2062
  869MPD2    C512806   0.800   3.652   0.177  0.1805  0.2802  0.2009
  869MPD2     H12807   0.498   3.891   0.164  0.7902 -0.2994 -1.6088
  869MPD2    H112808   0.908   3.809   0.100 -0.9919  0.9282  2.3534
  869MPD2    H212809   0.672   3.502   0.253 -1.9447  0.2267  0.4798
  869MPD2    H312810   0.887   3.588   0.169  1.2321  1.5810  1.2341
  869MPD2     N12811   0.710   3.988   0.076  0.2409 -0.4239 -0.4903
  869MPD2    H512812   0.629   4.049   0.087  0.4681  0.2275 -2.3143
  869MPD2    N112813   0.447   3.639   0.267 -0.6538  0.1287 -0.1805
  869MPD2    H712814   0.465   3.549   0.310 -0.6570  0.0628 -0.3166
  870MPD2     C12815   1.336   3.092   1.039 -0.2911 -0.1928  0.1423
  870MPD2    C112816   1.240   3.008   0.991 -0.4664  0.3922 -0.4472
  870MPD2    C212817   1.110   3.059   0.975  0.1451 -0.4581 -0.6382
  870MPD2    C312818   1.078   3.182   1.032 -0.2508  0.7274  0.2721
  870MPD2    C412819   1.183   3.265   1.075  0.4279  0.1646  0.5309
  870MPD2    C512820   1.310   3.217   1.082  0.1221  0.8596 -0.2104
  870MPD2     H12821   1.028   2.991   0.954  0.8547 -2.5715  3.4764
  870MPD2    H112822   1.163   3.370   1.094  0.8775  0.4498 -0.5987
  870MPD2    H212823   1.442   3.066   1.038  0.2848  2.0544  1.8911
  870MPD2    H312824   1.389   3.288   1.103 -1.6821  2.4217  1.2584
  870MPD2     N12825   0.941   3.225   1.017  0.4298  0.1988  0.1941
  870MPD2    H512826   0.875   3.171   0.962  0.5742 -1.1597  1.3286
  870MPD2    N112827   1.288   2.883   0.943 -0.0974  0.7219  0.4556
  870MPD2    H712828   1.380   2.855   0.974 -0.3254 -0.6115 -0.0697
  871MPD2     C12829   2.100   2.031  16.357  0.6397 -0.2347 -0.0960
  871MPD2    C112830   2.055   1.976  16.474 -0.1593  0.1397  0.0224
  871MPD2    C212831   2.058   1.836  16.484 -0.2159  0.1099 -0.3341
  871MPD2    C312832   2.106   1.758  16.383  0.3123 -0.3036 -0.1317
  871MPD2    C412833   2.157   1.808  16.265  0.3069  0.3141  0.2290
  871MPD2    C512834   2.140   1.950  16.251 -0.8323 -1.0200  0.1905
  871MPD2     H12835   2.014   1.789  16.571  0.6095  0.5969  0.3358
  871MPD2    H112836   2.183   1.753  16.175  1.6900 -0.7587  1.2819
  871MPD2    H212837   2.085   2.138  16.352  2.1570  0.0019  0.6474
  871MPD2    H312838   2.172   1.992  16.157 -0.0329 -1.2123  0.3788
  871MPD2     N12839   2.111   1.624  16.417 -0.4437  0.3135  0.5529
  871MPD2    H512840   2.041   1.578  16.475 -1.5125 -1.8626 -2.4435
  871MPD2    N112841   2.008   2.067  16.570  0.2616 -0.2053 -0.1208
  871MPD2    H712842   2.021   2.164  16.544 -1.0018  0.4035  1.5739
  872MPD2     C12843   2.889   0.087  13.658 -0.2889  0.1168  0.5629
  872MPD2    C112844   2.913   0.144  13.779  0.8646  0.1046 -0.0612
  872MPD2    C212845   2.833   0.102  13.886  0.1561  0.0162 -0.0465
  872MPD2    C312846   2.724   0.019  13.870  0.5336  0.1885 -0.0049
  872MPD2    C412847   2.690   4.721  13.742 -0.1013 -0.9137  0.3389
  872MPD2    C512848   2.777   0.013  13.642  0.6705 -0.4872  0.2396
  872MPD2     H12849   2.873   0.114  13.986 -0.1981  0.6742  0.0169
  872MPD2    H112850   2.603   4.657  13.729 -0.9075  0.1334  0.6472
  872MPD2    H212851   2.943   0.107  13.565  0.3181 -0.0759  0.8757
  872MPD2    H312852   2.750   4.722  13.542 -0.4386  0.1012  0.3601
  872MPD2     N12853   2.650   4.706  13.979  0.0894  0.4429  0.5498
  872MPD2    H512854   2.570   4.650  13.950 -0.9062  1.1446  1.9315
  872MPD2    N112855   3.013   0.241  13.801 -0.0524 -0.2989 -0.5660
  872MPD2    H712856   3.024   0.265  13.899  1.0356 -2.7250 -0.0870
  873MPD2     C12857   0.338   4.640   1.000  0.3520 -0.3926 -0.4839
  873MPD2    C112858   0.227   4.723   0.979 -0.1642  0.9003 -0.0545
  873MPD2    C212859   0.126   4.682   0.895  0.3488 -0.0306 -0.6524
  873MPD2    C312860   0.141   4.570   0.820  0.7234 -0.1543 -0.2022
  873MPD2    C412861   0.237   4.474   0.854 -0.4301 -0.0195 -0.0310
  873MPD2    C512862   0.337   4.515   0.946  0.0635  0.4713  0.1496
  873MPD2     H12863   0.042   0.010   0.877  1.5934  2.2096  1.8813
  873MPD2    H112864   0.253   4.383   0.797 -0.1932  0.3605 -0.5741
  873MPD2    H212865   0.422   4.676   1.057 -0.1907  0.8684 -0.4793
  873MPD2    H312866   0.429   4.458   0.956 -1.4849 -1.5876  2.7941
  873MPD2     N12867   0.048   4.524   0.728 -0.0873  0.3521  0.5494
  873MPD2    H512868   0.050   4.425   0.704 -0.2571  0.2559  0.9197
  873MPD2    N112869   0.229   0.104   1.051  0.2442  0.3036  0.5466
  873MPD2    H712870   0.309   0.114   1.113 -1.1975 -1.6519  2.7171
  874MPD2     C12871   4.211   0.143  16.030  0.3769 -0.0821  0.2245
  874MPD2    C112872   4.280   0.050  16.102 -0.7192 -0.2261 -0.4726
  874MPD2    C212873   4.418   0.043  16.082  0.0667  0.4006 -0.3191
  874MPD2    C312874   4.486   0.146  16.019 -0.8849 -0.0783  0.1659
  874MPD2    C412875   4.414   0.247  15.954  0.1426  0.5763  0.1545
  874MPD2    C512876   4.274   0.247  15.956  0.1651 -0.8289  0.3413
  874MPD2     H12877   4.474   4.707  16.137  1.9743  2.7033  0.8977
  874MPD2    H112878   4.461   0.328  15.899 -0.3260 -0.8822 -2.4377
  874MPD2    H212879   4.103   0.145  16.038  0.3855 -0.1458  0.3546
  874MPD2    H312880   4.211   0.313  15.897 -1.1303 -0.8244  1.7159
  874MPD2     N12881   4.625   0.131  16.022  0.3512  0.3412  0.3044
  874MPD2    H512882   4.652   0.045  16.070 -1.5165  0.3676  1.3968
  874MPD2    N112883   4.211   4.693  16.180 -0.8331  0.5502  0.0989
  874MPD2    H712884   4.111   4.683  16.165 -0.6562  0.6941 -1.2219
  875MPD2     C12885   0.540   2.573  14.547 -0.5399  0.3826  0.1553
  875MPD2    C112886   0.427   2.644  14.595 -0.2672  0.2198 -0.1827
  875MPD2    C212887   0.422   2.678  14.728  0.3160 -0.7874  0.2050
  875MPD2    C312888   0.522   2.640  14.820  0.5432 -0.3430  0.4634
  875MPD2    C412889   0.625   2.567  14.775 -0.2303 -0.6739  0.4309
  875MPD2    C512890   0.636   2.536  14.643 -1.2305 -0.1602 -0.0674
  875MPD2     H12891   0.332   2.724  14.766  1.3806  0.2574  1.4429
  875MPD2    H112892   0.690   2.512  14.844 -0.0612 -0.6823  0.2649
  875MPD2    H212893   0.541   2.541  14.444  0.6022  0.2150  0.2241
  875MPD2    H312894   0.707   2.462  14.608 -0.8931 -0.1357  0.5778
  875MPD2     N12895   0.525   2.681  14.958  0.5524 -0.0006 -0.3245
  875MPD2    H512896   0.452   2.747  14.986  1.5870  1.1825 -0.4155
  875MPD2    N112897   0.325   2.674  14.492  0.1338  0.0198  0.1765
  875MPD2    H712898   0.339   2.638  14.398 -0.2301  0.1053  0.0883
  876MPD2     C12899   4.010   3.954  15.936 -0.0273 -0.4757  0.2432
  876MPD2    C112900   4.148   3.965  15.933 -0.7306 -0.4279  0.0602
  876MPD2    C212901   4.220   3.897  16.031 -0.2796 -0.3004 -0.4651
  876MPD2    C312902   4.154   3.815  16.121 -0.0596  0.2202  0.3388
  876MPD2    C412903   4.021   3.787  16.104  0.0355 -0.0283  0.3649
  876MPD2    C512904   3.952   3.865  16.016  0.6046  0.3649  0.4575
  876MPD2     H12905   4.322   3.927  16.047 -0.8166  1.4952 -0.4457
  876MPD2    H112906   3.966   3.708  16.155 -2.0544  1.5224  0.5045
  876MPD2    H212907   3.945   4.012  15.872 -2.1976 -1.4092  1.5785
  876MPD2    H312908   3.846   3.850  16.003  0.4107  0.8647  1.4379
  876MPD2     N12909   4.233   3.750  16.213 -0.4092 -0.1743  0.6047
  876MPD2    H512910   4.333   3.770  16.220 -0.4699  0.0203  0.8841
  876MPD2    N112911   4.200   4.060  15.843 -0.2745 -0.1870 -0.2578
  876MPD2    H712912   4.137   4.110  15.781  0.6195  2.6453  1.1064
  877MPD2     C12913   4.042   4.531  15.267 -0.3180 -0.5443  0.0874
  877MPD2    C112914   4.171   4.490  15.256  1.0512  0.6498 -1.5705
  877MPD2    C212915   4.224   4.492  15.126  0.0342 -0.3637  0.2979
  877MPD2    C312916   4.161   4.536  15.014  0.9878 -0.1484  1.1098
  877MPD2    C412917   4.026   4.562  15.032  0.0109  0.2089 -0.0436
  877MPD2    C512918   3.969   4.566  15.153 -0.9475 -0.2710  0.3180
  877MPD2     H12919   4.328   4.463  15.121  0.0314 -0.1323 -1.1408
  877MPD2    H112920   3.963   4.591  14.948 -2.3888 -1.6521  1.0898
  877MPD2    H212921   3.997   4.536  15.366  0.2212 -1.6079  0.3898
  877MPD2    H312922   3.862   4.581  15.165 -0.9025 -0.6071  1.1447
  877MPD2     N12923   4.212   4.527  14.881  0.5705 -0.3880  0.6909
  877MPD2    H512924   4.162   4.568  14.803 -0.7208 -0.1100  1.6796
  877MPD2    N112925   4.253   4.435  15.364 -0.1144  0.2520  0.4447
  877MPD2    H712926   4.348   4.407  15.342 -0.8326 -0.9629 -1.1404
  878MPD2     C12927   3.701   3.551  12.990 -0.2985 -0.4424  0.0505
  878MPD2    C112928   3.832   3.603  13.010  0.7660  0.1069  0.0403
  878MPD2    C212929   3.876   3.644  13.136  0.7524 -0.1838 -0.1124
  878MPD2    C312930   3.777   3.652  13.239  0.7013  0.1086  0.4660
  878MPD2    C412931   3.643   3.624  13.210  0.3571  0.5839  0.5659
  878MPD2    C512932   3.607   3.567  13.091  0.9794 -0.1611 -0.1245
  878MPD2     H12933   3.980   3.670  13.154  1.0161 -0.1592 -1.6558
  878MPD2    H112934   3.574   3.622  13.293 -0.3363  1.1084 -0.0035
  878MPD2    H212935   3.674   3.500  12.899  0.7532  0.6130 -0.8598
  878MPD2    H312936   3.502   3.542  13.079  1.0388 -1.0648  1.2988
  878MPD2     N12937   3.817   3.696  13.372 -0.1487  0.2431 -0.0813
  878MPD2    H512938   3.919   3.694  13.373 -0.1191  1.7040  0.1175
  878MPD2    N112939   3.919   3.598  12.897  0.3540  0.4963 -0.1197
  878MPD2    H712940   3.885   3.551  12.814 -1.1651  1.6658 -0.1435
  879MPD2     C12941   3.943   0.783  17.099 -0.4415  0.2283 -0.0747
  879MPD2    C112942   4.071   0.731  17.091  0.1028  0.6354  0.2471
  879MPD2    C212943   4.087   0.599  17.056 -0.1235 -0.9548  0.1679
  879MPD2    C312944   3.976   0.522  17.021  0.4126 -0.1078 -0.0231
  879MPD2    C412945   3.851   0.581  17.012  0.0022 -0.8446  0.0977
  879MPD2    C512946   3.835   0.710  17.051 -0.5732 -0.0378 -0.6961
  879MPD2     H12947   4.189   0.564  17.057 -0.5562 -2.2685 -1.8292
  879MPD2    H112948   3.767   0.524  16.974 -0.4302 -0.2854  0.2118
  879MPD2    H212949   3.928   0.883  17.139  2.3212 -0.0082  1.5348
  879MPD2    H312950   3.737   0.756  17.058 -0.3887  0.4302 -1.2433
  879MPD2     N12951   3.987   0.389  16.970 -0.0882 -0.1816  0.4859
  879MPD2    H512952   3.898   0.357  16.934 -0.8669  3.9792 -1.2503
  879MPD2    N112953   4.181   0.813  17.131 -0.1768  0.5916 -0.4583
  879MPD2    H712954   4.163   0.901  17.178 -0.3674  1.4779 -2.2061
  880MPD2     C12955   0.558   2.191   0.458  0.0249  0.2520  0.0501
  880MPD2    C112956   0.667   2.264   0.422  0.2297 -0.2965 -0.3636
  880MPD2    C212957   0.792   2.221   0.462 -0.1606  0.1984 -0.5782
  880MPD2    C312958   0.798   2.098   0.528 -0.2729 -0.2826 -0.1479
  880MPD2    C412959   0.687   2.034   0.570  0.1551 -0.1988 -0.6673
  880MPD2    C512960   0.567   2.080   0.535  0.3379  0.0780 -0.6078
  880MPD2     H12961   0.886   2.269   0.433 -2.0967  3.3044 -1.7505
  880MPD2    H112962   0.689   1.949   0.637  1.9489  0.9217  0.6985
  880MPD2    H212963   0.457   2.212   0.426  0.2633  1.0329 -0.1900
  880MPD2    H312964   0.480   2.024   0.567  0.6016 -2.0975 -3.7271
  880MPD2     N12965   0.929   2.051   0.557 -0.1476 -0.3353 -0.3851
  880MPD2    H512966   1.002   2.116   0.531 -1.0678  0.6919 -0.3625
  880MPD2    N112967   0.644   2.376   0.344 -0.0219  0.6869 -0.0527
  880MPD2    H712968   0.548   2.410   0.339 -0.4338 -0.7297 -1.6068
  881MPD2     C12969   0.667   3.074  17.310  0.0704 -0.1157  0.0992
  881MPD2    C112970   0.761   2.983  17.333  0.1387 -0.2769  0.5937
  881MPD2    C212971   0.786   2.943  17.466  0.0478  0.5540 -0.3809
  881MPD2    C312972   0.702   2.981  17.563 -0.1847 -1.2127  0.2711
  881MPD2    C412973   0.600   3.076  17.528 -0.1458 -0.2606 -0.3758
  881MPD2    C512974   0.573   3.117  17.403 -0.4175  0.6562  0.0689
  881MPD2     H12975   0.866   2.878  17.499  0.2434  0.9664 -0.0441
  881MPD2    H112976   0.522   3.097  17.601  1.4733  0.9036  1.0263
  881MPD2    H212977   0.651   3.107  17.208 -1.1924  0.5300  0.5021
  881MPD2    H312978   0.490   3.180  17.374 -0.6683  0.4741  0.3968
  881MPD2     N12979   0.701   2.932  17.694 -0.0591 -0.1355 -0.6105
  881MPD2    H512980   0.614   2.950  17.743  0.8591  0.1889  0.9272
  881MPD2    N112981   0.854   2.953  17.233 -0.0003  0.5010  0.0659
  881MPD2    H712982   0.840   3.006  17.148 -2.9723 -1.0523 -0.4085
  882MPD2     C12983   4.075   4.241  14.104  0.5151 -0.1130 -0.0912
  882MPD2    C112984   4.092   4.342  14.193 -0.2516 -0.2118  0.4572
  882MPD2    C212985   3.992   4.437  14.199  0.3004 -0.3605  0.2504
  882MPD2    C312986   3.870   4.407  14.142 -0.1716 -0.2038  0.6318
  882MPD2    C412987   3.860   4.310  14.047 -0.5142  0.7183 -0.0650
  882MPD2    C512988   3.963   4.224  14.026  0.2977  0.2789  0.2579
  882MPD2     H12989   3.996   4.507  14.281  1.0530  2.7613 -2.4202
  882MPD2    H112990   3.769   4.290  13.991 -1.1496  2.7293  0.2528
  882MPD2    H212991   4.151   4.164  14.104 -0.3903 -1.0015  0.7785
  882MPD2    H312992   3.946   4.142  13.957 -0.3480  0.1685  0.5521
  882MPD2     N12993   3.754   4.481  14.166  0.0096 -0.0819 -0.3546
  882MPD2    H512994   3.676   4.467  14.103  1.1387  0.9664 -2.0037
  882MPD2    N112995   4.200   4.336  14.284  0.1252  0.6428  0.3320
  882MPD2    H712996   4.242   4.244  14.295  2.0694  1.2693 -1.6805
  883MPD2     C12997   1.306   4.223  16.150  0.5993 -0.2352 -0.0888
  883MPD2    C112998   1.373   4.336  16.103 -0.1149 -0.3454  0.3106
  883MPD2    C212999   1.487   4.390  16.162 -0.0583 -0.1635  0.2305
  883MPD2    C313000   1.539   4.324  16.274 -0.1477  0.7106 -0.1823
  883MPD2    C413001   1.472   4.225  16.336 -0.5138  0.1883  0.2774
  883MPD2    C513002   1.360   4.175  16.266 -0.2783  0.1631 -0.5628
  883MPD2     H13003   1.547   4.468  16.115 -0.4373 -0.5013 -0.8135
  883MPD2    H113004   1.493   4.184  16.434  1.9388 -0.5560 -0.5512
  883MPD2    H213005   1.218   4.177  16.106  1.2312 -1.3888 -0.1453
  883MPD2    H313006   1.311   4.091  16.314  1.0229 -0.5987 -0.5816
  883MPD2     N13007   1.661   4.367  16.326  0.0812  0.0181  0.0429
  883MPD2    H513008   1.713   4.432  16.268  0.2179 -0.8697 -0.8130
  883MPD2    N113009   1.331   4.400  15.988 -0.1080 -0.3554  0.1359
  883MPD2    H713010   1.386   4.477  15.951  0.2296 -1.1226 -0.9826
  884MPD2     C13011   3.645   1.018  15.091 -0.4623 -0.0348  0.1313
  884MPD2    C113012   3.661   1.125  15.167  0.6418 -0.8923  1.1385
  884MPD2    C213013   3.554   1.166  15.245  0.3531 -0.5029 -0.8188
  884MPD2    C313014   3.445   1.088  15.272  0.5401 -0.9228 -0.4764
  884MPD2    C413015   3.429   0.975  15.195 -0.0887  0.7712 -0.1560
  884MPD2    C513016   3.524   0.945  15.101  0.4951 -0.3544  0.2319
  884MPD2     H13017   3.569   1.253  15.308  0.2162 -0.4300 -0.8872
  884MPD2    H113018   3.329   0.934  15.185  1.2073 -2.1316 -1.1751
  884MPD2    H213019   3.702   0.983  15.005 -0.5074  0.1317  0.0348
  884MPD2    H313020   3.509   0.860  15.035 -2.1416 -0.0762  0.4822
  884MPD2     N13021   3.350   1.131  15.368 -0.4607 -0.0137 -0.0586
  884MPD2    H513022   3.365   1.218  15.417  0.9742  1.4920 -3.1744
  884MPD2    N113023   3.786   1.189  15.171  0.7596  0.5343 -0.1985
  884MPD2    H713024   3.783   1.274  15.226  1.5261  0.0451  0.5991
  885MPD2     C13025   1.334   1.335   0.297 -0.0574 -0.2353  0.1724
  885MPD2    C113026   1.382   1.214   0.325 -0.2522  0.9133 -0.2106
  885MPD2    C213027   1.368   1.113   0.232 -0.0437 -0.3463 -0.5673
  885MPD2    C313028   1.307   1.138   0.111 -0.2083 -0.0710  0.1218
  885MPD2    C413029   1.270   1.274   0.077  0.5352  0.0795 -0.3385
  885MPD2    C513030   1.281   1.364   0.172 -0.4003 -1.1569 -0.7439
  885MPD2     H13031   1.400   1.010   0.245 -0.1312 -0.1372  1.3515
  885MPD2    H113032   1.228   1.303  17.734 -0.5366 -2.6432 -0.6930
  885MPD2    H213033   1.352   1.412   0.371 -0.1450  0.1324 -0.1872
  885MPD2    H313034   1.249   1.464   0.143 -1.2980 -0.8383  1.3311
  885MPD2     N13035   1.310   1.037   0.015  0.1206  0.5882  0.1737
  885MPD2    H513036   1.349   0.947   0.039  0.5798  0.4402 -1.1112
  885MPD2    N113037   1.461   1.208   0.444  0.3037 -1.1399  0.2455
  885MPD2    H713038   1.468   1.290   0.503  1.0318 -0.8597 -0.2254
  886MPD2     C13039   3.032   4.438  15.713  0.0589 -0.2030  0.0642
  886MPD2    C113040   3.155   4.393  15.678  0.7711 -0.1133  0.3396
  886MPD2    C213041   3.224   4.464  15.575 -0.7858  0.5476  0.0927
  886MPD2    C313042   3.160   4.564  15.499  0.4140  0.2430  0.8802
  886MPD2    C413043   3.029   4.596  15.530  0.1296 -0.1499  0.1109
  886MPD2    C513044   2.975   4.536  15.640 -1.0671 -0.0960  0.6252
  886MPD2     H13045   3.322   4.428  15.544 -2.1554 -2.0503 -1.2232
  886MPD2    H113046   2.975   4.672  15.475 -3.1183 -1.4860  1.4865
  886MPD2    H213047   2.976   4.380  15.785 -0.5895  1.2866  0.7603
  886MPD2    H313048   2.870   4.551  15.663 -1.3877 -2.4129  0.7305
  886MPD2     N13049   3.222   4.630  15.390  0.5507  0.7971  0.1676
  886MPD2    H513050   3.160   4.688  15.334  0.8061 -0.1693 -1.1381
  886MPD2    N113051   3.215   4.287  15.741 -0.0224  0.8225  0.4321
  886MPD2    H713052   3.315   4.279  15.731 -0.4580 -4.9794  1.0121
  887MPD2     C13053   3.799   4.155  16.174 -0.3497  0.0339  0.4678
  887MPD2    C113054   3.744   4.213  16.062  0.0445  0.5653 -0.3886
  887MPD2    C213055   3.821   4.301  15.987 -0.8172 -0.0169  0.1549
  887MPD2    C313056   3.958   4.322  16.016 -0.1180 -0.1146  0.1767
  887MPD2    C413057   4.012   4.256  16.122 -0.0444 -0.5186  0.2630
  887MPD2    C513058   3.935   4.177  16.202 -0.0386 -0.0180  0.2702
  887MPD2     H13059   3.782   4.351  15.899  0.5128 -0.7787 -0.8876
  887MPD2    H113060   4.114   4.267  16.158  0.0647 -1.8319  0.3812
  887MPD2    H213061   3.747   4.093  16.246  2.3559  1.3832  3.6177
  887MPD2    H313062   3.973   4.121  16.287  0.9021 -1.0019 -0.8014
  887MPD2     N13063   4.023   4.419  15.937  0.6869  0.4559 -0.1888
  887MPD2    H513064   3.972   4.461  15.860 -2.6590  0.5612  2.0951
  887MPD2    N113065   3.616   4.178  16.015 -0.5859  0.3593 -0.0047
  887MPD2    H713066   3.572   4.239  15.947  0.0119  1.5462  0.6800
  888MPD2     C13067   0.605   3.969  14.853 -0.2569  0.1569 -0.3335
  888MPD2    C113068   0.613   3.987  14.992  0.2235 -0.6327  0.0612
  888MPD2    C213069   0.706   4.081  15.031 -0.2635 -0.0478 -0.1236
  888MPD2    C313070   0.779   4.150  14.942  0.2569 -0.1508  0.2447
  888MPD2    C413071   0.759   4.146  14.807 -0.3468  0.8286 -0.0940
  888MPD2    C513072   0.676   4.048  14.768  0.7781 -0.7417  0.0100
  888MPD2     H13073   0.714   4.101  15.137  0.1792 -1.3457  0.0973
  888MPD2    H113074   0.807   4.213  14.737 -2.7200  4.4288  1.7327
  888MPD2    H213075   0.534   3.902  14.804  0.3471  0.5419 -1.7325
  888MPD2    H313076   0.650   4.039  14.663  0.0163  0.8778  0.0641
  888MPD2     N13077   0.854   4.253  15.006  0.4783 -0.5402 -0.5950
  888MPD2    H513078   0.841   4.271  15.105 -1.7383 -1.2633 -0.7648
  888MPD2    N113079   0.547   3.905  15.086 -0.2461 -0.2377  0.0212
  888MPD2    H713080   0.590   3.904  15.178 -1.4837 -1.4063  0.5998
  889MPD2     C13081   0.118   3.742  12.534 -0.3392 -0.4732 -0.0072
  889MPD2    C113082   0.180   3.718  12.657  0.7208 -0.1416 -0.3106
  889MPD2    C213083   0.110   3.769  12.765  0.3957 -0.1344  0.2531
  889MPD2    C313084   0.008   3.868  12.756  0.3771  0.0013 -0.6178
  889MPD2    C413085   4.710   3.899  12.629  1.4189  0.2524 -0.1838
  889MPD2    C513086   0.021   3.834  12.518 -0.0280 -0.3930  0.3383
  889MPD2     H13087   0.146   3.742  12.864 -0.2715 -0.3021  0.4463
  889MPD2    H113088   4.630   3.973  12.627  0.5200 -0.7629 -1.5287
  889MPD2    H213089   0.171   3.709  12.445 -3.6424 -2.3431 -1.2921
  889MPD2    H313090   4.723   3.858  12.419 -0.8802 -0.7894  0.5590
  889MPD2     N13091   4.696   3.922  12.878  0.4851 -0.1879 -0.4442
  889MPD2    H513092   0.006   3.903  12.964 -1.3513  1.0317  0.8667
  889MPD2    N113093   0.274   3.614  12.658 -0.5213 -0.0842 -0.4374
  889MPD2    H713094   0.305   3.584  12.566  0.2093 -0.7120  0.0156
  890MPD2     C13095   4.393   0.108  14.515  0.0288 -0.7697  0.3243
  890MPD2    C113096   4.434   0.238  14.539 -0.6021 -0.4712 -0.6338
  890MPD2    C213097   4.548   0.260  14.615 -0.1038  0.2012  0.1606
  890MPD2    C313098   4.619   0.151  14.670  0.1566 -1.1862  0.3683
  890MPD2    C413099   4.581   0.024  14.640 -0.4037 -0.0165 -0.2536
  890MPD2    C513100   4.470   0.005  14.560 -0.1126  0.5260 -0.2749
  890MPD2     H13101   4.568   0.364  14.639  0.1402  0.6401 -1.9522
  890MPD2    H113102   4.630   4.671  14.670  0.0700  0.7666  1.3843
  890MPD2    H213103   4.315   0.081  14.445  0.1445 -0.0954 -0.0584
  890MPD2    H313104   4.452   4.640  14.534  0.8991  1.1584 -3.5576
  890MPD2     N13105   4.717   0.181  14.774 -0.5927 -0.5672  0.2350
  890MPD2    H513106   0.004   0.278  14.786 -1.2755 -0.3981  0.3192
  890MPD2    N113107   4.354   0.347  14.496 -0.3605 -0.3901 -0.4222
  890MPD2    H713108   4.255   0.330  14.483 -0.9069  1.0760  1.8612
  891MPD2     C13109   2.412   4.024  16.384  0.2941  0.8421 -0.3851
  891MPD2    C113110   2.321   4.026  16.492  0.9505 -1.4172  0.5800
  891MPD2    C213111   2.379   4.007  16.623  0.3325  0.0219  0.0212
  891MPD2    C313112   2.517   3.991  16.642 -0.1268 -0.1291  1.0010
  891MPD2    C413113   2.607   4.002  16.534 -0.1850  0.1281  0.2123
  891MPD2    C513114   2.545   4.015  16.410 -0.0675 -0.7183  0.4235
  891MPD2     H13115   2.325   3.994  16.716 -2.2364 -1.6275 -1.7247
  891MPD2    H113116   2.714   3.989  16.544 -0.5121 -1.9111  1.1362
  891MPD2    H213117   2.368   4.007  16.286  0.4324  2.0280 -0.6499
  891MPD2    H313118   2.613   4.014  16.326 -0.6052 -0.6657 -0.0120
  891MPD2     N13119   2.562   3.975  16.775  0.0393  0.6121  0.0674
  891MPD2    H513120   2.488   3.977  16.845 -0.3070  1.5344 -0.3273
  891MPD2    N113121   2.188   4.028  16.461  0.6976  0.0579 -0.2129
  891MPD2    H713122   2.174   4.049  16.362 -2.5565 -1.5887 -0.0938
  892MPD2     C13123   3.572   0.219  14.911 -0.2337  0.0105 -0.4946
  892MPD2    C113124   3.475   0.287  14.829 -0.0528 -0.3421 -0.4483
  892MPD2    C213125   3.485   0.274  14.687  0.3634 -0.4678 -0.3073
  892MPD2    C313126   3.590   0.209  14.629 -0.9745 -0.0101  0.2108
  892MPD2    C413127   3.688   0.149  14.708  0.5504  0.0205 -0.3449
  892MPD2    C513128   3.671   0.146  14.845  0.2112  0.4905 -0.0933
  892MPD2     H13129   3.413   0.317  14.618  0.8161  3.7561  1.8598
  892MPD2    H113130   3.767   0.094  14.659  0.9277 -1.0947  1.5457
  892MPD2    H213131   3.575   0.222  15.019  0.5229 -1.9345 -0.4587
  892MPD2    H313132   3.741   0.093  14.909 -1.3176  1.6251  2.5079
  892MPD2     N13133   3.596   0.178  14.496  0.4306 -0.5073 -0.6557
  892MPD2    H513134   3.676   0.123  14.466  1.6496 -0.1301  1.8975
  892MPD2    N113135   3.356   0.346  14.880 -0.2675 -0.4299  0.2902
  892MPD2    H713136   3.287   0.372  14.809 -0.7282 -0.6541  0.6568
  893MPD2     C13137   0.202   4.225   1.696 -0.1262  0.1698 -0.6880
  893MPD2    C113138   0.137   4.179   1.585 -0.3033  0.2983  0.2266
  893MPD2    C213139   0.017   4.229   1.541  0.3289  0.6572 -0.2768
  893MPD2    C313140   4.702   4.347   1.599  0.5788  0.6378  0.1078
  893MPD2    C413141   0.028   4.387   1.718  0.8402  0.2390  0.7031
  893MPD2    C513142   0.143   4.328   1.769 -0.5189  0.2866  0.5877
  893MPD2     H13143   4.720   4.197   1.444  2.4385 -0.4024 -0.7048
  893MPD2    H113144   4.727   4.469   1.776 -0.6085 -0.4554  0.7078
  893MPD2    H213145   0.296   4.181   1.728  0.2559  0.6717 -1.1176
  893MPD2    H313146   0.192   4.365   1.858  0.7094  1.2301 -0.4709
  893MPD2     N13147   4.590   4.418   1.561  0.4595  0.3845  0.7955
  893MPD2    H513148   4.569   4.503   1.611  0.2920  1.2137 -0.6908
  893MPD2    N113149   0.194   4.066   1.523 -0.5421  0.2142  0.3018
  893MPD2    H713150   0.285   4.042   1.560  0.2847  1.5713 -0.8992
  894MPD2     C13151   3.345   1.136   1.492  0.4929 -0.1007  0.1835
  894MPD2    C113152   3.235   1.215   1.512  0.7720  0.4134  0.4614
  894MPD2    C213153   3.255   1.342   1.569 -0.4572 -0.3722 -0.5604
  894MPD2    C313154   3.383   1.398   1.583 -0.4059  0.0756  0.3292
  894MPD2    C413155   3.493   1.322   1.541 -0.3041  0.2064  0.2267
  894MPD2    C513156   3.468   1.188   1.513  0.3319 -0.3343  0.1410
  894MPD2     H13157   3.166   1.397   1.600  0.5317  0.7226  0.3320
  894MPD2    H113158   3.595   1.358   1.552 -0.1093  0.2945 -1.7686
  894MPD2    H213159   3.334   1.038   1.445 -2.1572  0.3690 -0.1991
  894MPD2    H313160   3.557   1.139   1.476  0.9672  0.4806  0.5974
  894MPD2     N13161   3.417   1.525   1.627  0.3174  0.3294  0.2984
  894MPD2    H513162   3.515   1.547   1.634 -0.2517  2.5045  1.5975
  894MPD2    N113163   3.100   1.174   1.489 -0.2228  0.5940  0.7561
  894MPD2    H713164   3.033   1.236   1.533  0.6691  1.5028  0.8264
  895MPD2     C13165   2.386   3.908  13.711  0.0536 -0.3800 -0.5304
  895MPD2    C113166   2.306   3.816  13.656 -0.5356 -0.3155  0.4322
  895MPD2    C213167   2.362   3.691  13.606 -0.4767  0.0734 -0.6122
  895MPD2    C313168   2.489   3.663  13.636 -0.5177  0.0124  1.0093
  895MPD2    C413169   2.574   3.756  13.691  0.1245  0.1620 -0.3390
  895MPD2    C513170   2.520   3.881  13.723 -0.6691  0.8820 -0.2518
  895MPD2     H13171   2.303   3.605  13.577 -0.9099 -0.3267  1.4724
  895MPD2    H113172   2.679   3.735  13.710 -0.3262 -1.4169  0.4206
  895MPD2    H213173   2.353   4.008  13.738  1.0702 -0.5432  1.2796
  895MPD2    H313174   2.573   3.963  13.769 -1.1608  0.5696  0.8846
  895MPD2     N13175   2.520   3.523  13.614 -0.2904 -0.2783 -0.5265
  895MPD2    H513176   2.457   3.479  13.548  0.1683 -0.3974 -0.8836
  895MPD2    N113177   2.166   3.841  13.634  0.0652 -0.0792  0.7880
  895MPD2    H713178   2.106   3.763  13.609 -1.1765  2.1845 -3.3212
  896MPD2     C13179   0.271   2.171   1.464 -0.4226  0.1479 -0.1067
  896MPD2    C113180   0.177   2.174   1.359  0.1974 -0.3885 -0.6270
  896MPD2    C213181   0.047   2.132   1.379  0.3470  0.1701 -0.3419
  896MPD2    C313182   0.006   2.094   1.497 -0.4637  0.2553  0.6085
  896MPD2    C413183   0.098   2.095   1.601  0.0287  0.6853  0.5137
  896MPD2    C513184   0.229   2.141   1.589 -0.6396 -0.7893  0.3253
  896MPD2     H13185   4.711   2.137   1.301 -1.6282 -0.7300  1.5054
  896MPD2    H113186   0.074   2.066   1.703 -0.0142  3.4704  1.2947
  896MPD2    H213187   0.374   2.200   1.448 -0.2466 -0.1734  0.4372
  896MPD2    H313188   0.299   2.138   1.672  1.0040 -0.9680 -1.0724
  896MPD2     N13189   4.615   2.041   1.510  0.1162 -0.7984  0.8125
  896MPD2    H513190   4.553   2.035   1.430 -0.2418 -1.0223  1.1108
  896MPD2    N113191   0.233   2.216   1.234 -0.6678  0.5108  0.0304
  896MPD2    H713192   0.333   2.232   1.229 -0.1813 -2.5866 -0.4633
  897MPD2     C13193   1.739   3.396  10.784  0.7517 -0.2744  0.9476
  897MPD2    C113194   1.643   3.478  10.734 -0.3110 -0.7151  0.2500
  897MPD2    C213195   1.514   3.460  10.779 -1.1325  0.3323 -0.2759
  897MPD2    C313196   1.482   3.358  10.867  0.1524  0.0872  0.0345
  897MPD2    C413197   1.584   3.277  10.921  0.1644 -0.9720  0.2480
  897MPD2    C513198   1.712   3.293  10.873 -0.0520  0.4511  0.0883
  897MPD2     H13199   1.435   3.534  10.771 -0.1130  1.2449 -1.8680
  897MPD2    H113200   1.561   3.194  10.987  1.7889 -0.6911  1.1642
  897MPD2    H213201   1.837   3.392  10.738  1.3378  0.9340  2.0800
  897MPD2    H313202   1.788   3.226  10.912 -1.3548 -2.2410 -1.9173
  897MPD2     N13203   1.344   3.344  10.908  0.1489 -0.2421 -0.5043
  897MPD2    H513204   1.282   3.421  10.884 -1.0907 -1.4134 -1.0867
  897MPD2    N113205   1.688   3.575  10.644  0.5344 -0.1827  0.4457
  897MPD2    H713206   1.783   3.580  10.608  0.2992 -0.7607 -0.2424
  898MPD2     C13207   1.873   4.280   0.134  0.5344  0.0084  0.2026
  898MPD2    C113208   1.961   4.181   0.158  0.2602 -0.5364 -0.5350
  898MPD2    C213209   2.090   4.216   0.187  0.1164  0.0389 -0.7871
  898MPD2    C313210   2.131   4.343   0.186 -0.2020 -0.7133 -0.5680
  898MPD2    C413211   2.046   4.439   0.147 -0.2279 -0.1394  0.8632
  898MPD2    C513212   1.920   4.407   0.121  0.0313 -0.1082 -0.5603
  898MPD2     H13213   2.160   4.141   0.223 -2.2365 -0.9696  1.6167
  898MPD2    H113214   2.072   4.543   0.128  0.9450 -0.5120  0.4572
  898MPD2    H213215   1.767   4.258   0.128  0.0769  1.7730  1.7463
  898MPD2    H313216   1.856   4.488   0.090 -1.3821 -0.0348  2.5708
  898MPD2     N13217   2.266   4.366   0.227 -0.6923 -0.2359 -0.2399
  898MPD2    H513218   2.334   4.291   0.231  0.5932  1.0027  1.3195
  898MPD2    N113219   1.940   4.042   0.174 -0.0394 -0.0278 -0.2627
  898MPD2    H713220   2.021   3.985   0.192  0.3120 -0.1520 -2.2821
  899MPD2     C13221   3.938   0.049   0.172 -0.2701  0.3107 -0.1129
  899MPD2    C113222   3.949   0.178   0.208  0.2966  0.8230  0.8821
  899MPD2    C213223   3.920   0.205   0.341 -0.2181 -0.0110  0.4284
  899MPD2    C313224   3.894   0.109   0.432 -0.3054  0.1152 -0.1297
  899MPD2    C413225   3.876   4.712   0.390 -0.1284 -1.3562 -0.6212
  899MPD2    C513226   3.891   4.688   0.258 -0.4322 -0.0236  0.5252
  899MPD2     H13227   3.920   0.311   0.362 -1.7492  0.0916 -0.0339
  899MPD2    H113228   3.845   4.633   0.458 -1.7243 -0.7421 -0.6312
  899MPD2    H213229   3.956   0.029   0.067  1.1293  0.6248  0.0694
  899MPD2    H313230   3.874   4.586   0.224  1.2438  0.1166 -0.7077
  899MPD2     N13231   3.880   0.128   0.570 -0.3117 -0.6047 -0.0315
  899MPD2    H513232   3.856   0.050   0.631  0.8758 -1.0903 -0.1788
  899MPD2    N113233   3.975   0.275   0.108  0.3110 -0.7194 -0.4218
  899MPD2    H713234   3.992   0.245   0.013 -0.0220 -0.2493 -0.6319
  900MPD2     C13235   4.324   1.633  12.746  0.4568  0.6630  0.7498
  900MPD2    C113236   4.212   1.559  12.793  0.1593 -0.1987  0.4683
  900MPD2    C213237   4.079   1.611  12.770  0.3929 -0.7496  0.5004
  900MPD2    C313238   4.070   1.736  12.702 -0.0339 -0.4947 -0.3724
  900MPD2    C413239   4.182   1.789  12.645  0.2152 -0.3361 -0.3060
  900MPD2    C513240   4.308   1.740  12.665  0.0266  0.5706  0.3860
  900MPD2     H13241   3.988   1.562  12.803  0.7849 -1.3344  0.7165
  900MPD2    H113242   4.180   1.882  12.590  0.3688  0.5332  1.1543
  900MPD2    H213243   4.425   1.598  12.763  0.2825  0.1885  0.8201
  900MPD2    H313244   4.390   1.791  12.616  1.5771 -0.8786  1.4398
  900MPD2     N13245   3.939   1.788  12.676 -0.3097 -0.0475 -0.5009
  900MPD2    H513246   3.861   1.739  12.720 -0.0315  0.5577  0.6732
  900MPD2    N113247   4.244   1.434  12.844  0.1750 -0.1693 -0.6051
  900MPD2    H713248   4.339   1.407  12.823  1.1257  0.7056  2.5777
  901MPD2     C13249   4.043   0.387  13.085  0.0953  0.7851 -0.2671
  901MPD2    C113250   4.170   0.405  13.025 -0.2140 -0.5461  0.2372
  901MPD2    C213251   4.200   0.535  12.985  0.1283 -0.6664 -0.0648
  901MPD2    C313252   4.114   0.643  12.991  0.1564 -0.5953  0.4274
  901MPD2    C413253   3.988   0.614  13.036  0.4637 -0.4059 -0.7710
  901MPD2    C513254   3.945   0.489  13.077 -0.4036 -0.6234  0.2077
  901MPD2     H13255   4.293   0.566  12.938 -1.5879  2.5918 -1.3234
  901MPD2    H113256   3.909   0.688  13.038  0.7446 -0.1218 -0.2983
  901MPD2    H213257   4.013   0.294  13.132 -0.7287 -0.0691 -2.4651
  901MPD2    H313258   3.841   0.483  13.108 -1.0117  0.9630 -1.4927
  901MPD2     N13259   4.160   0.761  12.934  0.1762 -0.2387 -0.2354
  901MPD2    H513260   4.253   0.763  12.895 -0.0177 -1.9301 -0.7869
  901MPD2    N113261   4.261   0.303  13.035  0.2787  0.2805 -0.0127
  901MPD2    H713262   4.236   0.217  13.083 -1.0165  0.7807  0.2220
  902MPD2     C13263   2.558   4.421  13.492 -0.6037 -0.2827  0.4827
  902MPD2    C113264   2.543   4.461  13.361 -0.0912 -0.0120 -0.3835
  902MPD2    C213265   2.539   4.354  13.271  0.7994 -0.0583 -0.0894
  902MPD2    C313266   2.557   4.220  13.305 -0.7370 -0.6341 -0.7009
  902MPD2    C413267   2.564   4.189  13.438  0.0522 -0.1495  0.9977
  902MPD2    C513268   2.564   4.289  13.533  0.1259  0.1359 -0.7713
  902MPD2     H13269   2.534   4.391  13.170 -1.9213 -1.3158 -0.4122
  902MPD2    H113270   2.575   4.086  13.472 -3.3977 -0.7648  0.1937
  902MPD2    H213271   2.559   4.494  13.572 -1.8963  1.3968 -1.0388
  902MPD2    H313272   2.561   4.265  13.639 -2.9841  0.8967 -0.7084
  902MPD2     N13273   2.550   4.112  13.210 -0.1088  0.0614 -0.6572
  902MPD2    H513274   2.528   4.021  13.248  0.9483  0.2441  0.3906
  902MPD2    N113275   2.537   4.595  13.333 -0.3401 -0.9252 -0.9197
  902MPD2    H713276   2.555   4.663  13.406  2.7818 -1.4116 -1.2361
  903MPD2     C13277   2.621   3.891  12.386 -0.9630  0.3090 -0.8966
  903MPD2    C113278   2.504   3.930  12.449 -0.0961 -0.6367  0.6304
  903MPD2    C213279   2.407   4.008  12.385 -0.8514 -0.6945  0.1760
  903MPD2    C313280   2.425   4.043  12.252 -0.0107  0.6140  0.0268
  903MPD2    C413281   2.549   4.017  12.199 -0.0881  0.3770  0.4659
  903MPD2    C513282   2.648   3.943  12.265 -0.1719 -0.3231 -0.0953
  903MPD2     H13283   2.317   4.050  12.429 -1.2713 -1.0435 -0.3560
  903MPD2    H113284   2.578   4.059  12.103  0.5099 -0.7073  0.1685
  903MPD2    H213285   2.700   3.834  12.434 -0.6200  0.1951 -1.5930
  903MPD2    H313286   2.747   3.939  12.222  0.5459  1.5974  1.3790
  903MPD2     N13287   2.323   4.116  12.186 -0.3174 -0.5379  0.6734
  903MPD2    H513288   2.238   4.140  12.237 -0.6653 -1.4820  0.5367
  903MPD2    N113289   2.477   3.886  12.580 -0.1145 -0.2055 -0.1372
  903MPD2    H713290   2.543   3.826  12.628  3.4171  2.6894 -1.2808
  904MPD2     C13291   2.385   3.374  14.120  0.5024 -0.3291  0.1280
  904MPD2    C113292   2.403   3.386  14.255  0.3260  0.2713  1.0435
  904MPD2    C213293   2.505   3.463  14.303 -0.5119 -0.2220  0.2665
  904MPD2    C313294   2.600   3.521  14.219 -0.5792  0.2453  0.0131
  904MPD2    C413295   2.586   3.501  14.083  0.4810  0.0858 -1.0719
  904MPD2    C513296   2.486   3.424  14.043  0.0772  0.2998 -0.0566
  904MPD2     H13297   2.508   3.483  14.409  0.5874 -1.4260  0.4629
  904MPD2    H113298   2.659   3.530  14.008  1.0564 -0.2805 -0.6609
  904MPD2    H213299   2.299   3.322  14.080  1.7410 -0.4310 -2.3741
  904MPD2    H313300   2.476   3.402  13.937  0.0339  0.1753 -0.0267
  904MPD2     N13301   2.709   3.588  14.280  0.4338 -0.3532 -0.0143
  904MPD2    H513302   2.716   3.580  14.381  0.7272  0.4944  0.0325
  904MPD2    N113303   2.323   3.304  14.341  0.3744 -0.6704  0.6558
  904MPD2    H713304   2.356   3.297  14.437  1.1038 -0.9022  0.3878
  905MPD2     C13305   1.912   3.234  13.557  0.4597 -0.6002 -0.0760
  905MPD2    C113306   1.990   3.178  13.661 -0.0508  0.4981 -0.3550
  905MPD2    C213307   2.111   3.123  13.621  0.1823 -0.2270  0.9188
  905MPD2    C313308   2.154   3.140  13.493  0.9514 -1.2917  0.0682
  905MPD2    C413309   2.084   3.196  13.398  0.0754  0.2341 -0.6551
  905MPD2    C513310   1.953   3.229  13.423 -0.0970  0.0671  0.1378
  905MPD2     H13311   2.178   3.083  13.696  1.4791 -2.5285 -1.4779
  905MPD2    H113312   2.132   3.198  13.301 -0.0870  0.5693 -0.7276
  905MPD2    H213313   1.812   3.275  13.573 -0.3638 -2.4532 -0.4283
  905MPD2    H313314   1.886   3.286  13.360 -1.4391 -0.3585  1.1835
  905MPD2     N13315   2.296   3.125  13.466 -0.3457 -0.6266  0.0385
  905MPD2    H513316   2.338   3.163  13.382 -1.9738 -1.9051 -1.3693
  905MPD2    N113317   1.948   3.193  13.796 -0.0216 -0.6592  0.2186
  905MPD2    H713318   1.850   3.213  13.817  0.1994  0.2743  0.3391
  906MPD2     C13319   0.221   3.406  11.346 -0.2436 -0.5024  0.7107
  906MPD2    C113320   0.114   3.403  11.259 -0.5512  0.5315 -0.0108
  906MPD2    C213321   0.006   3.320  11.288 -0.0275  0.0220  0.6516
  906MPD2    C313322   0.000   3.248  11.406 -0.6232 -0.3003 -0.7037
  906MPD2    C413323   0.107   3.261  11.494  1.1871 -0.2204 -0.0834
  906MPD2    C513324   0.212   3.338  11.462  0.3735  1.3628 -0.3925
  906MPD2     H13325   4.659   3.333  11.224  1.3835 -2.1963 -1.6835
  906MPD2    H113326   0.110   3.206  11.587 -0.2084  1.1110  0.7522
  906MPD2    H213327   0.309   3.469  11.333 -0.7982 -0.1609 -1.3673
  906MPD2    H313328   0.292   3.337  11.534  1.7425 -0.9588 -1.9566
  906MPD2     N13329   4.623   3.187  11.462 -0.2209  0.5443  0.3221
  906MPD2    H513330   4.623   3.141  11.552  2.2148  0.9401  0.5021
  906MPD2    N113331   0.108   3.482  11.140 -0.5125 -0.2094  0.4948
  906MPD2    H713332   0.044   3.457  11.066 -1.0177 -1.0778  1.2262
  907MPD2     C13333   3.926   2.897  15.828 -0.5278 -0.1534 -0.1455
  907MPD2    C113334   3.821   2.797  15.816 -0.8580 -0.5591 -0.4082
  907MPD2    C213335   3.827   2.688  15.898 -0.7368  0.2286  0.2536
  907MPD2    C313336   3.931   2.679  15.986 -0.2734 -0.3013 -0.4650
  907MPD2    C413337   4.024   2.776  16.000  0.2519  0.0433  0.3041
  907MPD2    C513338   4.023   2.889  15.930  0.6157 -0.5253 -0.7428
  907MPD2     H13339   3.764   2.601  15.883  1.5543 -1.1214 -1.5169
  907MPD2    H113340   4.115   2.749  16.052  1.2510  0.8419 -1.0097
  907MPD2    H213341   3.935   2.984  15.763  1.4141  2.3534  3.4837
  907MPD2    H313342   4.098   2.966  15.929  1.1865 -1.0805 -0.5016
  907MPD2     N13343   3.937   2.558  16.059 -0.0746  0.3074 -0.1132
  907MPD2    H513344   3.871   2.483  16.040  1.1575 -0.7659 -0.1722
  907MPD2    N113345   3.713   2.794  15.728  0.4296  0.3743  0.0211
  907MPD2    H713346   3.662   2.707  15.740 -0.8994  1.1933  0.4420
  908MPD2     C13347   1.336   3.799   9.747  0.5922  0.1033 -0.1180
  908MPD2    C113348   1.292   3.723   9.847 -0.1340 -0.1475  0.1553
  908MPD2    C213349   1.353   3.728   9.976  0.3103 -0.3703  0.2110
  908MPD2    C313350   1.452   3.818  10.000  0.7298 -0.2128 -0.4418
  908MPD2    C413351   1.492   3.902   9.900  0.2653  0.2294 -0.2858
  908MPD2    C513352   1.441   3.882   9.777 -0.0105 -0.2169  0.2121
  908MPD2     H13353   1.303   3.669  10.052  0.3454  0.0914  0.5937
  908MPD2    H113354   1.580   3.965   9.900 -0.3297  1.0741  2.2663
  908MPD2    H213355   1.311   3.786   9.643 -1.2357  1.4331  0.1484
  908MPD2    H313356   1.486   3.936   9.695  1.2268 -0.7675  0.5202
  908MPD2     N13357   1.504   3.828  10.126  0.3802 -0.1063 -0.1760
  908MPD2    H513358   1.487   3.753  10.193  2.0671 -1.1626 -0.9384
  908MPD2    N113359   1.180   3.631   9.821 -0.0411 -0.3372  0.0568
  908MPD2    H713360   1.129   3.632   9.734  1.0913  0.0462 -0.5940
  909MPD2     C13361   1.971   1.344  12.031  0.0468 -1.1818  0.3537
  909MPD2    C113362   1.955   1.476  11.981 -0.0676  0.5375  0.6896
  909MPD2    C213363   1.900   1.562  12.070  0.5676  0.0685  0.0321
  909MPD2    C313364   1.868   1.529  12.203 -0.9079  0.1926  0.5091
  909MPD2    C413365   1.882   1.403  12.253  0.1100  0.0085 -0.0398
  909MPD2    C513366   1.927   1.312  12.156  0.2308  0.2320 -0.8333
  909MPD2     H13367   1.893   1.666  12.041  1.4520 -0.3507 -1.6782
  909MPD2    H113368   1.855   1.370  12.353  0.6943 -2.5111 -0.7341
  909MPD2    H213369   2.005   1.266  11.963  0.2462  0.3886 -1.3197
  909MPD2    H313370   1.927   1.207  12.185 -3.4188 -0.0644 -1.8956
  909MPD2     N13371   1.806   1.623  12.288 -0.0741  0.9947  0.0924
  909MPD2    H513372   1.771   1.702  12.235  1.4908  0.4876 -1.7142
  909MPD2    N113373   1.994   1.515  11.851  0.7137 -1.2483 -0.9992
  909MPD2    H713374   2.024   1.611  11.834  0.2325 -1.4247 -2.8423
  910MPD2     C13375   2.693   3.192  15.920 -0.6438 -0.0767 -0.0418
  910MPD2    C113376   2.820   3.140  15.904  0.6292 -0.6480 -0.0796
  910MPD2    C213377   2.871   3.137  15.777  0.2371  0.6109 -0.8589
  910MPD2    C313378   2.812   3.204  15.669  0.0150  0.7333  0.6067
  910MPD2    C413379   2.695   3.269  15.695  0.3108  0.1511  0.5401
  910MPD2    C513380   2.629   3.254  15.816 -0.4064 -0.3433 -0.0369
  910MPD2     H13381   2.967   3.088  15.770  0.2749  0.5336  0.2505
  910MPD2    H113382   2.648   3.316  15.609  1.5116  1.2334  0.4687
  910MPD2    H213383   2.641   3.180  16.015  0.9600 -1.9421  0.6055
  910MPD2    H313384   2.530   3.298  15.817 -0.7110 -1.0397  1.3388
  910MPD2     N13385   2.885   3.235  15.557 -0.1724  0.3406 -0.3315
  910MPD2    H513386   2.855   3.321  15.513  0.8244  1.1671  0.5976
  910MPD2    N113387   2.883   3.066  16.004  0.1036  0.0434  0.5014
  910MPD2    H713388   2.964   3.012  15.975 -0.4973  0.8323 -2.6607
  911MPD2     C13389   0.662   3.796  16.014 -0.5158  0.5251  0.9497
  911MPD2    C113390   0.682   3.843  16.141 -0.2426  0.4239  0.2365
  911MPD2    C213391   0.594   3.931  16.195  0.5093 -0.3726 -0.7864
  911MPD2    C313392   0.486   3.964  16.114  0.4038  0.1252  0.6623
  911MPD2    C413393   0.468   3.920  15.984 -0.6983 -0.4091 -0.2570
  911MPD2    C513394   0.562   3.832  15.933  0.6136 -0.0778 -0.1529
  911MPD2     H13395   0.616   3.955  16.298  1.7798  1.3347 -1.4568
  911MPD2    H113396   0.388   3.952  15.919  1.0399  3.1799 -0.6399
  911MPD2    H213397   0.727   3.720  15.973 -1.4111 -1.0308  2.4010
  911MPD2    H313398   0.550   3.799  15.831 -0.3103 -0.8606  0.2127
  911MPD2     N13399   0.379   4.043  16.160 -0.2231 -0.4763 -0.6752
  911MPD2    H513400   0.294   4.040  16.105  0.1282  1.3298 -1.3252
  911MPD2    N113401   0.788   3.782  16.209 -0.1007 -0.1406 -0.3580
  911MPD2    H713402   0.845   3.718  16.156  0.1583 -0.8136  0.7269
  912MPD2     C13403   0.116   3.965  15.705 -0.3835 -0.7900  0.5874
  912MPD2    C113404   0.098   3.942  15.840  0.5602  0.3992  0.2854
  912MPD2    C213405   0.146   3.828  15.899 -0.9153 -0.7707 -0.4873
  912MPD2    C313406   0.221   3.738  15.826  0.2056 -0.4272 -0.2065
  912MPD2    C413407   0.230   3.754  15.687 -0.0023 -0.1317  0.3891
  912MPD2    C513408   0.182   3.871  15.632 -0.6181 -0.4128 -0.2025
  912MPD2     H13409   0.151   3.816  16.006  1.8745  0.5667 -0.4582
  912MPD2    H113410   0.289   3.688  15.624  1.9154  2.0006 -0.0575
  912MPD2    H213411   0.090   4.058  15.655  2.2009 -0.2558  0.2376
  912MPD2    H313412   0.208   3.887  15.529 -0.1331 -1.0026 -0.1746
  912MPD2     N13413   0.271   3.629  15.897 -0.2009 -0.2493 -0.0772
  912MPD2    H513414   0.248   3.628  15.995 -3.8549  0.8308 -0.9423
  912MPD2    N113415   0.060   4.061  15.910 -0.1599 -0.7892  0.5021
  912MPD2    H713416   0.067   4.149  15.860  0.0860 -0.0221  1.9090
  913MPD2     C13417   1.909   0.917  10.647 -0.0546 -0.0279  0.1588
  913MPD2    C113418   1.812   0.830  10.604  0.4749 -0.8853 -0.8016
  913MPD2    C213419   1.760   0.832  10.471 -0.2660 -0.3768  0.2327
  913MPD2    C313420   1.819   0.928  10.390 -0.0807 -0.3524 -0.3413
  913MPD2    C413421   1.921   1.015  10.434  0.2412  0.0665 -0.0804
  913MPD2    C513422   1.961   1.018  10.570 -0.1691 -0.7218  0.4391
  913MPD2     H13423   1.679   0.769  10.437 -0.4266 -0.0944  0.0925
  913MPD2    H113424   1.970   1.085  10.368  0.9117 -1.0622 -0.7765
  913MPD2    H213425   1.955   0.898  10.744 -0.6253  2.4630  0.9020
  913MPD2    H313426   2.044   1.076  10.609 -2.3116  1.3753  1.8931
  913MPD2     N13427   1.775   0.947  10.255 -0.1199  0.2879  0.0963
  913MPD2    H513428   1.818   1.027  10.210  1.2483  0.7944  2.2907
  913MPD2    N113429   1.763   0.738  10.698  0.2921 -0.0980  0.2498
  913MPD2    H713430   1.789   0.763  10.793  0.6855  0.0218  0.1081
  914MPD2     C13431   4.116   0.494  12.379  0.0016 -0.3377  0.3594
  914MPD2    C113432   4.200   0.545  12.479  0.1176  1.2189 -0.1938
  914MPD2    C213433   4.264   0.459  12.561 -0.0452  0.2840  0.0569
  914MPD2    C313434   4.249   0.322  12.554  0.2644 -1.0782 -0.0903
  914MPD2    C413435   4.173   0.269  12.449  0.2168  0.0081  0.5725
  914MPD2    C513436   4.103   0.357  12.367 -0.3706  0.5643  0.3350
  914MPD2     H13437   4.309   0.497  12.652  0.0633  0.2430  0.0194
  914MPD2    H113438   4.156   0.163  12.434 -2.6832  0.1546  2.8387
  914MPD2    H213439   4.049   0.553  12.317  0.4530 -0.0744  0.1162
  914MPD2    H313440   4.043   0.311  12.291  0.4535  3.6036 -2.1646
  914MPD2     N13441   4.312   0.241  12.651 -0.3303 -0.4355 -0.2158
  914MPD2    H513442   4.360   0.281  12.731 -1.1947 -0.1146  0.1345
  914MPD2    N113443   4.204   0.687  12.494  0.3567  0.2182  0.3538
  914MPD2    H713444   4.146   0.742  12.431  0.4003  0.2416  0.3340
  915MPD2     C13445   1.849   0.346  15.966  0.7643 -0.4883  0.2128
  915MPD2    C113446   1.728   0.366  15.900  0.1469  0.1731 -0.1838
  915MPD2    C213447   1.618   0.401  15.977 -0.2535  0.2302  0.6295
  915MPD2    C313448   1.624   0.403  16.109 -0.8504  0.0199 -0.5305
  915MPD2    C413449   1.742   0.389  16.176  0.6784  0.6702 -0.0671
  915MPD2    C513450   1.861   0.365  16.101 -0.0049  0.8096 -0.3335
  915MPD2     H13451   1.519   0.412  15.935 -0.1966 -2.2277 -0.1633
  915MPD2    H113452   1.751   0.397  16.283 -1.2748  0.0969  0.1455
  915MPD2    H213453   1.934   0.327  15.901 -0.7381 -1.7287 -1.3942
  915MPD2    H313454   1.961   0.354  16.142  0.2040 -2.2713 -1.7193
  915MPD2     N13455   1.513   0.446  16.179  0.6146 -0.0239 -0.3153
  915MPD2    H513456   1.427   0.471  16.131 -0.1858  4.2616  3.3632
  915MPD2    N113457   1.716   0.351  15.762 -0.5427 -0.4538 -0.4442
  915MPD2    H713458   1.792   0.310  15.708 -0.0708  1.7825 -1.4749
  916MPD2     C13459   4.671   3.554  15.956  0.8499 -0.7374 -0.4217
  916MPD2    C113460   4.676   3.449  16.044  0.6836  0.8323 -0.3804
  916MPD2    C213461   4.712   3.320  16.011  0.1106 -0.0795 -0.7620
  916MPD2    C313462   0.001   3.293  15.875 -0.3972  0.1924 -0.2874
  916MPD2    C413463   0.007   3.401  15.786  0.1091 -0.1452  0.2404
  916MPD2    C513464   4.718   3.531  15.828  0.1014  0.0288  0.0702
  916MPD2     H13465   4.718   3.247  16.090 -1.4101 -0.5180 -1.0516
  916MPD2    H113466   0.022   3.385  15.679 -0.4611  0.5917  0.0467
  916MPD2    H213467   4.647   3.656  15.981 -0.8493 -1.7269  1.9701
  916MPD2    H313468   4.734   3.613  15.759 -1.7451  0.3473  0.0197
  916MPD2     N13469   4.737   3.156  15.833 -0.1966 -0.0461  0.2770
  916MPD2    H513470   4.722   3.089  15.908  2.9046 -2.1956 -1.0259
  916MPD2    N113471   4.628   3.484  16.173 -0.4954  0.4520  0.8897
  916MPD2    H713472   4.600   3.580  16.188  0.8905  0.9455  0.2904
  917MPD2     C13473   0.772   1.321  11.179  0.9724  0.2464 -0.0591
  917MPD2    C113474   0.793   1.397  11.294  0.3266  0.6194 -0.0934
  917MPD2    C213475   0.851   1.520  11.285 -0.5644 -0.3413 -0.3048
  917MPD2    C313476   0.896   1.571  11.163 -0.0108 -0.7758 -0.0693
  917MPD2    C413477   0.873   1.490  11.050  0.5697 -0.2997 -0.0832
  917MPD2    C513478   0.816   1.365  11.059  0.4970  0.2063 -0.3338
  917MPD2     H13479   0.857   1.588  11.370 -4.2299 -0.4319  0.0091
  917MPD2    H113480   0.903   1.529  10.953 -0.2233  2.1036  0.6231
  917MPD2    H213481   0.720   1.226  11.178 -0.8911  1.2924 -1.5442
  917MPD2    H313482   0.794   1.306  10.971 -2.3461  0.5635  0.1302
  917MPD2     N13483   0.950   1.705  11.149  0.0943  0.0442  1.4151
  917MPD2    H513484   0.951   1.738  11.053  1.6108 -0.6347  1.2038
  917MPD2    N113485   0.726   1.350  11.408  0.7234 -0.2070 -0.4688
  917MPD2    H713486   0.649   1.284  11.399 -0.4336  1.2185 -0.9238
  918MPD2     C13487   0.569   1.699  12.396 -0.3495 -0.0343 -0.0090
  918MPD2    C113488   0.690   1.672  12.329 -0.5132 -0.1507  0.1281
  918MPD2    C213489   0.690   1.615  12.199  0.5924 -0.4259 -0.5635
  918MPD2    C313490   0.569   1.591  12.133 -0.3091 -0.2789 -0.3213
  918MPD2    C413491   0.452   1.620  12.196 -0.0405  0.6118 -0.7276
  918MPD2    C513492   0.454   1.664  12.325  0.2468 -0.2123  0.0940
  918MPD2     H13493   0.783   1.583  12.152  1.5720 -2.9848  3.1515
  918MPD2    H113494   0.357   1.604  12.147 -0.2072 -2.2824  0.5578
  918MPD2    H213495   0.549   1.750  12.489 -1.2600 -0.4960  0.0456
  918MPD2    H313496   0.360   1.692  12.372 -0.0035 -0.1772 -0.4286
  918MPD2     N13497   0.572   1.534  12.000 -0.1518 -0.2043  0.0066
  918MPD2    H513498   0.662   1.532  11.952  1.1129 -2.1675  2.4440
  918MPD2    N113499   0.817   1.697  12.388 -0.9521 -0.5960  0.2185
  918MPD2    H713500   0.897   1.674  12.331 -0.9435  0.2318 -0.1060
  919MPD2     C13501   1.327   0.259  12.077 -0.0069  0.1485 -0.1330
  919MPD2    C113502   1.257   0.150  12.022  0.1646  0.2145 -0.2626
  919MPD2    C213503   1.244   0.141  11.891 -0.8310  0.3842 -0.1717
  919MPD2    C313504   1.317   0.218  11.801 -0.6290 -0.2761 -0.6034
  919MPD2    C413505   1.385   0.326  11.854 -0.2745 -0.1029 -0.1741
  919MPD2    C513506   1.388   0.348  11.988 -0.5150  0.2140  0.3584
  919MPD2     H13507   1.180   0.061  11.854 -2.6250  0.4304  2.8174
  919MPD2    H113508   1.443   0.397  11.795  1.2756 -1.5692 -0.4179
  919MPD2    H213509   1.364   0.268  12.179  0.6446  0.4038 -0.3912
  919MPD2    H313510   1.450   0.432  12.018  0.2611  0.1157 -0.9808
  919MPD2     N13511   1.332   0.186  11.665  0.6519 -0.2656  0.2236
  919MPD2    H513512   1.375   0.253  11.602 -1.0020  1.0847  0.5092
  919MPD2    N113513   1.210   0.040  12.102  0.2326  0.1322 -0.4611
  919MPD2    H713514   1.160   4.703  12.057  0.4117  0.1648 -0.7171
  920MPD2     C13515   1.133   0.448  10.712  0.3882 -0.1053  0.4713
  920MPD2    C113516   1.082   0.322  10.723  0.5306  0.3024  1.0395
  920MPD2    C213517   1.114   0.241  10.829  0.7948  0.5486 -0.5006
  920MPD2    C313518   1.186   0.286  10.931 -0.5063  0.7963  0.5052
  920MPD2    C413519   1.238   0.413  10.919  0.7410 -0.5217  0.4209
  920MPD2    C513520   1.220   0.495  10.808  0.1176  0.0224  0.6329
  920MPD2     H13521   1.055   0.151  10.843  1.4409 -0.0138 -1.3897
  920MPD2    H113522   1.305   0.463  10.989 -0.9471  0.3438  1.4140
  920MPD2    H213523   1.113   0.515  10.629 -0.0093  1.9199  2.2141
  920MPD2    H313524   1.260   0.595  10.811 -0.5387  0.3447 -1.7131
  920MPD2     N13525   1.226   0.203  11.043 -0.6581 -0.1083 -0.0414
  920MPD2    H513526   1.201   0.104  11.044 -0.6758 -0.1126 -0.7959
  920MPD2    N113527   0.989   0.274  10.626 -1.1643  0.3517  0.2409
  920MPD2    H713528   0.959   0.179  10.647 -1.7622  0.6848  0.9124
  921MPD2     C13529   1.486   3.911  16.865 -0.5488  0.1355 -0.1805
  921MPD2    C113530   1.479   3.879  16.732 -0.1195 -0.4359  0.8454
  921MPD2    C213531   1.375   3.805  16.682  0.4128 -0.2753  0.4073
  921MPD2    C313532   1.264   3.780  16.758 -0.5402 -0.0382  0.1884
  921MPD2    C413533   1.271   3.815  16.892 -0.2770 -0.6288  0.2217
  921MPD2    C513534   1.377   3.882  16.948 -0.0565  0.2145  0.1061
  921MPD2     H13535   1.383   3.778  16.577  2.7278  1.1279  0.2143
  921MPD2    H113536   1.192   3.791  16.962  1.0925 -1.4383  1.4911
  921MPD2    H213537   1.571   3.968  16.901 -1.8462  1.6459  0.4793
  921MPD2    H313538   1.371   3.902  17.054  1.4999 -1.3652  0.5030
  921MPD2     N13539   1.150   3.713  16.707 -0.7977  0.2711  0.5344
  921MPD2    H513540   1.068   3.700  16.765 -2.5433 -0.6038 -2.1496
  921MPD2    N113541   1.592   3.918  16.656  0.4631 -0.2513 -0.1800
  921MPD2    H713542   1.654   3.984  16.702  1.6808 -0.8590 -0.9389
  922MPD2     C13543   2.198   1.620  17.487 -0.3585 -0.5641 -0.1830
  922MPD2    C113544   2.096   1.640  17.579  0.4486 -0.4825 -0.4286
  922MPD2    C213545   1.974   1.588  17.553 -0.2302 -0.4857  1.0735
  922MPD2    C313546   1.949   1.515  17.434  0.4351  0.1659  0.0527
  922MPD2    C413547   2.050   1.513  17.339 -0.0876 -0.1893  0.4813
  922MPD2    C513548   2.173   1.564  17.367 -0.5184 -0.3466 -0.4691
  922MPD2     H13549   1.899   1.590  17.631  0.1521 -1.8508  1.4648
  922MPD2    H113550   2.048   1.463  17.243 -0.6485 -2.4527  1.6905
  922MPD2    H213551   2.295   1.663  17.509 -1.0907  0.2401  1.4717
  922MPD2    H313552   2.256   1.562  17.297 -1.7921 -0.3321 -1.9619
  922MPD2     N13553   1.821   1.457  17.410 -0.5853 -0.1238 -0.4506
  922MPD2    H513554   1.744   1.489  17.468 -0.8814 -1.1232 -0.2933
  922MPD2    N113555   2.119   1.711  17.698 -0.2433 -0.3099  0.1090
  922MPD2    H713556   2.040   1.751  17.748  1.0239  1.3964  0.7600
  923MPD2     C13557   4.036   3.183   9.745 -0.2426  0.0742 -0.1284
  923MPD2    C113558   4.061   3.313   9.711  0.1038 -1.1495 -0.0581
  923MPD2    C213559   4.153   3.376   9.786 -0.0225  0.6886 -0.0479
  923MPD2    C313560   4.217   3.315   9.896  0.4684 -0.3811 -0.5810
  923MPD2    C413561   4.193   3.185   9.928 -0.2437 -0.4172 -0.1261
  923MPD2    C513562   4.104   3.119   9.850 -0.0583 -0.1650 -0.1260
  923MPD2     H13563   4.178   3.479   9.762 -1.5113  0.9626 -0.3839
  923MPD2    H113564   4.238   3.136  10.014 -0.7242  1.1898  1.0416
  923MPD2    H213565   3.954   3.132   9.695 -1.2777 -0.2398  1.9036
  923MPD2    H313566   4.089   3.012   9.865 -2.1751 -0.4081 -3.7953
  923MPD2     N13567   4.321   3.370   9.970  0.0933  0.2109  0.0316
  923MPD2    H513568   4.352   3.319  10.052 -0.9601 -1.3622 -0.5526
  923MPD2    N113569   4.001   3.367   9.597  0.7485  0.1203  0.0815
  923MPD2    H713570   3.946   3.310   9.534 -0.0512  0.6549  0.2899
  924MPD2     C13571   3.697   1.678  16.194 -0.3129  1.0351  0.2467
  924MPD2    C113572   3.689   1.759  16.305  0.1957 -0.5991  0.1288
  924MPD2    C213573   3.770   1.876  16.312 -0.1558  0.3260  0.6187
  924MPD2    C313574   3.858   1.899  16.209 -0.8275  1.2812  0.0901
  924MPD2    C413575   3.849   1.829  16.089  0.9486  1.2416 -0.6767
  924MPD2    C513576   3.770   1.714  16.084  0.2241 -0.8482  0.1754
  924MPD2     H13577   3.777   1.929  16.406 -2.0302 -2.9229  2.5967
  924MPD2    H113578   3.913   1.841  16.002  2.8196 -0.9959  0.4155
  924MPD2    H213579   3.641   1.585  16.185  1.2639  0.1386 -0.3848
  924MPD2    H313580   3.771   1.655  15.993 -1.3828 -1.1621  0.3741
  924MPD2     N13581   3.944   2.010  16.225  0.0581 -0.5789 -0.1558
  924MPD2    H513582   3.948   2.045  16.320  1.1436 -1.0953 -0.0068
  924MPD2    N113583   3.618   1.728  16.420  0.2201 -0.7486  0.5286
  924MPD2    H713584   3.635   1.788  16.501  0.0587  0.7929 -0.5785
  925MPD2     C13585   2.572   0.061  14.832 -0.1839 -0.3670 -0.0918
  925MPD2    C113586   2.482   4.708  14.782  0.3154  0.4435 -0.2850
  925MPD2    C213587   2.416   4.626  14.878 -0.1277  0.8773  0.2099
  925MPD2    C313588   2.414   4.642  15.015 -0.0437 -0.2956  0.2004
  925MPD2    C413589   2.496   0.004  15.057  0.1267 -0.3316 -0.8988
  925MPD2    C513590   2.579   0.074  14.968  0.3304 -0.5176  0.4421
  925MPD2     H13591   2.343   4.555  14.839  0.9686 -0.2024  0.1378
  925MPD2    H113592   2.496   0.029  15.162  0.6231  0.3667 -1.0626
  925MPD2    H213593   2.619   0.135  14.769  2.0360 -0.2105  1.7632
  925MPD2    H313594   2.636   0.156  15.010  0.1200 -0.9304  1.5338
  925MPD2     N13595   2.334   4.562  15.092  0.4423  0.7814  0.5578
  925MPD2    H513596   2.258   4.514  15.045  2.3091 -1.0506 -0.5627
  925MPD2    N113597   2.461   4.678  14.643  0.5889 -0.1224  0.1424
  925MPD2    H713598   2.391   4.610  14.614  0.7809 -1.1226  2.0652
  926MPD2     C13599   1.443   3.009  13.587  0.2145  0.1530  0.3916
  926MPD2    C113600   1.322   3.072  13.565  0.2450  0.0879 -0.1110
  926MPD2    C213601   1.315   3.174  13.470  0.8040 -0.6670  0.5235
  926MPD2    C313602   1.429   3.225  13.417  0.3099 -0.0780 -0.2329
  926MPD2    C413603   1.550   3.170  13.453 -0.0073 -0.1164  0.4890
  926MPD2    C513604   1.555   3.058  13.536  0.4211 -0.8901  0.2174
  926MPD2     H13605   1.212   3.197  13.445  0.7662  0.5205  1.7798
  926MPD2    H113606   1.646   3.199  13.413 -0.9570  0.8715 -1.0708
  926MPD2    H213607   1.445   2.912  13.635  1.1326 -0.2555 -0.4805
  926MPD2    H313608   1.649   3.010  13.561  0.1462 -0.3491  2.2844
  926MPD2     N13609   1.430   3.332  13.336  0.3093  0.5499  0.1008
  926MPD2    H513610   1.521   3.364  13.303 -0.1378  3.3930  1.6456
  926MPD2    N113611   1.198   3.014  13.615 -0.3640  0.5772 -0.7456
  926MPD2    H713612   1.112   3.050  13.573 -0.2008  0.7471 -0.9336
  927MPD2     C13613   0.118   0.793  17.632 -0.2188  0.0683  0.3617
  927MPD2    C113614   0.224   0.885  17.653  0.6709  0.0674 -0.5102
  927MPD2    C213615   0.312   0.921  17.547 -0.2785  1.2855 -0.3827
  927MPD2    C313616   0.308   0.840  17.436 -0.1192  0.0176 -0.5858
  927MPD2    C413617   0.210   0.736  17.418  0.1393 -0.6930 -0.3964
  927MPD2    C513618   0.116   0.714  17.518  0.2303  0.3614  0.1558
  927MPD2     H13619   0.392   0.994  17.548 -0.2045  1.2002  0.8786
  927MPD2    H113620   0.214   0.663  17.337 -1.9705  0.6150 -1.7140
  927MPD2    H213621   0.044   0.771  17.707 -1.8927  0.2517 -1.2429
  927MPD2    H313622   0.043   0.633  17.511  0.3313  0.4065 -1.3520
  927MPD2     N13623   0.423   0.847  17.352 -0.2956 -0.1342  0.3668
  927MPD2    H513624   0.473   0.935  17.356 -1.5823  0.5478  1.2464
  927MPD2    N113625   0.233   0.944   0.026  0.1712 -0.3812 -0.1670
  927MPD2    H713626   0.163   0.937   0.100 -2.7706  2.3016 -2.6761
  928MPD2     C13627   3.248   4.078   0.921 -0.4528 -0.4257  1.1109
  928MPD2    C113628   3.336   4.182   0.943  0.2998  0.7713  0.4354
  928MPD2    C213629   3.429   4.222   0.840  0.4818  0.1119 -0.3236
  928MPD2    C313630   3.439   4.148   0.721 -0.0420 -0.0478  0.4260
  928MPD2    C413631   3.350   4.041   0.712  0.4277  0.0128  0.2305
  928MPD2    C513632   3.252   4.009   0.801 -0.6984  0.6795 -0.6554
  928MPD2     H13633   3.500   4.300   0.863 -2.0147  1.7860  1.5909
  928MPD2    H113634   3.372   3.965   0.638  1.9921  0.5873  0.1115
  928MPD2    H213635   3.174   4.035   0.988  0.5591 -1.0456  1.8254
  928MPD2    H313636   3.183   3.930   0.775  0.7987 -0.8667  0.0775
  928MPD2     N13637   3.548   4.142   0.626 -0.2821  0.5456  0.6514
  928MPD2    H513638   3.542   4.077   0.549 -0.3904  1.7895 -0.3908
  928MPD2    N113639   3.331   4.251   1.071  0.4013  0.1576 -1.1258
  928MPD2    H713640   3.250   4.226   1.127  0.5583 -0.1751 -1.0444
  929MPD2     C13641   3.307   3.877  11.201  0.1547  0.5064  0.4373
  929MPD2    C113642   3.265   3.800  11.099  0.0112 -0.0795  0.6146
  929MPD2    C213643   3.188   3.854  11.000  0.2559 -0.5985  0.1096
  929MPD2    C313644   3.170   3.993  10.995 -0.0388 -0.1257  0.6758
  929MPD2    C413645   3.213   4.068  11.103 -0.5041 -0.3591  0.1305
  929MPD2    C513646   3.280   4.010  11.210 -0.4699 -0.2831  0.1843
  929MPD2     H13647   3.165   3.797  10.911 -2.8266 -3.0893  2.4769
  929MPD2    H113648   3.185   4.173  11.105 -0.1543 -0.3137  2.1845
  929MPD2    H213649   3.370   3.836  11.279 -1.1401 -1.1186  0.6344
  929MPD2    H313650   3.318   4.066  11.295  0.0475 -0.0239 -0.2209
  929MPD2     N13651   3.115   4.059  10.880  0.6957  0.4027  0.3322
  929MPD2    H513652   3.104   4.160  10.882  2.5416  0.5950  1.0866
  929MPD2    N113653   3.314   3.668  11.087 -1.1855  0.8258  0.5110
  929MPD2    H713654   3.408   3.662  11.124 -0.0186  2.5031 -2.1803
  930MPD2     C13655   0.765   0.944  14.470  0.4250 -0.2437 -0.0497
  930MPD2    C113656   0.811   0.947  14.343 -0.9953  0.1964  0.7695
  930MPD2    C213657   0.808   0.836  14.263  0.0374  0.6206  0.5250
  930MPD2    C313658   0.747   0.725  14.313 -0.0547 -0.2063  0.2888
  930MPD2    C413659   0.691   0.723  14.442 -0.1611 -0.2599 -0.2238
  930MPD2    C513660   0.714   0.824  14.524 -0.0587 -0.4747  0.1705
  930MPD2     H13661   0.821   0.834  14.155  0.1593  1.8670  0.5142
  930MPD2    H113662   0.650   0.633  14.489 -1.8300 -0.2471 -1.6547
  930MPD2    H213663   0.765   1.028  14.539 -2.0630 -0.9106  0.7809
  930MPD2    H313664   0.690   0.826  14.630 -1.9981  1.7365 -0.3100
  930MPD2     N13665   0.725   0.632  14.219  0.2007  0.0569  0.5179
  930MPD2    H513666   0.778   0.651  14.134  1.5343 -0.0237  1.3342
  930MPD2    N113667   0.856   1.077  14.296 -0.2919 -0.2094 -0.3787
  930MPD2    H713668   0.861   1.158  14.357  2.5108 -1.7330  1.4608
  931MPD2     C13669   0.950   1.083   0.419  0.7036  0.1491  0.0277
  931MPD2    C113670   0.850   0.985   0.437 -0.7571  0.0091  0.6428
  931MPD2    C213671   0.890   0.858   0.482 -0.3538  0.6804 -1.2727
  931MPD2    C313672   1.027   0.832   0.505  0.7451  0.7265 -0.0042
  931MPD2    C413673   1.115   0.929   0.502 -0.2143 -0.1334 -0.3136
  931MPD2    C513674   1.078   1.051   0.455 -0.3596  0.4691  0.2334
  931MPD2     H13675   0.816   0.780   0.473 -2.5284  2.9047 -2.4896
  931MPD2    H113676   1.216   0.911   0.537  0.0542  2.0217  0.0151
  931MPD2    H213677   0.935   1.187   0.391  1.5280 -0.3689 -2.3532
  931MPD2    H313678   1.149   1.133   0.452 -1.0431  1.1352  2.5140
  931MPD2     N13679   1.073   0.703   0.530  0.2408 -0.0583  0.0889
  931MPD2    H513680   1.170   0.686   0.552  0.3142 -0.6079 -0.6519
  931MPD2    N113681   0.712   1.019   0.405 -0.0669 -0.0754  0.2926
  931MPD2    H713682   0.695   1.109   0.361 -1.0013  0.1063  1.0126
  932MPD2     C13683   3.391   4.487  11.794 -0.5726 -0.1726 -0.5462
  932MPD2    C113684   3.316   4.499  11.909  0.3234  0.3637 -0.5991
  932MPD2    C213685   3.271   4.385  11.974  0.1638 -0.3752 -0.4912
  932MPD2    C313686   3.314   4.254  11.932  0.0237 -0.4684  0.0369
  932MPD2    C413687   3.386   4.251  11.814 -0.1414 -0.2276 -0.0311
  932MPD2    C513688   3.418   4.363  11.743 -0.2444 -0.5225  0.3820
  932MPD2     H13689   3.216   4.384  12.067 -0.1027 -1.9713 -0.6698
  932MPD2    H113690   3.423   4.158  11.772  1.4095 -1.1006  3.2019
  932MPD2    H213691   3.422   4.573  11.737  0.6961  0.9707  1.8534
  932MPD2    H313692   3.468   4.356  11.647  1.0955  0.5158  1.0069
  932MPD2     N13693   3.279   4.127  11.995 -0.1371  0.4651 -1.0099
  932MPD2    H513694   3.313   4.037  11.962 -1.3547 -1.7745  3.9429
  932MPD2    N113695   3.301   4.632  11.960 -0.6254 -0.1107 -0.3141
  932MPD2    H713696   3.349   4.707  11.911 -0.4722 -0.9631 -1.4511
  933MPD2     C13697   2.959   4.680   1.715  0.3669 -0.0222 -0.0307
  933MPD2    C113698   2.958   4.620   1.594  0.1631  0.8765 -0.0319
  933MPD2    C213699   2.849   4.635   1.509  0.0352 -0.3567 -0.1187
  933MPD2    C313700   2.735   4.697   1.551  0.0644  0.8595 -0.5150
  933MPD2    C413701   2.741   0.021   1.678 -0.3599  0.6217  0.1423
  933MPD2    C513702   2.848   0.009   1.755  0.9241  0.4955 -0.0506
  933MPD2     H13703   2.852   4.592   1.410  2.4111 -3.3371  1.2569
  933MPD2    H113704   2.660   0.086   1.709  0.2106  1.7189 -0.6503
  933MPD2    H213705   3.044   4.675   1.782  0.5919 -0.9641 -0.3901
  933MPD2    H313706   2.839   0.051   1.854 -0.9174  1.1751 -0.5073
  933MPD2     N13707   2.623   4.693   1.469 -0.5914  0.2172  0.0869
  933MPD2    H513708   2.639   4.664   1.373  0.6641 -0.2915  0.4499
  933MPD2    N113709   3.074   4.547   1.560  0.2252 -0.4334 -0.0195
  933MPD2    H713710   3.149   4.559   1.627  1.0652  2.1400 -1.4075
  934MPD2     C13711   0.126   2.063   2.257 -0.0113 -0.3726 -0.5259
  934MPD2    C113712   0.174   2.042   2.130 -0.2568  0.0517  0.3119
  934MPD2    C213713   0.105   1.966   2.034 -0.6434 -0.6077 -0.4427
  934MPD2    C313714   4.732   1.890   2.074 -0.1561 -0.1015  0.3343
  934MPD2    C413715   4.690   1.909   2.203 -0.1172  0.3085  0.5694
  934MPD2    C513716   0.015   1.995   2.289 -0.8727  0.0833 -0.3383
  934MPD2     H13717   0.146   1.960   1.934  2.8690  0.7883  0.9256
  934MPD2    H113718   4.602   1.855   2.234  0.3883  0.0311  1.5431
  934MPD2    H213719   0.173   2.127   2.330 -1.4572  1.2469 -1.0211
  934MPD2    H313720   4.716   2.006   2.390 -0.8703 -0.3674 -0.2875
  934MPD2     N13721   4.665   1.808   1.988  0.5695  0.0437 -0.5406
  934MPD2    H513722   4.582   1.757   2.016  0.5208 -0.2409 -1.1833
  934MPD2    N113723   0.288   2.102   2.080 -0.6051 -1.2854  0.6150
  934MPD2    H713724   0.307   2.081   1.982 -0.1813 -0.2746  0.4784
  935MPD2     C13725   0.258   1.138   1.349 -0.5813  0.0810  0.2487
  935MPD2    C113726   0.120   1.135   1.335 -0.9117  1.0707  0.3986
  935MPD2    C213727   0.041   1.223   1.398  0.1545 -0.2148  0.3074
  935MPD2    C313728   0.091   1.322   1.480  0.4038 -0.1735  0.6150
  935MPD2    C413729   0.229   1.322   1.504 -0.2984  0.3541 -0.1596
  935MPD2    C513730   0.304   1.227   1.438  0.7974 -0.0848 -0.2604
  935MPD2     H13731   4.674   1.231   1.375  0.0061  0.1084  1.1116
  935MPD2    H113732   0.267   1.402   1.566 -0.1159  1.9334 -2.3169
  935MPD2    H213733   0.330   1.069   1.306 -0.2826  0.3595  0.2969
  935MPD2    H313734   0.412   1.229   1.450  0.4499 -0.6153  2.8668
  935MPD2     N13735   0.010   1.415   1.553  0.2756 -0.0322 -0.1051
  935MPD2    H513736   0.058   1.476   1.617 -1.6069 -1.0598  2.2809
  935MPD2    N113737   0.054   1.063   1.234  0.6825 -0.4265 -0.3779
  935MPD2    H713738   4.696   1.079   1.209  0.7406 -2.1141 -1.7434
  936MPD2     C13739   3.275   2.474  12.254  0.5687  0.2712 -0.1545
  936MPD2    C113740   3.214   2.595  12.265  1.0065  1.1343 -0.1728
  936MPD2    C213741   3.244   2.690  12.176  0.0032  0.2588 -0.5087
  936MPD2    C313742   3.324   2.669  12.067 -0.0011  0.4702 -0.1245
  936MPD2    C413743   3.392   2.550  12.063 -0.0416 -0.0713  0.5554
  936MPD2    C513744   3.371   2.453  12.156 -0.4190 -0.3698 -0.2587
  936MPD2     H13745   3.203   2.790  12.186  0.1992  0.2670  0.1933
  936MPD2    H113746   3.457   2.526  11.980 -0.9775  3.3420 -1.1503
  936MPD2    H213747   3.258   2.388  12.318  0.4277  0.2916 -0.1640
  936MPD2    H313748   3.412   2.353  12.161  0.1249 -0.0724  1.3165
  936MPD2     N13749   3.372   2.789  11.998  0.0172 -0.4958 -0.2765
  936MPD2    H513750   3.329   2.875  12.032 -0.0349 -0.3743 -0.6498
  936MPD2    N113751   3.118   2.617  12.367  0.0355 -0.9251 -0.2725
  936MPD2    H713752   3.071   2.707  12.372  1.2220 -0.4274  2.2593
  937MPD2     C13753   1.254   4.081  12.025 -0.4450  0.2870 -0.2646
  937MPD2    C113754   1.289   4.212  12.013 -0.2899 -0.8397  0.2457
  937MPD2    C213755   1.372   4.245  11.906 -0.0947  0.1240 -0.1951
  937MPD2    C313756   1.425   4.142  11.826  0.2509  0.6217 -0.5051
  937MPD2    C413757   1.404   4.012  11.853  0.3160  0.2512 -0.0686
  937MPD2    C513758   1.314   3.982  11.947  0.4447 -0.1335  0.3075
  937MPD2     H13759   1.380   4.348  11.874 -5.7946  0.5779 -0.2693
  937MPD2    H113760   1.448   3.928  11.801  1.8343 -0.8239  2.9755
  937MPD2    H213761   1.179   4.051  12.096  1.4144 -0.9828  1.1600
  937MPD2    H313762   1.298   3.877  11.971 -1.6749  0.9737  3.6859
  937MPD2     N13763   1.506   4.183  11.714 -0.2803 -0.4415  1.3963
  937MPD2    H513764   1.521   4.283  11.704 -0.6310 -0.8188 -2.9809
  937MPD2    N113765   1.214   4.319  12.062  0.4312 -0.0262  0.2610
  937MPD2    H713766   1.246   4.413  12.040  2.4052 -0.7585  0.0366
  938MPD2     C13767   3.237   0.900   1.097 -0.9656  0.4917  0.4421
  938MPD2    C113768   3.347   0.957   1.163  0.6461 -0.2523  0.1485
  938MPD2    C213769   3.440   0.880   1.225 -0.5286  0.7543 -0.3137
  938MPD2    C313770   3.420   0.747   1.238  0.0113 -1.0368 -0.4051
  938MPD2    C413771   3.303   0.691   1.187 -0.0489  0.0367  0.0431
  938MPD2    C513772   3.212   0.766   1.114 -0.4293 -0.2534 -0.1652
  938MPD2     H13773   3.531   0.925   1.263  0.1029 -0.3772 -0.5002
  938MPD2    H113774   3.284   0.585   1.202  1.4206  0.0282  1.9390
  938MPD2    H213775   3.168   0.952   1.032  0.9856 -0.0787 -2.0868
  938MPD2    H313776   3.124   0.726   1.065 -0.1986 -0.7678 -0.1580
  938MPD2     N13777   3.511   0.654   1.302 -0.1261 -0.7848 -0.1814
  938MPD2    H513778   3.476   0.558   1.301 -0.0006 -0.8344  1.2408
  938MPD2    N113779   3.377   1.095   1.157  0.2744 -0.3659  0.2991
  938MPD2    H713780   3.468   1.116   1.198  0.7075 -2.5436  0.4539
  939MPD2     C13781   4.389   2.382   0.545  1.1006 -0.2038  0.2033
  939MPD2    C113782   4.444   2.250   0.562  0.7529  0.3825 -0.5196
  939MPD2    C213783   4.413   2.151   0.467 -0.9831 -0.0386  0.0958
  939MPD2    C313784   4.328   2.192   0.361 -0.0606 -1.2053  0.3238
  939MPD2    C413785   4.287   2.322   0.345 -0.1165 -0.0677 -0.2450
  939MPD2    C513786   4.323   2.413   0.431  0.1023  0.1360 -0.3683
  939MPD2     H13787   4.442   2.047   0.476 -0.3884 -0.2004 -3.8860
  939MPD2    H113788   4.230   2.357   0.260 -0.2225 -1.8108 -0.9035
  939MPD2    H213789   4.419   2.463   0.611 -1.2654 -1.9137  3.4113
  939MPD2    H313790   4.294   2.515   0.411 -2.9708 -1.0554 -1.9113
  939MPD2     N13791   4.292   2.094   0.265  0.3332  0.0152  0.4776
  939MPD2    H513792   4.319   1.998   0.284 -0.8145 -0.1115  1.4549
  939MPD2    N113793   4.506   2.217   0.680  0.4824  0.5306 -0.3169
  939MPD2    H713794   4.491   2.278   0.760  0.9253 -2.4926  2.0756
  940MPD2     C13795   3.328   3.277  12.743 -0.4578 -0.1262  0.9141
  940MPD2    C113796   3.296   3.155  12.810 -0.7034  0.5724 -1.0418
  940MPD2    C213797   3.326   3.029  12.749  0.1934 -0.9352  0.2399
  940MPD2    C313798   3.376   3.027  12.619 -0.2717  0.2308 -0.2480
  940MPD2    C413799   3.411   3.151  12.561  0.0001  0.0446  0.7732
  940MPD2    C513800   3.396   3.269  12.630 -0.4030 -0.1507 -0.1883
  940MPD2     H13801   3.300   2.934  12.795  1.4461 -1.2043  0.3916
  940MPD2    H113802   3.439   3.151  12.456  0.5571  3.6539  0.9028
  940MPD2    H213803   3.312   3.375  12.785  1.1823  0.6831 -0.3311
  940MPD2    H313804   3.424   3.360  12.578  0.1348  0.0430  0.4349
  940MPD2     N13805   3.406   2.901  12.564  0.4800 -0.0791  0.0762
  940MPD2    H513806   3.392   2.824  12.629  0.3964 -0.9749 -1.0128
  940MPD2    N113807   3.239   3.170  12.942  0.3888 -0.2083  0.6014
  940MPD2    H713808   3.220   3.263  12.977  0.5681 -0.4630  1.3809
  941MPD2     C13809   3.037   2.326   9.766 -0.3864  0.0349 -0.9906
  941MPD2    C113810   3.133   2.290   9.856 -0.2349  0.2568 -0.4346
  941MPD2    C213811   3.097   2.190   9.945  1.1697 -0.6071 -0.0850
  941MPD2    C313812   2.972   2.129   9.942  0.0027 -0.5801  0.0246
  941MPD2    C413813   2.884   2.173   9.852 -0.3475  0.3694  0.0933
  941MPD2    C513814   2.912   2.283   9.772 -0.4476  0.5140  0.1510
  941MPD2     H13815   3.172   2.176  10.021  1.7321  1.1218 -0.3226
  941MPD2    H113816   2.786   2.127   9.851  0.9095 -2.3527  0.6977
  941MPD2    H213817   3.054   2.386   9.677  0.4948  0.3264 -0.6240
  941MPD2    H313818   2.845   2.321   9.696 -0.3891 -2.7266 -1.5129
  941MPD2     N13819   2.934   2.036  10.043 -0.3604 -0.0921  0.1025
  941MPD2    H513820   2.838   2.005  10.059 -0.7715  0.4122 -1.3928
  941MPD2    N113821   3.264   2.336   9.848 -0.0044  0.0939  0.3198
  941MPD2    H713822   3.327   2.298   9.918  0.5024 -0.0705 -0.2297
  942MPD2     C13823   2.656   3.440   9.098 -0.8822 -0.4195  0.7257
  942MPD2    C113824   2.696   3.420   9.230  0.2333 -0.5467 -0.1378
  942MPD2    C213825   2.701   3.526   9.320  0.3796 -0.8255  0.1401
  942MPD2    C313826   2.667   3.651   9.277 -0.6777 -0.3859  0.1978
  942MPD2    C413827   2.622   3.669   9.146  0.0464 -0.1630  0.0466
  942MPD2    C513828   2.619   3.566   9.056 -0.2286  0.1603  0.7559
  942MPD2     H13829   2.730   3.514   9.424 -0.4301 -0.8702  0.3678
  942MPD2    H113830   2.596   3.763   9.099 -0.7846 -0.0894  0.6549
  942MPD2    H213831   2.656   3.362   9.023 -0.7686 -0.4547  0.7618
  942MPD2    H313832   2.598   3.576   8.950 -0.5892 -1.4252  0.6744
  942MPD2     N13833   2.674   3.768   9.351 -0.0673  0.0303  0.5451
  942MPD2    H513834   2.647   3.854   9.304 -0.8773  0.9029  2.6038
  942MPD2    N113835   2.723   3.295   9.278  1.3410  1.0315 -0.0394
  942MPD2    H713836   2.744   3.290   9.377  3.7163  1.6481 -0.4843
  943MPD2     C13837   1.696   2.560   9.529 -0.1603  0.1981 -0.1649
  943MPD2    C113838   1.714   2.452   9.609  0.2195 -0.4121  0.1064
  943MPD2    C213839   1.744   2.467   9.746 -0.3407 -1.2774 -0.1732
  943MPD2    C313840   1.767   2.592   9.797 -0.1014 -0.0942 -0.6069
  943MPD2    C413841   1.751   2.696   9.708  0.5907  0.6652 -0.2928
  943MPD2    C513842   1.711   2.682   9.580 -1.0411  0.2578  0.0395
  943MPD2     H13843   1.762   2.379   9.806  1.6716  0.4763  1.7461
  943MPD2    H113844   1.776   2.795   9.746 -1.0778  2.1244 -2.9378
  943MPD2    H213845   1.651   2.546   9.431 -1.2148 -2.9663  0.7724
  943MPD2    H313846   1.684   2.762   9.511 -1.0586 -1.0481 -1.4624
  943MPD2     N13847   1.805   2.608   9.930  0.3873 -0.6067  0.5529
  943MPD2    H513848   1.829   2.706   9.943  0.6848 -0.6028  0.0177
  943MPD2    N113849   1.689   2.324   9.552  0.0950  0.4633  0.1996
  943MPD2    H713850   1.627   2.315   9.473  1.9666  1.2259 -1.3551
  944MPD2     C13851   2.025   1.439  11.288  0.8152 -0.9196 -0.3936
  944MPD2    C113852   1.930   1.387  11.367  0.4582  0.4611  0.2783
  944MPD2    C213853   1.847   1.471  11.441  0.3066  0.3296  0.1726
  944MPD2    C313854   1.858   1.604  11.434 -0.5515  0.3656 -0.2187
  944MPD2    C413855   1.961   1.655  11.355  0.7743  0.9906  0.3252
  944MPD2    C513856   2.047   1.578  11.290 -0.1598  0.7770  0.6912
  944MPD2     H13857   1.764   1.429  11.496  1.6523 -3.8915 -1.0025
  944MPD2    H113858   1.976   1.763  11.351 -0.7287  1.2084  0.5450
  944MPD2    H213859   2.089   1.370  11.234  1.4224 -0.9499  0.3670
  944MPD2    H313860   2.118   1.627  11.223 -0.9074  0.6335 -0.1983
  944MPD2     N13861   1.769   1.684  11.518  0.0711  0.3770 -0.0294
  944MPD2    H513862   1.716   1.640  11.592  1.0800  1.6512  1.4347
  944MPD2    N113863   1.929   1.246  11.377 -0.1727 -0.1525 -0.2390
  944MPD2    H713864   1.977   1.204  11.299  4.7948  2.5245  1.4034
    1TMC1    C113865   4.620   1.503  14.394  0.0306 -1.3186  0.0824
    1TMC1    C213866   4.594   1.460  14.269  0.6790  0.0370  0.0878
    1TMC1    C313867   4.586   1.325  14.246 -0.4043  0.1749  0.5643
    1TMC1    C413868   4.661   1.412  14.495 -0.1781 -0.4302  0.1202
    1TMC1    C513869   4.686   1.284  14.458  0.0044 -0.3515 -0.0677
    1TMC1    C613870   4.638   1.235  14.342  0.0778 -0.1667  0.1632
    1TMC1     C13871   4.628   1.643  14.416 -0.6827  0.3603 -0.5759
    1TMC1     O13872   4.696   1.678  14.510 -0.1160 -0.1263  0.0424
    1TMC1     H13873   4.584   1.520  14.179  1.6911 -2.2153 -1.5181
    1TMC1    H113874   4.687   1.450  14.593 -0.3659  0.5028 -0.1923
    1TMC1    H213875   4.639   1.129  14.320 -0.2252 -0.4835  1.7139
    1TMC1    C713876   4.700   1.188  14.569 -0.9566 -0.2858 -0.0230
    1TMC1    C813877   4.571   1.277  14.109  0.3281 -0.8302 -0.2453
    1TMC1    O113878   0.030   1.084  14.550  0.4230  0.1003 -0.1082
    1TMC1    O213879   4.609   1.171  14.074 -0.1312 -0.0850 -0.0183
    1TMC1    O313880   4.573   1.195  14.600  0.0706  0.1632 -0.0820
    1TMC1    H313881   4.526   1.281  14.610 -0.7034 -0.3983  1.1182
    1TMC1    O513882   4.473   1.333  14.043  0.1905  0.7829 -0.0366
    1TMC1    H513883   4.428   1.402  14.095 -0.9032 -1.8652  2.5090
    2MPD2     C13884   4.526   2.144  14.340 -0.7316  0.1440  0.1311
    2MPD2    C113885   4.440   2.069  14.259 -0.1451  0.0330 -0.4144
    2MPD2    C213886   4.453   1.927  14.250 -0.0418 -0.0940 -0.0101
    2MPD2    C313887   4.550   1.860  14.330 -0.2679  0.1012 -0.1872
    2MPD2    C413888   4.641   1.940  14.402  0.8021  0.4143 -0.3279
    2MPD2    C513889   4.625   2.075  14.405  0.1499  0.3312 -0.3742
    2MPD2     H13890   4.387   1.871  14.185  1.6961 -1.4907 -0.5807
    2MPD2    H113891   4.723   1.900  14.460  1.0213 -0.4724 -1.2578
    2MPD2    H213892   4.525   2.252  14.345  0.8490  0.1582  0.2222
    2MPD2    H313893   4.692   2.134  14.465 -0.9644  1.9114 -0.6757
    2MPD2     N13894   4.551   1.723  14.334  0.1649 -0.1707  0.5658
    2MPD2    H513895   4.490   1.678  14.266  1.4486  0.2495 -0.8846
    2MPD2    N113896   4.338   2.146  14.195  0.5300 -1.2138  0.5373
    2MPD2    H713897   4.329   2.245  14.219 -1.0208 -1.2582  0.1907
    3TMC2    C113898   4.161   2.191  14.028 -0.2424  0.0987  0.0506
    3TMC2    C213899   4.053   2.146  13.958 -0.2058  0.3349  0.4714
    3TMC2    C313900   3.984   2.249  13.893  0.0760  0.3460  0.4646
    3TMC2    C413901   4.212   2.318  14.017 -0.3067 -0.1093  0.0606
    3TMC2    C513902   4.142   2.410  13.941 -0.1090 -0.1516  0.3934
    3TMC2    C613903   4.018   2.381  13.883 -0.2823 -0.3244 -0.9561
    3TMC2     C13904   4.244   2.093  14.102  1.3963 -0.7763  0.4082
    3TMC2     O13905   4.216   1.975  14.077 -0.7523 -0.4009 -0.6806
    3TMC2     H13906   4.014   2.049  13.988 -0.1842 -0.2002 -1.2529
    3TMC2    H113907   4.314   2.340  14.049  0.1758  0.9432 -2.1907
    3TMC2    H213908   3.949   2.454  13.841  0.7568  1.8142  1.0464
    3TMC2    C713909   4.209   2.538  13.918 -0.0788  0.5964 -0.1125
    3TMC2    C813910   3.847   2.211  13.854 -0.3073  0.5544 -0.1843
    3TMC2    O113911   4.304   2.568  13.993  0.5539  0.1544 -0.1791
    3TMC2    O213912   3.752   2.287  13.862  0.1693 -0.3543  0.1182
    3TMC2    O513913   3.848   2.086  13.812 -0.1959 -0.2017  0.3305
    3TMC2    H513914   3.938   2.067  13.778  0.8080  0.7798  2.4348
    4TMC2    C113915   3.788   3.235  13.389  0.2543  0.1027  0.5138
    4TMC2    C213916   3.718   3.196  13.274  0.0550 -0.0756 -0.3055
    4TMC2    C313917   3.755   3.081  13.219 -1.1388  0.0721  0.3500
    4TMC2    C413918   3.882   3.158  13.441 -0.5455 -0.2741  0.7700
    4TMC2    C513919   3.924   3.040  13.380  0.1351 -0.2781  0.0368
    4TMC2    C613920   3.865   3.011  13.257  0.2032 -0.8162  0.0690
    4TMC2     C13921   3.738   3.335  13.475  0.6019  0.8167 -0.1764
    4TMC2     O13922   3.810   3.375  13.570 -0.5418  0.8343 -0.2980
    4TMC2     H13923   3.633   3.247  13.229  0.5548 -0.1514 -1.3232
    4TMC2    H113924   3.926   3.187  13.536 -0.0161  0.4572  0.3100
    4TMC2    H213925   3.902   2.929  13.196  0.1154 -1.6449  1.1246
    4TMC2    C713926   4.020   2.948  13.437 -0.7510  0.1685  1.0764
    4TMC2    C813927   3.681   3.029  13.102  0.0699  0.3555  0.4668
    4TMC2    O113928   3.998   2.828  13.422  0.1210 -0.1630  0.0121
    4TMC2    O213929   3.612   3.098  13.028  0.2332 -0.1702 -0.0987
    4TMC2    O513930   3.658   2.897  13.128  0.2827  0.1460  0.1637
    4TMC2    H513931   3.674   2.874  13.222  4.6989  0.0610 -0.5855
    5MPD2     C13932   3.344   3.534  13.721 -0.1307 -0.0818 -0.0261
    5MPD2    C113933   3.318   3.548  13.587  0.1571 -0.5585 -0.1252
    5MPD2    C213934   3.406   3.500  13.491  0.1069  0.5109 -0.3334
    5MPD2    C313935   3.528   3.453  13.532 -0.2389  0.0666  0.1448
    5MPD2    C413936   3.562   3.461  13.667  0.2220  0.0129 -0.3960
    5MPD2    C513937   3.472   3.493  13.767  0.2122  0.2680 -0.1456
    5MPD2     H13938   3.377   3.489  13.387  0.9465  0.1683 -0.5323
    5MPD2    H113939   3.654   3.422  13.709  0.1226  1.3863  1.0814
    5MPD2    H213940   3.257   3.558  13.780  0.3450  0.7413  0.3367
    5MPD2    H313941   3.490   3.487  13.874  0.1220  1.5675 -0.0613
    5MPD2     N13942   3.616   3.389  13.441 -0.3414 -0.1828 -0.0857
    5MPD2    H513943   3.593   3.385  13.342  1.8100 -0.3405 -0.5899
    5MPD2    N113944   3.190   3.603  13.559 -0.1855 -0.0036 -0.2753
    5MPD2    H713945   3.135   3.645  13.634  0.7528  1.1643 -0.2416
    6MPD1     C13946   3.285   0.632  12.812  0.1182 -0.5458 -0.4278
    6MPD1    C113947   3.258   0.542  12.712 -0.2632  0.2264 -0.4488
    6MPD1    C213948   3.188   0.426  12.751 -0.6067  0.2550 -0.0821
    6MPD1    C313949   3.167   0.391  12.887 -0.5143  0.5409  0.0538
    6MPD1    C413950   3.197   0.483  12.983 -0.0503  0.2855 -0.0895
    6MPD1    C513951   3.257   0.604  12.942 -0.8246  0.4407 -0.0496
    6MPD1     H13952   3.158   0.353  12.676 -1.4019  0.6655 -0.1655
    6MPD1    H113953   3.176   0.462  13.087 -1.8131  0.9093 -0.3214
    6MPD1    H213954   3.341   0.723  12.794  0.3361 -1.2891 -3.5054
    6MPD1    H313955   3.293   0.671  13.020  1.9021 -2.0040  0.7776
    6MPD1     N13956   3.126   0.267  12.933  0.8588 -0.3575 -0.4043
    6MPD1    H513957   3.078   0.265  13.023 -1.9093 -1.4807 -1.8788
    6MPD1    N113958   3.291   0.551  12.579 -0.4067  0.3722 -0.5897
    6MPD1    H613959   3.214   0.524  12.518  0.3521  0.1157 -1.4327
    6MPD1    H713960   3.320   0.646  12.560 -0.0469  0.2044 -0.8636
    7MPD2     C13961   2.962   4.502  13.506 -0.2171 -0.3567 -0.2644
    7MPD2    C113962   2.917   4.442  13.394  0.1691  0.6875  0.0402
    7MPD2    C213963   2.877   4.309  13.402 -0.6780  0.0830  0.1155
    7MPD2    C313964   2.897   4.230  13.511 -0.8801  0.1844 -0.4016
    7MPD2    C413965   2.941   4.298  13.627 -0.1896  0.1464 -0.3308
    7MPD2    C513966   2.976   4.431  13.625  0.1861  0.2915 -0.0801
    7MPD2     H13967   2.843   4.273  13.306  0.6386 -0.8644  0.0108
    7MPD2    H113968   2.982   4.242  13.710 -0.9197 -1.1051 -0.8138
    7MPD2    H213969   3.003   4.603  13.505 -1.6346  0.2330  0.7985
    7MPD2    H313970   3.037   4.477  13.702  1.2091 -0.9984 -0.1247
    7MPD2     N13971   2.878   4.093  13.494 -0.9211 -0.0502  0.2173
    7MPD2    H513972   2.874   4.063  13.397  1.9698 -1.5578  0.5737
    7MPD2    N113973   2.916   4.503  13.263 -0.6183 -0.4008  0.5047
    7MPD2    H713974   2.882   4.451  13.183  0.8143 -0.7928  0.1571
    8TMC3    C113975   2.873   3.860  13.514  0.4691 -0.2690 -0.1493
    8TMC3    C213976   2.974   3.763  13.535 -0.1072  0.3655  0.7282
    8TMC3    C313977   3.011   3.694  13.424 -0.3369  0.1681  0.2366
    8TMC3    C413978   2.814   3.875  13.393  0.2889 -0.0754 -1.0055
    8TMC3    C513979   2.867   3.823  13.275 -0.2122  0.8102  0.8392
    8TMC3    C613980   2.967   3.723  13.290 -0.7412  0.5829  0.2333
    8TMC3     C13981   2.904   3.989  13.583 -0.5629  0.2133  0.5910
    8TMC3     O13982   2.942   4.002  13.699  0.3452  0.3860 -0.1414
    8TMC3     H13983   3.026   3.753  13.629 -0.6637 -1.4913  0.8283
    8TMC3    H113984   2.730   3.943  13.390  0.1426 -0.3235 -2.3212
    8TMC3    H213985   3.011   3.668  13.207 -1.0228 -1.0513  1.1652
    8TMC3    C713986   2.891   3.919  13.179  0.8059 -0.2352  0.3441
    8TMC3    C813987   3.136   3.623  13.434 -0.0747 -0.1417 -0.6485
    8TMC3    O113988   2.873   4.035  13.223 -0.3768  0.4109 -0.0920
    8TMC3    O213989   3.171   3.587  13.326 -0.4292  0.3685  0.0054
    9TMC3    C113990   3.103   0.030  12.925  0.2212 -0.7047 -0.6508
    9TMC3    C213991   3.136   4.655  12.857 -0.0688  0.3730 -0.7161
    9TMC3    C313992   3.103   4.537  12.920 -0.2396  0.0761 -0.3334
    9TMC3    C413993   3.037   0.029  13.045 -0.3016  0.0298 -0.3835
    9TMC3    C513994   3.008   4.643  13.102  0.2297  0.3183 -0.2814
    9TMC3    C613995   3.048   4.529  13.043  0.4687 -0.1384  0.1216
    9TMC3     C13996   3.146   0.152  12.863  0.4820  0.2371  0.4296
    9TMC3     O13997   3.217   0.135  12.766 -0.1367 -0.7496  0.2380
    9TMC3     H13998   3.208   4.655  12.776  0.0157  1.0121 -0.6445
    9TMC3    H113999   3.010   0.117  13.103 -1.8264 -0.3421 -0.5510
    9TMC3    H214000   3.064   4.437  13.099 -1.0401 -0.3122  0.2871
    9TMC3    C714001   2.972   4.634  13.236 -0.5907 -0.5053  0.6014
    9TMC3    C814002   3.122   4.418  12.839 -0.4177 -0.1537 -0.0965
    9TMC3    O114003   2.987   4.729  13.315 -0.5601 -0.8299  0.1344
    9TMC3    O214004   3.196   4.416  12.743  0.3472  0.0987 -0.6864
   10MPD2     C14005   3.082   3.899  12.861  0.9143 -0.8688  0.3411
   10MPD2    C114006   3.004   3.955  12.963  0.6372 -0.1420 -0.2354
   10MPD2    C214007   3.005   4.095  12.972  0.2140  0.5211 -0.1950
   10MPD2    C314008   3.061   4.180  12.877  0.1040 -0.5063 -0.7824
   10MPD2    C414009   3.135   4.116  12.773  0.5801  0.4003  0.3825
   10MPD2    C514010   3.149   3.979  12.772  0.0426  0.2050 -0.9949
   10MPD2     H14011   2.973   4.140  13.065 -0.9514 -0.6377 -0.0397
   10MPD2    H114012   3.179   4.175  12.693  0.3938  0.1768  0.1135
   10MPD2    H214013   3.090   3.791  12.860  0.0998 -0.8741 -3.3542
   10MPD2    H314014   3.206   3.926  12.696 -0.1559 -0.2684 -0.8185
   10MPD2     N14015   3.056   4.318  12.899  0.2297  0.3993 -0.4684
   10MPD2    H514016   3.002   4.339  12.982 -1.0533  0.5669 -1.3549
   10MPD2    N114017   2.947   3.873  13.064  0.0510 -0.0462  0.1762
   10MPD2    H714018   2.968   3.777  13.039 -0.7945  0.2572 -1.7190
   11MPD2     C14019   4.293   2.816  13.850  0.1107 -0.3619  0.2404
   11MPD2    C114020   4.191   2.750  13.784  0.4421  0.1217 -0.1785
   11MPD2    C214021   4.132   2.808  13.680 -0.6837 -0.4190 -0.1872
   11MPD2    C314022   4.164   2.935  13.638  0.1750 -1.1199  0.3039
   11MPD2    C414023   4.257   3.005  13.703  0.4788  0.0675 -0.3159
   11MPD2    C514024   4.319   2.945  13.809  0.3479 -0.3604  0.3038
   11MPD2     H14025   4.060   2.749  13.624 -0.4993  1.4042 -2.3634
   11MPD2    H114026   4.271   3.111  13.683 -3.2792  0.6234 -0.0494
   11MPD2    H214027   4.359   2.781  13.928 -0.5769 -1.4595  0.3262
   11MPD2    H314028   4.396   2.995  13.867  1.0172 -0.8991 -0.1213
   11MPD2     N14029   4.100   3.006  13.535  0.3677 -0.5912  1.1451
   11MPD2    H514030   4.127   3.102  13.513 -1.8683 -0.4180 -0.9438
   11MPD2    N114031   4.150   2.615  13.820  0.2312  0.4494 -0.1202
   11MPD2    H714032   4.070   2.582  13.768  1.0164 -2.0611  0.2790
    1MPD1     C14033   2.407   0.339  16.575 -0.1148  0.0539 -0.1342
    1MPD1    C114034   2.325   0.300  16.467  0.0139  0.3376 -0.3338
    1MPD1    C214035   2.194   0.264  16.492 -0.1758 -0.5609 -0.2765
    1MPD1    C314036   2.149   0.257  16.622  0.7982  0.3263  0.1643
    1MPD1    C414037   2.229   0.284  16.728 -0.1269 -0.5799 -0.7618
    1MPD1    C514038   2.355   0.329  16.703 -0.1383 -0.5554  0.0057
    1MPD1     H14039   2.134   0.236  16.406 -1.8928 -0.5168  0.9006
    1MPD1    H114040   2.196   0.278  16.831 -1.4750  1.7079 -1.0508
    1MPD1    H214041   2.511   0.362  16.559 -0.1375  1.6995  2.0256
    1MPD1    H314042   2.426   0.347  16.783  0.2030 -1.7654 -0.0350
    1MPD1     N14043   2.021   0.214  16.656 -0.2252 -0.3344 -0.9944
    1MPD1    H514044   2.003   0.197  16.755 -0.1330 -0.3444 -0.9788
    1MPD1    N114045   2.375   0.317  16.335  0.1690 -0.1913  0.4886
    1MPD1    H614046   2.474   0.299  16.330  0.1028  0.0481 -1.4824
    1MPD1    H714047   2.331   0.254  16.268 -0.3960  0.5192  0.1923
    2MPD1     C14048   1.237   0.010  16.066  0.2874  0.5110 -0.1026
    2MPD1    C114049   1.350   0.088  16.047  0.4044 -0.8146 -0.5979
    2MPD1    C214050   1.451   0.071  16.146 -0.4191 -0.1116 -0.1441
    2MPD1    C314051   1.420   0.009  16.266 -0.6427  0.7795  0.3349
    2MPD1    C414052   1.303   4.688  16.279 -0.1889 -0.2405 -0.3210
    2MPD1    C514053   1.208   4.686  16.184 -0.5705 -0.0519 -0.3984
    2MPD1     H14054   1.551   0.112  16.135 -0.7798 -0.2009 -3.5749
    2MPD1    H114055   1.269   4.647  16.374  0.9647 -0.1866  0.1147
    2MPD1    H214056   1.165   0.007  15.985 -1.0510  1.2229  1.0728
    2MPD1    H314057   1.108   4.648  16.202 -0.2648 -0.0190  1.4266
    2MPD1     N14058   1.513   0.013  16.374  0.1633  0.2330  0.3099
    2MPD1    H514059   1.594   0.072  16.354  1.1695 -1.6182 -1.0692
    2MPD1    N114060   1.382   0.121  15.918 -0.3152 -0.1825  0.2142
    2MPD1    H614061   1.436   0.207  15.921  1.2582 -1.0587 -4.1337
    2MPD1    H714062   1.292   0.144  15.877  1.2051  1.4683 -2.1611
    3TMC3    C114063   1.636   4.708  16.574 -0.1868  0.2441  0.1195
    3TMC3    C214064   1.659   4.622  16.672  0.2746  0.4456 -0.4815
    3TMC3    C314065   1.766   4.640  16.751  0.2711 -0.0553 -0.5370
    3TMC3    C414066   1.709   0.081  16.553  0.2759  0.1226  0.1055
    3TMC3    C514067   1.819   0.098  16.630 -0.0323 -0.6329 -0.3647
    3TMC3    C614068   1.854   0.002  16.721  0.7649 -0.0214 -0.4016
    3TMC3     C14069   1.521   4.680  16.491 -0.0124  0.6654 -0.5789
    3TMC3     O14070   1.440   4.597  16.530 -0.0354 -0.8186  0.6632
    3TMC3     H14071   1.606   4.527  16.674 -0.9913  1.1475 -0.4554
    3TMC3    H114072   1.671   0.159  16.487  0.8386 -0.7104 -1.2209
    3TMC3    H214073   1.945   0.012  16.779  1.8666  1.4470 -2.3741
    3TMC3    C714074   1.925   0.169  16.565  0.1344  1.1099  0.2328
    3TMC3    C814075   1.792   4.532  16.851 -0.5968  0.4145  0.3680
    3TMC3    O114076   1.916   0.192  16.442 -0.3295  0.0175  0.2888
    3TMC3    O214077   1.717   4.434  16.844 -0.8421 -0.6610  0.1416
    4MPD1     C14078   2.021   4.350  17.270  0.1893  0.0816  0.2705
    4MPD1    C114079   2.083   4.472  17.247 -0.3698 -0.3504  0.0088
    4MPD1    C214080   2.036   4.537  17.130  0.6413 -0.0279 -0.1055
    4MPD1    C314081   1.929   4.489  17.051 -0.5144 -0.2125 -0.2773
    4MPD1    C414082   1.884   4.358  17.075  0.3117  0.3449 -0.3935
    4MPD1    C514083   1.930   4.294  17.186 -0.3309 -0.0876  0.9199
    4MPD1     H14084   2.079   4.634  17.108 -0.5403  0.2314 -1.2812
    4MPD1    H114085   1.796   4.316  17.027  1.4146 -0.2637 -1.8622
    4MPD1    H214086   2.045   4.298  17.362 -1.8680  1.5896  1.6635
    4MPD1    H314087   1.875   4.209  17.224 -1.3190 -0.0591 -0.4001
    4MPD1     N14088   1.890   4.564  16.939 -0.0848  0.2400 -0.1747
    4MPD1    H514089   1.941   4.650  16.923  1.2110 -0.3426  0.7805
    4MPD1    N114090   2.196   4.518  17.318  0.1772  0.0650 -0.1601
    4MPD1    H614091   2.190   4.489  17.416 -0.0689  1.2948  0.1899
    4MPD1    H714092   2.214   4.618  17.314 -0.6728  0.1864 -0.8817
    1TCq1    O114093   4.563   3.832  11.701 -0.1989  0.2588  0.3186
    1TCq1    C114094   4.460   3.884  11.626  1.1395  0.3999 -0.0034
    1TCq1    O214095   4.463   3.889  11.506  0.2885 -0.0024 -0.3420
    1TCq1    C214096   4.335   3.890  11.696 -0.2238  0.2966 -0.4184
    1TCq1    C314097   4.219   3.902  11.624 -0.1772 -0.3518  0.2078
    1TCq1    C414098   4.101   3.911  11.696  0.0074 -0.7665  0.0512
    1TCq1    C514099   4.093   3.910  11.828  0.9543  0.3258 -0.4660
    1TCq1    C614100   4.216   3.908  11.887  0.1328  0.0028  0.5699
    1TCq1    C714101   4.335   3.911  11.830 -0.1233  0.2498 -0.4071
    1TCq1    C814102   4.222   3.840  12.014  1.1797  0.2973  0.2518
    1TCq1    O414103   4.315   3.877  12.084 -0.3413  0.1140 -0.2555
    1TCq1    C914104   3.979   3.874  11.627  0.6294 -0.6265 -0.5466
    1TCq1    O514105   3.978   3.836  11.508  0.7194 -0.1305 -0.2189
    1TCq1    O614106   3.873   3.877  11.693  0.1731 -0.0238  0.3800
    1TCq1    H114107   4.545   3.818  11.796 -0.0487  0.5298  0.3881
    1TCq1    H214108   4.220   3.872  11.520 -0.7089 -0.2523  0.1782
    1TCq1    H314109   3.995   3.905  11.874  1.4490 -0.0031  0.5445
    1TCq1    H414110   4.434   3.918  11.874  0.1927  0.9890 -1.2292
    2MPD1     C14111   4.061   3.481  12.349 -0.8345  0.5410 -0.5066
    2MPD1    C114112   3.964   3.503  12.252  0.5499  0.0180  0.1620
    2MPD1    C214113   3.982   3.603  12.157  0.6867  0.0325 -0.1272
    2MPD1    C314114   4.101   3.673  12.154 -0.4188 -0.8289  0.5361
    2MPD1    C414115   4.193   3.649  12.251  0.3243 -0.8579  0.4888
    2MPD1    C514116   4.181   3.548  12.345  0.2918  1.0590  0.6277
    2MPD1     H14117   3.911   3.624  12.078  0.9540  0.5606 -0.2270
    2MPD1    H114118   4.290   3.698  12.244  0.0523 -0.9073 -3.2594
    2MPD1    H214119   4.061   3.392  12.411  0.0541 -0.3955 -1.8246
    2MPD1    H314120   4.267   3.528  12.408  1.0545  0.2596 -0.6641
    2MPD1     N14121   4.109   3.768  12.049 -0.0474 -0.5172  0.2360
    2MPD1    H514122   4.040   3.754  11.977  1.7278 -0.1506 -1.5386
    2MPD1    N114123   3.876   3.399  12.214  1.0779 -0.0046 -0.1715
    2MPD1    H614124   3.834   3.361  12.298 -0.7163  0.4597 -0.8500
    2MPD1    H714125   3.807   3.436  12.149 -0.1372 -0.7682  0.6593
    1TMC1    C114126   0.878   1.187   1.892  0.2393  0.2056  0.5567
    1TMC1    C214127   0.894   1.323   1.902 -0.7371 -0.4517  0.1027
    1TMC1    C314128   0.936   1.391   1.790 -0.3591 -0.4878  0.2135
    1TMC1    C414129   0.914   1.114   1.780 -0.4758  0.1589  0.6544
    1TMC1    C514130   0.964   1.186   1.671  0.3209 -0.4634 -0.8588
    1TMC1    C614131   0.975   1.322   1.676  0.1818 -0.6799 -0.0532
    1TMC1     C14132   0.811   1.130   2.008  0.1591 -0.2192  0.5789
    1TMC1     O14133   0.729   1.206   2.060  0.1925  0.4561  0.0313
    1TMC1     H14134   0.875   1.362   2.001 -1.6385 -0.0668 -0.2204
    1TMC1    H114135   0.933   1.007   1.777  1.4994  0.4876  1.3361
    1TMC1    H214136   1.025   1.375   1.596  1.1260 -1.3104  0.1230
    1TMC1    C714137   0.998   1.121   1.547 -0.4157 -0.6856  0.1999
    1TMC1    C814138   0.946   1.535   1.783  0.6556 -0.0973 -0.3083
    1TMC1    O114139   1.048   1.182   1.455  0.4097 -0.1795 -0.1861
    1TMC1    O214140   1.000   1.588   1.689  0.1730 -0.9971  0.9836
    1TMC1    O314141   0.940   0.992   1.537  0.1233  0.1903  0.1391
    1TMC1    H314142   0.882   0.957   1.608 -3.1109  2.4539 -1.3741
    1TMC1    O514143   0.907   1.602   1.894 -0.2397  0.1717 -0.5905
    1TMC1    H514144   0.864   1.545   1.962 -0.2354  1.3273  0.3682
    2MPD1     C14145   0.572   0.725   2.206 -0.6276  0.1549 -0.1530
    2MPD1    C114146   0.697   0.685   2.167  0.1372  0.6034  0.3011
    2MPD1    C214147   0.777   0.770   2.089 -0.5472  0.3399  0.5128
    2MPD1    C314148   0.742   0.905   2.073  1.2113  0.1790 -0.6997
    2MPD1    C414149   0.626   0.946   2.122  0.3356 -0.0181  0.1407
    2MPD1    C514150   0.535   0.849   2.176  0.2946 -0.1981  0.7678
    2MPD1     H14151   0.868   0.731   2.046 -1.3182  2.2728 -2.8729
    2MPD1    H114152   0.580   1.042   2.101  0.7755  0.0561 -0.4963
    2MPD1    H214153   0.501   0.657   2.252 -0.3029  0.3751  0.6557
    2MPD1    H314154   0.431   0.871   2.195  0.5416  1.0546  0.6998
    2MPD1     N14155   0.825   0.995   2.004 -0.0283 -0.9398 -0.0728
    2MPD1    H514156   0.900   0.958   1.947 -1.2550  1.2106 -3.0857
    2MPD1    N114157   0.736   0.555   2.203  0.8541  0.4156 -0.3934
    2MPD1    H614158   0.777   0.494   2.133  2.8137 -0.1342  1.2372
    2MPD1    H714159   0.661   0.503   2.249 -0.5286  4.2420  1.7177
    1MPD1     C14160   0.032   3.635  11.928  0.3952  0.3983 -0.3878
    1MPD1    C114161   4.705   3.746  11.979 -0.1539  0.1710 -0.4842
    1MPD1    C214162   0.037   3.856  12.015 -0.8869  0.2601  0.0970
    1MPD1    C314163   0.178   3.842  12.022 -0.0103 -0.5599 -0.1599
    1MPD1    C414164   0.248   3.728  11.980  0.0029 -0.0466 -0.0714
    1MPD1    C514165   0.171   3.625  11.933  0.4808 -0.3369  0.3740
    1MPD1     H14166   4.728   3.950  12.039  3.4212  2.0720  1.6320
    1MPD1    H114167   0.353   3.706  11.998  0.8192  0.5456 -3.9926
    1MPD1    H214168   4.717   3.553  11.882 -0.5327  0.6474  0.2753
    1MPD1    H314169   0.217   3.535  11.895  0.2277 -0.1287 -0.4072
    1MPD1     N14170   0.241   3.965  12.051 -0.0670  0.3402 -0.2361
    1MPD1    H514171   0.184   4.047  12.070 -1.1943 -0.5368  0.1441
    1MPD1    N114172   4.568   3.746  11.967  0.4494  0.3289  0.2083
    1MPD1    H614173   4.533   3.654  11.994 -0.9493  1.4257  2.0870
    1MPD1    H714174   4.522   3.804  12.037  0.5160 -2.0350  2.2008
    2MPD1     C14175   1.422   4.385  10.037 -0.1855  0.1800 -0.5918
    2MPD1    C114176   1.326   4.283  10.016  0.3927 -0.5389 -0.2008
    2MPD1    C214177   1.191   4.296  10.060  0.4891  0.9477 -0.1559
    2MPD1    C314178   1.160   4.408  10.134  0.0881  0.2485 -0.3578
    2MPD1    C414179   1.258   4.509  10.160  0.3065  1.1957 -0.2199
    2MPD1    C514180   1.384   4.498  10.109 -0.0987 -0.1267 -0.2626
    2MPD1     H14181   1.123   4.213  10.042  1.8439 -0.2185  0.0545
    2MPD1    H114182   1.237   4.596  10.221  0.2047  0.8728  0.2084
    2MPD1    H214183   1.524   4.368  10.005 -0.3702 -0.4913 -0.8244
    2MPD1    H314184   1.461   4.572  10.127 -0.4990  0.5001 -1.1035
    2MPD1     N14185   1.029   4.420  10.183  0.0006 -0.0122 -0.3464
    2MPD1    H514186   0.970   4.338  10.172 -1.1767  1.0908 -2.1554
    2MPD1    N114187   1.347   4.184   9.924  0.0895 -0.1311 -0.2053
    2MPD1    H614188   1.300   4.096   9.945  2.2214 -1.8032 -2.4488
    2MPD1    H714189   1.446   4.164   9.907 -0.0032  1.3928 -2.5249
    3MPD1     C14190   0.262   4.244   9.785  0.5591 -0.2148 -0.2290
    3MPD1    C114191   0.213   4.290   9.905  0.3113  0.0116  0.2831
    3MPD1    C214192   0.312   4.333   9.998 -0.0612 -0.2188  0.2255
    3MPD1    C314193   0.448   4.282   9.975 -0.2948 -0.1830 -0.4843
    3MPD1    C414194   0.479   4.205   9.869  0.0888  0.0465 -0.2612
    3MPD1    C514195   0.383   4.185   9.774  0.3931 -0.6622  0.9559
    3MPD1     H14196   0.283   4.391  10.085  1.3077 -0.2749  0.7165
    3MPD1    H114197   0.581   4.169   9.860  0.1753  0.6998 -1.8648
    3MPD1    H214198   0.192   4.225   9.705  0.2932 -0.4293  0.0576
    3MPD1    H314199   0.401   4.139   9.677  2.2042  2.5784 -0.2595
    3MPD1     N14200   0.549   4.304  10.073 -0.3201  0.2494 -0.1920
    3MPD1    H514201   0.641   4.275  10.041  0.7564  3.3690  0.0224
    3MPD1    N114202   0.083   4.345   9.924  0.4776 -0.4747  0.1869
    3MPD1    H614203   0.009   4.297   9.875 -2.4681  1.9905  2.2586
    3MPD1    H714204   0.059   4.344  10.023 -1.6860  0.0744 -0.3324
    4MPD2     C14205   0.269   4.652  11.884  0.5485  0.2714  0.2201
    4MPD2    C114206   0.398   4.623  11.916  0.0346 -0.2111  0.4477
    4MPD2    C214207   0.502   4.658  11.828  0.2005 -0.6423 -0.3748
    4MPD2    C314208   0.471   4.723  11.708 -0.0090 -0.0455 -0.2013
    4MPD2    C414209   0.338   0.006  11.679 -0.0819  0.4807  0.2593
    4MPD2    C514210   0.241   4.705  11.764  0.2317 -0.1299 -0.3058
    4MPD2     H14211   0.602   4.631  11.861  1.1825  0.5192 -2.3440
    4MPD2    H114212   0.314   0.054  11.585 -1.5066  1.3716  1.0831
    4MPD2    H214213   0.188   4.632  11.952  0.9012 -1.0360  0.2514
    4MPD2    H314214   0.139   4.732  11.739 -0.4258 -1.1128  1.3960
    4MPD2     N14215   0.573   0.030  11.621  0.4839  0.0396 -0.2292
    4MPD2    H514216   0.548   0.087  11.541 -2.0727  0.9994  1.2281
    4MPD2    N114217   0.430   4.532  12.015 -0.4775 -0.3798 -0.0564
    4MPD2    H714218   0.527   4.501  12.010 -0.4151 -0.3403  0.8865
    5TMC3    C114219   0.410   4.335  12.149 -0.4925  0.4178 -0.5745
    5TMC3    C214220   0.349   4.207  12.123  0.8826 -0.5110 -0.6588
    5TMC3    C314221   0.435   4.109  12.088  0.1539 -0.0507 -0.5796
    5TMC3    C414222   0.548   4.348  12.147 -0.2399 -0.6217 -0.9919
    5TMC3    C514223   0.621   4.241  12.108 -0.1694  0.3700  0.0994
    5TMC3    C614224   0.569   4.123  12.088 -0.3419  0.5378 -0.4605
    5TMC3     C14225   0.342   4.445  12.076  0.1039 -0.4357  0.2444
    5TMC3     O14226   0.220   4.433  12.062 -0.4473  0.1275  0.2469
    5TMC3     H14227   0.241   4.197  12.125  0.9167 -0.8283 -0.3251
    5TMC3    H114228   0.602   4.439  12.169 -0.4129 -0.4191 -1.4073
    5TMC3    H214229   0.627   4.034  12.067 -1.6037  0.1676 -2.3268
    5TMC3    C714230   0.698   4.291  12.000  0.2089  0.2856  0.2675
    5TMC3    C814231   0.379   3.977  12.055 -0.0289  0.5704  0.5530
    5TMC3    O114232   0.681   4.406  11.962 -0.9047  0.0978 -0.1222
    5TMC3    O214233   0.466   3.895  12.025  0.2506  0.0570  0.3103
    6TMC3    C114234   0.844   4.490  10.303  0.7166  0.0772  0.4082
    6TMC3    C214235   0.763   4.414  10.221  0.0442 -0.6372 -0.2931
    6TMC3    C314236   0.644   4.368  10.281  0.1178 -0.2104 -0.1276
    6TMC3    C414237   0.817   4.529  10.428 -0.2211 -0.1774  0.6850
    6TMC3    C514238   0.702   4.482  10.486 -0.0772  0.3681  0.2462
    6TMC3    C614239   0.624   4.392  10.417 -0.2725  0.4452  0.0144
    6TMC3     C14240   0.977   4.522  10.255  0.1057  0.5347  0.4720
    6TMC3     O14241   1.040   4.600  10.322 -0.1397 -0.0525 -0.3252
    6TMC3     H14242   0.788   4.409  10.115  0.3994  1.7631 -0.3152
    6TMC3    H114243   0.890   4.596  10.471 -1.3660 -0.4171  3.0157
    6TMC3    H214244   0.540   4.343  10.466 -0.6501  2.0323  0.9608
    6TMC3    C714245   0.693   4.486  10.629  0.3440 -0.4832 -0.2880
    6TMC3    C814246   0.524   4.358  10.200 -0.1430 -0.0879  0.6938
    6TMC3    O114247   0.792   4.523  10.689  0.3411  0.3446 -0.0496
    6TMC3    O214248   0.421   4.400  10.254 -0.0648  0.0821  0.1732
    7MPD2     C14249   1.086   4.275  11.667 -0.3301 -0.3770 -0.2274
    7MPD2    C114250   0.977   4.363  11.680  0.0745  0.0449 -0.6285
    7MPD2    C214251   0.887   4.334  11.782 -0.1693 -0.2813  0.0205
    7MPD2    C314252   0.902   4.229  11.865 -0.3919 -0.0024  0.3827
    7MPD2    C414253   0.990   4.128  11.829  0.5158 -0.1042  0.4393
    7MPD2    C514254   1.090   4.160  11.738 -0.0580  0.3428  0.2309
    7MPD2     H14255   0.810   4.406  11.806 -0.8247 -1.1545  0.5294
    7MPD2    H114256   0.986   4.037  11.888 -0.8336 -0.3158  0.0194
    7MPD2    H214257   1.161   4.288  11.590 -0.4244  0.6884 -0.1307
    7MPD2    H314258   1.168   4.088  11.714 -2.1766 -1.5548 -0.9305
    7MPD2     N14259   0.809   4.208  11.970 -0.2374 -0.1958  0.7225
    7MPD2    H514260   0.822   4.123  12.024  0.8891  0.8668  2.0958
    7MPD2    N114261   0.968   4.487  11.611  0.3515 -0.4255 -0.0023
    7MPD2    H714262   0.899   4.556  11.635  2.1666  0.5932  2.2835
    8TMC3    C114263   0.991   4.626  11.433  0.4104  0.3104 -1.1035
    8TMC3    C214264   0.929   4.574  11.323 -0.2883 -0.0202 -0.4724
    8TMC3    C314265   0.800   4.612  11.296 -0.8308 -0.4018 -0.4266
    8TMC3    C414266   0.914   4.709  11.516 -0.2981  0.0461 -0.3105
    8TMC3    C514267   0.779   4.732  11.497  0.1123 -0.2717  0.5324
    8TMC3    C614268   0.726   4.700  11.377 -0.0268  0.6533  0.3633
    8TMC3     C14269   1.055   4.523  11.507 -0.5946  0.2544  0.9236
    8TMC3     O14270   1.154   4.460  11.470  0.1398  0.3093 -0.5200
    8TMC3     H14271   0.971   4.484  11.279  0.3715  0.4013 -0.6912
    8TMC3    H114272   0.959   0.016  11.603 -1.0533 -3.4361  1.9102
    8TMC3    H214273   0.621   4.718  11.355  0.1095  1.2170  0.1768
    8TMC3    C714274   0.704   4.718  11.628  0.1693 -0.0490  0.5784
    8TMC3    C814275   0.746   4.566  11.173 -0.3933 -0.1718 -0.2360
    8TMC3    O114276   0.762   4.648  11.707 -0.6422  0.1804 -0.9022
    8TMC3    O214277   0.838   4.533  11.097 -0.1880 -0.0362 -0.7581
    9MPD2     C14278   0.419   4.450  11.075 -0.0145 -0.3616  0.1793
    9MPD2    C114279   0.550   4.490  11.054 -0.0342  0.3469  0.3099
    9MPD2    C214280   0.600   4.492  10.922 -0.9044  0.3526 -0.2746
    9MPD2    C314281   0.521   4.455  10.815  0.0675 -0.1504  0.7720
    9MPD2    C414282   0.393   4.406  10.847 -0.0549 -0.2610 -0.1569
    9MPD2    C514283   0.350   4.391  10.972  0.4348  0.5041  0.3109
    9MPD2     H14284   0.697   4.535  10.899 -1.9912  1.7826 -2.1432
    9MPD2    H114285   0.317   4.383  10.773 -0.2146  0.1796 -0.1266
    9MPD2    H214286   0.377   4.449  11.175  0.8023 -0.9035  0.5148
    9MPD2    H314287   0.247   4.382  11.005  0.6034 -1.7026  0.2408
    9MPD2     N14288   0.557   4.452  10.679  0.4018  0.5842  0.3607
    9MPD2    H514289   0.481   4.435  10.614 -0.4065 -1.2780  1.8216
    9MPD2    N114290   0.615   4.544  11.168 -0.0907 -0.2440 -0.4725
    9MPD2    H714291   0.565   4.549  11.255  1.4541  3.7334  0.1718
    1MPD1     C14292   3.325   2.797  15.754 -0.2683 -0.9248 -0.3962
    1MPD1    C114293   3.374   2.924  15.776  0.7091  0.0508 -0.2895
    1MPD1    C214294   3.455   2.946  15.886 -0.2581  0.3172  0.4679
    1MPD1    C314295   3.501   2.834  15.958 -0.5953  0.3735  0.7651
    1MPD1    C414296   3.456   2.712  15.923 -0.2958  0.1349 -0.3547
    1MPD1    C514297   3.363   2.690  15.823 -0.1752 -0.2791 -0.5845
    1MPD1     H14298   3.476   3.049  15.912 -0.4562  0.9725 -1.9913
    1MPD1    H114299   3.494   2.626  15.977  0.0933  0.5692  0.0660
    1MPD1    H214300   3.251   2.785  15.676 -1.4408  0.6260  0.4754
    1MPD1    H314301   3.329   2.591  15.793  1.5538 -0.7499 -1.0271
    1MPD1     N14302   3.594   2.843  16.058 -0.2957  1.0644  0.3162
    1MPD1    H514303   3.625   2.760  16.108 -1.7713  0.6968  0.6294
    1MPD1    N114304   3.307   3.029  15.713  0.9605 -0.6274  0.1763
    1MPD1    H614305   3.264   3.008  15.624 -0.3481  0.6013  0.5130
    1MPD1    H714306   3.374   3.106  15.706  1.1973 -1.1886 -3.4391
    2TMC2    C114307   3.955   2.998  16.306 -0.2539  0.1381  0.0092
    2TMC2    C214308   3.944   2.907  16.405 -0.9936 -0.5585  0.3182
    2TMC2    C314309   3.830   2.836  16.407  0.4781 -0.0261 -0.2804
    2TMC2    C414310   3.869   3.008  16.201 -0.0564 -0.4071  0.4401
    2TMC2    C514311   3.749   2.939  16.204  0.2954 -0.0052  0.2671
    2TMC2    C614312   3.737   2.841  16.303 -0.0059 -0.3609  0.8159
    2TMC2     C14313   4.092   3.038  16.274 -0.3223 -0.6305  0.1751
    2TMC2     O14314   4.192   2.970  16.300  0.2428 -0.3431  0.7526
    2TMC2     H14315   4.005   2.919  16.493 -0.4840 -0.9154  0.0172
    2TMC2    H114316   3.883   3.084  16.125  0.6672 -2.2801 -1.3231
    2TMC2    H214317   3.658   2.767  16.309 -0.4475  0.1357  1.0316
    2TMC2    C714318   3.662   2.957  16.089 -0.2422  0.1472 -0.2067
    2TMC2    C814319   3.804   2.736  16.508 -0.2693  0.4553  0.6135
    2TMC2    O114320   3.668   3.064  16.025 -0.0655 -0.4421 -0.2891
    2TMC2    O214321   3.693   2.712  16.552  0.0529  0.1022 -0.3484
    2TMC2    O514322   3.916   2.671  16.527 -0.5956 -0.1639 -0.0983
    2TMC2    H514323   3.979   2.704  16.460 -1.9334 -0.0614 -1.3010
    3MPD1     C14324   4.350   3.338  15.961 -0.4044  0.0742  0.7137
    3MPD1    C114325   4.236   3.407  15.994 -0.2090 -0.1564 -0.0648
    3MPD1    C214326   4.150   3.348  16.087  0.5239 -0.5961  0.1852
    3MPD1    C314327   4.183   3.225  16.144 -0.3987  0.3083  0.4296
    3MPD1    C414328   4.311   3.169  16.122 -0.1574 -0.2501  0.1119
    3MPD1    C514329   4.390   3.222  16.019 -0.4767 -0.6126  0.3589
    3MPD1     H14330   4.050   3.389  16.095 -0.1815 -2.3812  0.7140
    3MPD1    H114331   4.336   3.070  16.158 -1.6700 -0.0678  1.6850
    3MPD1    H214332   4.416   3.385  15.889 -1.9873  1.3784  0.1119
    3MPD1    H314333   4.480   3.172  15.983  0.6445  1.0353  0.8652
    3MPD1     N14334   4.080   3.163  16.212  0.4723 -0.0400 -0.5970
    3MPD1    H514335   3.995   3.219  16.212  1.6447  1.7286 -0.0744
    3MPD1    N114336   4.185   3.510  15.910 -0.4847  0.5257 -0.9711
    3MPD1    H614337   4.256   3.565  15.863 -0.8693  1.3631 -0.5743
    3MPD1    H714338   4.119   3.580  15.944 -0.2371  0.3538 -0.1434
    1TMC1    C114339   2.977   1.864  13.408  0.0059  0.4749  0.6980
    1TMC1    C214340   2.850   1.824  13.397 -0.1623 -0.0207 -0.3740
    1TMC1    C314341   2.813   1.711  13.458  0.9344  0.5288  0.0081
    1TMC1    C414342   3.071   1.797  13.480  0.0514  0.3282  0.5027
    1TMC1    C514343   3.022   1.683  13.551 -1.0934 -0.4269 -0.3609
    1TMC1    C614344   2.893   1.643  13.540  0.1039  0.5420  0.2549
    1TMC1     C14345   3.018   1.956  13.305 -0.6224  0.0683  0.0080
    1TMC1     O14346   2.932   1.988  13.226  0.5634 -0.4049  0.7057
    1TMC1     H14347   2.772   1.883  13.349  0.2681  1.4170  0.7081
    1TMC1    H114348   3.176   1.816  13.494  0.1485  0.5475 -0.4896
    1TMC1    H214349   2.855   1.566  13.607  0.3671 -0.9535 -1.3262
    1TMC1    C714350   3.124   1.583  13.549  0.0015  0.4446 -0.4880
    1TMC1    C814351   2.667   1.699  13.460 -0.1820 -0.3029 -0.3735
    1TMC1    O114352   3.224   1.601  13.614  0.0410 -0.1673 -0.2912
    1TMC1    O214353   2.589   1.796  13.461 -0.2018 -0.4950  0.4416
    1TMC1    O314354   3.062   1.463  13.528 -0.4503  0.5446  0.0665
    1TMC1    H314355   2.993   1.475  13.460 -1.0968  1.6524  0.9330
    1TMC1    O514356   2.637   1.583  13.505  0.1272  0.0614  0.3386
    1TMC1    H514357   2.702   1.521  13.464 -1.2080  0.5364 -2.5405
    2MPD2     C14358   3.160   2.132  13.120  0.9906 -0.1019 -0.6382
    2MPD2    C114359   3.204   2.110  13.248  0.4670  0.3238  0.1702
    2MPD2    C214360   3.327   2.168  13.288 -0.5784 -0.0206  0.1178
    2MPD2    C314361   3.394   2.242  13.198 -0.0876  1.1089 -0.4406
    2MPD2    C414362   3.338   2.276  13.083 -1.0249  0.3384 -0.2506
    2MPD2    C514363   3.227   2.217  13.038  0.5874  0.1914 -0.9329
    2MPD2     H14364   3.370   2.148  13.386 -0.8053  1.2305  0.4662
    2MPD2    H114365   3.385   2.342  13.011  1.6254 -0.5526  0.6589
    2MPD2    H214366   3.082   2.075  13.070  2.7623 -2.3860 -0.8315
    2MPD2    H314367   3.187   2.233  12.938  0.1456 -0.2510 -0.8320
    2MPD2     N14368   3.521   2.298  13.236  0.4455  0.7620 -0.1230
    2MPD2    H514369   3.565   2.264  13.321  1.0989  0.1891 -0.6839
    2MPD2    N114370   3.138   2.018  13.332 -0.0412  0.2283  0.3563
    2MPD2    H714371   3.176   2.005  13.426  0.4591 -0.9400 -0.0087
    3TCq1    O114372   3.858   2.322  13.549  0.1792 -0.1283  0.5349
    3TCq1    C114373   3.880   2.453  13.549  0.6009 -0.6691 -0.3652
    3TCq1    O214374   3.965   2.509  13.615  0.1627 -0.4010  0.5636
    3TCq1    C214375   3.842   2.488  13.410  0.2023 -0.2697  0.6993
    3TCq1    C314376   3.935   2.549  13.335 -0.2636  0.0476 -0.2882
    3TCq1    C414377   3.927   2.541  13.196 -0.4734 -0.5737  0.1517
    3TCq1    C514378   3.825   2.470  13.138  0.0945  0.2244 -0.0210
    3TCq1    C614379   3.728   2.410  13.221  0.0121  1.1357 -0.4410
    3TCq1    C714380   3.737   2.417  13.354 -0.8623 -0.0397 -0.3941
    3TCq1    C814381   3.599   2.380  13.163 -0.0040  0.0194 -0.3706
    3TCq1    O414382   3.584   2.426  13.051 -0.2000 -0.0576  0.3283
    3TCq1    C914383   4.032   2.603  13.119 -0.2146  0.2969 -0.3347
    3TCq1    O514384   4.044   2.579  12.997 -0.0227 -0.4334  0.3911
    3TCq1    O614385   4.130   2.648  13.181  0.1153 -0.3679 -0.0047
    3TCq1    H114386   3.801   2.294  13.474 -0.2978  1.7635  0.1803
    3TCq1    H214387   4.030   2.578  13.379 -0.9531 -1.2005  1.9933
    3TCq1    H314388   3.810   2.460  13.032 -0.7785  1.9490 -0.0644
    3TCq1    H414389   3.655   2.388  13.418  0.0998  1.2403  1.4210
    1MPD2     C14390   2.544   3.272  15.065  0.2260  0.2742 -0.0861
    1MPD2    C114391   2.481   3.154  15.033  0.1257 -0.2320  0.3162
    1MPD2    C214392   2.526   3.032  15.070  0.1471 -0.3736  0.2727
    1MPD2    C314393   2.636   3.030  15.151  0.0097 -0.5181  0.1151
    1MPD2    C414394   2.703   3.140  15.194 -0.0598  0.3618  0.1754
    1MPD2    C514395   2.660   3.260  15.140 -0.0896 -0.3881  0.7979
    1MPD2     H14396   2.493   2.940  15.024 -0.6542 -0.5086  1.1148
    1MPD2    H114397   2.791   3.141  15.257  1.1504  1.8922 -1.5509
    1MPD2    H214398   2.503   3.368  15.035  0.6019  0.3745 -0.2761
    1MPD2    H314399   2.715   3.352  15.154  0.0485 -0.1566 -1.3478
    1MPD2     N14400   2.691   2.908  15.175  0.4591 -0.1745  0.2486
    1MPD2    H514401   2.636   2.831  15.137 -2.2131  1.8073  0.1118
    1MPD2    N114402   2.358   3.173  14.958 -0.0267 -0.4645 -0.4889
    1MPD2    H714403   2.323   3.268  14.951 -0.4541 -0.7085 -1.7241
    2TMC3    C114404   2.160   3.126  14.845 -0.0182  0.2674 -0.3580
    2TMC3    C214405   2.100   3.043  14.935 -0.5129 -0.8015 -0.1874
    2TMC3    C314406   1.981   2.989  14.898 -0.2963  0.0087  0.6058
    2TMC3    C414407   2.112   3.132  14.721  0.3360  0.0517  0.0994
    2TMC3    C514408   1.999   3.058  14.686 -0.2378  0.2055  0.4678
    2TMC3    C614409   1.926   2.992  14.775 -0.0802  0.0913 -0.1020
    2TMC3     C14410   2.301   3.087  14.867 -0.0822  0.0074  0.2868
    2TMC3     O14411   2.321   2.966  14.863  0.0005  0.1546 -0.8877
    2TMC3     H14412   2.149   3.028  15.031  0.6231 -0.5074 -0.7255
    2TMC3    H114413   2.170   3.179  14.643 -0.7506  0.1320 -0.6531
    2TMC3    H214414   1.830   2.948  14.751  0.0334 -0.1442 -0.1246
    2TMC3    C714415   1.914   3.121  14.585  0.4031  0.2167  0.3877
    2TMC3    C814416   1.965   2.851  14.950 -0.1571  0.0512 -0.4776
    2TMC3    O114417   1.802   3.069  14.559 -0.0797  0.2491  0.4072
    2TMC3    O214418   1.850   2.803  14.945  0.3683  0.0965  0.0687
    3TCq1    O114419   2.057   4.224  14.147  0.4977  0.4828  0.1880
    3TCq1    C114420   2.160   4.215  14.233 -0.2621 -0.5686 -0.4128
    3TCq1    O214421   2.273   4.256  14.203 -0.4039 -0.1092 -0.5529
    3TCq1    C214422   2.138   4.114  14.334  0.0767  0.1341  0.4567
    3TCq1    C314423   2.222   4.109  14.440 -0.3486 -0.6989 -0.0845
    3TCq1    C414424   2.209   4.002  14.525 -0.6497  0.1608  0.7964
    3TCq1    C514425   2.107   3.914  14.517  0.0441 -0.3991  0.8309
    3TCq1    C614426   2.026   3.926  14.402 -0.0362 -0.0781 -0.5770
    3TCq1    C714427   2.046   4.019  14.305  0.7155 -0.0407  0.0222
    3TCq1    C814428   1.925   3.826  14.364  0.4244  0.0492 -0.9993
    3TCq1    O414429   1.835   3.849  14.285 -0.5868 -0.0758 -0.5951
    3TCq1    C914430   2.300   3.994  14.634 -0.0532 -0.3604 -0.6766
    3TCq1    O514431   2.299   3.882  14.689 -0.3831 -0.0048 -0.3151
    3TCq1    O614432   2.328   4.101  14.693  0.1211 -0.2594  0.3167
    3TCq1    H114433   1.968   4.223  14.187 -0.5261  1.7560 -2.0547
    3TCq1    H214434   2.301   4.181  14.456  0.2932 -1.5308  0.4981
    3TCq1    H314435   2.076   3.846  14.595 -0.5198 -0.8763  0.1980
    3TCq1    H414436   1.978   4.026  14.220 -0.8148  4.1207  1.5618
    4MPD2     C14437   1.769   3.568  14.356 -0.7110 -0.1937 -0.3264
    4MPD2    C114438   1.890   3.583  14.420  0.3723  1.1208 -0.8943
    4MPD2    C214439   1.944   3.476  14.486  0.6102 -0.5370  0.4551
    4MPD2    C314440   1.880   3.356  14.494  0.0329  0.4044  0.0592
    4MPD2    C414441   1.760   3.341  14.431 -0.7005 -0.4781 -0.7557
    4MPD2    C514442   1.705   3.445  14.360 -0.6217  0.3235  0.5221
    4MPD2     H14443   2.038   3.491  14.538  0.1401  1.0259  0.8600
    4MPD2    H114444   1.696   3.254  14.438 -0.3873 -0.5978  0.6653
    4MPD2    H214445   1.713   3.651  14.312  1.0132  0.6321 -0.9424
    4MPD2    H314446   1.618   3.435  14.296  0.1258  1.2564 -0.6480
    4MPD2     N14447   1.945   3.248  14.571  0.2256  0.2172 -0.2013
    4MPD2    H514448   2.035   3.272  14.612 -0.5145  0.0175  1.5336
    4MPD2    N114449   1.954   3.707  14.431  0.8742  0.1572 -0.4768
    4MPD2    H714450   2.044   3.706  14.478  0.1578  3.0548  0.9700
    5TMC2    C114451   2.662   2.546  15.168 -0.4401 -0.0997  0.1666
    5TMC2    C214452   2.650   2.490  15.286 -0.1285 -0.5405 -0.6898
    5TMC2    C314453   2.715   2.549  15.391 -0.0303  0.3385  0.0835
    5TMC2    C414454   2.752   2.651  15.145 -0.0961 -0.1688 -0.2478
    5TMC2    C514455   2.793   2.720  15.255 -0.6717  0.1959  0.1415
    5TMC2    C614456   2.776   2.671  15.380  0.1466  0.7163  0.0106
    5TMC2     C14457   2.533   2.571  15.098 -0.1918 -0.0990 -0.1616
    5TMC2     O14458   2.540   2.660  15.018  0.1511  0.5844 -0.2650
    5TMC2     H14459   2.582   2.409  15.310 -0.7344  0.1596 -0.0217
    5TMC2    H114460   2.767   2.689  15.045 -0.5720  0.5712 -0.0335
    5TMC2    H214461   2.814   2.723  15.468 -0.9561 -1.6844  1.8964
    5TMC2    C714462   2.801   2.860  15.240 -0.0136  0.2280  0.5337
    5TMC2    C814463   2.674   2.506  15.519 -0.6900  0.1315  0.6271
    5TMC2    O114464   2.893   2.925  15.295 -0.7156 -0.0706 -0.2583
    5TMC2    O214465   2.714   2.399  15.566 -0.3347 -0.3618 -0.0545
    5TMC2    O514466   2.542   2.537  15.516 -0.0194  0.2175 -0.3065
    5TMC2    H514467   2.524   2.591  15.437 -0.5109  0.0185 -0.3311
    6MPD2     C14468   2.024   2.573  15.040 -0.4803 -0.4902 -0.6422
    6MPD2    C114469   2.118   2.671  15.023 -0.5624  0.3191 -0.3423
    6MPD2    C214470   2.251   2.640  15.043  0.1964 -0.7685 -0.7473
    6MPD2    C314471   2.288   2.525  15.108  0.0606  0.1436 -0.3923
    6MPD2    C414472   2.191   2.429  15.138  0.3618  0.3188 -0.3081
    6MPD2    C514473   2.063   2.451  15.088  0.0457 -0.3019  1.0375
    6MPD2     H14474   2.320   2.722  15.023  0.6228 -0.9169  0.1073
    6MPD2    H114475   2.216   2.333  15.183 -1.5236  0.3637  0.8211
    6MPD2    H214476   1.919   2.595  15.023 -1.1822 -0.7473  3.3646
    6MPD2    H314477   1.980   2.384  15.102  0.0971 -0.0018  2.8138
    6MPD2     N14478   2.423   2.497  15.134 -0.2916  0.2667  0.2565
    6MPD2    H514479   2.437   2.414  15.190  0.7368  0.1773 -0.1254
    6MPD2    N114480   2.087   2.807  14.987  0.0566  0.3320 -0.4438
    6MPD2    H714481   2.174   2.857  14.973 -0.9219  1.6744 -1.7609
  945NH4     N114482   1.248   1.870   8.350 -0.9453  0.5719  0.2475
  945NH4     H214483   1.267   1.781   8.300 -0.4789  2.6895 -3.3263
  945NH4     H314484   1.276   1.951   8.290  2.3959 -1.2727 -0.6447
  945NH4     H414485   1.310   1.882   8.432  2.0632  0.4513 -2.0084
  945NH4     H514486   1.148   1.889   8.370 -1.6879 -1.6151 -1.4069
  946SOD     NA14487   4.321   2.563  13.152  0.0633  0.0684  0.0636
  947SOD     NA14488   1.205   3.080   7.453  0.2407 -0.0100  0.3501
  948SOD     NA14489   1.783   0.727  16.609 -0.1232 -0.8011  0.3505
  949SOD     NA14490   4.396   2.510  12.593 -0.0138  0.5827 -0.7863
  950SOD     NA14491   1.245   2.163   7.743  0.1388 -0.1997  0.2970
  951SOD     NA14492   2.835   3.611  11.192  0.3616 -0.0713  0.0535
  952SOD     NA14493   3.744   4.677  10.899 -0.1292  0.4803 -0.4987
  953SOL     OW14494   2.907   0.665   8.390  0.4833  0.0897 -0.3294
  953SOL    HW114495   2.994   0.704   8.395  0.9938 -1.3574  2.0817
  953SOL    HW214496   2.877   0.668   8.481 -2.1140  1.4790 -1.2337
  954SOL     OW14497   0.041   2.900   8.910 -0.2758 -0.0606 -0.0215
  954SOL    HW114498   0.104   2.931   8.844  0.5239 -1.7570 -0.0328
  954SOL    HW214499   0.035   2.980   8.962 -0.9884 -0.4966  0.5619
  955SOL     OW14500   4.300   2.511   9.715 -0.1986  0.2071 -0.1581
  955SOL    HW114501   4.325   2.584   9.772  1.0309 -0.7386  0.5357
  955SOL    HW214502   4.313   2.554   9.631  1.2643  2.9432  1.4521
  956SOL     OW14503   0.632   3.693   0.907 -0.1704  0.1962 -0.3816
  956SOL    HW114504   0.681   3.616   0.878  0.5653  0.1851  0.8929
  956SOL    HW214505   0.626   3.746   0.827  0.1190  0.3726 -0.2838
  957SOL     OW14506   3.562   3.210   0.371  0.3812 -0.2706 -0.1972
  957SOL    HW114507   3.596   3.297   0.392  0.3232 -0.2936 -0.0041
  957SOL    HW214508   3.608   3.158   0.438 -0.2132  1.1134  1.2633
  958SOL     OW14509   2.861   2.906   1.915  0.1936  0.4444  0.1430
  958SOL    HW114510   2.847   2.818   1.880 -1.4654  0.4827  0.7071
  958SOL    HW214511   2.887   2.880   2.003  1.1069 -2.3352 -0.9301
  959SOL     OW14512   4.455   0.911  10.742 -0.1660 -0.7011 -0.4054
  959SOL    HW114513   4.542   0.915  10.781 -0.5726  0.0520  0.4078
  959SOL    HW214514   4.440   0.996  10.701 -0.0480 -0.9705 -1.0211
  960SOL     OW14515   0.733   1.597   2.901 -0.1115 -0.5293  0.5013
  960SOL    HW114516   0.651   1.551   2.887 -0.6196  0.3418  0.5913
  960SOL    HW214517   0.789   1.526   2.870 -1.7178 -1.0645 -1.1227
  961SOL     OW14518   3.267   2.918  11.583 -0.5381  0.0792  0.8537
  961SOL    HW114519   3.215   2.871  11.518 -0.6977  0.9134  0.3728
  961SOL    HW214520   3.289   2.853  11.649 -0.1975 -1.0108 -0.3423
  962SOL     OW14521   4.262   3.917  16.581 -0.6843  0.5542 -0.2023
  962SOL    HW114522   4.248   4.007  16.609  3.4839  1.7013 -1.9606
  962SOL    HW214523   4.280   3.926  16.487 -0.3528  0.4309 -0.1471
  963SOL     OW14524   2.530   2.487   3.121 -0.7727  0.0743  0.0066
  963SOL    HW114525   2.448   2.464   3.163 -0.8219 -0.2703 -0.2806
  963SOL    HW214526   2.578   2.404   3.120  1.3044  1.2691 -0.3825
  964SOL     OW14527   2.006   2.788   3.824  0.4520  0.0339  0.3669
  964SOL    HW114528   1.990   2.700   3.857  1.5514 -0.4507 -0.3566
  964SOL    HW214529   2.038   2.770   3.735 -2.2902  0.6422 -0.7347
  965SOL     OW14530   2.862   1.479   8.732 -0.2179 -0.2770 -0.0631
  965SOL    HW114531   2.820   1.486   8.646  0.6152  1.3140 -0.3334
  965SOL    HW214532   2.860   1.568   8.765  1.9403 -0.9362  1.7703
  966SOL     OW14533   3.576   4.015   6.913 -0.6313  0.8145 -0.6274
  966SOL    HW114534   3.566   3.946   6.979  0.5801  0.8218 -0.4415
  966SOL    HW214535   3.557   4.094   6.964  1.4635 -0.3482  1.9578
  967SOL     OW14536   2.183   3.061   8.899  0.2771  0.4718  1.0524
  967SOL    HW114537   2.109   3.055   8.839 -0.7762 -1.0569  2.4726
  967SOL    HW214538   2.188   3.156   8.909 -1.5980  0.5445  1.3062
  968SOL     OW14539   0.326   3.794   2.654 -0.2544 -0.2783  0.5437
  968SOL    HW114540   0.352   3.794   2.562  0.1816 -2.7389  0.6799
  968SOL    HW214541   0.261   3.725   2.663 -0.4407  0.0312  1.5874
  969SOL     OW14542   2.927   4.564   0.315 -0.8833  0.2635  0.2899
  969SOL    HW114543   2.916   4.559   0.410  1.9770 -0.4609  0.5996
  969SOL    HW214544   2.965   4.478   0.299 -1.4750  0.0966 -0.2058
  970SOL     OW14545   2.768   0.915   1.924  0.8036  0.1729 -0.0069
  970SOL    HW114546   2.838   0.852   1.913  0.4873  0.0017 -1.0177
  970SOL    HW214547   2.816   0.993   1.897 -2.5416  2.7204  1.3556
  971SOL     OW14548   1.973   1.335   8.552 -0.3890  0.5194  0.3096
  971SOL    HW114549   1.903   1.271   8.535  0.4377 -0.2733 -0.1449
  971SOL    HW214550   1.916   1.409   8.571 -2.5435 -0.2437 -3.2882
  972SOL     OW14551   1.606   2.753  15.078 -0.1756 -0.3172 -0.3331
  972SOL    HW114552   1.600   2.662  15.047 -0.6577 -0.4094  0.0307
  972SOL    HW214553   1.685   2.776  15.030  0.8366 -2.9402  0.0579
  973SOL     OW14554   4.625   2.847   4.515  0.0593 -0.0316 -0.1312
  973SOL    HW114555   4.636   2.916   4.581 -0.8089 -0.0684  0.0476
  973SOL    HW214556   4.663   2.776   4.566 -1.2775 -0.0669  0.8101
  974SOL     OW14557   0.488   3.616   1.578  0.0849 -0.5929  0.1309
  974SOL    HW114558   0.582   3.606   1.593 -0.0940 -0.7450  1.1404
  974SOL    HW214559   0.483   3.558   1.502  0.3075  0.1297 -0.4333
  975SOL     OW14560   0.168   1.915   5.919 -0.5353 -0.1962 -0.5867
  975SOL    HW114561   0.177   1.909   5.824  0.0909  2.1123 -0.6640
  975SOL    HW214562   0.199   2.003   5.940  2.2163 -1.2495 -0.2216
  976SOL     OW14563   2.303   0.541   4.393  0.0070 -0.1647 -0.5263
  976SOL    HW114564   2.397   0.531   4.377 -0.9325 -2.0279 -4.7689
  976SOL    HW214565   2.277   0.492   4.471  0.5970  0.9559  0.3788
  977SOL     OW14566   0.563   2.585  10.320  0.1514 -0.6552 -0.3441
  977SOL    HW114567   0.569   2.646  10.393  2.9566 -2.5140  0.9427
  977SOL    HW214568   0.480   2.611  10.280 -0.6891 -1.4066  0.8931
  978SOL     OW14569   3.389   3.096  17.450 -0.1733 -0.1329  0.0487
  978SOL    HW114570   3.418   3.013  17.412  1.9642 -1.1636  4.0188
  978SOL    HW214571   3.310   3.072  17.499  0.0750  0.0104  0.5138
  979SOL     OW14572   2.250   0.758   8.682 -0.3011  0.0954 -0.1815
  979SOL    HW114573   2.252   0.803   8.597 -1.2017 -0.5637 -0.5492
  979SOL    HW214574   2.248   0.839   8.733 -1.2152  0.3329 -0.5898
  980SOL     OW14575   2.642   4.599   9.404  0.3864 -0.1033 -0.2495
  980SOL    HW114576   2.625   4.652   9.481  2.2619 -0.8493  0.6828
  980SOL    HW214577   2.611   4.514   9.435  1.5936 -0.6441 -0.4962
  981SOL     OW14578   2.877   2.882   3.767  0.4203 -0.5158  0.2384
  981SOL    HW114579   2.840   2.959   3.725 -1.1215 -1.0429  0.6532
  981SOL    HW214580   2.832   2.819   3.711 -1.4566  0.4643  0.6753
  982SOL     OW14581   2.541   0.823   8.040  0.1033 -0.6379 -0.0951
  982SOL    HW114582   2.556   0.736   8.078 -2.3826 -1.0242 -0.0426
  982SOL    HW214583   2.499   0.813   7.955 -0.0953  0.6183 -0.1453
  983SOL     OW14584   4.295   4.692   2.162 -0.4384 -0.6505  0.1788
  983SOL    HW114585   4.291   0.049   2.151  1.8711 -0.6902 -0.8543
  983SOL    HW214586   4.263   4.652   2.081  2.6742 -0.3463 -1.1913
  984SOL     OW14587   0.928   3.112   1.719 -0.6765 -0.2900 -0.5802
  984SOL    HW114588   0.963   3.024   1.707  0.1119 -0.3299  2.0454
  984SOL    HW214589   0.985   3.148   1.787 -0.9876 -0.4937 -0.2134
  985SOL     OW14590   1.655   1.045   6.037 -0.0215 -0.2770  0.4642
  985SOL    HW114591   1.631   1.007   5.953  1.5371  2.3962 -1.1806
  985SOL    HW214592   1.569   1.071   6.070  0.7161 -0.5660  2.6143
  986SOL     OW14593   4.367   1.735   2.357  0.1200  0.1445 -0.0721
  986SOL    HW114594   4.410   1.813   2.393 -0.2872  0.8497 -1.1234
  986SOL    HW214595   4.323   1.699   2.434 -0.9536  0.2931 -0.6113
  987SOL     OW14596   3.531   0.366  10.824  0.0511 -0.0895 -0.2309
  987SOL    HW114597   3.452   0.376  10.770 -0.4730  1.8838  0.8939
  987SOL    HW214598   3.580   0.443  10.794  0.5270 -0.4569 -0.4034
  988SOL     OW14599   1.042   0.693   9.986 -0.5214 -0.1887  0.0391
  988SOL    HW114600   1.080   0.781   9.986  0.2643 -0.5245 -0.6379
  988SOL    HW214601   0.983   0.698   9.910 -0.1418  0.8425 -0.1835
  989SOL     OW14602   1.197   0.672   8.038 -0.5444 -0.3771  0.5643
  989SOL    HW114603   1.152   0.707   7.961  0.6546  1.3609  0.6637
  989SOL    HW214604   1.200   0.581   8.009  0.6667  0.3131 -1.4745
  990SOL     OW14605   0.317   2.568   3.475 -0.0283 -0.3446  0.2474
  990SOL    HW114606   0.326   2.555   3.570 -1.6183 -1.3586  0.2506
  990SOL    HW214607   0.408   2.552   3.453 -0.1180 -1.2682  0.5574
  991SOL     OW14608   0.057   4.685   9.510 -0.2890  0.5381 -0.0108
  991SOL    HW114609   0.027   0.006   9.579 -2.3906  0.0924 -0.5240
  991SOL    HW214610   0.079   4.608   9.563  1.0409 -0.8223 -2.5724
  992SOL     OW14611   3.951   4.601   2.359 -0.0860 -0.1963 -0.0991
  992SOL    HW114612   4.024   4.651   2.397 -0.9507 -0.0826  1.4346
  992SOL    HW214613   3.985   4.564   2.278 -2.4405 -0.1092 -1.1258
  993SOL     OW14614   1.568   2.648   1.609 -0.5724 -0.8734  0.4527
  993SOL    HW114615   1.552   2.554   1.601 -0.3322 -0.6636 -2.3182
  993SOL    HW214616   1.663   2.654   1.606 -0.7022  0.3366 -0.8851
  994SOL     OW14617   2.713   3.395   8.446 -0.5665 -0.2897 -0.4424
  994SOL    HW114618   2.704   3.445   8.365  0.5428  0.3897 -0.1423
  994SOL    HW214619   2.747   3.315   8.405 -1.5981 -0.7868 -0.3243
  995SOL     OW14620   4.174   1.990   2.311  0.0294  0.3833  0.4554
  995SOL    HW114621   4.186   1.919   2.374 -0.0042  1.3391  1.5319
  995SOL    HW214622   4.203   1.950   2.229  0.7106  0.7536  0.5217
  996SOL     OW14623   1.124   3.809  10.689 -0.3901 -0.1620 -0.2629
  996SOL    HW114624   1.104   3.863  10.765 -0.5493 -0.4317 -0.1138
  996SOL    HW214625   1.065   3.864  10.637  0.9106  0.2940 -1.2531
  997SOL     OW14626   1.664   4.652   6.908 -0.4527 -0.1047  0.1068
  997SOL    HW114627   1.660   4.693   6.821 -0.9418 -0.2404  0.0616
  997SOL    HW214628   1.665   4.727   6.967 -0.5131  1.9830 -2.5534
  998SOL     OW14629   4.402   2.801   4.075 -0.1187  0.3447  0.0177
  998SOL    HW114630   4.496   2.783   4.074 -0.4083 -1.2301  0.3151
  998SOL    HW214631   4.378   2.804   4.167  1.3642  2.7096  0.3222
  999SOL     OW14632   3.910   2.977   2.241 -0.4554  0.5251 -0.3276
  999SOL    HW114633   3.974   2.937   2.300 -0.5322 -0.4472 -0.8942
  999SOL    HW214634   3.957   2.997   2.160 -1.5017 -1.0188 -1.3388
 1000SOL     OW14635   3.273   0.249   8.058 -0.4143 -0.3423 -0.0233
 1000SOL    HW114636   3.196   0.198   8.038 -1.7241  0.5386  2.7165
 1000SOL    HW214637   3.340   0.210   8.002 -0.3138 -0.7849  0.4036
 1001SOL     OW14638   4.496   3.075   7.936  0.5334 -0.6255  0.3952
 1001SOL    HW114639   4.585   3.104   7.917  0.3441  0.9334  1.9509
 1001SOL    HW214640   4.483   2.989   7.896 -0.2058  0.3780 -1.5184
 1002SOL     OW14641   1.933   2.073   6.086  0.5154 -0.2805  0.2292
 1002SOL    HW114642   1.897   2.062   5.998 -0.0648 -2.0081  0.6827
 1002SOL    HW214643   1.936   1.985   6.125  0.5863 -1.1042 -1.5996
 1003SOL     OW14644   4.479   3.699   6.795 -0.6775  0.0971  0.2792
 1003SOL    HW114645   4.558   3.661   6.832  1.2753  3.4314 -0.5312
 1003SOL    HW214646   4.525   3.766   6.745  1.0957 -2.0098 -0.8952
 1004SOL     OW14647   2.633   3.946   1.005 -0.2551  0.5698  0.0393
 1004SOL    HW114648   2.604   3.938   1.096 -0.0165 -1.1582 -0.0451
 1004SOL    HW214649   2.559   4.000   0.978  1.8858  2.8590 -1.3472
 1005SOL     OW14650   3.667   3.972   7.746  0.4002  0.4445 -0.3138
 1005SOL    HW114651   3.633   4.000   7.831  2.0426 -0.2513  0.5859
 1005SOL    HW214652   3.691   4.060   7.718  4.4914 -0.3511  0.6696
 1006SOL     OW14653   1.448   3.863   8.108  0.0386 -0.2290  0.8759
 1006SOL    HW114654   1.440   3.771   8.082 -0.0482 -0.8717  3.1930
 1006SOL    HW214655   1.354   3.879   8.122 -0.4265 -0.8500 -1.5173
 1007SOL     OW14656   0.499   2.597   1.909  0.0127 -0.1062  0.0834
 1007SOL    HW114657   0.559   2.650   1.855 -0.2862  1.1135  0.9471
 1007SOL    HW214658   0.550   2.601   1.990  1.6944  1.5641 -1.0478
 1008SOL     OW14659   0.193   4.685   9.271  0.6445 -0.3700 -0.6506
 1008SOL    HW114660   0.149   4.659   9.352 -1.2166  1.3013 -1.1050
 1008SOL    HW214661   0.227   4.598   9.250  1.8787 -0.2927  1.0305
 1009SOL     OW14662   3.576   3.777   9.028  0.1691 -0.4456  0.3082
 1009SOL    HW114663   3.535   3.808   9.108 -0.5157 -0.2186 -0.1316
 1009SOL    HW214664   3.519   3.821   8.964  0.2875  1.4264  1.5029
 1010SOL     OW14665   4.190   1.147   4.257  0.1343  0.1632  0.2710
 1010SOL    HW114666   4.250   1.169   4.328 -0.9779 -0.0605  1.2730
 1010SOL    HW214667   4.191   1.228   4.205  0.7319  1.2398  1.9765
 1011SOL     OW14668   4.365   0.564  15.892  0.5092  0.5668  0.0282
 1011SOL    HW114669   4.428   0.620  15.938  1.3138  0.0905 -0.5123
 1011SOL    HW214670   4.422   0.502  15.846  1.7077 -0.4530  2.8820
 1012SOL     OW14671   4.651   1.919   8.500 -0.5945 -0.3259 -0.4656
 1012SOL    HW114672   4.588   1.908   8.571 -0.9723 -0.6945 -0.8585
 1012SOL    HW214673   4.600   1.930   8.420  0.0420  1.1411 -0.6541
 1013SOL     OW14674   1.443   1.334   9.151  0.9640  0.1290 -0.9999
 1013SOL    HW114675   1.374   1.301   9.094 -0.2715 -1.2683  1.2915
 1013SOL    HW214676   1.497   1.379   9.086 -0.2466 -0.4617 -2.3968
 1014SOL     OW14677   1.490   2.706  11.854  0.1885 -0.4100 -0.6467
 1014SOL    HW114678   1.397   2.729  11.849 -0.1212 -1.3337  0.9236
 1014SOL    HW214679   1.496   2.659  11.937 -0.0800  0.3501 -0.1981
 1015SOL     OW14680   0.956   4.167  10.273 -0.8303  0.2088  0.5396
 1015SOL    HW114681   0.946   4.208  10.359 -0.1929 -1.0370  1.1922
 1015SOL    HW214682   1.033   4.115  10.292 -1.0510 -0.9083 -1.6498
 1016SOL     OW14683   4.504   1.796   9.564 -0.3145 -0.2973 -0.0682
 1016SOL    HW114684   4.490   1.766   9.474 -3.1473  0.7625  0.0242
 1016SOL    HW214685   4.425   1.848   9.582  1.1306  1.0386  2.4474
 1017SOL     OW14686   0.814   3.602  13.376 -0.1434 -0.3024  0.5751
 1017SOL    HW114687   0.799   3.580  13.284  0.2977  2.2653 -0.1179
 1017SOL    HW214688   0.909   3.613  13.382  0.0227 -2.3053  1.5641
 1018SOL     OW14689   2.040   4.415   4.500  0.5844 -0.0441 -0.1768
 1018SOL    HW114690   2.044   4.510   4.491  0.4013  0.0776  0.9583
 1018SOL    HW214691   2.111   4.394   4.562  0.0865  1.0713  0.7794
 1019SOL     OW14692   0.047   2.871   6.055  0.3320  0.0499 -0.0993
 1019SOL    HW114693   0.058   2.954   6.009 -1.7428 -0.2958 -1.2112
 1019SOL    HW214694   0.098   2.814   5.998 -1.6430 -4.5192  2.6800
 1020SOL     OW14695   1.643   0.947   4.780  0.1449 -0.0775 -0.3319
 1020SOL    HW114696   1.728   0.982   4.808 -0.8359  1.4760  0.7027
 1020SOL    HW214697   1.591   0.974   4.856 -1.0145 -2.0833 -0.4194
 1021SOL     OW14698   0.321   3.441   1.718 -0.1214 -0.2145 -0.5262
 1021SOL    HW114699   0.341   3.475   1.805  0.9778 -0.3768 -0.7236
 1021SOL    HW214700   0.375   3.503   1.670 -0.6923 -0.0557 -0.9678
 1022SOL     OW14701   4.342   0.899   3.321  0.2975  0.1220  0.4946
 1022SOL    HW114702   4.341   0.830   3.255 -2.5010  0.2567  0.4088
 1022SOL    HW214703   4.366   0.974   3.267 -0.3120 -0.0055  0.0466
 1023SOL     OW14704   1.240   3.985   6.308 -0.1589 -0.2347  0.9978
 1023SOL    HW114705   1.315   3.940   6.348 -0.4909  0.8195  2.8343
 1023SOL    HW214706   1.185   3.907   6.310  1.0453 -1.1481 -1.0741
 1024SOL     OW14707   1.770   0.537   2.989  0.0925  0.1469 -0.1606
 1024SOL    HW114708   1.789   0.604   2.924  0.7954  2.2988  2.2818
 1024SOL    HW214709   1.674   0.543   2.993  0.3896  3.9368  1.5642
 1025SOL     OW14710   0.548   0.081   6.239 -0.3338  0.0292  0.0598
 1025SOL    HW114711   0.586   0.168   6.231  0.4029 -0.3296 -0.3768
 1025SOL    HW214712   0.588   0.039   6.162 -0.1508 -0.6904  0.5495
 1026SOL     OW14713   3.940   2.288   7.549 -0.4075 -0.2069 -0.5640
 1026SOL    HW114714   3.873   2.357   7.545 -2.9833 -2.5740  1.7291
 1026SOL    HW214715   3.895   2.214   7.508 -1.3497  0.2211 -0.2952
 1027SOL     OW14716   0.040   3.075  16.293  0.4090 -0.4339  0.0529
 1027SOL    HW114717   4.735   3.160  16.295  2.3753  0.5616  0.1308
 1027SOL    HW214718   4.723   3.040  16.223  0.8631  1.1960 -1.1078
 1028SOL     OW14719   3.278   4.691   7.598  0.5096  0.0031  0.3418
 1028SOL    HW114720   3.228   0.013   7.543 -1.5460 -2.1497 -0.1826
 1028SOL    HW214721   3.262   4.617   7.541 -0.6807  0.1402  0.4941
 1029SOL     OW14722   1.864   2.710   7.148  0.2585  0.2824 -0.4073
 1029SOL    HW114723   1.862   2.801   7.179 -1.0817 -0.0642  0.5259
 1029SOL    HW214724   1.916   2.725   7.069  0.9747  0.2473  0.0560
 1030SOL     OW14725   0.558   4.459   2.139  0.1076  0.2746  0.1911
 1030SOL    HW114726   0.569   4.446   2.044 -1.6994  1.4512 -0.1758
 1030SOL    HW214727   0.650   4.468   2.163 -0.0890 -0.0704  1.0586
 1031SOL     OW14728   4.026   3.645   6.189  0.5583  0.1732 -0.1196
 1031SOL    HW114729   3.976   3.571   6.224  0.5796  1.3772  2.4651
 1031SOL    HW214730   3.958   3.687   6.137  0.7699 -1.1353 -1.4599
 1032SOL     OW14731   3.493   4.446   0.018 -0.2761  0.1776 -0.4760
 1032SOL    HW114732   3.482   4.357  17.739 -2.6059 -0.2814  1.6635
 1032SOL    HW214733   3.424   4.479  17.712 -0.1345 -1.5120 -1.6095
 1033SOL     OW14734   3.680   0.700   5.375 -0.0325  0.0155  0.0199
 1033SOL    HW114735   3.769   0.733   5.389 -0.0207  0.3036 -0.7783
 1033SOL    HW214736   3.638   0.786   5.376 -1.7802 -0.8297  0.7823
 1034SOL     OW14737   3.073   4.182   6.660 -0.0933 -0.0945 -0.3105
 1034SOL    HW114738   3.163   4.169   6.690  0.5154  4.2391 -0.2827
 1034SOL    HW214739   3.033   4.096   6.670 -2.1098  0.8201 -0.3960
 1035SOL     OW14740   2.428   4.142   3.445  0.0455 -0.6110  0.6837
 1035SOL    HW114741   2.523   4.128   3.452  0.0222 -0.9165  0.3940
 1035SOL    HW214742   2.423   4.235   3.468  0.3505 -0.0261 -1.6413
 1036SOL     OW14743   2.386   3.988   6.329  0.1571 -0.3418 -0.2963
 1036SOL    HW114744   2.295   4.009   6.351  1.0246  0.7750  2.1530
 1036SOL    HW214745   2.399   4.038   6.248 -0.2191 -0.4415 -0.4188
 1037SOL     OW14746   4.424   1.219  17.060 -0.6577  0.5203  0.5942
 1037SOL    HW114747   4.379   1.170  17.129  0.1077 -1.7262 -0.5306
 1037SOL    HW214748   4.385   1.194  16.976 -0.1141  2.0644 -0.1222
 1038SOL     OW14749   2.684   3.522  17.556 -0.6943 -0.2631  0.0184
 1038SOL    HW114750   2.630   3.596  17.528 -1.9126 -1.0221  0.3630
 1038SOL    HW214751   2.691   3.480  17.470  0.6727  0.6528 -0.3213
 1039SOL     OW14752   2.302   4.278  13.850  0.2992  0.0126 -0.0406
 1039SOL    HW114753   2.256   4.277  13.934 -1.1864  1.1579 -0.8167
 1039SOL    HW214754   2.249   4.215  13.800  1.0845 -1.1928  0.6664
 1040SOL     OW14755   2.185   3.325   8.832 -0.2624  0.0409  0.1106
 1040SOL    HW114756   2.228   3.405   8.804 -0.1946 -0.2799 -0.6800
 1040SOL    HW214757   2.098   3.332   8.793  0.1685 -1.2872 -1.0750
 1041SOL     OW14758   0.167   4.195   7.832 -0.0807 -0.0331 -0.1337
 1041SOL    HW114759   0.200   4.136   7.899 -0.7718  0.1141  0.3445
 1041SOL    HW214760   0.094   4.224   7.887  0.3954 -0.5575  0.7701
 1042SOL     OW14761   4.402   2.055   7.578  0.5848  0.1128 -0.0641
 1042SOL    HW114762   4.413   2.017   7.665 -1.8853 -1.1471 -0.3015
 1042SOL    HW214763   4.308   2.072   7.589  0.8013 -1.5975  4.5900
 1043SOL     OW14764   0.016   3.614   9.250 -0.3541 -0.2617 -0.5662
 1043SOL    HW114765   0.079   3.618   9.322 -0.0284 -0.8141 -0.8275
 1043SOL    HW214766   4.705   3.696   9.254 -0.2990 -0.1184 -3.2908
 1044SOL     OW14767   0.323   2.620   2.771  0.2637  0.3647  0.2637
 1044SOL    HW114768   0.396   2.561   2.791 -0.0250 -0.7190 -1.9251
 1044SOL    HW214769   0.278   2.571   2.703  1.3823  0.3518 -0.4642
 1045SOL     OW14770   2.881   4.026   2.673  0.7215  0.2277  0.3296
 1045SOL    HW114771   2.957   4.000   2.621  1.4219  0.2777  1.3340
 1045SOL    HW214772   2.819   4.046   2.603  0.8967 -1.4304 -0.3123
 1046SOL     OW14773   0.521   2.232   3.212 -0.6057 -0.2810  0.2235
 1046SOL    HW114774   0.613   2.247   3.234  0.5696 -2.5608 -3.0666
 1046SOL    HW214775   0.533   2.173   3.138 -3.2471  0.9484 -1.1785
 1047SOL     OW14776   0.180   4.582   2.774  0.0259  0.3431 -0.7063
 1047SOL    HW114777   0.196   4.537   2.857 -1.6238  0.6292 -0.2234
 1047SOL    HW214778   0.115   4.646   2.804 -2.7356 -2.4682 -0.6939
 1048SOL     OW14779   3.309   1.890   7.930 -0.3750 -0.4804  0.2543
 1048SOL    HW114780   3.234   1.910   7.986  0.3743  0.8256  0.7897
 1048SOL    HW214781   3.377   1.894   7.997 -0.1022 -1.9008  0.0507
 1049SOL     OW14782   0.968   3.718  14.116  0.3704 -0.3972  0.1124
 1049SOL    HW114783   0.996   3.643  14.063 -0.2284 -0.5276 -0.0177
 1049SOL    HW214784   1.029   3.789  14.092  0.0975  0.4720  1.9863
 1050SOL     OW14785   1.115   2.281  17.133 -1.1260  0.3247 -0.2485
 1050SOL    HW114786   1.080   2.311  17.048  1.1730  0.1956 -1.2373
 1050SOL    HW214787   1.096   2.359  17.185  1.3253 -0.3214  1.5894
 1051SOL     OW14788   4.222   3.089  10.887 -0.1383 -0.6398  0.2374
 1051SOL    HW114789   4.243   3.170  10.934 -0.3925 -0.7569  0.5520
 1051SOL    HW214790   4.130   3.088  10.912 -0.3529  0.3010 -0.4968
 1052SOL     OW14791   3.126   2.392  13.390 -0.3172  0.7854 -0.4353
 1052SOL    HW114792   3.146   2.330  13.460 -1.9167  2.0828  1.1794
 1052SOL    HW214793   3.174   2.356  13.315  0.1097 -0.1444  0.2853
 1053SOL     OW14794   3.076   0.532   5.941 -0.0417  0.1244 -0.1041
 1053SOL    HW114795   3.029   0.515   6.022 -0.0119  1.1469  0.1181
 1053SOL    HW214796   3.091   0.443   5.908  0.6288  0.7456 -1.4666
 1054SOL     OW14797   2.713   0.412   8.181  0.4693 -0.1777  0.4225
 1054SOL    HW114798   2.723   0.319   8.160  0.6162  0.3171 -1.6768
 1054SOL    HW214799   2.799   0.425   8.219  0.0133 -1.3936  1.8772
 1055SOL     OW14800   3.190   4.386  10.251  0.3829 -0.1595 -0.3103
 1055SOL    HW114801   3.141   4.336  10.185  0.3236 -0.7237  0.1595
 1055SOL    HW214802   3.216   4.326  10.320  1.7176  0.0637 -0.6194
 1056SOL     OW14803   3.299   3.033   6.765 -0.0907 -0.2011 -0.6457
 1056SOL    HW114804   3.309   3.000   6.854  1.7247  0.3098 -0.6605
 1056SOL    HW214805   3.365   2.979   6.721 -1.1315 -1.3809 -0.7650
 1057SOL     OW14806   1.280   4.155   3.215  0.5541 -0.0328  0.0322
 1057SOL    HW114807   1.355   4.102   3.242  0.7445 -0.1864 -0.7878
 1057SOL    HW214808   1.257   4.116   3.131 -0.1577  0.3023  0.0802
 1058SOL     OW14809   3.763   3.146   0.151  0.1827 -0.9848  0.1897
 1058SOL    HW114810   3.806   3.209   0.209 -0.8181 -1.0394  1.0055
 1058SOL    HW214811   3.687   3.199   0.128 -0.8787 -1.8284  1.7348
 1059SOL     OW14812   3.978   4.073   8.415  0.2398  0.0810  0.0084
 1059SOL    HW114813   4.012   4.151   8.371 -1.5209 -0.1573 -1.8150
 1059SOL    HW214814   4.056   4.020   8.427  0.7775  0.8854  0.0127
 1060SOL     OW14815   0.458   0.467   5.485  0.7893  0.1049 -0.2353
 1060SOL    HW114816   0.463   0.374   5.510 -0.0302 -0.2006 -1.2158
 1060SOL    HW214817   0.501   0.504   5.562  0.8051 -0.9413  0.2655
 1061SOL     OW14818   2.563   1.164  16.064 -0.5897 -0.2305 -0.5134
 1061SOL    HW114819   2.598   1.207  15.986  0.3522  0.2232  0.1695
 1061SOL    HW214820   2.584   1.230  16.129 -0.1445  1.8230 -2.7726
 1062SOL     OW14821   2.970   0.890   0.611  0.1254  0.4573 -0.2075
 1062SOL    HW114822   2.925   0.969   0.580 -1.4427  1.4239  4.5457
 1062SOL    HW214823   3.063   0.909   0.605  0.2263 -0.1525 -0.4746
 1063SOL     OW14824   2.767   4.001  14.095 -0.2928  0.4831 -0.2507
 1063SOL    HW114825   2.829   4.032  14.029 -1.2733  2.3415 -0.2833
 1063SOL    HW214826   2.747   3.909  14.077 -0.5135  0.2905  0.9964
 1064SOL     OW14827   1.745   2.527   3.669  0.1577 -0.1511 -0.5237
 1064SOL    HW114828   1.811   2.478   3.622  1.2678 -0.0757  0.9541
 1064SOL    HW214829   1.730   2.473   3.747 -1.2016 -0.5616 -1.0629
 1065SOL     OW14830   2.314   1.276  10.598  0.5271  0.2012  0.0378
 1065SOL    HW114831   2.294   1.208  10.534 -1.4959  0.1679  0.6921
 1065SOL    HW214832   2.278   1.354  10.554 -0.9585 -1.9317 -2.5403
 1066SOL     OW14833   1.855   1.417   9.333 -0.5572 -0.0860 -0.3775
 1066SOL    HW114834   1.900   1.492   9.372  0.0518 -0.6737  0.0546
 1066SOL    HW214835   1.821   1.380   9.414  2.4857  0.9744  1.3735
 1067SOL     OW14836   3.562   1.584   2.191 -0.6782 -0.2545 -0.0649
 1067SOL    HW114837   3.579   1.608   2.282 -0.0268  0.5818 -0.4005
 1067SOL    HW214838   3.640   1.542   2.154 -0.3622  0.4015 -0.1445
 1068SOL     OW14839   1.455   0.118   9.687 -0.0132 -0.6605  0.1740
 1068SOL    HW114840   1.462   0.158   9.773 -0.0647  1.9449 -1.0406
 1068SOL    HW214841   1.498   0.185   9.634 -0.9096 -0.3502 -0.1767
 1069SOL     OW14842   1.563   0.692   6.748  0.4493  0.0091 -0.6882
 1069SOL    HW114843   1.556   0.621   6.683 -0.3223  1.4333 -2.1699
 1069SOL    HW214844   1.518   0.766   6.708 -1.1724 -1.1799 -1.0770
 1070SOL     OW14845   0.737   3.097  16.923  0.1242 -0.1654  0.5582
 1070SOL    HW114846   0.694   3.140  16.849  2.3044 -1.7758 -1.6565
 1070SOL    HW214847   0.718   3.005  16.904  1.1585 -0.0732 -0.9592
 1071SOL     OW14848   1.216   3.708   3.938  0.4258  0.3347  0.0126
 1071SOL    HW114849   1.283   3.642   3.925 -0.4145 -0.3261 -1.0098
 1071SOL    HW214850   1.238   3.767   3.866  0.2455 -0.4444 -0.6817
 1072SOL     OW14851   2.591   4.069  17.715  0.4294  0.0003  0.2050
 1072SOL    HW114852   2.676   4.028  17.730  1.5487  2.6084  1.0031
 1072SOL    HW214853   2.550   4.005  17.656  0.6404 -1.2207  1.3829
 1073SOL     OW14854   0.632   1.531   8.728 -0.2462  0.3307 -0.3397
 1073SOL    HW114855   0.622   1.599   8.796  1.4847  0.7133 -0.4702
 1073SOL    HW214856   0.550   1.480   8.725 -0.1217  0.1746 -0.9030
 1074SOL     OW14857   1.340   2.750   4.100  0.0757 -0.5162 -0.5534
 1074SOL    HW114858   1.304   2.834   4.070 -0.8401 -0.4160  0.8497
 1074SOL    HW214859   1.280   2.695   4.049  0.1042  0.2156 -1.3852
 1075SOL     OW14860   0.814   3.470   7.740  0.0025  0.5441  0.1885
 1075SOL    HW114861   0.787   3.555   7.775 -0.9417  1.1966 -2.1041
 1075SOL    HW214862   0.851   3.510   7.661 -2.3075  0.3307 -1.0040
 1076SOL     OW14863   2.672   2.067   5.188 -0.1061 -0.3889  0.7459
 1076SOL    HW114864   2.752   2.119   5.191 -0.3451  0.0070  0.2466
 1076SOL    HW214865   2.682   1.992   5.247 -0.9067  0.0240  1.4111
 1077SOL     OW14866   0.872   3.260  16.508  0.0327  0.0767 -0.4649
 1077SOL    HW114867   0.789   3.307  16.501  0.1675  0.3514 -0.2305
 1077SOL    HW214868   0.897   3.298  16.592 -1.2543  1.7924 -0.8642
 1078SOL     OW14869   0.076   1.483   3.003  0.0735 -0.2410 -0.2029
 1078SOL    HW114870   0.137   1.501   3.074 -1.2271  1.6236  0.4355
 1078SOL    HW214871   4.735   1.502   3.052  0.5004  1.2336 -0.0838
 1079SOL     OW14872   0.560   2.943   2.183 -0.0510 -0.2340  0.0782
 1079SOL    HW114873   0.650   2.976   2.182  0.2558 -1.0569  1.5513
 1079SOL    HW214874   0.569   2.860   2.136  2.5488 -0.9742  1.9149
 1080SOL     OW14875   2.807   1.904  15.471  0.1137 -0.7936 -0.1095
 1080SOL    HW114876   2.865   1.968  15.512 -0.3981 -0.3159 -0.1331
 1080SOL    HW214877   2.843   1.819  15.496  1.2260 -0.6023 -1.1093
 1081SOL     OW14878   0.047   1.596   7.962  0.2706  0.0344 -0.4989
 1081SOL    HW114879   0.099   1.528   7.919  0.2527  1.2701 -2.4655
 1081SOL    HW214880   0.016   1.554   8.042  1.0399  3.7747  1.8005
 1082SOL     OW14881   2.280   0.938  12.269  0.7732 -0.0081  0.0655
 1082SOL    HW114882   2.215   0.923  12.338  1.2391  0.4265  0.6038
 1082SOL    HW214883   2.274   1.034  12.266  1.6653  0.0940  1.4174
 1083SOL     OW14884   1.481   4.450   3.234  0.0456 -0.7042  0.1383
 1083SOL    HW114885   1.527   4.385   3.287  0.4707  0.4569  1.1913
 1083SOL    HW214886   1.398   4.438   3.281  2.0524 -0.3067  3.7592
 1084SOL     OW14887   2.785   3.320   3.861 -0.6408 -0.5918 -0.0495
 1084SOL    HW114888   2.701   3.277   3.881 -2.7274  3.4003 -0.2361
 1084SOL    HW214889   2.814   3.316   3.952  1.6041  2.1776 -0.6513
 1085SOL     OW14890   2.465   2.791  16.608  0.7940 -0.5362 -0.0179
 1085SOL    HW114891   2.384   2.800  16.658 -1.4303  0.0923 -3.7067
 1085SOL    HW214892   2.451   2.702  16.577  1.4962 -1.1960  1.5627
 1086SOL     OW14893   2.473   0.557   7.729 -0.4290  0.1758  0.0102
 1086SOL    HW114894   2.443   0.644   7.757 -0.0970 -0.0356  0.9863
 1086SOL    HW214895   2.543   0.541   7.792  0.3141  1.9408 -0.3512
 1087SOL     OW14896   0.837   2.453   8.175 -0.4408 -0.0390  0.3465
 1087SOL    HW114897   0.742   2.452   8.162 -0.6377  0.4285  1.7561
 1087SOL    HW214898   0.873   2.421   8.092  1.0123 -0.4869  1.1646
 1088SOL     OW14899   2.450   3.748   5.831 -0.2482 -0.3835  0.2400
 1088SOL    HW114900   2.403   3.823   5.797 -1.6895 -0.7054  1.5187
 1088SOL    HW214901   2.455   3.702   5.747 -1.6252  1.9477 -1.1164
 1089SOL     OW14902   3.559   4.398   8.571 -0.5036  0.1181  0.2138
 1089SOL    HW114903   3.475   4.428   8.605 -1.2904 -1.1449 -0.6233
 1089SOL    HW214904   3.613   4.393   8.651 -0.9269  0.3552  0.5137
 1090SOL     OW14905   4.484   1.145   4.435  0.1024 -0.1263  0.1843
 1090SOL    HW114906   4.516   1.209   4.498  1.1956 -0.1486 -0.3413
 1090SOL    HW214907   4.437   1.080   4.487 -0.4200 -0.0946 -0.2442
 1091SOL     OW14908   0.251   3.394  14.064  0.0073 -0.5479 -0.3467
 1091SOL    HW114909   0.272   3.418  13.973  0.2084 -1.2424 -0.4893
 1091SOL    HW214910   0.155   3.395  14.064 -0.0080 -2.2485  1.0361
 1092SOL     OW14911   0.073   1.821  10.105 -0.4017  0.3749  0.5088
 1092SOL    HW114912   0.102   1.751  10.163 -0.7895 -1.0598 -1.0524
 1092SOL    HW214913   4.725   1.794  10.075 -0.2888  1.6313 -0.9973
 1093SOL     OW14914   3.172   2.827   3.572 -0.1037 -0.3045  0.0361
 1093SOL    HW114915   3.110   2.890   3.534 -0.2479 -1.7680 -2.1555
 1093SOL    HW214916   3.151   2.745   3.527 -1.0964  0.8291 -1.5876
 1094SOL     OW14917   1.441   4.709   9.236 -1.0500  0.3160 -0.2853
 1094SOL    HW114918   1.497   0.043   9.208 -1.1971  0.6436  0.2490
 1094SOL    HW214919   1.470   4.697   9.326 -1.0199  0.8257 -0.2257
 1095SOL     OW14920   1.267   1.030   4.718  0.0295  0.4016  0.5045
 1095SOL    HW114921   1.269   1.024   4.623 -0.1731  1.3481  0.4360
 1095SOL    HW214922   1.233   0.942   4.732 -2.7745  1.3999 -0.0920
 1096SOL     OW14923   3.148   0.243  15.711  0.6280 -0.0382  0.1717
 1096SOL    HW114924   3.165   0.212  15.800 -3.8599  1.2706  1.4964
 1096SOL    HW214925   3.161   0.338  15.711  0.0464  0.0448 -0.2299
 1097SOL     OW14926   4.284   3.141   5.507 -0.1208 -0.7255  0.6339
 1097SOL    HW114927   4.313   3.158   5.597  1.2321 -0.1037  0.0820
 1097SOL    HW214928   4.296   3.225   5.463  0.0876 -0.6299  0.8682
 1098SOL     OW14929   0.039   3.041   4.991  0.3332  0.7256 -0.1946
 1098SOL    HW114930   0.091   3.108   5.035  0.6446  1.5546 -1.8418
 1098SOL    HW214931   4.698   3.058   5.041  0.7154 -0.7002  0.9048
 1099SOL     OW14932   0.656   1.969   7.998  0.0910  0.0370  0.4404
 1099SOL    HW114933   0.723   2.037   8.004 -0.2186  0.3497  0.4273
 1099SOL    HW214934   0.646   1.942   8.089 -2.2394  0.9725  0.4657
 1100SOL     OW14935   3.594   2.325   0.430 -0.2266  0.3341 -0.3382
 1100SOL    HW114936   3.580   2.381   0.354  1.8535 -0.5353 -1.3537
 1100SOL    HW214937   3.681   2.291   0.411 -0.9504 -0.2360 -2.5279
 1101SOL     OW14938   0.712   4.483   7.851  0.1063  0.3678 -0.0196
 1101SOL    HW114939   0.705   4.391   7.825  1.6949  0.2153  0.0973
 1101SOL    HW214940   0.622   4.496   7.879  0.1525  0.0558  0.2860
 1102SOL     OW14941   3.612   3.333  16.027  0.0257  0.0377  0.5045
 1102SOL    HW114942   3.599   3.241  16.052  1.6429 -0.5393 -0.8114
 1102SOL    HW214943   3.655   3.323  15.943  1.7643  0.3428  1.3493
 1103SOL     OW14944   0.452   2.477   9.102 -0.0824 -0.2670 -0.6136
 1103SOL    HW114945   0.402   2.427   9.167  1.0667  1.3823  1.5261
 1103SOL    HW214946   0.510   2.418   9.054 -0.4083 -2.2883  1.4850
 1104SOL     OW14947   0.972   2.273   5.002 -0.1731 -0.2592 -0.2251
 1104SOL    HW114948   1.052   2.241   4.962  0.4941  0.6545  0.3874
 1104SOL    HW214949   0.912   2.200   4.984 -3.2812  1.9838  0.8848
 1105SOL     OW14950   1.977   2.368   7.604  0.4565 -0.2682  0.3482
 1105SOL    HW114951   1.975   2.316   7.524 -1.9128 -0.0013  0.2316
 1105SOL    HW214952   1.886   2.356   7.630  0.4044  0.7254  0.6423
 1106SOL     OW14953   2.409   3.190   3.150  0.0485  0.4261  0.1829
 1106SOL    HW114954   2.465   3.155   3.081 -1.1933 -1.2906  0.0416
 1106SOL    HW214955   2.457   3.167   3.230 -0.6565 -0.7736  0.2644
 1107SOL     OW14956   2.649   0.353  15.196  0.4209 -0.0500 -0.2008
 1107SOL    HW114957   2.559   0.350  15.162 -0.2749  0.1227  1.6319
 1107SOL    HW214958   2.673   0.275  15.245 -1.3139 -0.2010  0.4034
 1108SOL     OW14959   2.169   3.748  15.769 -0.0592 -0.1647 -0.0044
 1108SOL    HW114960   2.249   3.714  15.810 -1.7723 -1.7588  2.0358
 1108SOL    HW214961   2.107   3.675  15.775  0.3206 -0.4322  0.7381
 1109SOL     OW14962   0.068   2.411  12.541  0.5723  0.0592  0.0047
 1109SOL    HW114963   0.026   2.495  12.521  1.8646  0.4702 -1.0185
 1109SOL    HW214964   0.003   2.351  12.504  2.0372 -1.5415  0.0393
 1110SOL     OW14965   1.560   1.309   8.629 -0.2822  0.6158 -0.1225
 1110SOL    HW114966   1.559   1.268   8.716 -1.4107  0.3358 -0.2725
 1110SOL    HW214967   1.591   1.237   8.576 -0.3550  1.2508 -1.0187
 1111SOL     OW14968   1.543   1.170   6.813 -0.1393  0.0526  0.1867
 1111SOL    HW114969   1.621   1.127   6.777  0.1729  2.3789 -1.9540
 1111SOL    HW214970   1.544   1.129   6.899 -2.7059 -1.4369 -0.5102
 1112SOL     OW14971   1.853   2.541  15.920  0.3643 -0.8407  0.6984
 1112SOL    HW114972   1.906   2.510  15.847  1.2765  1.3044  0.4419
 1112SOL    HW214973   1.770   2.504  15.890 -1.0760  2.4509  0.6408
 1113SOL     OW14974   1.263   3.077  16.413 -0.1278  0.0630 -0.1296
 1113SOL    HW114975   1.185   3.079  16.358 -0.5983 -2.2860  0.4322
 1113SOL    HW214976   1.232   3.057  16.502  0.4073 -1.3410 -0.2501
 1114SOL     OW14977   2.583   2.164   2.387 -0.0848  0.0426 -0.5813
 1114SOL    HW114978   2.563   2.088   2.442  1.5894  1.0869  1.4857
 1114SOL    HW214979   2.675   2.143   2.371 -0.0325  0.6442 -1.0741
 1115SOL     OW14980   2.071   4.551   6.914  0.3875  0.1333 -0.3601
 1115SOL    HW114981   2.043   4.635   6.949 -0.5477 -0.1843 -0.3645
 1115SOL    HW214982   2.112   4.513   6.992  0.6319 -1.2838 -1.1744
 1116SOL     OW14983   0.542   2.295   2.481  0.3051 -0.0795 -0.6664
 1116SOL    HW114984   0.481   2.273   2.411  0.6603 -1.1134 -0.6511
 1116SOL    HW214985   0.571   2.209   2.510 -1.8128 -0.0170  1.6421
 1117SOL     OW14986   1.779   1.060   4.254 -0.0381 -0.1520  0.3996
 1117SOL    HW114987   1.823   1.052   4.170  0.9799  1.9473  0.7177
 1117SOL    HW214988   1.844   1.092   4.318 -0.6115  1.2935  0.2574
 1118SOL     OW14989   1.388   0.801  13.739 -0.4788  0.0599  0.5598
 1118SOL    HW114990   1.374   0.848  13.821  0.1004  0.3065  0.5173
 1118SOL    HW214991   1.296   0.784  13.718  0.0212 -2.2997  0.2019
 1119SOL     OW14992   3.797   3.911   3.386  0.1441 -0.6318 -0.7238
 1119SOL    HW114993   3.864   3.842   3.382  0.5378 -0.4857  2.8039
 1119SOL    HW214994   3.757   3.884   3.469  1.0298  2.9352  0.8743
 1120SOL     OW14995   3.680   0.203  15.586  0.2938  0.3054  0.4113
 1120SOL    HW114996   3.596   0.191  15.631 -0.3766  0.0902 -0.8922
 1120SOL    HW214997   3.720   0.274  15.635  0.8283  0.8858 -0.8755
 1121SOL     OW14998   0.233   3.570  14.843 -0.0179 -0.3007  0.1019
 1121SOL    HW114999   0.201   3.583  14.933 -1.6139 -1.5752 -0.2749
 1121SOL    HW215000   0.216   3.657  14.808 -2.6137 -0.2858  1.3662
 1122SOL     OW15001   1.764   2.416   8.316 -0.1535 -0.3585  0.4010
 1122SOL    HW115002   1.740   2.330   8.283  1.1036 -0.0294 -1.3875
 1122SOL    HW215003   1.802   2.459   8.239  0.6265 -1.4169  0.1991
 1123SOL     OW15004   2.296   0.642  11.028  0.3987 -0.2998 -0.3399
 1123SOL    HW115005   2.205   0.616  11.042 -0.1114  1.5862 -0.1859
 1123SOL    HW215006   2.345   0.561  11.041  1.4771  0.3554 -0.3600
 1124SOL     OW15007   0.818   2.267   3.284  0.1947 -0.1833  0.2211
 1124SOL    HW115008   0.908   2.295   3.272 -0.3737  1.3241 -0.4838
 1124SOL    HW215009   0.796   2.303   3.370  1.8301  2.1506 -0.3523
 1125SOL     OW15010   0.613   1.328   3.963 -0.1850 -0.1096 -0.6159
 1125SOL    HW115011   0.614   1.418   3.932 -0.3098 -0.4708 -1.6820
 1125SOL    HW215012   0.607   1.343   4.057 -1.1845  0.5209 -0.7754
 1126SOL     OW15013   2.874   1.144   5.079  0.4288  0.8112 -0.4559
 1126SOL    HW115014   2.962   1.171   5.055  1.7443 -0.5104  2.9711
 1126SOL    HW215015   2.846   1.121   4.990 -2.6223  0.3797  0.5882
 1127SOL     OW15016   0.370   3.039   5.333 -0.2862 -0.0397  0.5061
 1127SOL    HW115017   0.445   2.981   5.324 -1.7039 -1.3880 -2.8655
 1127SOL    HW215018   0.406   3.115   5.379 -1.3086 -0.1705  1.5211
 1128SOL     OW15019   4.483   2.294   9.717 -0.4414 -0.5577  0.0509
 1128SOL    HW115020   4.414   2.231   9.698 -0.2736 -0.8216  0.3129
 1128SOL    HW215021   4.438   2.378   9.725  1.5476  0.3319  2.0541
 1129SOL     OW15022   0.554   1.615   6.577  0.0780  0.2067  0.1078
 1129SOL    HW115023   0.594   1.584   6.496 -0.4029 -1.1802  0.4122
 1129SOL    HW215024   0.468   1.576   6.565 -0.2004  1.7326 -2.7066
 1130SOL     OW15025   2.631   4.553   6.374 -0.1094  0.2935 -0.4468
 1130SOL    HW115026   2.703   4.539   6.313 -2.1126 -0.2173 -2.7187
 1130SOL    HW215027   2.553   4.559   6.318  0.0098  0.8027 -0.5546
 1131SOL     OW15028   1.851   2.822   5.000  0.0209  0.0763  0.6268
 1131SOL    HW115029   1.901   2.898   4.970  0.5726 -0.8261 -0.7224
 1131SOL    HW215030   1.762   2.857   4.998  0.9801  2.6261  2.0819
 1132SOL     OW15031   2.281   2.267   6.684  0.1538 -0.4254 -0.4955
 1132SOL    HW115032   2.366   2.309   6.698  0.3015 -0.5520 -1.0154
 1132SOL    HW215033   2.294   2.220   6.602  1.2650 -3.1325  1.2412
 1133SOL     OW15034   3.627   0.093   4.125 -0.0925 -0.5268 -0.1724
 1133SOL    HW115035   3.694   0.029   4.149  0.8846 -0.2335 -2.0578
 1133SOL    HW215036   3.551   0.047   4.160 -0.7141  0.1447 -0.6358
 1134SOL     OW15037   2.927   2.461  14.169  0.1883 -0.0549  0.1104
 1134SOL    HW115038   2.985   2.443  14.095 -0.3900  3.6668 -1.2082
 1134SOL    HW215039   2.860   2.503  14.115 -0.8578 -0.1380  1.3414
 1135SOL     OW15040   2.530   3.554  15.702  0.1029 -0.2754 -0.6622
 1135SOL    HW115041   2.521   3.637  15.655  0.0444  0.6657  1.0303
 1135SOL    HW215042   2.482   3.488  15.652 -0.7337 -0.5808  0.5680
 1136SOL     OW15043   3.424   4.602   1.906  0.2436 -0.1577  0.1765
 1136SOL    HW115044   3.472   4.545   1.847  2.6137 -0.0049  1.9608
 1136SOL    HW215045   3.391   4.658   1.835  1.9757 -2.3886 -2.3804
 1137SOL     OW15046   2.308   3.105   3.962  0.2621  0.1198  0.5309
 1137SOL    HW115047   2.223   3.084   3.923  0.0702  2.8953 -0.5191
 1137SOL    HW215048   2.369   3.039   3.931  1.9050  1.5834  0.6830
 1138SOL     OW15049   0.291   1.766  13.832 -0.2212 -0.0614  0.5023
 1138SOL    HW115050   0.216   1.706  13.842  0.3398 -0.6352  1.3117
 1138SOL    HW215051   0.328   1.751  13.919 -0.2844  0.2791  0.5853
 1139SOL     OW15052   0.620   4.427  13.963 -0.4676  0.0303  0.0558
 1139SOL    HW115053   0.559   4.445  13.891 -1.7591  2.9363  1.8411
 1139SOL    HW215054   0.571   4.379  14.030 -2.5129 -0.0870 -1.5241
 1140SOL     OW15055   0.795   3.640   5.407  0.0335  0.0200 -0.6648
 1140SOL    HW115056   0.711   3.595   5.395 -0.9427  1.4825  0.5625
 1140SOL    HW215057   0.805   3.618   5.499  0.2060 -0.0943 -0.7119
 1141SOL     OW15058   0.379   2.876   7.995 -0.4636 -0.1280  0.0075
 1141SOL    HW115059   0.338   2.817   7.932 -0.1358  0.3412 -0.6297
 1141SOL    HW215060   0.463   2.897   7.954 -1.0788  0.9883 -0.6432
 1142SOL     OW15061   1.854   3.235   2.362  0.4390  0.8158 -0.7221
 1142SOL    HW115062   1.906   3.198   2.291 -0.1168 -1.1988 -0.0653
 1142SOL    HW215063   1.763   3.217   2.338  0.6658  0.5969 -1.4111
 1143SOL     OW15064   2.461   2.157   7.458  0.5815 -0.0826 -0.0525
 1143SOL    HW115065   2.452   2.151   7.553 -1.2034  0.8214 -0.1677
 1143SOL    HW215066   2.524   2.086   7.440 -0.2244 -1.3530  2.1332
 1144SOL     OW15067   1.010   0.312   0.088  0.2825 -0.3950  0.1868
 1144SOL    HW115068   1.091   0.300   0.137  0.5533  2.2541  0.3998
 1144SOL    HW215069   0.987   0.220   0.094  0.9598 -0.6371 -0.9067
 1145SOL     OW15070   2.390   0.273   9.876  0.5028 -0.2064 -0.8552
 1145SOL    HW115071   2.355   0.334   9.811 -0.3352  2.0213  1.7134
 1145SOL    HW215072   2.323   0.298   9.939  0.5536 -2.5333  0.1145
 1146SOL     OW15073   3.432   3.909  10.495 -0.1120  0.2600  0.1488
 1146SOL    HW115074   3.391   3.865  10.420  1.1739  1.1412 -1.0637
 1146SOL    HW215075   3.507   3.944  10.447  0.8944  0.1409  1.6476
 1147SOL     OW15076   1.771   4.551  16.101 -0.4344 -0.0165 -0.0317
 1147SOL    HW115077   1.773   4.578  16.009  2.3755  0.9650  0.2970
 1147SOL    HW215078   1.845   4.604  16.133  0.7424 -0.2843 -2.2623
 1148SOL     OW15079   2.629   3.524  15.986 -0.0014  0.2994 -0.1025
 1148SOL    HW115080   2.621   3.602  16.041  0.7200  0.1198  0.2600
 1148SOL    HW215081   2.641   3.553  15.896  2.0626 -3.1261 -0.9449
 1149SOL     OW15082   2.058   0.747   8.273 -0.0373  0.1489  0.0215
 1149SOL    HW115083   2.051   0.708   8.360 -0.4429  0.9876  0.3625
 1149SOL    HW215084   2.147   0.720   8.248 -0.4089 -0.1857 -0.9478
 1150SOL     OW15085   2.256   0.113   7.053  0.2188  0.1564  0.4008
 1150SOL    HW115086   2.324   0.177   7.035 -2.4064  2.6670 -0.5814
 1150SOL    HW215087   2.308   0.033   7.062  0.6762  0.7557  2.9286
 1151SOL     OW15088   4.598   0.261  15.648  0.4481  0.5918  0.6509
 1151SOL    HW115089   4.670   0.274  15.587  0.2555 -1.2783  0.0404
 1151SOL    HW215090   4.639   0.293  15.729 -0.2527  0.1617  1.1730
 1152SOL     OW15091   3.284   3.754   0.112 -0.3545  0.8834  0.2257
 1152SOL    HW115092   3.338   3.692   0.160  0.9025  0.4388 -1.7761
 1152SOL    HW215093   3.254   3.690   0.048 -0.0705  0.3944  0.5889
 1153SOL     OW15094   4.065   1.598   6.511  0.0398 -0.1925  0.3895
 1153SOL    HW115095   4.157   1.573   6.506  1.2149  4.2410 -0.3172
 1153SOL    HW215096   4.067   1.672   6.450  0.1452 -0.8217 -0.3788
 1154SOL     OW15097   0.497   1.631  16.938  0.6300  0.4864 -0.4972
 1154SOL    HW115098   0.469   1.572  17.009 -1.0308  0.4446 -1.1963
 1154SOL    HW215099   0.417   1.681  16.927  0.7701  0.6937 -0.5597
 1155SOL     OW15100   4.477   2.367  12.405  0.2160 -0.0523  0.3443
 1155SOL    HW115101   4.507   2.418  12.329 -0.1860  1.2974  1.0907
 1155SOL    HW215102   4.442   2.287  12.366  0.5202 -0.0666  0.0933
 1156SOL     OW15103   1.685   1.858   5.604  0.2551 -0.5654  0.1869
 1156SOL    HW115104   1.641   1.943   5.605  0.6529 -0.2936 -3.2785
 1156SOL    HW215105   1.662   1.822   5.518  3.0511  1.7415 -1.5315
 1157SOL     OW15106   2.071   3.444  12.010  0.3824 -0.3308 -0.2418
 1157SOL    HW115107   2.030   3.450  11.923 -3.4340 -1.0792  1.4802
 1157SOL    HW215108   2.051   3.353  12.031 -2.2233  0.2381 -0.1718
 1158SOL     OW15109   2.026   0.532   3.835  0.4091  0.0423  0.1262
 1158SOL    HW115110   1.938   0.501   3.857  0.7808 -1.8969 -1.0604
 1158SOL    HW215111   2.013   0.614   3.788 -0.2831  0.5897  1.2582
 1159SOL     OW15112   4.639   0.144   4.901 -0.4198 -0.0235 -0.1359
 1159SOL    HW115113   4.706   0.088   4.862 -0.7119 -1.0942  0.9150
 1159SOL    HW215114   4.684   0.218   4.942 -1.0938 -0.6222  1.6678
 1160SOL     OW15115   0.584   0.578   6.383 -0.6913  0.2534 -0.3968
 1160SOL    HW115116   0.519   0.647   6.393 -2.2206 -1.5684  2.2413
 1160SOL    HW215117   0.661   0.633   6.399 -1.6585  1.5855 -0.3762
 1161SOL     OW15118   4.269   1.223   1.711 -0.0871 -0.1591  0.0368
 1161SOL    HW115119   4.178   1.253   1.710 -0.6473 -1.8195  1.1306
 1161SOL    HW215120   4.295   1.250   1.799 -2.2387  0.6879  0.4287
 1162SOL     OW15121   2.971   2.427   2.758  0.2947 -0.0376  0.3042
 1162SOL    HW115122   2.955   2.339   2.724  0.3380  1.1657 -2.8575
 1162SOL    HW215123   2.923   2.481   2.695  0.3761  0.9109  1.0415
 1163SOL     OW15124   2.740   0.351   2.864  0.3177  0.7815  0.2419
 1163SOL    HW115125   2.821   0.317   2.901  0.6377  1.2152 -0.0508
 1163SOL    HW215126   2.762   0.410   2.792 -1.7938  1.0876 -0.1506
 1164SOL     OW15127   0.875   1.323   5.411 -0.0514  0.1030 -0.9260
 1164SOL    HW115128   0.869   1.231   5.389  0.5756  0.4753 -2.6263
 1164SOL    HW215129   0.952   1.354   5.363  1.9588 -0.5002  1.8657
 1165SOL     OW15130   3.426   1.134  16.416  0.0901 -0.6127 -0.4497
 1165SOL    HW115131   3.483   1.064  16.385 -1.0541 -2.2612  1.1437
 1165SOL    HW215132   3.458   1.198  16.353 -1.4024  1.9540  1.4232
 1166SOL     OW15133   4.653   2.661   4.852  0.1386 -0.0021 -0.2525
 1166SOL    HW115134   4.590   2.713   4.901  0.8636  0.3724  0.2836
 1166SOL    HW215135   4.735   2.683   4.896  1.0592 -1.1819 -1.3641
 1167SOL     OW15136   1.601   0.237   9.135 -0.3906  1.0604 -0.3044
 1167SOL    HW115137   1.692   0.212   9.152 -1.3268  0.9175  4.5305
 1167SOL    HW215138   1.600   0.318   9.185  1.7603  1.1766 -0.4489
 1168SOL     OW15139   4.403   4.257   6.667 -0.5127  0.1635 -0.4794
 1168SOL    HW115140   4.417   4.192   6.598  3.1065  1.1754 -0.7160
 1168SOL    HW215141   4.368   4.329   6.614 -1.4532 -0.4544 -0.7018
 1169SOL     OW15142   3.629   0.201  15.337  0.2907 -0.1145 -0.1094
 1169SOL    HW115143   3.533   0.196  15.334  0.2321 -0.4108  2.4659
 1169SOL    HW215144   3.649   0.222  15.428  2.0280 -1.0009 -0.2778
 1170SOL     OW15145   2.444   2.750   3.352 -0.2166  0.0174  0.1997
 1170SOL    HW115146   2.454   2.661   3.385 -0.4393  0.5199  1.6309
 1170SOL    HW215147   2.360   2.737   3.308 -0.5669  0.1338  0.8304
 1171SOL     OW15148   3.233   0.956  16.180 -0.1518  0.0021 -0.5316
 1171SOL    HW115149   3.323   0.947  16.151 -0.2469  0.5298 -0.9977
 1171SOL    HW215150   3.240   1.025  16.246 -2.3111  1.2715 -1.6230
 1172SOL     OW15151   0.845   4.154  17.398 -0.1068 -0.2550  0.0494
 1172SOL    HW115152   0.801   4.072  17.420 -0.2635  0.4169  2.2798
 1172SOL    HW215153   0.823   4.164  17.306 -1.5393 -2.5812  0.1414
 1173SOL     OW15154   2.554   3.241   3.991  0.3225 -0.0728  0.4210
 1173SOL    HW115155   2.570   3.194   4.073  3.7784  0.2991 -0.0291
 1173SOL    HW215156   2.466   3.210   3.969 -0.2233  1.3270  0.6666
 1174SOL     OW15157   4.464   1.897   7.336  0.2387  0.3391  0.0267
 1174SOL    HW115158   4.500   1.967   7.281  0.0022 -0.8611 -1.6596
 1174SOL    HW215159   4.439   1.941   7.417 -2.0732 -2.0594  0.6207
 1175SOL     OW15160   0.874   2.331  14.380  0.1653  0.3102  0.1527
 1175SOL    HW115161   0.883   2.344  14.475  3.0066 -2.2969  0.2446
 1175SOL    HW215162   0.901   2.241  14.362  1.1206  0.8662 -1.1211
 1176SOL     OW15163   0.820   1.340   0.715  0.2497 -0.3781  0.1537
 1176SOL    HW115164   0.830   1.403   0.786  0.1311 -0.2288  0.0394
 1176SOL    HW215165   0.725   1.330   0.713  0.3424 -1.0395 -1.4336
 1177SOL     OW15166   4.027   3.345   2.288  0.0755 -0.1098 -0.1965
 1177SOL    HW115167   4.106   3.390   2.259 -0.3894 -0.9131 -2.6365
 1177SOL    HW215168   3.988   3.311   2.208  1.8352 -0.6734 -0.8029
 1178SOL     OW15169   4.240   0.372  14.922  0.4214  0.4909  0.2334
 1178SOL    HW115170   4.319   0.368  14.868  1.9491  0.6070  2.4581
 1178SOL    HW215171   4.194   0.450  14.891 -1.0084 -1.0424 -1.5668
 1179SOL     OW15172   2.763   0.263   7.388  0.2125 -0.4402 -0.2211
 1179SOL    HW115173   2.674   0.298   7.388 -0.1036 -1.2632  1.7126
 1179SOL    HW215174   2.782   0.259   7.482 -1.4437 -1.8817  0.0555
 1180SOL     OW15175   3.475   2.700   7.595 -0.4209 -0.5051 -0.0004
 1180SOL    HW115176   3.549   2.691   7.656 -0.3821  0.0645  0.0352
 1180SOL    HW215177   3.491   2.782   7.549  1.5647 -0.8583  0.0480
 1181SOL     OW15178   3.183   4.259   4.828 -0.6528 -0.3582  0.4179
 1181SOL    HW115179   3.195   4.340   4.878 -0.1268 -0.4597  0.4619
 1181SOL    HW215180   3.091   4.274   4.811 -0.6674  0.7710  1.4803
 1182SOL     OW15181   2.801   1.215   9.603  0.0469  0.0005 -0.3684
 1182SOL    HW115182   2.746   1.210   9.681  1.3651 -1.8292  0.4445
 1182SOL    HW215183   2.835   1.126   9.593  1.6453  0.5370  0.2541
 1183SOL     OW15184   3.630   0.033   4.468 -0.0304 -0.5673  0.2334
 1183SOL    HW115185   3.627   0.118   4.423  0.5360 -0.2368  0.8191
 1183SOL    HW215186   3.665   0.057   4.554  1.4584 -0.2642 -0.4591
 1184SOL     OW15187   3.808   0.934   4.046  0.2829  0.4931 -0.2376
 1184SOL    HW115188   3.849   1.013   4.010 -0.8864  0.4314 -1.7194
 1184SOL    HW215189   3.727   0.917   3.998 -1.1727  0.6665  2.1592
 1185SOL     OW15190   3.598   1.569  13.032 -0.2629 -0.7534 -0.8158
 1185SOL    HW115191   3.642   1.489  13.003 -1.8263 -0.4183 -4.0717
 1185SOL    HW215192   3.509   1.536  13.042  0.3759 -2.1317  0.2988
 1186SOL     OW15193   2.592   1.022   3.301 -0.4178  0.0925 -0.1092
 1186SOL    HW115194   2.559   0.960   3.236 -0.7736  1.7137 -1.4906
 1186SOL    HW215195   2.546   1.099   3.268 -3.1142 -1.6816 -0.4521
 1187SOL     OW15196   0.446   2.948   1.669 -0.2456 -0.0602 -0.3655
 1187SOL    HW115197   0.526   2.975   1.714 -0.1784 -0.5884 -0.1706
 1187SOL    HW215198   0.409   3.033   1.645  0.9161  0.6809  0.4718
 1188SOL     OW15199   0.640   2.616  12.007 -0.3973 -0.2436 -0.2444
 1188SOL    HW115200   0.643   2.669  12.086  0.6282  1.3897 -1.3956
 1188SOL    HW215201   0.723   2.648  11.973 -1.0139  1.8092  0.1737
 1189SOL     OW15202   1.878   0.372  13.127 -0.3112 -0.5228 -0.1180
 1189SOL    HW115203   1.790   0.403  13.107  1.0995  2.6653 -1.5313
 1189SOL    HW215204   1.934   0.422  13.067  0.2613 -0.6812  0.2863
 1190SOL     OW15205   3.245   2.255   9.088 -0.1346  0.5791 -0.4876
 1190SOL    HW115206   3.234   2.160   9.089  0.9936  0.4383 -0.6654
 1190SOL    HW215207   3.336   2.277   9.064  0.2871 -0.7653 -0.1293
 1191SOL     OW15208   0.272   4.213   5.930  0.1887 -0.9059 -0.4728
 1191SOL    HW115209   0.251   4.125   5.898  0.8454 -0.9511 -0.7763
 1191SOL    HW215210   0.197   4.235   5.986  0.6546  1.9671 -0.9680
 1192SOL     OW15211   4.348   1.983   4.709 -0.3283 -0.1211  0.1801
 1192SOL    HW115212   4.342   2.036   4.788  0.9014  1.0435 -0.4993
 1192SOL    HW215213   4.261   1.944   4.712 -0.5140  0.3246  0.6228
 1193SOL     OW15214   1.500   3.165  16.373  0.1262 -0.4182 -0.2603
 1193SOL    HW115215   1.418   3.122  16.394 -0.0590  0.7867  1.4484
 1193SOL    HW215216   1.477   3.215  16.294  0.2355  1.0039  0.6001
 1194SOL     OW15217   4.474   1.786   9.061 -0.0632  0.5441  0.0535
 1194SOL    HW115218   4.472   1.847   8.988  2.0509  0.4520 -0.0904
 1194SOL    HW215219   4.456   1.703   9.017  0.0567 -0.2159  1.4355
 1195SOL     OW15220   0.285   0.939  10.250  0.1529 -0.0822 -0.3940
 1195SOL    HW115221   0.274   1.011  10.312  0.6873  0.7806 -1.2914
 1195SOL    HW215222   0.289   0.868  10.313 -2.2911  1.5711  1.6330
 1196SOL     OW15223   1.921   0.989   8.413  0.2732  0.5418 -0.2465
 1196SOL    HW115224   1.898   0.932   8.340  4.0875 -0.8315 -0.3981
 1196SOL    HW215225   2.005   0.949   8.435 -0.2495  0.3227  1.3471
 1197SOL     OW15226   2.884   3.084   3.219 -0.1540 -0.4452 -0.0901
 1197SOL    HW115227   2.943   3.149   3.183 -2.3656  1.3969 -0.3681
 1197SOL    HW215228   2.810   3.139   3.245 -3.0818 -3.1386 -2.7736
 1198SOL     OW15229   3.446   3.556   2.736 -0.1473  0.2631 -0.0575
 1198SOL    HW115230   3.397   3.626   2.693 -0.2980  1.9544  2.8524
 1198SOL    HW215231   3.376   3.518   2.789 -0.2936 -0.4713 -0.7827
 1199SOL     OW15232   0.801   3.434   8.908 -0.1046 -0.1096  0.4013
 1199SOL    HW115233   0.807   3.359   8.849  1.0075  1.3387 -1.3433
 1199SOL    HW215234   0.750   3.391   8.976  2.1427 -0.7120  1.7113
 1200SOL     OW15235   2.478   1.583   9.010 -0.8212  0.3482 -0.0084
 1200SOL    HW115236   2.488   1.668   8.967 -0.9861  1.4453  2.1376
 1200SOL    HW215237   2.570   1.566   9.028 -1.4742 -2.8979  0.2129
 1201SOL     OW15238   2.736   3.289   9.625  0.1426  0.0781  0.6356
 1201SOL    HW115239   2.785   3.369   9.606  2.5770 -1.6735 -0.4643
 1201SOL    HW215240   2.685   3.326   9.697 -3.6200 -0.6370 -1.6907
 1202SOL     OW15241   2.955   0.458   8.244 -0.4724 -0.7461 -0.1176
 1202SOL    HW115242   3.039   0.429   8.280 -0.7754 -2.1260 -0.5455
 1202SOL    HW215243   2.935   0.529   8.306  0.2473 -1.1744  0.6021
 1203SOL     OW15244   3.827   2.409   8.577 -0.3418 -0.4360  0.4099
 1203SOL    HW115245   3.921   2.397   8.586 -0.3082 -2.0948 -2.3962
 1203SOL    HW215246   3.806   2.425   8.669  0.1462 -0.9043  0.6001
 1204SOL     OW15247   1.876   1.539   4.402 -0.0903  0.4495  0.6107
 1204SOL    HW115248   1.844   1.482   4.332 -0.7156 -0.0810  1.3291
 1204SOL    HW215249   1.961   1.504   4.426 -0.2592 -1.7006 -1.8834
 1205SOL     OW15250   1.643   1.516   7.247  0.2699  0.2264  0.3658
 1205SOL    HW115251   1.702   1.566   7.191 -2.9588  3.6878  0.0678
 1205SOL    HW215252   1.575   1.581   7.266  0.1639 -0.0977  1.0908
 1206SOL     OW15253   4.105   4.425   3.642  0.4592 -0.3307  0.6610
 1206SOL    HW115254   4.117   4.513   3.678 -1.2642  0.3981 -0.5022
 1206SOL    HW215255   4.053   4.387   3.712 -0.5188 -0.7924 -0.3147
 1207SOL     OW15256   2.947   1.774   3.392 -0.1058  0.0987 -0.1196
 1207SOL    HW115257   2.960   1.833   3.319 -1.5981  0.8788  0.2411
 1207SOL    HW215258   2.963   1.687   3.355 -0.3937  0.0670 -0.1703
 1208SOL     OW15259   3.690   2.569   4.408 -0.0715  0.4142 -0.3229
 1208SOL    HW115260   3.700   2.626   4.484  0.2830 -2.3654  1.6705
 1208SOL    HW215261   3.630   2.507   4.450 -0.2337 -1.5937 -3.4695
 1209SOL     OW15262   3.708   4.363  13.734 -0.2248 -0.3758  0.4994
 1209SOL    HW115263   3.669   4.431  13.680 -0.4886 -2.6245 -2.1197
 1209SOL    HW215264   3.788   4.354  13.682  0.5747 -1.0705  1.8583
 1210SOL     OW15265   2.393   1.598   2.524  0.3342 -0.2234  0.1661
 1210SOL    HW115266   2.434   1.626   2.606 -0.2545  1.4264 -0.1137
 1210SOL    HW215267   2.301   1.588   2.548 -0.0839  0.3816 -1.2527
 1211SOL     OW15268   3.673   0.199  13.145  0.2135 -0.7119 -0.2105
 1211SOL    HW115269   3.638   0.288  13.144  1.0456 -0.3999 -1.4830
 1211SOL    HW215270   3.680   0.184  13.051  1.9449 -1.8210  0.0979
 1212SOL     OW15271   2.029   2.515  11.543 -0.0952  0.1100 -0.0419
 1212SOL    HW115272   2.022   2.597  11.590  0.3125 -0.4217  0.9580
 1212SOL    HW215273   2.096   2.470  11.596 -0.1367  0.1456  0.0403
 1213SOL     OW15274   0.734   1.559   2.105 -0.2501 -0.0493 -0.5639
 1213SOL    HW115275   0.648   1.549   2.147 -0.1741  0.6257 -0.2311
 1213SOL    HW215276   0.786   1.561   2.185  1.6560  0.2452 -1.8246
 1214SOL     OW15277   3.753   1.120   7.325  0.0478 -0.1519 -0.0473
 1214SOL    HW115278   3.816   1.054   7.297 -0.7929 -0.5164 -1.0447
 1214SOL    HW215279   3.807   1.192   7.292 -1.0992  0.4596 -0.5692
 1215SOL     OW15280   3.896   4.022  16.552 -0.4447 -0.2547 -0.0195
 1215SOL    HW115281   3.966   4.084  16.575 -1.1911  1.2987 -1.9445
 1215SOL    HW215282   3.819   4.076  16.570  0.7315  1.1176  0.9376
 1216SOL     OW15283   3.266   1.406  11.430  0.4980  0.3737 -0.5451
 1216SOL    HW115284   3.191   1.462  11.454 -0.6725  0.0552 -3.4749
 1216SOL    HW215285   3.336   1.469  11.414 -0.1782  1.9124  2.4850
 1217SOL     OW15286   3.136   1.711   2.394  0.3637  0.1556 -0.7980
 1217SOL    HW115287   3.154   1.681   2.483 -1.0922  0.4038 -0.4165
 1217SOL    HW215288   3.196   1.656   2.345  1.4735  0.2243  0.5032
 1218SOL     OW15289   2.665   2.580   2.443  0.5817  0.2206  0.1080
 1218SOL    HW115290   2.727   2.645   2.476  0.8704  0.0630 -0.1271
 1218SOL    HW215291   2.695   2.504   2.493 -0.1893 -0.0359  0.1960
 1219SOL     OW15292   0.165   0.365   6.646  0.8247 -0.1762  0.3829
 1219SOL    HW115293   0.203   0.400   6.726 -1.2111 -0.1103  1.3240
 1219SOL    HW215294   0.157   0.451   6.604 -0.8711 -1.6220 -2.3212
 1220SOL     OW15295   0.815   3.247   2.356 -0.1645  0.4021  0.1177
 1220SOL    HW115296   0.737   3.301   2.371  1.6306  2.7531  0.9552
 1220SOL    HW215297   0.837   3.229   2.447  0.0208  0.2561  0.0433
 1221SOL     OW15298   2.150   0.161   4.078  0.3444 -0.1959  0.3419
 1221SOL    HW115299   2.108   0.216   4.012  1.6524  1.0648  0.5652
 1221SOL    HW215300   2.173   0.232   4.137 -1.4643  1.4126 -0.9050
 1222SOL     OW15301   1.013   0.961   8.820  0.3818 -0.4410 -0.7387
 1222SOL    HW115302   1.025   0.939   8.728  0.7353 -2.2821 -0.2583
 1222SOL    HW215303   0.938   1.021   8.819  1.1058  0.4811  0.1069
 1223SOL     OW15304   1.918   4.598   3.963 -0.2542 -0.2592  0.5072
 1223SOL    HW115305   1.883   4.511   3.945 -1.1647  0.3804 -0.8978
 1223SOL    HW215306   2.000   4.601   3.914  0.7637  0.1508  2.2467
 1224SOL     OW15307   0.650   0.191   2.247 -0.1237 -0.6100 -0.0053
 1224SOL    HW115308   0.674   0.103   2.276  0.7266  0.6340  3.1415
 1224SOL    HW215309   0.688   0.187   2.160  0.4063  1.2360  0.1373
 1225SOL     OW15310   1.643   4.600  15.053  0.3184  0.3729 -0.6672
 1225SOL    HW115311   1.640   4.519  15.103  2.2170  1.0661  0.6122
 1225SOL    HW215312   1.550   4.603  15.030  0.3604  2.3081 -0.6323
 1226SOL     OW15313   1.082   3.953   3.979 -0.1258  0.1922 -0.1291
 1226SOL    HW115314   1.154   3.891   3.989  0.7891  1.3624  0.5957
 1226SOL    HW215315   1.118   3.993   3.899 -0.9276  1.9706  0.3910
 1227SOL     OW15316   1.197   1.013   8.085 -0.2305  0.4621 -0.7888
 1227SOL    HW115317   1.138   1.064   8.030 -1.0979  0.4076  0.0780
 1227SOL    HW215318   1.127   0.960   8.124 -0.1242  1.0910  0.2583
 1228SOL     OW15319   4.363   2.837  16.115 -0.8115  0.1429  0.8550
 1228SOL    HW115320   4.408   2.773  16.171 -0.7024 -0.0473  0.5482
 1228SOL    HW215321   4.294   2.870  16.172 -0.9115  0.8569  0.3188
 1229SOL     OW15322   1.536   0.003  10.309 -0.2602  0.4082 -0.0603
 1229SOL    HW115323   1.551   0.053  10.229 -3.9210  1.1884 -0.2733
 1229SOL    HW215324   1.625   4.735  10.344 -0.8979  0.2662  1.5424
 1230SOL     OW15325   1.898   2.608   2.248 -0.2025  1.0575 -0.2940
 1230SOL    HW115326   1.855   2.531   2.285  0.7746  0.2543 -0.8268
 1230SOL    HW215327   1.832   2.674   2.269 -1.3621  0.0329 -0.7217
 1231SOL     OW15328   0.453   2.382   8.409 -0.4899 -1.0339 -0.1641
 1231SOL    HW115329   0.535   2.367   8.455  0.3179  3.4393 -0.1142
 1231SOL    HW215330   0.397   2.377   8.486 -0.9261  3.8098 -0.1522
 1232SOL     OW15331   4.040   3.987   0.912  0.1229  0.0237  0.2764
 1232SOL    HW115332   4.108   3.923   0.934  0.5722  0.6402  0.7094
 1232SOL    HW215333   4.082   4.052   0.855 -0.8456  2.6168  2.4980
 1233SOL     OW15334   1.599   4.063  17.131 -0.4718  0.1213  0.1404
 1233SOL    HW115335   1.538   4.126  17.093  1.1846  2.6133  1.5696
 1233SOL    HW215336   1.581   4.082  17.223  1.8802  2.2434  0.1747
 1234SOL     OW15337   2.725   0.161   3.723 -0.3676  0.0429 -0.5737
 1234SOL    HW115338   2.805   0.111   3.705 -0.9567 -1.7152  1.6565
 1234SOL    HW215339   2.656   0.097   3.710 -0.0455 -0.7119  1.3257
 1235SOL     OW15340   3.316   3.037   7.661 -0.5660 -0.0314  0.1155
 1235SOL    HW115341   3.239   3.011   7.712  1.0891  1.4754  3.4424
 1235SOL    HW215342   3.313   3.132   7.650  1.1832 -0.2582 -2.4432
 1236SOL     OW15343   4.272   4.341   2.227 -0.1200 -0.5019 -0.5549
 1236SOL    HW115344   4.350   4.314   2.276  0.0710  0.0097 -0.5733
 1236SOL    HW215345   4.246   4.253   2.200 -1.8065 -0.2043  0.1315
 1237SOL     OW15346   2.254   0.603  15.559 -0.4543  0.5379  0.1869
 1237SOL    HW115347   2.311   0.559  15.497 -1.6683  0.7444 -1.0673
 1237SOL    HW215348   2.293   0.566  15.638 -3.2811 -0.8285  0.9684
 1238SOL     OW15349   2.203   2.925  11.373 -0.0233 -0.1932 -0.4330
 1238SOL    HW115350   2.232   2.850  11.424  1.4055  0.5970 -0.0670
 1238SOL    HW215351   2.257   3.002  11.391 -0.7031  0.0807  0.4388
 1239SOL     OW15352   2.815   1.513  10.656  0.2696 -0.0034  0.4195
 1239SOL    HW115353   2.779   1.427  10.636 -0.5922  0.8715 -1.8209
 1239SOL    HW215354   2.765   1.544  10.731 -0.7578  0.5833 -0.5119
 1240SOL     OW15355   4.375   2.721   2.909 -0.0599 -0.4115 -0.0399
 1240SOL    HW115356   4.405   2.691   2.823  1.4032 -1.7712  0.9540
 1240SOL    HW215357   4.364   2.634   2.948 -1.9472 -0.4327 -0.6068
 1241SOL     OW15358   3.477   3.233   6.420  0.0495 -0.8006 -0.6499
 1241SOL    HW115359   3.454   3.308   6.365 -0.3165  1.4654  2.5686
 1241SOL    HW215360   3.412   3.251   6.488  0.5161 -1.9726  0.1087
 1242SOL     OW15361   0.571   4.138  10.726  0.6297 -0.3071  0.4434
 1242SOL    HW115362   0.537   4.227  10.727  1.4288  0.0018 -0.9445
 1242SOL    HW215363   0.527   4.100  10.802  1.5714  2.1864  2.2312
 1243SOL     OW15364   2.279   1.545   3.593  0.0434  0.1201  0.3804
 1243SOL    HW115365   2.237   1.631   3.581 -0.4823 -0.3265 -1.0228
 1243SOL    HW215366   2.202   1.488   3.583  0.0327  0.0786  0.7074
 1244SOL     OW15367   0.823   1.852   1.793  0.1105 -0.4510 -0.4185
 1244SOL    HW115368   0.871   1.774   1.820  1.8219  0.5137 -0.6110
 1244SOL    HW215369   0.820   1.836   1.699  0.4822  3.1330 -1.0676
 1245SOL     OW15370   4.269   0.735   3.886  0.3873  0.7415  0.0769
 1245SOL    HW115371   4.272   0.729   3.790  1.1899  0.0319  0.1407
 1245SOL    HW215372   4.311   0.820   3.896 -2.4508  1.7840  3.4036
 1246SOL     OW15373   3.567   3.272   5.738  0.6171  0.5225  0.0066
 1246SOL    HW115374   3.490   3.329   5.733  1.1101  1.1615 -0.3015
 1246SOL    HW215375   3.523   3.207   5.792 -0.8192  0.7832 -0.8604
 1247SOL     OW15376   0.812   4.139   6.060 -0.4895 -0.1314 -0.1507
 1247SOL    HW115377   0.748   4.073   6.086 -0.2367 -0.7267 -1.0556
 1247SOL    HW215378   0.889   4.088   6.084  0.3193  0.1431 -2.2067
 1248SOL     OW15379   3.878   1.819   8.594 -0.0654  0.7796 -0.5931
 1248SOL    HW115380   3.880   1.736   8.546 -2.3020  0.5565 -0.2725
 1248SOL    HW215381   3.784   1.827   8.611 -0.0198  1.1119 -0.4934
 1249SOL     OW15382   0.673   4.636   6.025 -0.3971 -0.2699  0.1485
 1249SOL    HW115383   0.679   4.643   5.930 -1.4071  1.5593  0.2262
 1249SOL    HW215384   0.678   4.542   6.040 -1.5407  0.0999  2.9696
 1250SOL     OW15385   4.652   0.098  12.562 -0.2789  0.1602  0.4154
 1250SOL    HW115386   4.612   0.112  12.476 -0.3308 -1.4591  0.1735
 1250SOL    HW215387   4.663   0.003  12.573  1.3364  0.0643 -1.9647
 1251SOL     OW15388   2.608   4.381  12.787  0.0364 -0.0521 -0.2051
 1251SOL    HW115389   2.587   4.338  12.870  0.6488 -0.2957 -0.1725
 1251SOL    HW215390   2.614   4.310  12.723  0.2737  1.3479 -1.7610
 1252SOL     OW15391   1.623   3.855   2.356 -0.1491  0.1017  0.4549
 1252SOL    HW115392   1.561   3.927   2.347 -1.4223 -0.7319  2.6814
 1252SOL    HW215393   1.670   3.866   2.273 -1.2506  0.8951 -0.0657
 1253SOL     OW15394   1.817   0.405   5.159  0.3503 -0.1193  0.0484
 1253SOL    HW115395   1.885   0.338   5.159 -0.3891 -0.8640 -1.4894
 1253SOL    HW215396   1.863   0.488   5.146  0.7890 -0.0906  1.7970
 1254SOL     OW15397   3.314   0.795  14.913  0.2001  0.0454 -0.0890
 1254SOL    HW115398   3.357   0.786  14.828 -0.4500 -0.9057 -0.3277
 1254SOL    HW215399   3.369   0.736  14.965  0.6865  0.1594 -0.4736
 1255SOL     OW15400   0.204   4.235   5.206 -0.3712 -0.2587  0.2630
 1255SOL    HW115401   0.183   4.150   5.244 -0.4011 -0.5263 -0.3468
 1255SOL    HW215402   0.249   4.210   5.125  0.5189 -0.5354  0.8512
 1256SOL     OW15403   3.788   4.733   8.535 -0.7949  0.2097  0.4905
 1256SOL    HW115404   3.747   4.735   8.449  1.3478 -1.4196 -0.5734
 1256SOL    HW215405   3.788   0.087   8.562  0.8541  0.3957 -0.1789
 1257SOL     OW15406   3.780   0.335  12.376  0.5482 -0.3469  0.2825
 1257SOL    HW115407   3.685   0.348  12.368  0.6306 -0.4192 -0.8377
 1257SOL    HW215408   3.793   0.354  12.469  1.8266 -1.5562  0.3440
 1258SOL     OW15409   4.417   1.416   2.527 -0.1229 -0.3967  0.7749
 1258SOL    HW115410   4.484   1.402   2.461 -0.4033 -1.4782  0.7185
 1258SOL    HW215411   4.470   1.440   2.603  1.5191  0.6148 -0.6907
 1259SOL     OW15412   3.867   0.394   2.268  0.0360  0.0469  0.4568
 1259SOL    HW115413   3.913   0.326   2.220 -0.1681  0.2573 -0.0378
 1259SOL    HW215414   3.820   0.338   2.329 -1.9754 -0.6421 -1.7166
 1260SOL     OW15415   3.600   2.009   0.652 -0.6642 -0.6903  0.1124
 1260SOL    HW115416   3.526   2.001   0.591  0.5874  0.6265 -1.5823
 1260SOL    HW215417   3.581   2.079   0.715 -2.2827  0.1586 -1.2997
 1261SOL     OW15418   2.884   3.011   7.219 -0.3059 -0.8038 -0.1402
 1261SOL    HW115419   2.876   2.980   7.128 -1.8096  1.7697 -0.8902
 1261SOL    HW215420   2.817   3.079   7.210 -1.5506 -2.3115 -2.4205
 1262SOL     OW15421   1.251   1.360  10.541 -0.5361  0.5377  0.0292
 1262SOL    HW115422   1.289   1.410  10.469  3.7850  0.0802  1.9726
 1262SOL    HW215423   1.327   1.359  10.599 -0.9076 -0.8366  0.5004
 1263SOL     OW15424   2.559   1.058   0.354 -0.2329  0.0951  0.2547
 1263SOL    HW115425   2.632   1.008   0.392  0.4736  1.0385  0.1324
 1263SOL    HW215426   2.502   0.988   0.321 -0.6322  0.2226  0.6735
 1264SOL     OW15427   2.708   3.737  16.375 -0.2485 -0.8683 -0.1695
 1264SOL    HW115428   2.801   3.717  16.366 -1.0896 -4.6640 -0.5274
 1264SOL    HW215429   2.700   3.715  16.467  1.4732  1.3645  0.5092
 1265SOL     OW15430   2.371   1.772  11.012 -0.0826 -0.2629 -0.3265
 1265SOL    HW115431   2.428   1.846  11.032 -1.6933  1.1025 -0.8418
 1265SOL    HW215432   2.294   1.822  10.987 -0.4692 -1.0547 -0.7124
 1266SOL     OW15433   0.106   0.393   7.513 -0.0531 -0.5360  0.5246
 1266SOL    HW115434   0.110   0.310   7.466 -1.1826  0.0043 -0.5261
 1266SOL    HW215435   0.196   0.423   7.502 -1.1168  2.0055 -1.1516
 1267SOL     OW15436   3.633   0.856   8.617 -0.3526  0.1446 -0.8289
 1267SOL    HW115437   3.696   0.864   8.546  0.3034  0.5482 -0.1985
 1267SOL    HW215438   3.690   0.821   8.685 -0.7515 -1.1163 -1.1303
 1268SOL     OW15439   3.009   0.458   4.731 -0.3031 -0.5422 -0.7197
 1268SOL    HW115440   2.957   0.536   4.713 -0.3585 -0.0334  1.5871
 1268SOL    HW215441   3.048   0.501   4.807  0.2653 -1.2764 -0.5922
 1269SOL     OW15442   2.510   4.716   4.066  0.2468  0.2267 -0.2325
 1269SOL    HW115443   2.443   4.714   3.997  0.9929 -1.1685 -0.9121
 1269SOL    HW215444   2.496   4.639   4.121  1.4210 -1.9266 -2.9217
 1270SOL     OW15445   3.795   4.191   0.060 -0.0844 -0.2946  0.1962
 1270SOL    HW115446   3.832   4.222  17.731  0.0133  2.4512  1.2952
 1270SOL    HW215447   3.703   4.173   0.038  0.1769 -0.3104 -0.8574
 1271SOL     OW15448   1.346   2.413   1.801  0.1205  0.1233 -0.2339
 1271SOL    HW115449   1.275   2.354   1.777 -0.3518  0.7964 -0.4904
 1271SOL    HW215450   1.421   2.354   1.797  1.4159  1.7935 -0.7851
 1272SOL     OW15451   0.381   4.358   2.352 -0.7608  0.2529 -0.1372
 1272SOL    HW115452   0.404   4.388   2.440 -1.7608  1.6159 -0.3546
 1272SOL    HW215453   0.456   4.381   2.297 -1.3012  0.7746 -0.6582
 1273SOL     OW15454   1.320   0.512  11.412 -0.8336 -0.7657 -0.0303
 1273SOL    HW115455   1.262   0.587  11.402 -0.1327 -0.3111 -0.7271
 1273SOL    HW215456   1.310   0.471  11.326 -0.1562  0.9535 -0.9156
 1274SOL     OW15457   3.107   2.226  11.505 -0.4114 -0.5144 -0.1187
 1274SOL    HW115458   3.135   2.206  11.416 -0.8802  0.4922 -0.4961
 1274SOL    HW215459   3.155   2.158  11.553  0.9609  0.4726 -0.0989
 1275SOL     OW15460   2.931   1.392   3.097  0.4039  0.8040 -0.0924
 1275SOL    HW115461   2.963   1.350   3.176  0.3007  0.3144 -0.3086
 1275SOL    HW215462   2.879   1.322   3.057 -0.7409  0.9237  1.1784
 1276SOL     OW15463   3.177   0.786   8.158 -0.1889 -0.3628  0.0597
 1276SOL    HW115464   3.185   0.694   8.131  0.8291  0.0659 -1.1002
 1276SOL    HW215465   3.198   0.819   8.071 -1.6781 -2.0179 -0.9159
 1277SOL     OW15466   4.089   3.996   3.667 -0.4694 -0.5528  0.0409
 1277SOL    HW115467   4.050   4.062   3.609  1.7388  1.5872  0.9890
 1277SOL    HW215468   4.179   3.987   3.635 -0.6819 -0.8487 -0.4842
 1278SOL     OW15469   1.503   0.709   4.815 -0.2305 -0.5545 -0.0641
 1278SOL    HW115470   1.488   0.694   4.722 -1.9727  0.3519  0.0800
 1278SOL    HW215471   1.572   0.774   4.796 -0.5664  0.1893  1.2857
 1279SOL     OW15472   1.217   1.641   8.228  0.5090  0.5996  0.2723
 1279SOL    HW115473   1.129   1.609   8.247  0.4832  0.3605 -0.2475
 1279SOL    HW215474   1.229   1.590   8.148 -2.1533 -1.2966  1.1099
 1280SOL     OW15475   3.919   4.648   4.713  0.3914  0.0939 -0.3075
 1280SOL    HW115476   3.948   4.575   4.767 -0.4877 -1.9439 -2.5790
 1280SOL    HW215477   3.902   4.711   4.784 -0.0547 -0.4003  0.0218
 1281SOL     OW15478   2.768   4.730   5.840  0.1591  0.5984 -0.0171
 1281SOL    HW115479   2.836   4.664   5.833 -0.4031  0.1333 -1.0585
 1281SOL    HW215480   2.729   4.722   5.753 -0.6908  0.8506  0.3407
 1282SOL     OW15481   2.782   3.790   7.194  0.0408 -0.2110 -0.2903
 1282SOL    HW115482   2.866   3.792   7.240 -0.2558 -1.2432  0.3139
 1282SOL    HW215483   2.775   3.881   7.166 -1.3056 -0.2532 -0.0624
 1283SOL     OW15484   4.178   1.798  10.971  0.2731 -0.3161 -0.1150
 1283SOL    HW115485   4.229   1.840  11.039  2.2052 -0.0854 -1.7037
 1283SOL    HW215486   4.092   1.812  11.010 -0.1285 -1.6963 -0.4838
 1284SOL     OW15487   2.121   2.280   6.120  0.5412  0.3493 -0.1620
 1284SOL    HW115488   2.060   2.213   6.089  2.9483 -1.4301 -1.0918
 1284SOL    HW215489   2.084   2.354   6.071  1.8407  0.6476 -0.7034
 1285SOL     OW15490   2.057   2.417   5.113  0.1731 -0.1277  0.5051
 1285SOL    HW115491   2.036   2.485   5.050 -1.8361  0.8897  2.2745
 1285SOL    HW215492   2.028   2.339   5.065  1.6272  0.1291 -0.7986
 1286SOL     OW15493   1.523   0.499   2.649 -0.1741  0.0746  0.1579
 1286SOL    HW115494   1.531   0.537   2.562  2.5915  2.1564  1.3290
 1286SOL    HW215495   1.504   0.575   2.705 -0.5729 -2.1151  3.0020
 1287SOL     OW15496   1.251   0.988  13.971 -0.7468  0.4249  0.0332
 1287SOL    HW115497   1.161   0.954  13.972 -0.7337  0.3845 -0.0606
 1287SOL    HW215498   1.289   0.955  14.052  0.0558 -1.5771 -1.1494
 1288SOL     OW15499   3.659   3.603  15.932 -0.1637  0.3412  0.0520
 1288SOL    HW115500   3.627   3.559  15.853 -0.0009  1.6286 -0.7303
 1288SOL    HW215501   3.639   3.535  15.996 -1.1305  1.7570  1.2517
 1289SOL     OW15502   1.980   1.395  10.949 -0.1399 -0.0371  0.3217
 1289SOL    HW115503   2.039   1.470  10.954 -2.1169  1.8882 -5.4489
 1289SOL    HW215504   2.030   1.334  10.896  1.3720  0.7199  0.8898
 1290SOL     OW15505   4.138   2.209   9.985  0.2022  0.0850 -0.1121
 1290SOL    HW115506   4.193   2.158  10.045 -0.2476 -1.9886 -1.4947
 1290SOL    HW215507   4.057   2.159   9.980  0.5102 -0.0508 -3.3873
 1291SOL     OW15508   4.214   1.930   5.549  0.3209 -0.3487 -0.4303
 1291SOL    HW115509   4.143   1.975   5.594  1.1084  0.9947 -0.5313
 1291SOL    HW215510   4.194   1.841   5.577  0.3119 -0.6151 -1.2925
 1292SOL     OW15511   4.264   0.168   8.775  0.0884  0.0581 -0.2205
 1292SOL    HW115512   4.240   0.242   8.831  0.9994  0.7946 -0.8039
 1292SOL    HW215513   4.280   0.101   8.841  1.5996  0.6306 -0.0102
 1293SOL     OW15514   0.388   1.912  14.971 -0.0038  0.0991 -0.3398
 1293SOL    HW115515   0.309   1.907  15.025 -1.9153  1.6360 -3.0037
 1293SOL    HW215516   0.434   1.969  15.032 -2.3165  1.5715  0.0225
 1294SOL     OW15517   4.547   0.884   6.715 -0.1631 -0.8450 -0.3604
 1294SOL    HW115518   4.503   0.968   6.702  2.8963  1.0297  1.5268
 1294SOL    HW215519   4.625   0.911   6.668 -0.9514  0.0448 -1.1469
 1295SOL     OW15520   1.971   0.729   3.423  0.5014 -0.1361 -0.4234
 1295SOL    HW115521   1.886   0.704   3.386 -0.4547 -1.3376  2.6085
 1295SOL    HW215522   2.024   0.653   3.399 -2.8481 -1.8563 -2.3900
 1296SOL     OW15523   0.894   0.162   7.999  0.5164 -0.1885 -0.1574
 1296SOL    HW115524   0.984   0.132   7.997  0.7825  0.7229 -2.2891
 1296SOL    HW215525   0.910   0.252   8.028  2.2243 -1.4866  2.9330
 1297SOL     OW15526   2.174   4.678  16.817  0.6417 -0.4408 -0.4736
 1297SOL    HW115527   2.231   4.609  16.851  0.2891 -0.6099 -0.2145
 1297SOL    HW215528   2.204   0.007  16.878 -1.2125  1.1446 -1.3384
 1298SOL     OW15529   2.094   1.170   9.777 -0.1670 -0.5293  0.6233
 1298SOL    HW115530   2.022   1.131   9.728  1.8717 -0.8927 -2.1207
 1298SOL    HW215531   2.155   1.097   9.791  0.0944 -0.4252  0.0416
 1299SOL     OW15532   1.990   4.109   4.557  0.5241  0.3078 -0.0798
 1299SOL    HW115533   1.895   4.105   4.564  0.3657  1.7934 -1.1916
 1299SOL    HW215534   1.997   4.190   4.505 -0.8391 -0.4655 -1.4926
 1300SOL     OW15535   0.636   1.955   4.465  0.1426  0.6248  0.8716
 1300SOL    HW115536   0.544   1.939   4.487  0.1028 -1.3718 -0.7150
 1300SOL    HW215537   0.621   2.000   4.382  1.6228 -1.9797 -0.8197
 1301SOL     OW15538   1.021   0.854   4.957 -0.1549  0.2893 -0.0471
 1301SOL    HW115539   0.996   0.944   4.935 -1.6684 -0.8304 -2.9128
 1301SOL    HW215540   1.095   0.851   4.896  0.5243  2.2607  0.6982
 1302SOL     OW15541   2.571   0.729   6.858 -0.0736  0.0681 -0.7230
 1302SOL    HW115542   2.567   0.650   6.910 -0.9162  1.0002  0.6232
 1302SOL    HW215543   2.489   0.778   6.870 -1.2821 -1.5520 -2.3838
 1303SOL     OW15544   1.694   3.269  16.834  0.4801  0.5219 -0.4638
 1303SOL    HW115545   1.617   3.326  16.836  0.8151  0.9635 -0.2233
 1303SOL    HW215546   1.697   3.254  16.740  2.3058  2.6586 -0.7384
 1304SOL     OW15547   1.769   1.704   6.734 -0.4749 -0.3816  0.1330
 1304SOL    HW115548   1.710   1.762   6.782 -1.7801  1.3914 -3.5698
 1304SOL    HW215549   1.735   1.625   6.776 -2.3158  0.6920  0.6711
 1305SOL     OW15550   3.346   2.397   0.841  0.1714  0.0096  0.2994
 1305SOL    HW115551   3.315   2.473   0.889 -1.5144 -0.8731  0.6243
 1305SOL    HW215552   3.433   2.423   0.812  0.0813  0.3845  0.3739
 1306SOL     OW15553   4.636   3.045   0.064 -0.1840 -0.6476 -0.1564
 1306SOL    HW115554   4.593   3.096   0.133 -1.8198  0.8539 -2.3071
 1306SOL    HW215555   4.627   2.955   0.096 -1.5113 -1.2044 -2.1269
 1307SOL     OW15556   2.806   0.735   8.641  0.3276  0.5685  0.0395
 1307SOL    HW115557   2.724   0.717   8.687 -0.8729  5.3035 -0.2355
 1307SOL    HW215558   2.800   0.831   8.644 -0.7388  0.4088  2.5557
 1308SOL     OW15559   3.669   2.142   8.873  0.3421  0.0750 -0.1155
 1308SOL    HW115560   3.755   2.104   8.890  0.2269 -0.7972 -1.4491
 1308SOL    HW215561   3.618   2.069   8.907  0.0794  0.4257  0.2375
 1309SOL     OW15562   2.159   0.407   9.934 -0.1055 -0.3241 -0.0390
 1309SOL    HW115563   2.114   0.488   9.958  1.4827 -0.3470  3.0085
 1309SOL    HW215564   2.091   0.361   9.883 -1.3298  1.1561  0.2465
 1310SOL     OW15565   2.183   4.658   8.380  0.0297 -0.5957 -0.7044
 1310SOL    HW115566   2.179   4.738   8.328 -0.1521 -0.2975 -0.2314
 1310SOL    HW215567   2.146   4.694   8.461 -0.0560 -0.4060 -0.8284
 1311SOL     OW15568   0.938   3.474   4.996  0.4643  0.3175 -0.0376
 1311SOL    HW115569   1.030   3.466   4.971  0.4885  0.0082  0.1576
 1311SOL    HW215570   0.910   3.529   4.923  2.4245  0.0904 -0.9655
 1312SOL     OW15571   0.701   1.836   9.173  0.2146 -0.4002 -0.7683
 1312SOL    HW115572   0.675   1.880   9.254  3.4200  0.4827 -0.2155
 1312SOL    HW215573   0.790   1.819   9.204  0.4326  2.2931  0.1525
 1313SOL     OW15574   4.053   1.965   3.682 -0.3061 -0.0246  0.3715
 1313SOL    HW115575   4.007   1.882   3.670 -1.1172  0.7063 -1.4701
 1313SOL    HW215576   3.986   2.013   3.730  0.1987  2.1770 -1.1512
 1314SOL     OW15577   0.798   4.100   6.477 -0.2640 -0.6280 -0.5046
 1314SOL    HW115578   0.827   4.024   6.528  0.7772  0.5215  0.6250
 1314SOL    HW215579   0.864   4.113   6.409 -0.7309 -1.1530 -1.0536
 1315SOL     OW15580   3.206   3.106   1.585  0.1841  0.1708  0.0958
 1315SOL    HW115581   3.169   3.151   1.660  1.7558  1.9105 -0.1894
 1315SOL    HW215582   3.230   3.186   1.539 -0.1352  1.6135  2.4761
 1316SOL     OW15583   3.957   0.712   4.757 -0.2904 -0.1050 -0.1260
 1316SOL    HW115584   3.917   0.796   4.736  1.8577  0.7760 -0.7338
 1316SOL    HW215585   3.992   0.686   4.671 -0.1772 -0.0273 -0.1046
 1317SOL     OW15586   4.408   3.914  13.374 -0.2467 -0.5396 -0.5049
 1317SOL    HW115587   4.432   3.838  13.320 -3.4869 -0.6738 -1.7539
 1317SOL    HW215588   4.498   3.947  13.371 -0.6714  0.5534 -1.0443
 1318SOL     OW15589   1.429   3.807   3.562 -0.0401 -0.3253 -0.5453
 1318SOL    HW115590   1.445   3.765   3.646  0.8303  0.3401 -0.3811
 1318SOL    HW215591   1.414   3.731   3.505 -1.4436  0.1101 -0.7525
 1319SOL     OW15592   0.351   1.720   8.021  0.4669 -0.3212  0.3211
 1319SOL    HW115593   0.393   1.715   8.107 -0.3121 -2.3251  0.5812
 1319SOL    HW215594   0.273   1.670   8.046 -0.9683  2.3329  1.2318
 1320SOL     OW15595   1.794   3.248  10.036  0.1472 -0.2975 -0.0784
 1320SOL    HW115596   1.722   3.287   9.986 -0.2056 -0.3487  0.3941
 1320SOL    HW215597   1.756   3.230  10.122  0.5000  1.2378  0.3976
 1321SOL     OW15598   4.621   2.742  11.070  0.6833 -0.6699  0.1896
 1321SOL    HW115599   4.653   2.769  10.984  0.1765 -0.4978  0.0510
 1321SOL    HW215600   4.589   2.658  11.038 -0.2396 -0.0168 -0.5975
 1322SOL     OW15601   0.478   3.030   2.528 -0.6560  0.0007  0.0106
 1322SOL    HW115602   0.395   2.982   2.533  0.4630 -1.5231  4.7820
 1322SOL    HW215603   0.548   2.967   2.545 -0.4219  0.2000 -0.2246
 1323SOL     OW15604   4.089   0.558   8.313 -0.1874  0.1133 -0.5041
 1323SOL    HW115605   4.126   0.638   8.349 -0.6962 -0.2233  0.7973
 1323SOL    HW215606   4.021   0.599   8.260  0.0898 -0.5258 -1.3491
 1324SOL     OW15607   3.368   1.352   4.960 -0.6056 -0.3530  0.4867
 1324SOL    HW115608   3.324   1.384   4.882 -1.0405 -0.4749  0.6822
 1324SOL    HW215609   3.447   1.406   4.958  0.5247 -1.9300  2.7770
 1325SOL     OW15610   1.812   2.060   4.621 -0.3490 -0.2740 -0.2850
 1325SOL    HW115611   1.725   2.100   4.619 -0.6913 -1.0314 -1.3333
 1325SOL    HW215612   1.836   2.095   4.706 -1.2238  1.6597 -0.8460
 1326SOL     OW15613   2.635   0.506   3.932 -0.1572  0.0332  0.0094
 1326SOL    HW115614   2.550   0.475   3.901 -0.4401  1.1669 -0.3492
 1326SOL    HW215615   2.695   0.451   3.882  0.4512  1.2830 -0.6335
 1327SOL     OW15616   4.204   2.459   7.859  0.3665 -0.3762  0.5366
 1327SOL    HW115617   4.180   2.482   7.769 -0.4279  0.6551  1.0102
 1327SOL    HW215618   4.207   2.546   7.901 -2.1385 -0.6777  1.3103
 1328SOL     OW15619   2.406   4.464   2.563 -0.1492 -0.0982 -0.4453
 1328SOL    HW115620   2.359   4.462   2.479 -3.5221  1.8001  1.3695
 1328SOL    HW215621   2.492   4.424   2.550  0.6206  1.5302 -0.4015
 1329SOL     OW15622   3.584   3.822   7.530  0.4424 -0.6223  0.0247
 1329SOL    HW115623   3.633   3.865   7.600 -0.7137  1.1135 -0.2292
 1329SOL    HW215624   3.532   3.901   7.513  1.6327  0.1174 -0.1229
 1330SOL     OW15625   2.712   4.374   5.236  0.1038 -0.4263 -0.6459
 1330SOL    HW115626   2.788   4.389   5.180 -1.7201  0.8685 -2.7665
 1330SOL    HW215627   2.752   4.313   5.298  1.4675  0.0308 -1.0586
 1331SOL     OW15628   4.197   1.602  12.408 -0.1562 -0.4110  0.3637
 1331SOL    HW115629   4.109   1.587  12.443 -0.1537  1.1055  1.0108
 1331SOL    HW215630   4.241   1.652  12.476 -0.1332  2.2394 -1.6075
 1332SOL     OW15631   2.640   2.159  10.327  0.7357 -0.3537 -0.5229
 1332SOL    HW115632   2.647   2.134  10.235 -0.2813 -2.6928  0.0530
 1332SOL    HW215633   2.608   2.071  10.344 -0.8293  0.4336  0.6738
 1333SOL     OW15634   1.105   2.385   4.017 -0.1509 -0.1326 -0.1929
 1333SOL    HW115635   1.087   2.443   4.091 -0.2552  0.2563 -0.5211
 1333SOL    HW215636   1.201   2.375   4.020 -0.1362 -0.5894 -1.9603
 1334SOL     OW15637   2.878   0.104   9.857 -0.1807 -0.0074  0.0141
 1334SOL    HW115638   2.809   0.161   9.824  0.8868  1.5768  0.5477
 1334SOL    HW215639   2.894   0.041   9.786 -0.1274  2.1747 -1.8989
 1335SOL     OW15640   1.930   1.433  12.738  0.1562  0.1074 -0.3945
 1335SOL    HW115641   1.870   1.378  12.788 -0.7516  1.0512 -0.4385
 1335SOL    HW215642   1.877   1.513  12.738 -0.5362 -0.3540 -2.4729
 1336SOL     OW15643   2.370   3.677   3.207 -1.3444 -0.0926  0.1764
 1336SOL    HW115644   2.456   3.677   3.167 -2.0039  1.3622 -1.2189
 1336SOL    HW215645   2.395   3.718   3.290  0.7071 -1.0878  0.0272
 1337SOL     OW15646   0.194   3.300   6.829 -0.0082 -0.2032  0.6767
 1337SOL    HW115647   0.167   3.225   6.882  0.7155 -0.7867  0.2331
 1337SOL    HW215648   0.106   3.315   6.796 -0.3255 -0.9352  1.1866
 1338SOL     OW15649   2.922   2.189   6.138  0.1029 -0.4316  0.6043
 1338SOL    HW115650   2.930   2.231   6.223  1.4081 -1.1552  0.8345
 1338SOL    HW215651   3.015   2.190   6.116  0.3976 -2.3302  1.7887
 1339SOL     OW15652   3.597   1.904   8.967  0.6653 -1.3012 -0.0743
 1339SOL    HW115653   3.606   1.901   9.062 -1.7575  0.3441  0.1942
 1339SOL    HW215654   3.600   1.811   8.946  0.8167 -0.6521 -2.9073
 1340SOL     OW15655   0.192   3.555   5.656  0.0071 -0.0907 -0.1456
 1340SOL    HW115656   0.196   3.603   5.573  2.2528 -0.2626 -0.1402
 1340SOL    HW215657   0.180   3.470   5.613 -0.6453 -0.3339  0.5056
 1341SOL     OW15658   1.185   2.583   7.697 -0.2687  0.0478 -0.2104
 1341SOL    HW115659   1.104   2.544   7.665 -0.9036  1.2913 -0.0888
 1341SOL    HW215660   1.197   2.639   7.621 -1.5289 -0.0765 -0.4976
 1342SOL     OW15661   2.562   4.244  14.202 -0.4834  0.0595 -0.1267
 1342SOL    HW115662   2.470   4.270  14.210  0.0693  1.4317  1.7599
 1342SOL    HW215663   2.580   4.264  14.294 -2.8080 -0.3337  0.4377
 1343SOL     OW15664   4.073   2.934   7.445 -0.0985 -0.4675  0.0676
 1343SOL    HW115665   4.139   2.876   7.408  3.6302  3.4482  0.5633
 1343SOL    HW215666   4.057   3.003   7.381 -3.9102 -1.1081  0.3022
 1344SOL     OW15667   0.983   2.593   6.317  0.4097  0.5949 -0.1081
 1344SOL    HW115668   1.063   2.629   6.356  0.2025  1.7786 -0.7643
 1344SOL    HW215669   0.919   2.665   6.318 -0.2714 -0.0100 -0.7821
 1345SOL     OW15670   0.339   3.352   2.591 -0.3192 -0.4581 -0.2306
 1345SOL    HW115671   0.290   3.300   2.527  1.8396 -0.6691 -1.7090
 1345SOL    HW215672   0.429   3.321   2.590 -0.6429 -1.3949 -0.6118
 1346SOL     OW15673   1.214   1.393   9.541 -0.2359  0.0713 -0.3241
 1346SOL    HW115674   1.246   1.303   9.543  0.8277  0.4592 -0.1216
 1346SOL    HW215675   1.241   1.424   9.628 -1.6219  1.2337 -0.2922
 1347SOL     OW15676   0.632   2.915  12.753  0.6509  0.5061 -0.1520
 1347SOL    HW115677   0.611   2.852  12.822  1.4045  1.5740  1.0702
 1347SOL    HW215678   0.670   2.983  12.810  0.5931  0.6606 -0.2982
 1348SOL     OW15679   0.859   0.471   9.894  0.0163  0.7019  0.2781
 1348SOL    HW115680   0.879   0.555   9.851  0.1043  0.2937 -0.4784
 1348SOL    HW215681   0.778   0.495   9.940  0.7353 -0.1442  1.9586
 1349SOL     OW15682   1.039   1.462   2.125 -0.4906  0.0729 -0.6439
 1349SOL    HW115683   1.095   1.414   2.064  1.7981  1.8307  0.0842
 1349SOL    HW215684   1.036   1.408   2.204  1.6257  1.3993  0.3472
 1350SOL     OW15685   1.890   1.953  17.340 -0.7247  0.0657  0.2288
 1350SOL    HW115686   1.921   2.042  17.329  0.5022 -0.3178  0.5644
 1350SOL    HW215687   1.838   1.970  17.419 -0.8701 -0.2194  0.1964
 1351SOL     OW15688   3.192   0.131   1.415 -0.3942 -0.6202  0.0111
 1351SOL    HW115689   3.098   0.151   1.421 -0.1617  0.5079 -0.1112
 1351SOL    HW215690   3.194   0.061   1.351  0.0600 -1.0996  0.5570
 1352SOL     OW15691   0.024   3.879   0.284 -0.0810  0.7697 -0.1584
 1352SOL    HW115692   0.076   3.871   0.205  0.0275 -0.3100  0.0224
 1352SOL    HW215693   0.090   3.881   0.353  0.2891  1.0272 -0.5195
 1353SOL     OW15694   0.305   3.503  13.354  0.0813  0.4209  0.1886
 1353SOL    HW115695   0.305   3.508  13.258 -0.4866 -0.4727  0.1349
 1353SOL    HW215696   0.211   3.499  13.375 -0.1366 -0.8177 -0.9949
 1354SOL     OW15697   4.406   3.287   3.396  0.0469  0.2265 -0.3573
 1354SOL    HW115698   4.451   3.304   3.479 -1.7069 -0.7005  0.7788
 1354SOL    HW215699   4.426   3.194   3.383  1.7366  0.7883 -1.7876
 1355SOL     OW15700   0.750   2.341   4.787 -0.5607 -0.2923  0.0309
 1355SOL    HW115701   0.744   2.266   4.847  2.6435 -0.6287 -0.0215
 1355SOL    HW215702   0.697   2.402   4.838 -0.8848  0.4153 -1.1638
 1356SOL     OW15703   0.209   2.520  15.104 -0.1522  0.9851  0.5373
 1356SOL    HW115704   0.133   2.496  15.051  0.4931 -1.4694  0.7067
 1356SOL    HW215705   0.167   2.590  15.154  1.7435  0.3014  3.0971
 1357SOL     OW15706   4.129   0.155  13.778 -0.5690  0.8075  0.5963
 1357SOL    HW115707   4.037   0.182  13.780 -0.5261  1.0885 -0.7944
 1357SOL    HW215708   4.154   0.104  13.855 -1.1216 -0.1711  0.1283
 1358SOL     OW15709   4.069   1.710   6.934 -0.6536  0.3559 -0.1372
 1358SOL    HW115710   4.110   1.700   7.020 -3.2411 -0.6444  0.9989
 1358SOL    HW215711   4.136   1.764   6.892  0.5118  0.5699  2.0094
 1359SOL     OW15712   1.224   1.957   3.840  0.6562  0.1969  0.2659
 1359SOL    HW115713   1.220   1.918   3.753 -2.3719  0.0499  0.4386
 1359SOL    HW215714   1.309   1.929   3.873 -0.4590 -1.9496  1.4160
 1360SOL     OW15715   0.592   2.136  17.078 -0.0493  0.5933  0.4967
 1360SOL    HW115716   0.568   2.189  17.002  0.8803  0.0082 -0.2030
 1360SOL    HW215717   0.679   2.111  17.047 -0.2100  0.1649  0.3966
 1361SOL     OW15718   3.670   4.224   2.561 -0.0969 -0.1603  0.2101
 1361SOL    HW115719   3.752   4.261   2.528  0.9780 -1.3430  1.5362
 1361SOL    HW215720   3.690   4.193   2.649  0.3265  1.3124  0.6229
 1362SOL     OW15721   3.890   2.256   5.043 -0.1930 -0.0885 -0.0244
 1362SOL    HW115722   3.959   2.302   4.996 -0.7613 -0.6479 -1.4496
 1362SOL    HW215723   3.819   2.320   5.035 -1.5228 -1.3250  1.9676
 1363SOL     OW15724   4.592   1.776   0.588  0.2448  0.1914  0.3534
 1363SOL    HW115725   4.511   1.792   0.539  0.1413 -0.6366  0.2656
 1363SOL    HW215726   4.605   1.869   0.610  0.3521 -0.1151  1.5435
 1364SOL     OW15727   4.552   2.939   5.336  0.1927 -0.0314 -0.5076
 1364SOL    HW115728   4.572   2.845   5.335  0.8654  0.1039  0.8917
 1364SOL    HW215729   4.569   2.971   5.424  0.4671  2.7453 -1.5934
 1365SOL     OW15730   0.822   0.965  13.821  0.7201 -0.1955  0.3800
 1365SOL    HW115731   0.834   0.986  13.913 -0.2152  1.0242  0.2116
 1365SOL    HW215732   0.728   0.973  13.806  0.8952  2.5133  0.7464
 1366SOL     OW15733   3.463   1.468   3.890 -0.2583  0.1479  0.1046
 1366SOL    HW115734   3.495   1.497   3.975  1.5573  1.8912 -1.1721
 1366SOL    HW215735   3.513   1.527   3.835  3.0178 -0.2970  2.6365
 1367SOL     OW15736   2.858   2.742   5.302 -0.6693 -0.1580  0.7762
 1367SOL    HW115737   2.767   2.713   5.299 -0.9292  0.5945  1.4498
 1367SOL    HW215738   2.863   2.759   5.396 -0.4929  0.4535  0.6551
 1368SOL     OW15739   4.702   2.700   2.468 -0.1441  0.4609 -0.4019
 1368SOL    HW115740   0.012   2.739   2.395  1.8513  0.0265  0.6875
 1368SOL    HW215741   0.009   2.617   2.483 -1.3475 -0.1896 -0.3843
 1369SOL     OW15742   3.578   2.524  14.743  0.0491  0.0379 -0.2094
 1369SOL    HW115743   3.667   2.491  14.751  0.1619  0.3386 -0.2291
 1369SOL    HW215744   3.593   2.617  14.757  0.5668 -0.6078  3.4774
 1370SOL     OW15745   2.709   4.346   1.132  0.1811 -0.4419  0.4967
 1370SOL    HW115746   2.762   4.377   1.059 -1.3479  0.6357 -0.1572
 1370SOL    HW215747   2.633   4.404   1.128  1.0114  0.6959  1.1101
 1371SOL     OW15748   1.411   2.053  13.704 -0.1708 -0.2026 -0.3682
 1371SOL    HW115749   1.479   2.099  13.754 -0.0246 -1.5969  0.7100
 1371SOL    HW215750   1.450   2.069  13.618 -2.0342 -2.0480 -1.5390
 1372SOL     OW15751   3.339   3.755  16.232 -0.0989  0.3827  0.6615
 1372SOL    HW115752   3.349   3.735  16.325  1.3009  0.4020  0.5176
 1372SOL    HW215753   3.430   3.749  16.204 -0.0460  1.4049  0.6260
 1373SOL     OW15754   1.191   4.344   5.429 -0.3447 -0.0517 -0.4281
 1373SOL    HW115755   1.213   4.299   5.510  0.9604 -0.7549 -1.1698
 1373SOL    HW215756   1.255   4.415   5.420 -0.2168  0.1922  2.5003
 1374SOL     OW15757   3.996   1.824   9.661 -0.0974 -0.1837 -0.1330
 1374SOL    HW115758   4.047   1.796   9.585 -0.0515  3.3743 -1.4180
 1374SOL    HW215759   4.050   1.799   9.737 -0.5500 -0.4190  0.1125
 1375SOL     OW15760   2.938   4.571  16.112  0.5418  0.3757  0.1543
 1375SOL    HW115761   3.024   4.591  16.075  0.8346  0.2458  0.7559
 1375SOL    HW215762   2.891   4.540  16.035  0.4445  2.7913 -0.7390
 1376SOL     OW15763   2.842   3.511   0.016 -0.2241  0.4461 -0.5425
 1376SOL    HW115764   2.761   3.518  17.718  0.6712  4.1252 -1.4906
 1376SOL    HW215765   2.894   3.539  17.693  1.2029  1.9644  1.0014
 1377SOL     OW15766   3.806   0.092  17.616 -0.2632  0.4867  0.2023
 1377SOL    HW115767   3.724   0.043  17.621 -0.0992  0.5238  3.1606
 1377SOL    HW215768   3.818   0.113  17.523  0.9194 -2.4427 -0.3051
 1378SOL     OW15769   3.349   4.494  17.291  0.2828 -0.2806  0.3506
 1378SOL    HW115770   3.289   4.522  17.222 -0.7992 -2.5681  0.3573
 1378SOL    HW215771   3.305   4.422  17.336 -2.7248  1.2074 -0.2216
 1379SOL     OW15772   1.393   0.980   2.397 -0.3416 -0.1238  0.1777
 1379SOL    HW115773   1.334   1.055   2.390 -0.7081 -0.5809 -1.4997
 1379SOL    HW215774   1.414   0.965   2.305  0.1606  0.2231  0.2391
 1380SOL     OW15775   0.455   2.555   4.481 -0.3428 -0.4200 -0.2782
 1380SOL    HW115776   0.407   2.521   4.406 -1.6503  2.1382 -0.6245
 1380SOL    HW215777   0.396   2.619   4.522 -2.2127 -1.2935 -1.6277
 1381SOL     OW15778   3.749   2.869   8.649  0.8240 -0.6627 -0.1115
 1381SOL    HW115779   3.842   2.886   8.634  1.1908 -1.7120  0.9511
 1381SOL    HW215780   3.716   2.939   8.705  0.4734 -0.1004 -1.0311
 1382SOL     OW15781   3.174   4.059   6.156  0.0614  0.4659 -0.2434
 1382SOL    HW115782   3.139   4.043   6.243  1.2940  0.4825  0.2475
 1382SOL    HW215783   3.122   4.001   6.100  1.0378  0.7723 -1.4796
 1383SOL     OW15784   0.692   3.832   2.866  0.2908 -0.3078  0.0289
 1383SOL    HW115785   0.609   3.828   2.913 -0.4068 -1.0341 -1.2610
 1383SOL    HW215786   0.747   3.890   2.919 -0.5001  2.0571 -1.7244
 1384SOL     OW15787   3.105   2.251  16.630 -0.1097  0.6650 -0.9191
 1384SOL    HW115788   3.050   2.300  16.691  0.9140 -1.0618  1.3867
 1384SOL    HW215789   3.154   2.326  16.597 -0.7303  0.9759 -1.1506
 1385SOL     OW15790   0.554   0.869   7.677  0.3057  0.0888  0.3240
 1385SOL    HW115791   0.570   0.869   7.583 -0.0153 -0.3492  0.2699
 1385SOL    HW215792   0.459   0.867   7.676  0.2946  0.8430 -0.7563
 1386SOL     OW15793   0.081   4.721   4.779 -0.0619  0.1076 -0.2686
 1386SOL    HW115794   0.128   0.047   4.726 -0.1296  0.4981  0.1611
 1386SOL    HW215795   0.054   4.655   4.714  0.1092 -0.1666 -0.0621
 1387SOL     OW15796   3.866   0.483   4.883  0.3104 -0.1736  0.0625
 1387SOL    HW115797   3.897   0.572   4.871 -0.8709  0.3604  0.9200
 1387SOL    HW215798   3.873   0.453   4.792 -0.2377 -2.6095  0.8279
 1388SOL     OW15799   4.573   1.966  17.093  0.5551 -0.1042  0.1615
 1388SOL    HW115800   4.593   1.879  17.060 -0.2615  0.2424 -1.2583
 1388SOL    HW215801   4.482   1.983  17.068  0.1064 -1.8867  0.6289
 1389SOL     OW15802   3.940   2.484   0.311 -0.1458 -0.0836  0.0482
 1389SOL    HW115803   3.886   2.498   0.234 -0.4867  0.9772  0.4869
 1389SOL    HW215804   4.017   2.536   0.289  0.4054 -0.7722  0.3217
 1390SOL     OW15805   4.361   4.700  13.804  0.5691 -0.1729  0.1790
 1390SOL    HW115806   4.332   4.645  13.877 -0.8365 -1.6734 -1.4919
 1390SOL    HW215807   4.435   4.649  13.772  1.0176 -0.0863  1.0865
 1391SOL     OW15808   0.039   1.235   8.646  0.4742  0.3860 -0.1880
 1391SOL    HW115809   0.036   1.209   8.554  0.0930  2.3591 -0.7419
 1391SOL    HW215810   0.065   1.149   8.677  1.4551 -0.1337 -2.4656
 1392SOL     OW15811   1.208   0.447  16.049 -0.4702 -1.0086 -0.2649
 1392SOL    HW115812   1.117   0.435  16.075 -0.5362 -3.3523 -1.6126
 1392SOL    HW215813   1.204   0.428  15.955 -3.5304  1.6036 -0.6861
 1393SOL     OW15814   1.752   2.425   2.365  0.0248  0.3627 -0.0613
 1393SOL    HW115815   1.658   2.439   2.361 -0.0896  0.1122  1.9059
 1393SOL    HW215816   1.768   2.436   2.459  1.5695 -0.5596 -0.2056
 1394SOL     OW15817   0.687   1.691   4.596 -0.0551  0.2528  0.0869
 1394SOL    HW115818   0.775   1.667   4.569 -0.3403  0.3349 -0.8997
 1394SOL    HW215819   0.643   1.667   4.514  1.4146 -3.3207  0.3377
 1395SOL     OW15820   0.051   3.141   5.538  0.9269  0.2090 -0.2276
 1395SOL    HW115821   0.128   3.186   5.572  0.5083  1.3682 -0.7969
 1395SOL    HW215822   0.001   3.223   5.529  2.4649  1.3204  1.3618
 1396SOL     OW15823   3.007   3.296  13.915  0.3259  0.3550  0.1062
 1396SOL    HW115824   3.082   3.263  13.964  1.4788  1.9856 -0.5340
 1396SOL    HW215825   2.946   3.313  13.986 -1.1603  2.0087 -1.5485
 1397SOL     OW15826   3.434   4.056   1.379  0.5853 -0.0210  0.2876
 1397SOL    HW115827   3.399   3.998   1.312  0.5816  0.7770 -0.3995
 1397SOL    HW215828   3.407   4.002   1.454 -1.4299  0.7522  0.1359
 1398SOL     OW15829   1.112   2.824  14.457  0.3740  0.2595  0.6790
 1398SOL    HW115830   1.069   2.902  14.422  0.2208  0.0423  0.3820
 1398SOL    HW215831   1.047   2.786  14.517 -0.7011  1.7171  0.4349
 1399SOL     OW15832   3.743   2.630   2.104  0.6081  0.6116  0.4654
 1399SOL    HW115833   3.708   2.697   2.161  0.6997  1.6113 -0.6467
 1399SOL    HW215834   3.688   2.557   2.134 -0.6333  1.3094 -0.1137
 1400SOL     OW15835   1.964   3.128   6.220 -0.0049 -0.3726 -0.3087
 1400SOL    HW115836   1.927   3.135   6.132  1.4598 -0.2895 -0.9196
 1400SOL    HW215837   2.037   3.188   6.206 -0.3454 -0.1345 -1.0183
 1401SOL     OW15838   4.096   2.026   7.275  0.3423 -0.0041 -0.6229
 1401SOL    HW115839   4.003   2.006   7.292 -0.1502  0.3661 -2.9036
 1401SOL    HW215840   4.140   1.961   7.329 -0.2011  1.2422  1.3316
 1402SOL     OW15841   0.998   0.169   3.832 -0.7155 -0.7009  0.4557
 1402SOL    HW115842   1.004   0.073   3.833  1.4069 -0.5719  1.0871
 1402SOL    HW215843   1.047   0.175   3.750 -0.3452  1.2500  0.8270
 1403SOL     OW15844   4.208   2.842   9.498 -0.2427 -0.0529 -0.3421
 1403SOL    HW115845   4.122   2.833   9.539 -0.3896 -0.5273 -0.7598
 1403SOL    HW215846   4.186   2.863   9.408 -0.7089  0.5470 -0.0890
 1404SOL     OW15847   2.795   4.375   2.221  0.5065  0.2733  0.0441
 1404SOL    HW115848   2.850   4.454   2.217  0.3598  0.3837  0.2028
 1404SOL    HW215849   2.762   4.383   2.311 -1.4576  4.2509 -1.0484
 1405SOL     OW15850   4.020   1.010  12.036  0.3627  0.4414 -0.0399
 1405SOL    HW115851   3.943   0.953  12.033  0.6923 -0.1507  2.4252
 1405SOL    HW215852   3.987   1.090  11.994 -1.3705 -0.0308  0.4059
 1406SOL     OW15853   0.863   0.677   8.065  0.1567 -0.6611  0.0171
 1406SOL    HW115854   0.827   0.694   7.978  1.4206 -0.3271 -0.4380
 1406SOL    HW215855   0.906   0.760   8.086 -1.7514  0.3563 -0.1239
 1407SOL     OW15856   1.685   4.111  14.009  0.0412  0.2065 -0.1699
 1407SOL    HW115857   1.701   4.145  13.921 -0.8445 -2.1555 -1.2265
 1407SOL    HW215858   1.740   4.168  14.063 -0.3600 -0.5736  1.0600
 1408SOL     OW15859   1.741   2.846   3.875  0.5812  0.2762 -0.2052
 1408SOL    HW115860   1.836   2.845   3.866  0.4916 -1.0709 -1.0193
 1408SOL    HW215861   1.736   2.940   3.895  0.8520  0.5385 -1.3464
 1409SOL     OW15862   0.838   4.249  15.937 -0.0590  0.1467 -0.4591
 1409SOL    HW115863   0.911   4.304  15.963 -0.2420  0.2348 -0.1185
 1409SOL    HW215864   0.766   4.273  15.996 -0.4849 -0.9942 -0.4975
 1410SOL     OW15865   1.206   0.771   4.775  0.2810  0.1799  0.6561
 1410SOL    HW115866   1.293   0.733   4.785  0.0689  0.0654  2.1003
 1410SOL    HW215867   1.150   0.694   4.775 -1.5451  1.4821 -0.0299
 1411SOL     OW15868   2.926   4.004   5.586  0.1925  0.1026  0.3445
 1411SOL    HW115869   2.839   3.968   5.599  0.9693 -1.5091  1.1836
 1411SOL    HW215870   2.943   4.019   5.679  1.8873  1.1457 -0.1205
 1412SOL     OW15871   1.846   1.257   8.009 -0.0756  0.0789 -0.1902
 1412SOL    HW115872   1.912   1.213   7.955  0.9353 -0.7338  1.7229
 1412SOL    HW215873   1.893   1.330   8.049 -0.2135 -0.2829  0.6240
 1413SOL     OW15874   3.769   1.565   4.107  0.4094 -0.4060  0.1885
 1413SOL    HW115875   3.799   1.474   4.097  1.2905 -0.3997  2.7833
 1413SOL    HW215876   3.829   1.596   4.174 -0.4158 -0.0932  0.7847
 1414SOL     OW15877   1.790   1.296   3.843 -0.2155  0.0595  0.1938
 1414SOL    HW115878   1.840   1.233   3.791  0.1864 -0.6533  1.4690
 1414SOL    HW215879   1.754   1.362   3.782  1.1989  1.9566  1.4045
 1415SOL     OW15880   4.404   1.284   3.779 -0.6417 -0.0674 -0.3702
 1415SOL    HW115881   4.448   1.334   3.848 -1.9723 -0.0613  0.4590
 1415SOL    HW215882   4.468   1.214   3.765  0.1639  0.5599  0.1513
 1416SOL     OW15883   2.769   2.066   8.111  0.0793 -0.1737  0.0609
 1416SOL    HW115884   2.737   2.157   8.113 -2.2681 -1.0079 -0.0225
 1416SOL    HW215885   2.802   2.054   8.200  0.0952 -0.7438 -0.0222
 1417SOL     OW15886   0.466   0.579   2.992 -0.0496  0.1527  0.1171
 1417SOL    HW115887   0.525   0.647   2.959  0.1086 -1.5600 -3.1222
 1417SOL    HW215888   0.383   0.603   2.951 -0.1817 -0.8669 -0.1986
 1418SOL     OW15889   1.095   0.035   9.112  0.1660  0.8361 -0.1452
 1418SOL    HW115890   1.112   0.063   9.202  0.2942  0.7366 -0.1397
 1418SOL    HW215891   1.086   4.680   9.130  0.5918  0.6568 -0.8806
 1419SOL     OW15892   0.501   1.472   8.455 -0.1510 -0.1867  0.0050
 1419SOL    HW115893   0.413   1.484   8.490 -0.3500  0.8833 -0.8287
 1419SOL    HW215894   0.506   1.382   8.487  0.8472 -0.1333 -0.0047
 1420SOL     OW15895   0.852   2.430   1.267  0.4613 -0.1282  0.4382
 1420SOL    HW115896   0.886   2.505   1.218  2.8872 -1.0171  0.7055
 1420SOL    HW215897   0.765   2.418   1.230  0.9515  1.7608 -1.3422
 1421SOL     OW15898   2.283   1.879   7.229  0.9651  0.4912 -0.1033
 1421SOL    HW115899   2.243   1.955   7.272  1.2350  1.0881 -0.8932
 1421SOL    HW215900   2.343   1.923   7.169  1.8240  0.8724  1.0309
 1422SOL     OW15901   4.481   1.442   9.238 -0.3486 -0.3035  0.1898
 1422SOL    HW115902   4.575   1.439   9.224 -0.5039 -0.8810 -0.7677
 1422SOL    HW215903   4.475   1.393   9.320  1.1434 -1.5232 -0.4434
 1423SOL     OW15904   2.462   2.971  10.143 -0.5674 -0.6611 -0.5512
 1423SOL    HW115905   2.509   3.039  10.096 -1.8108  0.9515  0.5329
 1423SOL    HW215906   2.512   2.959  10.224 -0.8469 -0.5454 -0.3614
 1424SOL     OW15907   4.482   3.146  16.838 -0.2505  0.1182  0.2050
 1424SOL    HW115908   4.429   3.139  16.759  0.1755  0.1162 -0.0816
 1424SOL    HW215909   4.574   3.143  16.810 -0.1524  2.4983  0.2891
 1425SOL     OW15910   0.819   3.211   7.480  0.6042  0.5795  0.6280
 1425SOL    HW115911   0.781   3.297   7.460  0.1443 -0.1822 -1.7364
 1425SOL    HW215912   0.815   3.200   7.575  0.7364 -0.2573  0.5353
 1426SOL     OW15913   2.926   3.696   6.363 -0.6347 -0.0407  0.2684
 1426SOL    HW115914   2.864   3.648   6.308 -0.2689  1.1147 -1.1464
 1426SOL    HW215915   2.941   3.633   6.434  0.3970 -1.6478 -1.3704
 1427SOL     OW15916   4.353   1.850   3.623 -0.3049  0.5284 -0.5405
 1427SOL    HW115917   4.376   1.770   3.670  1.9621 -0.6352 -3.6687
 1427SOL    HW215918   4.258   1.853   3.620 -0.3320  1.1332  0.8844
 1428SOL     OW15919   4.418   0.373   4.311  0.3476  0.3188  0.1097
 1428SOL    HW115920   4.377   0.442   4.258 -0.1282 -1.5508 -1.9737
 1428SOL    HW215921   4.343   0.316   4.328  0.4293  0.8907  2.3846
 1429SOL     OW15922   2.405   1.841   9.324  0.4083 -0.2802  0.0615
 1429SOL    HW115923   2.447   1.851   9.410 -1.1575  0.0990  0.7796
 1429SOL    HW215924   2.429   1.749   9.318  0.0414 -0.1738 -3.0055
 1430SOL     OW15925   2.918   2.276  13.574 -0.0254  0.1500 -0.0135
 1430SOL    HW115926   3.013   2.263  13.576  0.0736  0.7851 -0.8971
 1430SOL    HW215927   2.884   2.188  13.593 -3.6160  1.1075 -2.0562
 1431SOL     OW15928   2.302   0.910  11.037  0.8053  0.0612 -0.8157
 1431SOL    HW115929   2.297   0.814  11.033  0.5971 -0.0346  1.7052
 1431SOL    HW215930   2.340   0.925  11.124 -1.1505 -0.4962  0.1299
 1432SOL     OW15931   1.862   1.715  17.226 -0.1054 -0.1090 -0.0954
 1432SOL    HW115932   1.861   1.675  17.313 -1.9235 -0.7953 -0.4227
 1432SOL    HW215933   1.858   1.806  17.256 -0.8767 -0.8269  1.9625
 1433SOL     OW15934   0.808   2.225   7.557  0.4332 -0.6018  0.3091
 1433SOL    HW115935   0.746   2.164   7.596  1.7168 -1.8713  0.3640
 1433SOL    HW215936   0.768   2.243   7.472 -1.4871  0.9887  1.5646
 1434SOL     OW15937   0.547   3.622  13.070 -0.0461  0.8094  0.4047
 1434SOL    HW115938   0.492   3.627  12.992  0.1703  1.8266  0.3287
 1434SOL    HW215939   0.502   3.547  13.110 -1.5494  1.4062 -0.1832
 1435SOL     OW15940   3.355   0.839   6.171  0.1575 -0.1634 -0.3863
 1435SOL    HW115941   3.307   0.812   6.093 -0.3818  0.2972 -0.2157
 1435SOL    HW215942   3.384   0.930   6.161  1.0110 -0.3961 -0.0197
 1436SOL     OW15943   0.804   1.060   5.359 -0.3458  0.4766 -0.0378
 1436SOL    HW115944   0.723   1.013   5.345  0.3856 -0.6974 -0.2673
 1436SOL    HW215945   0.852   1.011   5.426 -0.4347  0.9193  0.3523
 1437SOL     OW15946   4.164   2.527   3.114 -0.1005  0.1595 -0.1890
 1437SOL    HW115947   4.192   2.439   3.138  1.1195  0.7282  0.4374
 1437SOL    HW215948   4.071   2.522   3.092 -0.3877 -0.6665  1.2647
 1438SOL     OW15949   1.243   2.602   1.215 -0.4969  0.4433 -0.0680
 1438SOL    HW115950   1.217   2.553   1.293  1.0665 -0.6561 -0.2367
 1438SOL    HW215951   1.155   2.628   1.187  1.0044  1.8938 -3.4655
 1439SOL     OW15952   4.374   1.934   2.052 -0.2732  0.3448  0.3585
 1439SOL    HW115953   4.334   2.008   2.008  0.8715  0.4121 -0.5461
 1439SOL    HW215954   4.455   1.971   2.086  0.0721  2.9331 -3.3343
 1440SOL     OW15955   2.882   0.990  14.154 -0.4028  0.5439  0.4658
 1440SOL    HW115956   2.817   1.058  14.134 -2.3898 -0.7896  2.3954
 1440SOL    HW215957   2.914   0.965  14.067 -2.3039 -0.4740  0.0507
 1441SOL     OW15958   4.002   3.239  15.854  0.0805  0.1453 -0.3933
 1441SOL    HW115959   4.070   3.190  15.807  1.0220  0.3799  0.7341
 1441SOL    HW215960   4.048   3.316  15.887 -2.0645  1.2144  0.0774
 1442SOL     OW15961   0.248   0.080   0.630 -0.6062  0.0038 -0.6284
 1442SOL    HW115962   0.234   0.166   0.670 -2.5926 -0.3890 -0.4753
 1442SOL    HW215963   0.166   0.043   0.664 -0.1891 -2.2049 -2.0021
 1443SOL     OW15964   3.628   3.555   4.108 -0.4999  0.2550 -1.1211
 1443SOL    HW115965   3.697   3.489   4.108 -1.0868 -0.3332 -3.9195
 1443SOL    HW215966   3.652   3.623   4.170  0.1714  0.4799 -1.6299
 1444SOL     OW15967   2.036   3.642   8.596 -0.3430 -0.2419  0.3733
 1444SOL    HW115968   2.026   3.737   8.586  0.6827 -0.2728 -0.9434
 1444SOL    HW215969   2.048   3.605   8.509 -0.9846  1.8261 -0.5993
 1445SOL     OW15970   0.591   1.670   2.459  0.1556  0.8655  0.6834
 1445SOL    HW115971   0.645   1.712   2.525  1.1371 -1.9689  1.6679
 1445SOL    HW215972   0.539   1.745   2.429 -1.0201  0.3829  1.4934
 1446SOL     OW15973   4.008   3.168   4.880 -0.0175 -0.6068 -0.2853
 1446SOL    HW115974   3.917   3.171   4.852 -0.5871 -2.0563  1.3686
 1446SOL    HW215975   4.023   3.261   4.862 -0.0557 -0.9601 -2.1114
 1447SOL     OW15976   3.722   0.666   0.292 -0.0039  0.4000  0.3697
 1447SOL    HW115977   3.662   0.593   0.310  0.2688 -0.5663 -2.5276
 1447SOL    HW215978   3.803   0.620   0.267  0.4419  0.7541  1.1414
 1448SOL     OW15979   2.502   2.634  17.426  0.1233 -0.1865  0.1772
 1448SOL    HW115980   2.514   2.630  17.331 -0.1307 -3.2255  0.2864
 1448SOL    HW215981   2.588   2.606  17.459  0.6965  1.8380  0.4406
 1449SOL     OW15982   2.440   3.501  13.270 -0.0383  0.0113 -0.0467
 1449SOL    HW115983   2.520   3.552  13.260 -1.4722  2.1669 -0.3863
 1449SOL    HW215984   2.479   3.414  13.261 -0.0560  0.0505 -0.5043
 1450SOL     OW15985   4.184   1.431   0.307 -0.0040  0.2591 -0.2665
 1450SOL    HW115986   4.133   1.510   0.321  0.4166  0.7919 -1.6568
 1450SOL    HW215987   4.129   1.393   0.238  0.7779  0.5055 -1.0270
 1451SOL     OW15988   1.235   4.209   6.106 -0.1910  0.2165  0.7062
 1451SOL    HW115989   1.156   4.258   6.086 -0.5201  0.4524  2.5776
 1451SOL    HW215990   1.198   4.133   6.151 -0.9277 -1.6055 -2.9058
 1452SOL     OW15991   0.253   0.149   5.009 -0.3249  0.1056  0.9524
 1452SOL    HW115992   0.270   0.164   4.916 -0.2525  1.5308  1.1998
 1452SOL    HW215993   0.341   0.128   5.041  1.1743  1.9782 -1.9372
 1453SOL     OW15994   2.521   2.430   8.805 -0.1611 -0.4154  0.1156
 1453SOL    HW115995   2.481   2.476   8.878  1.4922  1.8794 -0.4146
 1453SOL    HW215996   2.545   2.348   8.848  0.0346 -0.7768 -0.6697
 1454SOL     OW15997   1.971   2.770  11.619  0.2141  0.1164 -0.6104
 1454SOL    HW115998   2.053   2.789  11.664  0.1764 -0.5965 -0.2319
 1454SOL    HW215999   1.912   2.771  11.694 -0.7897 -1.9050 -1.3638
 1455SOL     OW16000   4.474   1.446   6.994  0.0771 -0.5685  0.2512
 1455SOL    HW116001   4.490   1.513   7.060 -0.7612 -0.5990  0.4924
 1455SOL    HW216002   4.380   1.430   7.006 -0.8967  4.0286 -1.3961
 1456SOL     OW16003   3.036   4.328   6.237  0.3434  0.0115  0.1670
 1456SOL    HW116004   3.105   4.375   6.284 -0.5715 -0.0992  1.6422
 1456SOL    HW216005   3.009   4.269   6.307 -1.5498  2.3779  1.4197
 1457SOL     OW16006   3.732   4.050  14.642  0.1894 -1.0266  0.3072
 1457SOL    HW116007   3.744   4.007  14.727 -1.2293  0.8479  1.4550
 1457SOL    HW216008   3.804   4.113  14.646 -0.0922 -0.5124 -3.4512
 1458SOL     OW16009   0.577   1.701  16.264  0.2155  0.2925 -0.0974
 1458SOL    HW116010   0.520   1.762  16.215 -0.2046  1.9524  2.4715
 1458SOL    HW216011   0.586   1.750  16.346  2.1566 -1.2561  0.6114
 1459SOL     OW16012   1.059   0.508   5.716 -0.2220  0.6118  0.4527
 1459SOL    HW116013   1.001   0.464   5.778 -2.4993  0.2818 -1.9086
 1459SOL    HW216014   1.000   0.546   5.651 -0.1247  1.6534  0.9761
 1460SOL     OW16015   4.407   4.350   1.833  0.0919  0.1074  0.1641
 1460SOL    HW116016   4.480   4.296   1.863 -1.0164 -0.0820  2.5234
 1460SOL    HW216017   4.373   4.290   1.767 -0.0960 -0.0409  0.3961
 1461SOL     OW16018   1.523   2.917   4.420 -0.5028  0.4730  0.4952
 1461SOL    HW116019   1.436   2.954   4.409 -1.2420 -0.8191  2.0512
 1461SOL    HW216020   1.562   3.000   4.393 -0.6700 -0.0265 -1.2956
 1462SOL     OW16021   3.791   1.421   7.518 -0.2343 -0.1086  0.0769
 1462SOL    HW116022   3.867   1.456   7.564  0.8965 -1.9414 -0.4154
 1462SOL    HW216023   3.811   1.444   7.427  1.2593 -0.2375  0.3754
 1463SOL     OW16024   1.253   1.087   7.386  0.2411  0.3708 -0.0433
 1463SOL    HW116025   1.274   1.114   7.297 -0.8650 -1.1280 -0.7570
 1463SOL    HW216026   1.181   1.149   7.396 -0.0143  0.0551  0.0753
 1464SOL     OW16027   0.586   4.297   1.619  0.3941  0.4682 -0.0547
 1464SOL    HW116028   0.663   4.240   1.615 -0.9300 -1.4899  2.6557
 1464SOL    HW216029   0.563   4.305   1.526  2.1939  1.0566 -0.4505
 1465SOL     OW16030   0.575   2.699   0.855  0.9549 -0.6169 -0.1779
 1465SOL    HW116031   0.518   2.774   0.836  1.4658 -0.4117 -0.8839
 1465SOL    HW216032   0.664   2.735   0.849  1.1854 -1.2487 -0.4987
 1466SOL     OW16033   1.550   4.678   4.096  0.2128 -0.2234  0.0227
 1466SOL    HW116034   1.508   4.723   4.023 -2.3410 -0.3158  1.4246
 1466SOL    HW216035   1.571   0.008   4.160  1.5224  0.8038 -1.5416
 1467SOL     OW16036   2.774   4.292   2.942  0.6793 -0.1509 -0.6639
 1467SOL    HW116037   2.703   4.287   3.005  1.4049 -0.6259  0.1063
 1467SOL    HW216038   2.786   4.198   2.931 -1.3459 -0.5846  0.7486
 1468SOL     OW16039   2.799   1.987  16.800  0.0829  0.3159  0.0968
 1468SOL    HW116040   2.717   2.034  16.785 -0.7764 -1.3007 -0.3041
 1468SOL    HW216041   2.832   2.036  16.875  0.1982  0.7177 -0.2196
 1469SOL     OW16042   4.725   4.167   4.257  0.0468  0.7442  0.4449
 1469SOL    HW116043   4.718   4.076   4.231  1.8197  1.1560 -1.5448
 1469SOL    HW216044   4.647   4.175   4.312  0.0770 -0.9488  0.7179
 1470SOL     OW16045   1.892   2.069   8.548 -0.2662  0.4069 -0.8425
 1470SOL    HW116046   1.809   2.079   8.502 -0.0089 -1.8004 -1.7715
 1470SOL    HW216047   1.944   2.148   8.533  0.5387  0.1437  0.5112
 1471SOL     OW16048   2.591   2.433   7.655 -0.2313 -0.1672  0.0539
 1471SOL    HW116049   2.602   2.492   7.729  1.7734  1.0508 -1.1992
 1471SOL    HW216050   2.538   2.368   7.700  1.1460 -0.2670  1.5256
 1472SOL     OW16051   0.089   3.474  12.309  0.1742 -0.6588  0.4652
 1472SOL    HW116052   0.150   3.543  12.281 -2.6767  3.2716  3.8498
 1472SOL    HW216053   0.141   3.396  12.293  2.0645  0.4675  1.0722
 1473SOL     OW16054   1.314   1.417   8.029  0.0418 -0.4593  0.2182
 1473SOL    HW116055   1.335   1.348   8.091  1.0332 -0.1048  0.2910
 1473SOL    HW216056   1.386   1.395   7.970  0.8877 -1.2090  1.5296
 1474SOL     OW16057   3.863   3.375  12.755 -0.4005 -0.6227  0.4111
 1474SOL    HW116058   3.920   3.342  12.824 -1.2281 -1.1829  0.8214
 1474SOL    HW216059   3.785   3.325  12.780  0.3826 -3.1601 -2.1566
 1475SOL     OW16060   0.795   0.899   0.130 -0.0916  0.3530  0.0361
 1475SOL    HW116061   0.799   0.979   0.079  2.1511  1.5441  2.0499
 1475SOL    HW216062   0.869   0.907   0.191 -0.2057 -1.9654  0.4740
 1476SOL     OW16063   3.832   4.682   6.378  0.1080 -0.4930  0.2259
 1476SOL    HW116064   3.781   4.603   6.364 -1.8293  0.7031  0.5755
 1476SOL    HW216065   3.863   4.686   6.288  2.5562  1.5256  1.1343
 1477SOL     OW16066   4.591   4.234   6.384 -0.2785 -0.4948  0.2567
 1477SOL    HW116067   4.589   4.322   6.422 -0.8773  0.0882 -1.1329
 1477SOL    HW216068   4.639   4.191   6.455 -0.6997 -0.8285  0.3316
 1478SOL     OW16069   2.536   1.638  17.353  0.3566  0.2671  0.0752
 1478SOL    HW116070   2.596   1.570  17.324  1.5488  0.2607  2.5943
 1478SOL    HW216071   2.503   1.600  17.434  0.3587 -1.7516 -0.8702
 1479SOL     OW16072   2.466   0.250   6.145  0.5312 -0.4664 -0.5278
 1479SOL    HW116073   2.407   0.228   6.217  1.2499 -0.3953  0.0823
 1479SOL    HW216074   2.411   0.311   6.096 -0.5216 -0.5851  0.5193
 1480SOL     OW16075   0.586   0.880   4.845  0.1173  0.1701  0.4330
 1480SOL    HW116076   0.587   0.944   4.773 -0.8660 -0.8639 -0.5183
 1480SOL    HW216077   0.669   0.837   4.825 -1.3845 -1.6347 -1.9810
 1481SOL     OW16078   2.359   4.678   6.173 -0.0083 -0.0292 -0.7004
 1481SOL    HW116079   2.326   0.022   6.138  0.9927  1.2886  1.3845
 1481SOL    HW216080   2.447   4.675   6.137  0.1672 -0.1690 -0.2629
 1482SOL     OW16081   1.792   3.021   2.829 -0.0421 -0.2726 -0.5388
 1482SOL    HW116082   1.887   3.017   2.841 -0.0570 -2.0738 -0.9128
 1482SOL    HW216083   1.783   3.065   2.744 -1.2097 -1.6218 -1.1154
 1483SOL     OW16084   1.240   4.378   2.787 -0.2091 -0.4276  0.1193
 1483SOL    HW116085   1.317   4.378   2.843 -0.1133 -1.1416 -0.0119
 1483SOL    HW216086   1.181   4.338   2.851 -0.2374 -1.3897 -0.4911
 1484SOL     OW16087   0.119   1.655   6.700 -0.0868  0.3692  0.1550
 1484SOL    HW116088   0.151   1.729   6.752  0.1155  0.6633 -0.3787
 1484SOL    HW216089   0.033   1.688   6.674  0.3453 -0.2804 -2.1589
 1485SOL     OW16090   3.518   0.235   9.438 -0.7341 -0.0272 -0.3756
 1485SOL    HW116091   3.592   0.178   9.418  0.6762  0.9725  2.0312
 1485SOL    HW216092   3.452   0.216   9.372  0.3772 -3.6944 -0.4495
 1486SOL     OW16093   0.937   3.968   5.393  0.2286 -0.4166 -0.1763
 1486SOL    HW116094   0.881   4.046   5.391 -0.7345 -1.0949  0.1543
 1486SOL    HW216095   0.912   3.933   5.478  2.0523 -1.7224 -0.1920
 1487SOL     OW16096   1.840   2.005   1.800 -0.3426  0.0602  0.0059
 1487SOL    HW116097   1.790   1.955   1.864 -2.1158  1.9540  0.0951
 1487SOL    HW216098   1.886   2.072   1.849  0.0834 -0.8855  0.9104
 1488SOL     OW16099   0.151   4.736   5.288  0.2180 -0.1318  0.3368
 1488SOL    HW116100   0.070   0.022   5.331  0.7893  1.1094  0.6933
 1488SOL    HW216101   0.174   0.078   5.241 -1.0775 -1.3704 -2.3763
 1489SOL     OW16102   1.922   1.913   4.428  0.5636  0.4924  0.4358
 1489SOL    HW116103   1.886   1.953   4.507  0.5650 -0.3305  0.8542
 1489SOL    HW216104   1.987   1.863   4.477  0.1826  0.3679  0.8152
 1490SOL     OW16105   0.391   1.547   9.951 -0.2454  0.4468 -0.0096
 1490SOL    HW116106   0.334   1.602   9.899 -2.7607 -1.5771  0.5935
 1490SOL    HW216107   0.439   1.505   9.880  0.1558 -0.0146  0.5323
 1491SOL     OW16108   1.413   2.945   8.609 -0.1572 -0.4193 -0.2574
 1491SOL    HW116109   1.345   3.001   8.648 -1.2492 -1.4367 -0.7259
 1491SOL    HW216110   1.401   2.961   8.515  1.4550 -1.1232 -0.5915
 1492SOL     OW16111   2.997   0.015   9.094  0.1733 -0.0362  0.2175
 1492SOL    HW116112   2.938   4.699   9.146 -0.4045  0.2417 -0.1375
 1492SOL    HW216113   3.079   4.706   9.105 -1.1168 -2.0137  1.1477
 1493SOL     OW16114   4.005   0.303   3.900  0.5102  0.0556 -0.3471
 1493SOL    HW116115   4.007   0.285   3.994  1.4657 -0.7302 -0.5195
 1493SOL    HW216116   3.963   0.222   3.872  0.0187 -0.3783  1.6335
 1494SOL     OW16117   2.240   3.592   8.767 -0.3047 -0.1831  0.4478
 1494SOL    HW116118   2.150   3.597   8.735 -0.0072 -2.4097 -0.6797
 1494SOL    HW216119   2.290   3.607   8.686 -1.0931  1.3147  0.2223
 1495SOL     OW16120   4.320   0.750  10.980 -0.0041 -0.0865  0.0173
 1495SOL    HW116121   4.414   0.755  10.961  0.8069  1.9495  4.5641
 1495SOL    HW216122   4.285   0.710  10.900  0.1662 -1.3002  0.5474
 1496SOL     OW16123   0.211   2.546  13.772  0.0036 -0.1944  0.1558
 1496SOL    HW116124   0.150   2.605  13.816  1.1049  1.7192 -0.8834
 1496SOL    HW216125   0.170   2.539  13.686  1.1239  2.2713 -0.5667
 1497SOL     OW16126   1.835   3.878   3.059 -0.0954 -0.3663  0.0040
 1497SOL    HW116127   1.829   3.863   2.965 -1.5434 -0.0251  0.0326
 1497SOL    HW216128   1.893   3.806   3.082 -0.3464 -0.2037  1.1441
 1498SOL     OW16129   3.425   0.295   2.074 -0.0074  0.5126 -0.4520
 1498SOL    HW116130   3.488   0.253   2.133 -1.9955 -3.9504 -1.5020
 1498SOL    HW216131   3.370   0.223   2.043 -0.9080  1.7098 -1.6038
 1499SOL     OW16132   0.516   1.477   3.128 -0.0043  0.1037 -0.3189
 1499SOL    HW116133   0.496   1.474   3.035  2.0547 -1.6420 -0.6865
 1499SOL    HW216134   0.611   1.480   3.122 -0.1538  1.8682 -1.7055
 1500SOL     OW16135   0.715   0.700   8.345  0.4196 -0.5328 -0.0173
 1500SOL    HW116136   0.654   0.692   8.272  0.1450  1.0677  0.0428
 1500SOL    HW216137   0.765   0.776   8.315 -1.8952  0.6598 -0.7640
 1501SOL     OW16138   1.517   2.058   7.226  0.0375 -0.5970  0.2373
 1501SOL    HW116139   1.423   2.041   7.233  0.5071 -3.3384 -0.0192
 1501SOL    HW216140   1.522   2.122   7.154 -2.0760  0.3146  0.8763
 1502SOL     OW16141   4.016   2.403   2.372 -0.4640 -0.3436  0.1639
 1502SOL    HW116142   4.058   2.487   2.390  2.2946 -1.5658 -0.4889
 1502SOL    HW216143   3.954   2.396   2.445  0.2117  0.5739  0.8355
 1503SOL     OW16144   2.575   4.031   7.445  0.2634  0.2290  0.4221
 1503SOL    HW116145   2.641   4.006   7.380 -3.0242 -1.9982 -2.0759
 1503SOL    HW216146   2.628   4.088   7.502  0.7149 -0.6652  0.8886
 1504SOL     OW16147   3.135   4.633   4.653  0.1694  0.0352  0.0085
 1504SOL    HW116148   3.153   4.704   4.714 -0.3561 -0.7228  1.0305
 1504SOL    HW216149   3.222   4.630   4.612  0.0927 -0.3972 -0.1225
 1505SOL     OW16150   4.076   4.194   6.794  0.5109  0.0611  0.0025
 1505SOL    HW116151   4.105   4.177   6.705  0.5735 -0.3557  0.1028
 1505SOL    HW216152   4.066   4.106   6.830  0.1389 -0.1980 -0.7456
 1506SOL     OW16153   1.184   0.607   6.302 -0.1171  0.1409 -0.3885
 1506SOL    HW116154   1.238   0.676   6.264 -1.7847  0.2990 -2.4630
 1506SOL    HW216155   1.128   0.659   6.360 -1.6030 -1.4938 -0.3404
 1507SOL     OW16156   0.751   1.527   6.783  0.3755 -0.4765 -0.2462
 1507SOL    HW116157   0.710   1.558   6.702 -0.4765 -1.3531 -0.1477
 1507SOL    HW216158   0.708   1.442   6.778  0.1025 -0.5139  2.8904
 1508SOL     OW16159   1.502   4.457   7.963  0.2393 -0.0246  0.0065
 1508SOL    HW116160   1.504   4.503   8.047  0.0485 -1.6108  0.8738
 1508SOL    HW216161   1.437   4.391   7.988  0.2619  0.2122  0.6969
 1509SOL     OW16162   3.314   3.766   9.339 -0.0921  0.2792  0.1979
 1509SOL    HW116163   3.290   3.678   9.310  1.4698 -0.4178  0.9952
 1509SOL    HW216164   3.388   3.743   9.396 -0.5087  0.0160  0.6249
 1510SOL     OW16165   3.385   0.173  13.613  0.4004 -0.3874  0.2909
 1510SOL    HW116166   3.467   0.173  13.564 -0.7294 -3.9696 -1.5819
 1510SOL    HW216167   3.325   0.169  13.538 -0.2907  0.0447  0.8232
 1511SOL     OW16168   2.874   1.764   8.553 -0.5805 -0.1529  0.3530
 1511SOL    HW116169   2.929   1.738   8.627  0.1356  1.1653  0.2839
 1511SOL    HW216170   2.906   1.853   8.544 -0.2716 -0.4495 -1.4892
 1512SOL     OW16171   3.888   2.537  14.545 -0.3651 -0.5789  0.3228
 1512SOL    HW116172   3.841   2.621  14.540 -0.5197 -0.6993 -0.2385
 1512SOL    HW216173   3.915   2.523  14.455  2.4703  0.5567  0.9907
 1513SOL     OW16174   0.790   4.275  15.320 -0.5933  0.0810 -0.1435
 1513SOL    HW116175   0.874   4.280  15.366  0.3658  1.7078 -2.0992
 1513SOL    HW216176   0.761   4.192  15.359  1.2530 -0.8596 -0.7700
 1514SOL     OW16177   1.751   2.013   5.261  0.1248  0.4127 -0.0535
 1514SOL    HW116178   1.709   2.055   5.336  1.4633  0.7612  0.4963
 1514SOL    HW216179   1.677   1.959   5.232  0.8123 -0.9107  0.6571
 1515SOL     OW16180   0.948   2.471  16.558 -0.0666 -0.0653  0.0679
 1515SOL    HW116181   0.949   2.442  16.467 -1.3322  0.7990 -0.2163
 1515SOL    HW216182   0.983   2.393  16.601 -0.2143  0.4878  1.2053
 1516SOL     OW16183   4.550   0.103   2.692 -0.1039  0.1755 -0.1861
 1516SOL    HW116184   4.515   0.014   2.686 -1.9887  0.8893  0.4035
 1516SOL    HW216185   4.639   0.101   2.658 -0.0690 -0.7737 -0.0204
 1517SOL     OW16186   4.333   3.530  13.430 -0.0015  0.1509  0.2788
 1517SOL    HW116187   4.317   3.609  13.378 -1.8558 -2.1611 -2.6415
 1517SOL    HW216188   4.367   3.573  13.509 -0.8781 -3.0863  2.4175
 1518SOL     OW16189   3.867   3.885   1.906 -0.0954  0.1332  0.1740
 1518SOL    HW116190   3.783   3.928   1.922 -0.0396  0.9245 -1.6637
 1518SOL    HW216191   3.882   3.834   1.986  0.5615 -1.9226 -1.2540
 1519SOL     OW16192   3.274   2.852  17.177 -0.2560 -0.6928  0.4787
 1519SOL    HW116193   3.284   2.761  17.205  1.0522 -0.8987 -0.6642
 1519SOL    HW216194   3.179   2.864  17.166 -0.0619  0.6990  0.3527
 1520SOL     OW16195   1.916   3.392   3.972  0.0678  0.1527 -0.2303
 1520SOL    HW116196   1.857   3.416   4.043  1.3887  0.8315  0.6299
 1520SOL    HW216197   1.994   3.397   4.027 -0.3346 -0.6491  0.4152
 1521SOL     OW16198   4.226   3.400  15.580 -0.9674  0.0085 -0.4469
 1521SOL    HW116199   4.140   3.442  15.580 -0.7749  0.3994 -1.3768
 1521SOL    HW216200   4.281   3.463  15.625 -0.5998  0.9584 -2.2610
 1522SOL     OW16201   3.433   2.147   3.115  0.3197 -0.1729  0.1786
 1522SOL    HW116202   3.372   2.076   3.095  2.8498 -2.0856 -0.7268
 1522SOL    HW216203   3.474   2.114   3.196 -1.6802  2.2904  2.1981
 1523SOL     OW16204   2.331   1.447   5.714 -0.4645  0.2483  0.0071
 1523SOL    HW116205   2.385   1.400   5.777  1.2185 -0.4350 -1.9549
 1523SOL    HW216206   2.267   1.477   5.779 -0.5799  0.5199 -0.2324
 1524SOL     OW16207   3.006   3.038   8.191  0.0477  0.1049 -0.1702
 1524SOL    HW116208   3.079   3.049   8.251 -0.9395  1.0925  0.8703
 1524SOL    HW216209   3.023   2.957   8.144 -0.1216 -0.0415  0.0201
 1525SOL     OW16210   3.951   1.058   9.379  0.0181  0.5795 -0.1770
 1525SOL    HW116211   3.964   1.130   9.440  0.2825  0.2732  0.1297
 1525SOL    HW216212   4.038   1.018   9.383 -0.1801  0.3662  1.7861
 1526SOL     OW16213   3.499   1.010   2.049 -0.3333  0.5759  1.0028
 1526SOL    HW116214   3.444   1.043   2.121  0.7714  1.2214  1.5477
 1526SOL    HW216215   3.560   1.084   2.057 -2.6307  2.5810  0.2410
 1527SOL     OW16216   2.925   4.640   6.590  0.0292 -0.4009 -0.1643
 1527SOL    HW116217   2.893   4.552   6.571 -0.8960  0.3926 -2.3914
 1527SOL    HW216218   2.881   4.702   6.531 -0.2430  0.7807  1.2839
 1528SOL     OW16219   3.356   0.078   9.846  0.1609  0.5697  0.1755
 1528SOL    HW116220   3.378   4.736   9.892  1.3022 -0.0752 -1.4820
 1528SOL    HW216221   3.267   0.080   9.882 -0.1640 -2.4528 -0.4225
 1529SOL     OW16222   0.943   3.225   2.650  0.0635 -0.2170  0.2284
 1529SOL    HW116223   1.035   3.234   2.675 -0.1707 -1.4984  1.5150
 1529SOL    HW216224   0.893   3.268   2.719  1.8614 -0.5897  1.7702
 1530SOL     OW16225   1.979   1.508  14.633  0.2979  0.3681 -0.2806
 1530SOL    HW116226   1.951   1.595  14.660  0.1712  0.3931 -0.4885
 1530SOL    HW216227   2.006   1.471  14.717  1.7895  0.4402 -0.7322
 1531SOL     OW16228   0.280   1.084   9.785  0.0461  0.0949 -0.3249
 1531SOL    HW116229   0.225   1.036   9.847 -0.0454 -0.2622 -0.6818
 1531SOL    HW216230   0.275   1.025   9.709 -0.6447 -0.8075  0.4258
 1532SOL     OW16231   3.774   2.699   6.367  0.2165 -0.2268  0.5918
 1532SOL    HW116232   3.796   2.630   6.304 -0.4919  1.4839 -1.5564
 1532SOL    HW216233   3.814   2.667   6.447 -0.9232 -0.1919  1.1835
 1533SOL     OW16234   0.123   2.753   3.820 -0.1864  0.2880 -0.1995
 1533SOL    HW116235   0.184   2.800   3.764 -0.3029  1.6166  0.7997
 1533SOL    HW216236   0.182   2.723   3.888 -0.1867  1.6871  0.4064
 1534SOL     OW16237   3.366   4.558   6.008  0.4641  0.0992  0.0038
 1534SOL    HW116238   3.338   4.478   6.053 -0.4151 -0.3995 -1.4232
 1534SOL    HW216239   3.426   4.581   6.078 -0.9582  2.1456  0.5719
 1535SOL     OW16240   1.084   1.871   7.486  0.1327  0.3714  0.0306
 1535SOL    HW116241   1.033   1.873   7.567 -1.4563 -1.6434 -0.9172
 1535SOL    HW216242   1.009   1.891   7.431 -0.3235  0.4833  0.6851
 1536SOL     OW16243   4.489   2.594  13.805  0.2440  0.1776 -0.2076
 1536SOL    HW116244   4.422   2.612  13.871  0.5491 -1.8894  0.6543
 1536SOL    HW216245   4.569   2.584  13.857  1.2719  1.1495 -1.6024
 1537SOL     OW16246   4.146   0.209   8.027  0.4341  0.4930  0.3084
 1537SOL    HW116247   4.169   0.301   8.036 -0.0738  0.6012  0.4909
 1537SOL    HW216248   4.230   0.188   7.986 -0.0629 -0.6052 -0.1597
 1538SOL     OW16249   0.279   3.514   9.665 -0.1453  0.5145  0.3017
 1538SOL    HW116250   0.347   3.557   9.716  1.5328 -1.9541  0.1667
 1538SOL    HW216251   0.252   3.442   9.722  0.9202  0.1289  0.3210
 1539SOL     OW16252   3.256   0.266   5.126  0.4195 -0.5430  0.1768
 1539SOL    HW116253   3.207   0.239   5.048  1.4161 -0.2533 -0.5350
 1539SOL    HW216254   3.197   0.331   5.164  1.5974 -0.6613  2.2038
 1540SOL     OW16255   1.928   2.917   4.184  0.0990  1.0899 -0.5737
 1540SOL    HW116256   1.924   3.001   4.138 -0.8984  1.2585 -0.1712
 1540SOL    HW216257   1.913   2.934   4.277 -0.6145 -0.2453 -0.4509
 1541SOL     OW16258   4.568   4.515   8.960 -0.3999 -0.2491  0.5565
 1541SOL    HW116259   4.571   4.502   9.055 -1.5133 -2.2535  0.3078
 1541SOL    HW216260   4.482   4.478   8.943 -0.6853  0.7164 -0.1019
 1542SOL     OW16261   2.212   1.411   3.286 -0.2575  0.3205  0.2677
 1542SOL    HW116262   2.168   1.495   3.297 -0.8973 -0.0487  0.5564
 1542SOL    HW216263   2.279   1.459   3.237  0.1523 -0.6857 -0.1743
 1543SOL     OW16264   0.778   2.693   5.225 -0.0172 -0.2104  0.3310
 1543SOL    HW116265   0.832   2.643   5.163  1.6774  1.1452  0.7174
 1543SOL    HW216266   0.807   2.669   5.314  1.0777  1.3626  0.3929
 1544SOL     OW16267   4.738   2.191  14.805 -0.4278 -0.2226  0.0884
 1544SOL    HW116268   4.738   2.137  14.726  0.8322  0.6666 -0.5172
 1544SOL    HW216269   0.049   2.133  14.863 -0.3152  0.0211  0.2345
 1545SOL     OW16270   3.207   2.396  14.519 -0.9104  0.5294 -0.1577
 1545SOL    HW116271   3.179   2.406  14.610  0.2620  0.9116  0.1599
 1545SOL    HW216272   3.129   2.436  14.480 -2.0268  0.1434  1.6682
 1546SOL     OW16273   1.392   0.312   0.668  0.5377 -0.2580  0.2994
 1546SOL    HW116274   1.369   0.362   0.590  0.1899 -2.5637 -1.0916
 1546SOL    HW216275   1.397   0.220   0.642 -1.0131 -0.5836  1.1049
 1547SOL     OW16276   3.829   2.684  13.862  0.1008 -0.4535 -0.3729
 1547SOL    HW116277   3.854   2.613  13.803  1.9687 -0.9839  1.0723
 1547SOL    HW216278   3.805   2.746  13.793  2.8544  1.2992  0.2592
 1548SOL     OW16279   0.099   3.314   5.856  0.0281 -0.0917  0.2481
 1548SOL    HW116280   0.099   3.400   5.897 -1.4525 -0.1582  0.3999
 1548SOL    HW216281   0.188   3.308   5.822 -0.6572 -1.5017 -1.2778
 1549SOL     OW16282   3.105   0.344   3.712  0.2980 -0.3909  0.1047
 1549SOL    HW116283   3.182   0.397   3.734  1.7330 -1.6462 -1.8513
 1549SOL    HW216284   3.116   0.275   3.777 -0.5927  0.8373  1.5551
 1550SOL     OW16285   1.841   3.710   6.369 -0.0554  0.0723 -0.4298
 1550SOL    HW116286   1.875   3.629   6.332 -0.7710  0.1810 -1.3255
 1550SOL    HW216287   1.762   3.723   6.316  0.3980  0.9998 -0.8737
 1551SOL     OW16288   1.141   0.591  17.416  0.0431 -0.3892 -0.0564
 1551SOL    HW116289   1.079   0.643  17.467  2.1520  3.9759 -1.9714
 1551SOL    HW216290   1.098   0.505  17.410 -3.8878  1.5725  0.2578
 1552SOL     OW16291   2.884   1.805   4.665 -0.3123 -0.0484  0.3135
 1552SOL    HW116292   2.789   1.819   4.663 -0.6608 -2.7400 -2.6511
 1552SOL    HW216293   2.926   1.885   4.697 -0.2368  0.2201 -0.4536
 1553SOL     OW16294   2.403   1.516   8.392  0.0026  0.3791  0.6532
 1553SOL    HW116295   2.493   1.493   8.372 -0.4955 -1.2554  0.2565
 1553SOL    HW216296   2.411   1.579   8.464  1.1185 -0.1729  1.0132
 1554SOL     OW16297   0.409   0.888   7.256  0.0959  0.3846 -0.2855
 1554SOL    HW116298   0.376   0.799   7.247 -0.2935  0.4589  0.4357
 1554SOL    HW216299   0.402   0.910   7.163  1.6061  1.4059 -0.1642
 1555SOL     OW16300   2.714   0.223  12.079  0.3484 -0.3205  0.3604
 1555SOL    HW116301   2.692   0.139  12.038  0.1559  0.0689 -0.3443
 1555SOL    HW216302   2.701   0.207  12.172  2.3330 -0.1522  0.6653
 1556SOL     OW16303   2.659   3.467   2.072 -0.2883  1.1312 -0.2860
 1556SOL    HW116304   2.731   3.466   2.009 -0.7875 -2.5930 -0.8199
 1556SOL    HW216305   2.699   3.500   2.152  2.2326 -0.3313 -0.9239
 1557SOL     OW16306   4.498   4.148   2.880  0.0762  0.5075  0.3117
 1557SOL    HW116307   4.508   4.154   2.784  0.9673 -3.2137  0.1956
 1557SOL    HW216308   4.559   4.076   2.892  0.2735  0.3002 -1.8871
 1558SOL     OW16309   0.691   4.175   2.160  0.0818  0.1048 -0.3007
 1558SOL    HW116310   0.730   4.188   2.073  0.1711 -1.1388 -0.4457
 1558SOL    HW216311   0.759   4.207   2.220 -0.0114 -1.6404  0.7160
 1559SOL     OW16312   0.427   1.908   1.841 -0.1788  0.7756 -0.2886
 1559SOL    HW116313   0.380   1.826   1.825  0.8614  0.1647 -0.2231
 1559SOL    HW216314   0.483   1.894   1.918 -1.3539  1.2651  0.6640
 1560SOL     OW16315   0.540   2.216   4.963 -0.3049 -0.3170  0.0330
 1560SOL    HW116316   0.452   2.247   4.941  0.4070  1.0530 -0.9330
 1560SOL    HW216317   0.551   2.279   5.035 -1.8454 -1.5101  1.3087
 1561SOL     OW16318   4.405   0.606  16.805  0.1076 -0.1294  0.2945
 1561SOL    HW116319   4.453   0.526  16.827  0.0135 -0.6577 -1.4174
 1561SOL    HW216320   4.376   0.630  16.893  0.5468  0.7265  0.1996
 1562SOL     OW16321   1.096   0.828  13.772 -0.0582  0.1707 -0.5803
 1562SOL    HW116322   1.105   0.838  13.678  1.1316  1.7937 -0.2881
 1562SOL    HW216323   1.003   0.840  13.791  0.3918  0.2878  1.5284
 1563SOL     OW16324   0.046   2.758  16.925 -0.0624  0.1983  0.2589
 1563SOL    HW116325   0.063   2.773  17.018  1.4337 -1.5066  0.2434
 1563SOL    HW216326   4.732   2.836  16.906 -3.2609 -1.7751  1.0083
 1564SOL     OW16327   0.545   0.936   2.708 -0.4828 -0.4197 -0.3941
 1564SOL    HW116328   0.516   0.867   2.649  0.7614 -0.5834 -0.8180
 1564SOL    HW216329   0.606   0.983   2.650  0.3710 -1.8487 -0.6514
 1565SOL     OW16330   4.179   0.537   4.817  0.0943  0.5046  0.0604
 1565SOL    HW116331   4.142   0.625   4.823 -2.7667 -0.7712  0.9737
 1565SOL    HW216332   4.174   0.536   4.722 -2.1747 -0.0480  0.1720
 1566SOL     OW16333   2.906   0.636   0.637  0.1147 -0.0982 -0.3349
 1566SOL    HW116334   2.942   0.724   0.648 -0.5508 -0.2978  3.3629
 1566SOL    HW216335   2.906   0.627   0.541 -1.4208 -1.2602 -0.2411
 1567SOL     OW16336   0.727   0.515  15.112 -0.0749 -0.4751 -0.1706
 1567SOL    HW116337   0.760   0.437  15.157 -0.2937 -0.5943 -0.2118
 1567SOL    HW216338   0.649   0.473  15.076 -0.1087  0.3811 -1.1135
 1568SOL     OW16339   1.868   4.168   2.329 -0.6996 -0.0578  0.2725
 1568SOL    HW116340   1.774   4.172   2.345 -0.5341 -0.0867  1.2197
 1568SOL    HW216341   1.886   4.254   2.291 -3.7380  0.9516  1.0958
 1569SOL     OW16342   1.525   2.108   2.356  0.0504  0.4670 -0.0380
 1569SOL    HW116343   1.473   2.186   2.375  0.4009  0.6050  0.3519
 1569SOL    HW216344   1.597   2.138   2.301 -1.0194 -0.0665 -1.7388
 1570SOL     OW16345   0.607   4.247   7.093  0.5163  0.3033 -0.2724
 1570SOL    HW116346   0.566   4.264   7.008 -0.9503 -0.0315  0.3869
 1570SOL    HW216347   0.604   4.152   7.104  1.8919  0.3417  0.4690
 1571SOL     OW16348   1.569   0.923   5.799  0.3603 -0.4200 -0.4824
 1571SOL    HW116349   1.541   0.971   5.721 -0.5328  1.0010  0.7034
 1571SOL    HW216350   1.487   0.878   5.819  0.9766 -0.7635  1.2740
 1572SOL     OW16351   1.926   1.263   7.356  0.3465 -0.4794 -0.6944
 1572SOL    HW116352   1.988   1.190   7.365  0.0543 -0.5233  1.1061
 1572SOL    HW216353   1.979   1.341   7.375 -0.2469 -0.1007 -0.6065
 1573SOL     OW16354   1.850   0.124   4.660 -0.2341 -0.0439 -0.3998
 1573SOL    HW116355   1.772   0.170   4.690  2.5738  2.7517  2.6134
 1573SOL    HW216356   1.881   0.184   4.592  3.3649  0.7364  1.9366
 1574SOL     OW16357   4.050   0.139   6.854  0.5652 -0.4537  0.7280
 1574SOL    HW116358   4.066   0.145   6.760 -0.3019 -2.1904  0.4926
 1574SOL    HW216359   4.027   0.230   6.875  2.5874 -0.1148  1.5496
 1575SOL     OW16360   3.683   1.148   6.485 -0.0698  0.0805 -0.2689
 1575SOL    HW116361   3.592   1.163   6.510 -0.4621 -2.7767  0.0062
 1575SOL    HW216362   3.723   1.138   6.571 -0.3417  0.1689 -0.1315
 1576SOL     OW16363   1.434   0.566   3.971 -0.5441  0.4640 -0.7497
 1576SOL    HW116364   1.380   0.588   4.047  2.4021  0.6236  1.2688
 1576SOL    HW216365   1.516   0.615   3.981 -0.1374 -0.0541 -1.5628
 1577SOL     OW16366   4.160   2.124   3.482  0.4266 -0.1666 -0.1162
 1577SOL    HW116367   4.248   2.155   3.503  0.3232  0.2224 -0.2553
 1577SOL    HW216368   4.128   2.087   3.564 -1.1769  0.3471 -0.5218
 1578SOL     OW16369   0.419   4.259   7.655 -1.3259 -0.1515 -0.1853
 1578SOL    HW116370   0.407   4.353   7.640  1.2625  0.0709 -0.7079
 1578SOL    HW216371   0.331   4.224   7.637 -1.0593 -0.1120 -1.5644
 1579SOL     OW16372   2.326   2.892   7.541  0.0732  0.3195 -0.2711
 1579SOL    HW116373   2.353   2.832   7.472 -0.8421 -0.5211  0.1013
 1579SOL    HW216374   2.384   2.965   7.522  0.3648  0.3637  0.7519
 1580SOL     OW16375   0.103   0.169   6.820  0.5866 -0.9704  0.3438
 1580SOL    HW116376   0.129   0.237   6.758  1.5929 -1.1523  0.5700
 1580SOL    HW216377   0.023   0.141   6.775  1.0710 -1.0380 -0.4743
 1581SOL     OW16378   2.434   1.110  10.105  0.1984 -0.2787  0.1135
 1581SOL    HW116379   2.398   1.199  10.105  4.5084  1.4735  0.1967
 1581SOL    HW216380   2.457   1.096  10.197  1.2114 -0.0651 -0.1032
 1582SOL     OW16381   3.928   1.658   0.359  0.4087  0.4954 -0.1794
 1582SOL    HW116382   3.866   1.719   0.401  0.0727 -0.4224  0.6535
 1582SOL    HW216383   3.886   1.645   0.274 -1.0517  0.5394  0.5361
 1583SOL     OW16384   2.476   1.898   3.701  0.2598  0.1536 -0.0011
 1583SOL    HW116385   2.441   1.821   3.745  2.0269 -0.1741  0.8165
 1583SOL    HW216386   2.569   1.906   3.724 -0.6975  3.1597  2.8270
 1584SOL     OW16387   4.278   3.726  13.169  0.0029 -0.0497  0.2911
 1584SOL    HW116388   4.364   3.724  13.127  0.7022  1.1842  1.6694
 1584SOL    HW216389   4.221   3.695  13.098  0.3813  0.3058 -0.1647
 1585SOL     OW16390   4.611   2.150   2.660  0.1692  1.0832 -1.0297
 1585SOL    HW116391   4.630   2.238   2.693 -0.2857  1.5305 -1.9577
 1585SOL    HW216392   4.655   2.094   2.723 -0.4818  1.3930 -0.2893
 1586SOL     OW16393   2.078   3.266   4.785 -0.6471  0.2148  0.4240
 1586SOL    HW116394   2.122   3.314   4.854  2.8541 -2.4808  0.0512
 1586SOL    HW216395   1.996   3.315   4.777 -0.4911  0.4223  0.1322
 1587SOL     OW16396   3.720   3.881   5.024 -0.3383 -0.1299  0.6946
 1587SOL    HW116397   3.726   3.920   5.111 -1.4067  1.6968 -0.0748
 1587SOL    HW216398   3.627   3.859   5.021 -0.4815  0.5709  0.1479
 1588SOL     OW16399   0.853   4.440   9.336 -0.2967  0.3457 -0.4219
 1588SOL    HW116400   0.927   4.392   9.374 -0.7659 -0.5845 -0.6842
 1588SOL    HW216401   0.901   4.495   9.273  2.0754 -0.6475  0.5097
 1589SOL     OW16402   1.670   3.819   8.618 -0.0294 -0.2396  0.4943
 1589SOL    HW116403   1.713   3.779   8.693 -0.8097  1.6274  1.9297
 1589SOL    HW216404   1.635   3.735   8.587  1.5897  0.1101 -2.3030
 1590SOL     OW16405   3.682   1.009   4.951  0.8199 -0.1289 -0.1105
 1590SOL    HW116406   3.744   0.937   4.964  0.8969 -0.2970 -1.4047
 1590SOL    HW216407   3.733   1.084   4.980  1.7214 -0.2307 -1.4346
 1591SOL     OW16408   2.714   3.219  11.716 -0.2261  0.3457  0.2848
 1591SOL    HW116409   2.735   3.278  11.789  0.1498 -0.7529  1.0652
 1591SOL    HW216410   2.652   3.159  11.756  0.2969 -0.6048 -0.3364
 1592SOL     OW16411   1.138   0.618   7.567 -1.0301  0.1328  0.8818
 1592SOL    HW116412   1.141   0.668   7.486 -0.3343  0.4864  1.1225
 1592SOL    HW216413   1.150   0.529   7.532 -0.0489  0.1952  1.0684
 1593SOL     OW16414   1.096   4.171   6.959  0.2421  0.2664  0.2843
 1593SOL    HW116415   1.118   4.215   7.042 -2.7359 -1.2770  1.8811
 1593SOL    HW216416   1.125   4.245   6.906  0.3318 -0.5074 -0.7303
 1594SOL     OW16417   4.701   3.238   9.903  0.6748 -0.0395 -0.3380
 1594SOL    HW116418   4.627   3.254   9.962  1.2305 -0.2807  0.4241
 1594SOL    HW216419   4.694   3.148   9.869  3.1377  0.1446 -1.3191
 1595SOL     OW16420   1.206   0.406   2.865 -0.6414  0.3301  0.0071
 1595SOL    HW116421   1.242   0.332   2.914  0.3275 -0.0029 -1.2186
 1595SOL    HW216422   1.178   0.454   2.943 -0.5218 -2.8498  1.9912
 1596SOL     OW16423   1.174   1.935   4.783 -0.4769 -0.2673 -0.1311
 1596SOL    HW116424   1.127   1.859   4.817 -0.2864 -0.9232 -1.3219
 1596SOL    HW216425   1.128   1.973   4.708  0.8716 -2.6644 -2.1845
 1597SOL     OW16426   3.743   1.592  15.246  0.7735  0.0346 -0.3501
 1597SOL    HW116427   3.684   1.666  15.259  0.9766 -0.2382  1.9918
 1597SOL    HW216428   3.716   1.561  15.159  2.5637 -0.6293 -0.6693
 1598SOL     OW16429   3.764   1.832   0.493 -0.2407  0.1476  0.2662
 1598SOL    HW116430   3.758   1.915   0.445 -2.9941 -0.5283 -0.5377
 1598SOL    HW216431   3.693   1.855   0.553  1.4660  0.5693  2.1352
 1599SOL     OW16432   1.445   2.503   3.010  0.4165 -0.0408 -0.3057
 1599SOL    HW116433   1.533   2.514   3.046  1.1898 -1.3483 -1.7905
 1599SOL    HW216434   1.409   2.583   3.048 -0.6370  0.0181 -1.4659
 1600SOL     OW16435   0.967   4.222   9.588  0.3229  0.4199 -0.1387
 1600SOL    HW116436   1.017   4.151   9.628 -0.2771 -0.6838 -1.3161
 1600SOL    HW216437   1.032   4.291   9.584 -0.7746  1.3485 -1.6715
 1601SOL     OW16438   1.980   0.528   0.207  0.2526 -0.5491 -0.2779
 1601SOL    HW116439   1.898   0.529   0.158 -0.8186  1.2680  1.5475
 1601SOL    HW216440   2.036   0.578   0.149 -1.5630  0.1255 -1.4374
 1602SOL     OW16441   0.881   3.502   6.168 -0.4899  0.4054 -0.0068
 1602SOL    HW116442   0.835   3.467   6.244  1.4965 -0.9476  0.5645
 1602SOL    HW216443   0.944   3.430   6.164  0.2054  0.9448  0.9523
 1603SOL     OW16444   2.317   0.844   1.764 -0.2292 -0.4526  0.1658
 1603SOL    HW116445   2.360   0.879   1.842  2.8249  0.4189 -1.9241
 1603SOL    HW216446   2.343   0.752   1.756  1.7815  0.0223  1.3158
 1604SOL     OW16447   1.212   1.395   4.474 -0.0377  0.3555  0.2709
 1604SOL    HW116448   1.213   1.455   4.548  2.3591  0.2822  0.2899
 1604SOL    HW216449   1.307   1.391   4.458 -0.3623  0.3381 -1.7355
 1605SOL     OW16450   0.295   0.360   0.307  0.5680  0.5495 -0.3097
 1605SOL    HW116451   0.360   0.317   0.361  0.0810 -0.7898 -0.7957
 1605SOL    HW216452   0.229   0.291   0.301  1.3302 -0.2205  0.0974
 1606SOL     OW16453   4.099   3.791  13.365 -0.1047  0.3732 -0.4021
 1606SOL    HW116454   4.178   3.767  13.316  0.7739  1.4536  0.4874
 1606SOL    HW216455   4.106   3.887  13.361  0.9255  0.2554 -1.5500
 1607SOL     OW16456   2.339   3.998   0.090 -0.4043 -0.1510 -0.6142
 1607SOL    HW116457   2.427   3.973   0.062  0.3726  0.9724  0.8253
 1607SOL    HW216458   2.291   3.923   0.056  1.2201 -2.1235  1.4044
 1608SOL     OW16459   0.762   2.536   0.985 -0.1041  0.2017 -0.0134
 1608SOL    HW116460   0.696   2.605   0.992 -0.9765 -0.7304  0.8411
 1608SOL    HW216461   0.774   2.533   0.890  2.0992 -0.3573  0.2866
 1609SOL     OW16462   3.310   3.191  11.551 -0.2620  0.4275  0.1733
 1609SOL    HW116463   3.292   3.097  11.542 -1.0839  0.5198  0.8994
 1609SOL    HW216464   3.241   3.215  11.612 -0.1883  0.6002  0.1874
 1610SOL     OW16465   4.173   2.873   9.185  0.3419 -0.0320 -0.8725
 1610SOL    HW116466   4.125   2.812   9.129 -3.7980  0.5242  2.0840
 1610SOL    HW216467   4.263   2.841   9.197  0.3334  0.2816  0.0125
 1611SOL     OW16468   4.053   2.060   5.798 -0.0488 -0.2681 -0.4424
 1611SOL    HW116469   4.081   1.987   5.852  1.5201 -0.8101 -2.0286
 1611SOL    HW216470   4.060   2.133   5.860  0.1754  0.1776 -0.9916
 1612SOL     OW16471   0.486   2.135   7.225  0.2318 -0.1546  0.6231
 1612SOL    HW116472   0.435   2.054   7.224  1.1893 -0.7496 -0.7544
 1612SOL    HW216473   0.432   2.195   7.276  0.8035 -0.3209  1.4122
 1613SOL     OW16474   1.183   1.061   8.394  0.7321  0.2596 -0.0645
 1613SOL    HW116475   1.179   1.019   8.308 -0.6616  0.1773  0.0405
 1613SOL    HW216476   1.191   1.154   8.370 -0.0556  1.0679  2.8185
 1614SOL     OW16477   2.202   3.955   3.385  0.6657  0.5307  0.3579
 1614SOL    HW116478   2.168   3.908   3.461 -2.1536 -0.5695 -1.5774
 1614SOL    HW216479   2.269   4.010   3.425 -1.2659  2.4966  0.8702
 1615SOL     OW16480   2.833   4.449   7.185  0.2678  0.2815 -0.3318
 1615SOL    HW116481   2.786   4.390   7.126 -2.2636  1.6097  0.3690
 1615SOL    HW216482   2.782   4.530   7.182  2.2580  1.5793  1.0922
 1616SOL     OW16483   4.572   2.450   3.288 -0.1925 -0.4834 -0.4656
 1616SOL    HW116484   4.659   2.439   3.326 -0.7283 -1.4880  0.4837
 1616SOL    HW216485   4.545   2.505   3.361 -3.0049 -2.5491  0.0762
 1617SOL     OW16486   4.088   2.538   4.009  0.1431 -0.1230 -0.2340
 1617SOL    HW116487   4.137   2.615   4.039 -0.6109  0.6383 -0.9573
 1617SOL    HW216488   4.009   2.543   4.062  0.4271 -2.3072  0.3984
 1618SOL     OW16489   4.323   4.555   2.619 -0.2533  0.1802 -0.3302
 1618SOL    HW116490   4.282   4.543   2.705  3.5197  1.4027  1.6909
 1618SOL    HW216491   4.255   4.612   2.584  0.2007  0.3448 -0.9392
 1619SOL     OW16492   2.181   0.114   6.068  0.5757  0.1922  0.1180
 1619SOL    HW116493   2.176   0.162   5.986 -0.6060 -0.8379 -0.4128
 1619SOL    HW216494   2.088   0.092   6.070  0.6420 -0.0555  0.6575
 1620SOL     OW16495   2.989   0.718   1.975  0.2164 -0.2875 -0.3672
 1620SOL    HW116496   3.016   0.670   1.896 -0.9855  0.0184 -0.9664
 1620SOL    HW216497   3.050   0.675   2.035  0.8116  1.3353  0.1746
 1621SOL     OW16498   3.207   1.405   4.037  0.2889 -0.3667  0.6050
 1621SOL    HW116499   3.290   1.387   4.081  0.9557 -2.1966 -1.4016
 1621SOL    HW216500   3.230   1.388   3.946  0.2621 -0.3398  0.5931
 1622SOL     OW16501   1.775   0.268  12.346 -0.4915 -0.3290 -0.4579
 1622SOL    HW116502   1.861   0.229  12.359  0.5874  2.3979  0.4037
 1622SOL    HW216503   1.743   0.220  12.270 -1.3075 -0.1982 -0.2037
 1623SOL     OW16504   4.162   0.141   3.500 -0.1449 -0.1890  0.1099
 1623SOL    HW116505   4.230   0.207   3.488 -0.1098 -0.3963 -0.8100
 1623SOL    HW216506   4.107   0.154   3.422 -1.0464 -1.9607  0.4402
 1624SOL     OW16507   1.708   1.094   1.390 -0.2388 -0.2571  0.3685
 1624SOL    HW116508   1.751   1.152   1.453  0.0174 -2.1144  1.8813
 1624SOL    HW216509   1.665   1.156   1.331  0.4072 -0.9919 -0.8579
 1625SOL     OW16510   4.522   3.165  13.430 -0.4041 -0.0704 -0.2211
 1625SOL    HW116511   4.586   3.224  13.388  2.1220 -1.1948  2.0759
 1625SOL    HW216512   4.524   3.205  13.517  0.0417 -0.0522 -0.2380
 1626SOL     OW16513   4.443   0.296   7.494 -0.0114  0.1293  0.2766
 1626SOL    HW116514   4.489   0.279   7.412 -1.0362  0.5525 -0.3801
 1626SOL    HW216515   4.374   0.230   7.481 -1.0244  1.3049 -0.2550
 1627SOL     OW16516   0.044   3.127   2.145  0.1616 -0.2586  0.7661
 1627SOL    HW116517   0.036   3.033   2.125  2.2358 -0.4188  0.7127
 1627SOL    HW216518   0.099   3.167   2.078 -0.2364 -1.4922 -0.3019
 1628SOL     OW16519   3.064   1.402   9.269  0.3346 -0.3947 -0.3662
 1628SOL    HW116520   3.086   1.493   9.249  1.2489 -0.2480  1.2963
 1628SOL    HW216521   2.995   1.389   9.204  1.6421  0.9857 -2.0224
 1629SOL     OW16522   4.267   0.982   2.623  0.2081 -0.0054  0.6440
 1629SOL    HW116523   4.281   1.053   2.559 -0.1621 -3.0850 -2.8436
 1629SOL    HW216524   4.288   0.907   2.568 -0.6474  0.3838 -0.2158
 1630SOL     OW16525   2.607   4.659   6.089 -0.3150  0.7337  0.1939
 1630SOL    HW116526   2.691   4.696   6.116 -0.2461 -0.2388  1.3089
 1630SOL    HW216527   2.621   4.670   5.995 -1.1382  0.2642  0.0201
 1631SOL     OW16528   4.044   0.903   9.038  0.5188 -0.5647 -0.9646
 1631SOL    HW116529   4.005   0.820   9.066 -2.4354  1.5990  1.3979
 1631SOL    HW216530   4.116   0.921   9.098  1.0008  1.4118 -2.1457
 1632SOL     OW16531   1.951   2.441   5.973  0.5815  0.1959 -0.3726
 1632SOL    HW116532   1.869   2.488   5.986  0.0575 -0.7736 -0.2289
 1632SOL    HW216533   1.934   2.416   5.882  0.5808  1.0682 -0.6148
 1633SOL     OW16534   2.351   4.183  11.345  0.2513 -0.8230  0.3338
 1633SOL    HW116535   2.301   4.222  11.273  2.7519  2.6846  0.4562
 1633SOL    HW216536   2.432   4.233  11.333 -1.8527  2.4002 -0.7038
 1634SOL     OW16537   4.077   4.680   6.531 -0.2624  0.5928  0.4149
 1634SOL    HW116538   4.011   4.675   6.463  2.1932  0.2882 -1.9389
 1634SOL    HW216539   4.093   0.034   6.547  1.6938 -0.1144  2.6897
 1635SOL     OW16540   0.914   3.351  12.252 -0.5272 -0.1249 -0.3072
 1635SOL    HW116541   0.988   3.392  12.209 -1.1950  0.5948 -0.7662
 1635SOL    HW216542   0.832   3.398  12.235 -2.2310 -1.7881  3.2382
 1636SOL     OW16543   1.104   1.531  11.536  0.7657  0.3075  0.4570
 1636SOL    HW116544   1.129   1.616  11.500 -0.6976 -0.0784 -1.4633
 1636SOL    HW216545   1.016   1.551  11.568  1.1432 -0.3624  1.8864
 1637SOL     OW16546   0.721   4.181  13.209 -0.6731  0.6529 -0.7045
 1637SOL    HW116547   0.705   4.265  13.164  0.1413  0.6208 -1.0616
 1637SOL    HW216548   0.669   4.189  13.288  2.1763 -0.1096  1.2227
 1638SOL     OW16549   0.583   3.913   5.871  0.5164  0.1128  0.1686
 1638SOL    HW116550   0.573   3.954   5.785 -1.7713 -0.9628 -0.0829
 1638SOL    HW216551   0.491   3.913   5.901  0.9158  2.0164  1.3678
 1639SOL     OW16552   1.885   3.553   5.602  0.0956  0.2350 -0.7986
 1639SOL    HW116553   1.904   3.559   5.509 -1.8576 -2.1687 -1.3539
 1639SOL    HW216554   1.884   3.459   5.624 -0.2655  0.4003 -0.1010
 1640SOL     OW16555   1.936   1.074   9.562 -0.5837  0.3857 -0.4604
 1640SOL    HW116556   1.848   1.045   9.538 -1.7464  2.2329  1.5378
 1640SOL    HW216557   1.985   1.036   9.489 -1.4530  1.7445 -1.7442
 1641SOL     OW16558   3.701   4.196  16.638  0.3850  0.0575 -0.4824
 1641SOL    HW116559   3.713   4.226  16.728  2.5766 -1.7278 -0.1889
 1641SOL    HW216560   3.717   4.273  16.583  3.0560 -1.8011 -2.3088
 1642SOL     OW16561   1.760   0.443   3.864 -0.0244  0.4276  0.0352
 1642SOL    HW116562   1.767   0.439   3.959  1.3697 -1.4472 -0.1554
 1642SOL    HW216563   1.742   0.352   3.843  1.0051  0.3321 -0.4380
 1643SOL     OW16564   4.071   4.258   0.849 -0.1673  0.3624 -0.0292
 1643SOL    HW116565   3.987   4.261   0.894 -0.2955  3.9703 -0.5087
 1643SOL    HW216566   4.122   4.286   0.926  1.9378 -0.7665 -0.9875
 1644SOL     OW16567   4.402   0.892   4.545 -0.2213 -0.2987  0.0418
 1644SOL    HW116568   4.430   0.835   4.617  0.3889 -1.2777 -0.9807
 1644SOL    HW216569   4.369   0.826   4.485  0.7757 -1.4616  0.7542
 1645SOL     OW16570   3.076   1.671  16.101 -0.1080  0.8723  0.1238
 1645SOL    HW116571   3.161   1.687  16.061 -0.3463 -0.9614 -1.1500
 1645SOL    HW216572   3.017   1.712  16.038  0.2683  0.3732 -0.5563
 1646SOL     OW16573   4.194   4.000   9.612  0.6084 -0.0363 -0.4326
 1646SOL    HW116574   4.187   3.915   9.655  0.6479  0.7786  1.1797
 1646SOL    HW216575   4.206   4.059   9.686 -1.3194 -1.1445  0.7587
 1647SOL     OW16576   1.430   3.746   9.309 -0.3581 -0.2516  0.4085
 1647SOL    HW116577   1.449   3.835   9.339 -2.2090  0.1676  0.3476
 1647SOL    HW216578   1.366   3.763   9.240  0.6223 -1.2550 -0.7180
 1648SOL     OW16579   2.394   2.768   4.744 -0.4066  0.2810 -0.2972
 1648SOL    HW116580   2.420   2.691   4.692 -1.9290 -0.3528 -0.1228
 1648SOL    HW216581   2.399   2.835   4.676 -2.0345  1.0981  0.3816
 1649SOL     OW16582   4.680   3.853   8.277  0.3272 -0.1670 -0.2058
 1649SOL    HW116583   4.636   3.880   8.196  0.3875  0.5014 -0.0089
 1649SOL    HW216584   0.006   3.792   8.239  2.4748  0.2192  2.8865
 1650SOL     OW16585   3.894   4.273   2.194 -0.4776  0.8221  0.3416
 1650SOL    HW116586   3.944   4.351   2.170  0.7889 -0.1729 -0.2065
 1650SOL    HW216587   3.940   4.213   2.135  0.9804  0.2057  2.1268
 1651SOL     OW16588   2.608   3.559   6.828  0.1190 -0.3390 -0.5658
 1651SOL    HW116589   2.517   3.560   6.859  0.7217  2.3244  1.1289
 1651SOL    HW216590   2.603   3.539   6.735 -2.0942 -1.3854 -0.2139
 1652SOL     OW16591   1.315   0.294   6.002 -0.1625 -0.1598  0.8099
 1652SOL    HW116592   1.270   0.323   6.081 -0.6823  1.2422  0.0042
 1652SOL    HW216593   1.330   0.379   5.960  0.7988 -0.6613  0.1363
 1653SOL     OW16594   2.714   4.037   4.000 -0.9586  0.1605  0.1831
 1653SOL    HW116595   2.798   3.993   3.990 -1.1260 -0.0147 -0.4669
 1653SOL    HW216596   2.724   4.103   3.930 -0.0808 -1.1789 -0.9552
 1654SOL     OW16597   0.536   0.151   3.470  0.0602  0.0028  0.3603
 1654SOL    HW116598   0.471   0.197   3.417  1.4201  2.4326  0.8122
 1654SOL    HW216599   0.479   0.100   3.529 -1.5277 -0.0794 -1.2367
 1655SOL     OW16600   2.217   3.049   0.431 -0.9116  0.1956 -0.1251
 1655SOL    HW116601   2.262   2.964   0.428  1.3174  1.3911 -0.5210
 1655SOL    HW216602   2.274   3.108   0.480 -0.2792  0.3065 -0.9909
 1656SOL     OW16603   4.558   0.192  13.826 -0.6087 -0.8252 -0.0661
 1656SOL    HW116604   4.465   0.215  13.817 -0.1360  1.4162  0.8288
 1656SOL    HW216605   4.567   0.192  13.921 -0.4116 -0.2527 -0.0849
 1657SOL     OW16606   0.902   2.433  11.914  0.1397 -0.0282  0.6910
 1657SOL    HW116607   0.954   2.428  11.995  1.3892  0.3471 -0.0814
 1657SOL    HW216608   0.895   2.528  11.903 -0.9077 -0.2128 -0.2547
 1658SOL     OW16609   3.510   2.157   0.173 -0.2760  0.5548  0.3744
 1658SOL    HW116610   3.418   2.176   0.190 -0.0359  1.4590  0.6952
 1658SOL    HW216611   3.550   2.243   0.156 -0.7728  0.6827 -0.1500
 1659SOL     OW16612   3.406   4.390   8.805 -0.2643 -0.1814 -0.2747
 1659SOL    HW116613   3.424   4.297   8.820  1.2567  0.1983  0.3508
 1659SOL    HW216614   3.479   4.437   8.847  1.1808 -1.4837 -1.3244
 1660SOL     OW16615   1.765   0.380  11.765  0.2172  0.4810 -0.4822
 1660SOL    HW116616   1.776   0.475  11.759  1.4277  0.1845 -3.0454
 1660SOL    HW216617   1.705   0.373  11.690  0.7070  1.2192 -0.9465
 1661SOL     OW16618   1.529   4.053   4.120 -0.1921 -0.4707 -0.3424
 1661SOL    HW116619   1.443   4.096   4.124  1.5738  3.1852 -1.5766
 1661SOL    HW216620   1.521   3.965   4.156  0.4163 -0.0601  0.7746
 1662SOL     OW16621   3.527   2.790   7.226  0.1275  0.3804 -0.5166
 1662SOL    HW116622   3.529   2.840   7.307 -0.3202  0.4624 -0.5583
 1662SOL    HW216623   3.620   2.788   7.201  0.2079  2.8796 -0.4138
 1663SOL     OW16624   0.853   1.729   6.939  0.0032  0.3823  0.1309
 1663SOL    HW116625   0.857   1.685   7.024 -1.3652  2.4747  1.3014
 1663SOL    HW216626   0.841   1.649   6.890 -0.4256 -0.0329  0.9189
 1664SOL     OW16627   4.428   2.806   4.974  0.3629 -0.4120 -0.1592
 1664SOL    HW116628   4.365   2.768   4.913  0.6212  0.5293 -0.9978
 1664SOL    HW216629   4.394   2.764   5.053 -0.8771 -0.3412 -0.6495
 1665SOL     OW16630   4.507   1.935   5.825 -0.0083 -0.7626  0.1705
 1665SOL    HW116631   4.505   1.895   5.738  0.2828  0.3685 -0.3532
 1665SOL    HW216632   4.512   2.027   5.799  0.1658 -1.6075 -2.7816
 1666SOL     OW16633   0.323   3.619  13.597 -0.0964  0.4777 -0.3721
 1666SOL    HW116634   0.408   3.655  13.574  0.3898 -1.0368 -0.9769
 1666SOL    HW216635   0.311   3.558  13.524 -0.8539  1.0250 -0.7052
 1667SOL     OW16636   2.260   2.397   7.199  0.1846 -0.4220  0.2166
 1667SOL    HW116637   2.332   2.401   7.262 -1.5066  0.1087  2.1166
 1667SOL    HW216638   2.260   2.302   7.185 -3.1907 -0.5479  1.1360
 1668SOL     OW16639   0.503   1.671   8.291  0.3859  0.0541 -0.5742
 1668SOL    HW116640   0.478   1.720   8.369  0.2112  0.2324 -0.7407
 1668SOL    HW216641   0.470   1.584   8.310 -1.3656  1.0027  0.7382
 1669SOL     OW16642   1.063   3.190  15.557  0.4539 -0.5961 -0.0796
 1669SOL    HW116643   1.069   3.262  15.494 -0.6899 -0.2075  0.2571
 1669SOL    HW216644   0.969   3.179  15.561  0.5221 -1.7281 -1.6428
 1670SOL     OW16645   2.886   3.808   5.883 -0.3498  0.0185 -0.7743
 1670SOL    HW116646   2.842   3.734   5.840 -1.8370  0.6013 -0.2510
 1670SOL    HW216647   2.818   3.872   5.900 -0.5348 -0.0457 -1.2556
 1671SOL     OW16648   0.166   2.377   8.959 -0.0496  0.5713  0.4236
 1671SOL    HW116649   0.157   2.462   8.916  3.4157  1.9046  2.2966
 1671SOL    HW216650   0.253   2.378   9.000  0.0506  1.7587  0.1775
 1672SOL     OW16651   2.444   1.174   5.561 -0.0448  0.6734 -0.0741
 1672SOL    HW116652   2.367   1.184   5.618  1.2537 -0.9782  1.9719
 1672SOL    HW216653   2.520   1.166   5.618 -1.2306 -2.0001  1.1019
 1673SOL     OW16654   2.279   2.391   9.886  0.1384 -0.1902  0.2102
 1673SOL    HW116655   2.268   2.464   9.824  1.1347  1.2539  1.7492
 1673SOL    HW216656   2.372   2.393   9.909  0.1010 -2.5521  0.5609
 1674SOL     OW16657   4.460   1.532   0.703 -0.4786  0.5519  0.2934
 1674SOL    HW116658   4.447   1.447   0.661  4.2527 -0.2529  0.4413
 1674SOL    HW216659   4.508   1.574   0.632  1.2295 -0.7964  0.6642
 1675SOL     OW16660   0.107   3.818  13.119 -0.0182  0.3090 -0.0571
 1675SOL    HW116661   0.125   3.818  13.213 -1.2008 -1.0840  0.1553
 1675SOL    HW216662   0.158   3.739  13.098 -0.6840 -0.1968  0.2293
 1676SOL     OW16663   0.929   2.416  16.269  0.5325  0.1077 -0.0230
 1676SOL    HW116664   0.846   2.461  16.285 -0.6411 -1.7919 -0.7838
 1676SOL    HW216665   0.930   2.380  16.180 -0.0221 -1.2074  0.5011
 1677SOL     OW16666   2.522   3.136   5.249  0.0896  0.0150 -0.2966
 1677SOL    HW116667   2.506   3.042   5.234 -1.2134  0.4414 -1.5551
 1677SOL    HW216668   2.554   3.172   5.167  0.5555  1.1068  0.3595
 1678SOL     OW16669   2.956   2.564   9.489  0.0739 -0.3575 -0.3570
 1678SOL    HW116670   3.023   2.515   9.441  3.1670  1.2854  2.3303
 1678SOL    HW216671   3.020   2.584   9.557 -0.3180  1.0818 -0.4063
 1679SOL     OW16672   2.971   4.728   9.628 -0.5357 -0.0703 -0.3411
 1679SOL    HW116673   2.914   4.701   9.556 -0.1075 -4.0094  0.7971
 1679SOL    HW216674   3.027   0.057   9.589  0.0804 -1.1322 -1.2870
 1680SOL     OW16675   2.483   2.957   5.032  0.2289  0.1387 -0.0119
 1680SOL    HW116676   2.550   3.008   4.987  0.9301 -0.6440  0.1401
 1680SOL    HW216677   2.492   2.874   4.987 -0.6907 -1.3868  2.5911
 1681SOL     OW16678   1.936   1.569   7.608 -0.2305 -0.1570 -0.2549
 1681SOL    HW116679   1.913   1.604   7.521 -0.9974 -2.6579 -1.0734
 1681SOL    HW216680   2.031   1.581   7.607 -0.1467 -0.7633  0.6941
 1682SOL     OW16681   4.567   0.314  10.757 -0.6940  0.4683 -0.0671
 1682SOL    HW116682   4.581   0.292  10.849 -2.0199  0.8277  0.2194
 1682SOL    HW216683   4.478   0.280  10.749 -0.0511 -0.5228 -3.1310
 1683SOL     OW16684   0.349   2.202   3.436 -0.0851  0.0599  0.2252
 1683SOL    HW116685   0.407   2.204   3.360  0.8035  2.0169  0.9517
 1683SOL    HW216686   0.403   2.248   3.500  0.7155 -1.4964  0.6801
 1684SOL     OW16687   0.424   4.212   8.225 -0.1454 -0.4475  0.1093
 1684SOL    HW116688   0.455   4.301   8.207 -0.2773 -0.4514 -0.1338
 1684SOL    HW216689   0.356   4.224   8.291  0.3053 -0.9755  0.6648
 1685SOL     OW16690   2.347   3.817   8.864  0.5428  0.2092  0.0773
 1685SOL    HW116691   2.301   3.880   8.809  0.6028  0.1154 -0.0789
 1685SOL    HW216692   2.313   3.732   8.836 -0.6070 -0.2635  2.8761
 1686SOL     OW16693   0.244   2.106  15.153 -0.7334 -0.0516  0.0518
 1686SOL    HW116694   0.153   2.098  15.123 -0.7599 -0.1667  0.1639
 1686SOL    HW216695   0.243   2.163  15.230 -2.0190  2.8214 -2.0724
 1687SOL     OW16696   0.166   2.168   5.599 -0.1809 -0.3602  0.1992
 1687SOL    HW116697   0.166   2.087   5.548  1.8130 -0.1686 -0.1230
 1687SOL    HW216698   0.214   2.223   5.537  0.3310 -0.6875  0.3036
 1688SOL     OW16699   2.674   4.033   7.789  0.1333 -0.7186 -0.0271
 1688SOL    HW116700   2.586   4.040   7.827  1.0186 -0.1657  1.9240
 1688SOL    HW216701   2.726   4.003   7.863  2.0428 -2.0385 -1.9120
 1689SOL     OW16702   1.624   4.160   5.733  0.3781 -0.3244 -0.2232
 1689SOL    HW116703   1.562   4.221   5.774  2.2387  0.5831  1.2444
 1689SOL    HW216704   1.560   4.110   5.682 -1.8207  0.9381  1.2711
 1690SOL     OW16705   3.750   2.830   7.566 -0.0055 -0.3001 -0.5311
 1690SOL    HW116706   3.689   2.885   7.516 -0.7711 -0.2810  0.4116
 1690SOL    HW216707   3.824   2.889   7.580 -2.1862  2.2297  0.4239
 1691SOL     OW16708   3.921   0.439   4.371 -0.2357 -0.5081 -0.5684
 1691SOL    HW116709   3.937   0.512   4.430  2.8233  0.0200 -2.0672
 1691SOL    HW216710   3.832   0.408   4.387 -0.4661 -0.7685 -2.2748
 1692SOL     OW16711   0.831   3.560   4.010 -0.0961 -0.2604 -0.8313
 1692SOL    HW116712   0.765   3.613   4.053 -0.2908 -0.7222 -0.5586
 1692SOL    HW216713   0.822   3.591   3.920 -1.2249  0.2739 -0.5335
 1693SOL     OW16714   4.263   3.252  11.098  0.7286  0.3324  0.0806
 1693SOL    HW116715   4.223   3.320  11.152  1.0950 -0.6662  1.6213
 1693SOL    HW216716   4.349   3.242  11.140  0.2783 -1.3597  0.5975
 1694SOL     OW16717   1.225   0.089   6.383 -0.1214  0.8166  0.3309
 1694SOL    HW116718   1.139   0.048   6.371 -0.3169  1.5088 -0.5402
 1694SOL    HW216719   1.201   0.177   6.355  0.1738  0.2904 -1.5835
 1695SOL     OW16720   2.564   2.260   9.059 -0.3964 -0.6077 -0.2395
 1695SOL    HW116721   2.507   2.187   9.085 -2.8958  0.7200 -1.9881
 1695SOL    HW216722   2.636   2.243   9.121 -0.0884 -0.1288 -0.4707
 1696SOL     OW16723   2.490   1.949   2.526 -0.6857 -0.1521 -0.0161
 1696SOL    HW116724   2.525   1.861   2.511 -1.1692 -0.1920 -0.9285
 1696SOL    HW216725   2.475   1.937   2.619  4.0870 -2.9336  0.3925
 1697SOL     OW16726   2.892   1.706   8.831 -0.0859 -0.3539 -0.3523
 1697SOL    HW116727   2.895   1.722   8.926 -0.6300  1.8022 -0.7159
 1697SOL    HW216728   2.834   1.775   8.801  0.6575  1.1358  1.6500
 1698SOL     OW16729   4.703   0.273   0.068 -0.5225 -0.5104  0.0802
 1698SOL    HW116730   0.004   0.354   0.037 -0.4986 -0.8760 -0.8605
 1698SOL    HW216731   4.658   0.307   0.145 -2.3302  2.2321 -2.1872
 1699SOL     OW16732   0.538   0.964   5.295 -0.2555  0.4215 -0.0620
 1699SOL    HW116733   0.522   1.045   5.247  2.4677  0.0319 -1.6340
 1699SOL    HW216734   0.538   0.895   5.229 -0.8001 -0.0614  0.4495
 1700SOL     OW16735   3.862   3.869   2.518  0.1612 -0.5874 -0.2033
 1700SOL    HW116736   3.832   3.891   2.606  0.0832 -0.9629 -0.1336
 1700SOL    HW216737   3.927   3.936   2.498 -1.1878 -0.2327 -3.3261
 1701SOL     OW16738   1.921   3.892   8.093 -0.0564  0.3463 -0.5969
 1701SOL    HW116739   1.976   3.890   8.172 -0.6446 -1.8893 -0.2446
 1701SOL    HW216740   1.956   3.820   8.041 -4.0881 -2.8354  1.0681
 1702SOL     OW16741   3.192   2.881   1.155 -0.1476 -0.3901  0.2678
 1702SOL    HW116742   3.148   2.796   1.164 -1.0585 -0.0826 -1.3723
 1702SOL    HW216743   3.284   2.857   1.162 -0.5171 -0.9394  3.3249
 1703SOL     OW16744   0.186   3.455   2.378 -0.1804  0.0935  0.2155
 1703SOL    HW116745   0.263   3.414   2.418  1.3455  0.8081 -1.9546
 1703SOL    HW216746   0.116   3.392   2.394  0.4304 -0.6466 -0.0218
 1704SOL     OW16747   0.085   4.400   3.498 -0.2131  0.4401 -0.6706
 1704SOL    HW116748   0.074   4.481   3.548 -0.6138 -2.4028  3.8597
 1704SOL    HW216749   0.029   4.415   3.422 -0.2647  1.4661 -0.4293
 1705SOL     OW16750   1.194   4.710   6.789 -0.1554 -0.0496  0.7689
 1705SOL    HW116751   1.140   0.049   6.806 -1.7930 -1.0883  0.3448
 1705SOL    HW216752   1.132   4.641   6.812 -1.2897  1.4146  2.0829
 1706SOL     OW16753   1.480   2.085   1.902 -0.2146 -0.2606  0.1150
 1706SOL    HW116754   1.411   2.093   1.968  0.3437  0.8880  0.5625
 1706SOL    HW216755   1.484   1.992   1.879 -0.0661  0.0463 -1.0898
 1707SOL     OW16756   2.894   4.283  11.494 -0.1815  0.2747  0.0393
 1707SOL    HW116757   2.822   4.221  11.504  0.9920 -1.1608 -0.4267
 1707SOL    HW216758   2.844   4.363  11.510  3.2231  1.9958  2.1755
 1708SOL     OW16759   2.545   4.602  17.450 -0.3243  0.0168  0.1791
 1708SOL    HW116760   2.453   4.622  17.465  0.1747  1.5680  1.1356
 1708SOL    HW216761   2.542   4.515  17.409 -0.0643  0.3201 -0.4777
 1709SOL     OW16762   3.637   2.622  17.640  0.1536 -0.2230  0.1371
 1709SOL    HW116763   3.616   2.594  17.551 -0.4786  1.4564 -0.2439
 1709SOL    HW216764   3.557   2.668  17.665 -0.5599 -1.6969  0.6004
 1710SOL     OW16765   2.383   3.412  11.920  0.1674  0.9976  0.2189
 1710SOL    HW116766   2.403   3.410  12.014 -1.1433  2.5341  0.5314
 1710SOL    HW216767   2.289   3.394  11.921  0.5064 -1.0266 -2.2832
 1711SOL     OW16768   3.589   1.508   6.269 -0.7212  0.3977  0.2850
 1711SOL    HW116769   3.675   1.488   6.304 -0.8350  0.7343  0.7552
 1711SOL    HW216770   3.604   1.598   6.240  1.6020 -0.0504  0.1269
 1712SOL     OW16771   3.271   2.461  11.112  0.1364 -0.3028  0.0283
 1712SOL    HW116772   3.340   2.438  11.174  1.3646  0.8871 -0.9045
 1712SOL    HW216773   3.263   2.381  11.060 -2.5938 -0.1459  0.1911
 1713SOL     OW16774   3.342   1.266   2.198  0.0673  0.1621  0.1314
 1713SOL    HW116775   3.416   1.277   2.257  0.5840 -1.3320 -0.2234
 1713SOL    HW216776   3.276   1.329   2.228 -0.0810  0.0143  0.1225
 1714SOL     OW16777   3.869   1.585   2.486  0.1122 -0.3495  0.3488
 1714SOL    HW116778   3.869   1.658   2.548 -3.0048 -0.4706  0.4704
 1714SOL    HW216779   3.959   1.551   2.488  0.2487  0.1466  1.9615
 1715SOL     OW16780   0.228   4.033   0.833 -0.5684  0.3171  0.1154
 1715SOL    HW116781   0.263   3.946   0.817  1.4956  1.2786 -0.4963
 1715SOL    HW216782   0.142   4.010   0.798  0.0651  0.1124 -1.2732
 1716SOL     OW16783   1.444   2.097   1.590 -0.4994  0.4788 -0.0158
 1716SOL    HW116784   1.392   2.054   1.657  0.6708  0.1915  0.7178
 1716SOL    HW216785   1.491   2.164   1.641  1.3687 -2.0455  1.5886
 1717SOL     OW16786   2.513   4.278   3.025  1.1756  0.6624  0.1312
 1717SOL    HW116787   2.456   4.295   2.950 -0.9829 -0.3345  1.5586
 1717SOL    HW216788   2.459   4.225   3.083 -2.5279  1.0408 -2.9784
 1718SOL     OW16789   2.214   2.842  13.312 -0.2956  0.1051  0.1800
 1718SOL    HW116790   2.308   2.859  13.311 -0.7388  2.5035  0.0085
 1718SOL    HW216791   2.214   2.821  13.405 -1.5652  0.5028  0.2733
 1719SOL     OW16792   0.316   1.362  10.129  0.3133  0.3785 -0.0371
 1719SOL    HW116793   0.353   1.273  10.126  0.6799  0.5576 -1.0279
 1719SOL    HW216794   0.355   1.399  10.050  1.2309 -1.1411 -0.3097
 1720SOL     OW16795   4.311   2.678   5.208  0.1260  0.0517  0.2429
 1720SOL    HW116796   4.355   2.741   5.265 -0.3400 -1.0063  1.7775
 1720SOL    HW216797   4.267   2.617   5.267 -0.1915 -1.8097 -1.9109
 1721SOL     OW16798   0.222   3.869   0.497  0.6980 -0.4121  0.5595
 1721SOL    HW116799   0.185   3.949   0.534  1.4951 -0.9153  2.4396
 1721SOL    HW216800   0.270   3.825   0.567  1.9439  1.7116  1.0387
 1722SOL     OW16801   1.112   3.791  15.285 -0.5494 -0.0066 -0.4062
 1722SOL    HW116802   1.028   3.833  15.302 -0.3049  0.5070 -0.4547
 1722SOL    HW216803   1.104   3.747  15.200 -0.5504 -2.0533  0.6641
 1723SOL     OW16804   0.570   2.739   9.131  0.6272 -0.1798  0.9691
 1723SOL    HW116805   0.530   2.652   9.130  2.3789 -0.9451 -1.6770
 1723SOL    HW216806   0.623   2.724   9.053 -0.2632  2.6294 -0.1749
 1724SOL     OW16807   0.563   3.132   7.871  0.2047 -0.3572  0.1618
 1724SOL    HW116808   0.499   3.120   7.801 -0.6570  0.4547  0.8062
 1724SOL    HW216809   0.630   3.076   7.832 -0.7185 -0.0100 -1.9011
 1725SOL     OW16810   1.565   1.673   8.029  0.0234 -0.6448 -0.2583
 1725SOL    HW116811   1.618   1.674   8.109 -2.3560 -0.4552  1.3274
 1725SOL    HW216812   1.600   1.592   7.993  0.1893 -1.0841  0.8941
 1726SOL     OW16813   3.840   1.576   0.101 -0.5082 -0.0063 -0.2987
 1726SOL    HW116814   3.788   1.498   0.119  1.3967 -0.5443  2.8406
 1726SOL    HW216815   3.913   1.544   0.049  0.4341  0.5813  0.6530
 1727SOL     OW16816   4.317   3.816   5.048  0.3472 -0.5010  0.4144
 1727SOL    HW116817   4.241   3.838   4.995 -1.3624 -2.6091  1.9775
 1727SOL    HW216818   4.359   3.902   5.047 -0.4165 -0.1642 -1.1791
 1728SOL     OW16819   4.362   1.850  15.196 -0.0012  0.2975  0.3356
 1728SOL    HW116820   4.283   1.875  15.242 -0.3824 -1.3981  0.5946
 1728SOL    HW216821   4.326   1.763  15.181 -2.0790  1.2268  0.0211
 1729SOL     OW16822   1.941   3.292   4.465 -0.5045  0.1082 -0.9169
 1729SOL    HW116823   1.849   3.315   4.450 -1.2208 -1.6293  0.8648
 1729SOL    HW216824   1.981   3.378   4.476  0.5982 -0.6719  1.1781
 1730SOL     OW16825   2.990   2.540  13.604  0.0651 -0.5963 -0.1125
 1730SOL    HW116826   3.045   2.553  13.527 -0.2321  2.3432  0.2031
 1730SOL    HW216827   2.942   2.458  13.589 -1.0279  0.2000 -1.0047
 1731SOL     OW16828   0.984   3.295   4.722  0.6511 -0.0028  0.1970
 1731SOL    HW116829   0.965   3.209   4.760 -0.7383  1.1366  2.1075
 1731SOL    HW216830   0.898   3.333   4.740 -0.3242 -2.0704 -0.0944
 1732SOL     OW16831   4.249   0.926   6.011 -0.2532 -0.0361  0.0013
 1732SOL    HW116832   4.279   0.887   5.929 -0.1884 -0.0018  0.0090
 1732SOL    HW216833   4.154   0.933   6.002 -0.2510  0.4071  0.3297
 1733SOL     OW16834   1.938   1.393   5.998  0.0166  0.2953  0.4318
 1733SOL    HW116835   1.963   1.301   6.005 -0.6901  0.0458 -0.3541
 1733SOL    HW216836   1.852   1.388   5.955  0.5914 -0.8875 -0.5781
 1734SOL     OW16837   0.630   3.908   8.932 -0.1791  0.4734 -0.8028
 1734SOL    HW116838   0.719   3.939   8.953  0.3416 -1.6151 -0.0099
 1734SOL    HW216839   0.619   3.835   8.992  0.9119  0.7727 -0.2277
 1735SOL     OW16840   1.118   1.567   0.437 -0.2493 -0.0392 -0.7178
 1735SOL    HW116841   1.210   1.582   0.459 -0.7760 -1.1156  2.1989
 1735SOL    HW216842   1.108   1.626   0.362 -2.0680  1.2186  0.5097
 1736SOL     OW16843   1.561   3.793   2.826  0.4114  0.1700  0.3801
 1736SOL    HW116844   1.575   3.732   2.754  0.2938  1.1158 -0.4500
 1736SOL    HW216845   1.558   3.737   2.903 -1.1534 -0.5464 -0.2032
 1737SOL     OW16846   1.119   1.063   6.657  0.3180  0.3959  0.1555
 1737SOL    HW116847   1.193   1.051   6.597 -1.5979 -4.6340 -1.1888
 1737SOL    HW216848   1.163   1.123   6.717 -0.7620  1.7553 -0.4165
 1738SOL     OW16849   2.542   3.433   4.432  0.1559 -0.5910  0.5035
 1738SOL    HW116850   2.494   3.465   4.509 -0.8039  0.7775 -0.6632
 1738SOL    HW216851   2.628   3.409   4.466 -0.3883 -1.1367  1.4935
 1739SOL     OW16852   1.903   1.871   3.385 -0.2019  1.0056 -0.1620
 1739SOL    HW116853   1.842   1.887   3.457 -1.1729 -0.9141 -0.5625
 1739SOL    HW216854   1.874   1.782   3.365 -1.2374  0.9175  1.7411
 1740SOL     OW16855   1.168   3.891   8.138  0.0636  0.6513  0.2183
 1740SOL    HW116856   1.114   3.813   8.146  0.8610  0.2380  1.4962
 1740SOL    HW216857   1.134   3.950   8.205  1.8809  0.1900  1.5653
 1741SOL     OW16858   2.990   1.496   7.056 -0.0636 -0.3558 -0.2594
 1741SOL    HW116859   2.987   1.473   6.963  0.7732  1.1034 -0.6541
 1741SOL    HW216860   2.968   1.412   7.097  0.9192  0.0012  1.0061
 1742SOL     OW16861   2.712   1.797   4.346  0.3624  0.3447  0.0557
 1742SOL    HW116862   2.718   1.888   4.316  0.6677 -0.7216 -3.0616
 1742SOL    HW216863   2.686   1.809   4.437  0.5847 -0.6127  0.2437
 1743SOL     OW16864   0.104   0.187   2.379  0.2308  0.3209 -0.3899
 1743SOL    HW116865   0.184   0.152   2.341 -1.4179 -1.5612 -2.1579
 1743SOL    HW216866   0.031   0.137   2.341  1.0050 -1.5572  0.6272
 1744SOL     OW16867   4.490   0.656  14.027 -0.2897  0.7140 -0.0410
 1744SOL    HW116868   4.412   0.640  14.080 -1.5050 -0.3141 -2.1802
 1744SOL    HW216869   4.453   0.691  13.946 -0.1720  0.8985 -0.0154
 1745SOL     OW16870   3.919   1.779   7.381 -0.0387  0.5521 -0.3034
 1745SOL    HW116871   3.907   1.764   7.288 -2.4550  2.7149 -0.3360
 1745SOL    HW216872   3.839   1.742   7.417 -0.7439  1.9961 -0.4002
 1746SOL     OW16873   4.399   1.649   3.795  0.3670 -0.0497  0.2107
 1746SOL    HW116874   4.355   1.565   3.788 -0.2154  0.2611  0.1591
 1746SOL    HW216875   4.429   1.643   3.886 -0.4856 -0.5431  0.4609
 1747SOL     OW16876   0.360   4.672  10.120 -0.0302  0.2100  0.3021
 1747SOL    HW116877   0.373   4.602  10.184  1.1382  0.6477  0.5429
 1747SOL    HW216878   0.282   4.721  10.146 -0.0107  0.1814  0.4114
 1748SOL     OW16879   2.559   1.629  16.193  0.2469 -0.0768  1.0321
 1748SOL    HW116880   2.533   1.718  16.170  0.7065  0.2838  1.9446
 1748SOL    HW216881   2.479   1.589  16.228  0.4636 -0.7871  0.7219
 1749SOL     OW16882   2.273   1.961   8.709 -0.5172 -0.8028 -0.0749
 1749SOL    HW116883   2.210   1.959   8.782 -2.2892  1.0000 -1.5516
 1749SOL    HW216884   2.223   1.997   8.636 -1.8285 -1.9238  0.2826
 1750SOL     OW16885   0.943   1.489   5.746 -0.4258 -0.3576  0.1197
 1750SOL    HW116886   0.954   1.416   5.807 -0.8968 -0.7024 -0.2012
 1750SOL    HW216887   0.848   1.498   5.751 -0.3883  0.0300  0.1160
 1751SOL     OW16888   0.774   3.358   2.822  0.4051 -0.0620 -0.4294
 1751SOL    HW116889   0.789   3.452   2.822  2.6214 -0.4133  1.6476
 1751SOL    HW216890   0.693   3.340   2.870 -0.4323  1.9438 -1.0809
 1752SOL     OW16891   3.570   4.490  10.395  0.3667  0.2548 -0.0394
 1752SOL    HW116892   3.534   4.514  10.309  2.1899  1.3472 -0.5020
 1752SOL    HW216893   3.512   4.536  10.455  1.8235  2.1959 -0.0969
 1753SOL     OW16894   3.211   2.201  17.622 -0.7062  0.1463  0.5540
 1753SOL    HW116895   3.241   2.115  17.651  0.3340 -0.0680 -1.1443
 1753SOL    HW216896   3.131   2.199  17.675 -1.8646  0.3792 -1.1468
 1754SOL     OW16897   0.189   4.183   9.175 -0.4501 -1.3577  0.1632
 1754SOL    HW116898   0.247   4.134   9.117 -0.2175  1.0301 -1.6067
 1754SOL    HW216899   0.129   4.215   9.107 -0.2650  0.8512  1.0485
 1755SOL     OW16900   0.393   0.531  16.568 -0.1430 -0.0323  0.0205
 1755SOL    HW116901   0.423   0.620  16.552  2.7724 -1.2190 -1.1805
 1755SOL    HW216902   0.324   0.527  16.502  1.4509 -0.7255 -1.5899
 1756SOL     OW16903   0.922   1.747  15.964 -0.3926 -0.4737  0.3395
 1756SOL    HW116904   0.909   1.692  16.041  2.6042 -0.7621  0.6544
 1756SOL    HW216905   0.954   1.824  16.010 -1.5599  0.2930 -0.1338
 1757SOL     OW16906   2.184   0.127   7.411 -0.4155 -0.1220  0.1661
 1757SOL    HW116907   2.140   0.181   7.346  0.6700  1.6408  0.9102
 1757SOL    HW216908   2.145   0.142   7.498  0.7756  0.9193  0.5113
 1758SOL     OW16909   1.707   4.051  17.582  0.0879  0.4850 -0.4477
 1758SOL    HW116910   1.620   4.016  17.562  0.1707  0.0878 -0.1069
 1758SOL    HW216911   1.708   4.054  17.678 -1.8574 -0.1118 -0.4126
 1759SOL     OW16912   2.732   1.746   7.273 -0.3043 -0.5478  0.1672
 1759SOL    HW116913   2.778   1.822   7.308 -2.3834  1.0343 -0.5346
 1759SOL    HW216914   2.646   1.780   7.300  1.6104  5.1977 -1.1277
 1760SOL     OW16915   1.565   0.582   2.395  0.4628 -0.4554  0.6897
 1760SOL    HW116916   1.631   0.651   2.382 -0.9528  1.4113  3.4542
 1760SOL    HW216917   1.601   0.508   2.346  1.3228  0.1361  0.4256
 1761SOL     OW16918   1.089   0.746   5.969 -0.2670 -0.0724 -0.7011
 1761SOL    HW116919   1.061   0.661   5.936 -0.4393 -1.2051  2.4087
 1761SOL    HW216920   1.057   0.746   6.059  0.1631 -0.2897 -0.5487
 1762SOL     OW16921   0.189   4.565   6.674  0.0966  0.1643 -0.0254
 1762SOL    HW116922   0.214   4.576   6.766 -0.3821 -0.9853  0.2327
 1762SOL    HW216923   0.206   4.655   6.644  0.3754 -0.2372 -1.0672
 1763SOL     OW16924   4.462   3.982  12.285 -0.1341  0.0237 -0.0411
 1763SOL    HW116925   4.468   3.904  12.339  1.3604  0.2568  0.1126
 1763SOL    HW216926   4.407   3.953  12.211  0.4262  0.0538 -0.4687
 1764SOL     OW16927   4.439   4.128   3.774  0.2085 -0.4847  0.1007
 1764SOL    HW116928   4.385   4.148   3.697  1.4892 -2.7607 -1.3827
 1764SOL    HW216929   4.520   4.175   3.752 -0.8840  0.3863 -2.0983
 1765SOL     OW16930   1.388   1.276   3.844  0.1120  0.4428 -0.0577
 1765SOL    HW116931   1.444   1.216   3.794  1.4013 -0.2276  2.1773
 1765SOL    HW216932   1.342   1.304   3.765 -1.7322 -0.2943  0.7568
 1766SOL     OW16933   1.217   2.763  11.784  0.0573  0.1333  0.8006
 1766SOL    HW116934   1.144   2.802  11.737  1.0840  0.3016 -0.6694
 1766SOL    HW216935   1.267   2.716  11.717 -1.0669  1.2869 -0.8279
 1767SOL     OW16936   3.211   4.189   3.224  0.6193  0.1189  0.4102
 1767SOL    HW116937   3.263   4.237   3.289  2.1930 -2.2515  0.8787
 1767SOL    HW216938   3.150   4.253   3.185 -1.1813 -1.8053  0.1013
 1768SOL     OW16939   0.832   3.831   7.373 -0.0781 -0.5534 -0.3879
 1768SOL    HW116940   0.881   3.894   7.425 -1.1306  0.2441 -0.3583
 1768SOL    HW216941   0.854   3.859   7.284  1.9013 -0.1800  0.2164
 1769SOL     OW16942   1.965   3.382   8.680  0.5120 -0.0098 -0.1334
 1769SOL    HW116943   1.967   3.477   8.674 -0.3668  0.1178  1.5023
 1769SOL    HW216944   1.964   3.358   8.588  3.1473  0.2509 -0.2481
 1770SOL     OW16945   0.663   4.344   8.904  0.0597  0.4944 -0.3684
 1770SOL    HW116946   0.672   4.284   8.830 -2.6456  1.1377 -1.2313
 1770SOL    HW216947   0.577   4.315   8.935  0.8289 -2.4184 -0.9615
 1771SOL     OW16948   2.341   0.899   4.194  0.3052 -0.4452  0.4818
 1771SOL    HW116949   2.296   0.817   4.216  0.6759 -0.5546  0.8388
 1771SOL    HW216950   2.312   0.916   4.105  2.9702 -1.1147 -0.5081
 1772SOL     OW16951   1.391   1.417   2.370  0.6789 -0.1329  0.3568
 1772SOL    HW116952   1.405   1.495   2.317 -1.1303  0.5620  0.8899
 1772SOL    HW216953   1.475   1.371   2.371  0.7634 -0.0277 -1.6646
 1773SOL     OW16954   2.720   3.992   1.445  0.9469  0.2193 -0.1952
 1773SOL    HW116955   2.729   4.013   1.538  1.0987 -1.9182  0.2712
 1773SOL    HW216956   2.718   4.084   1.416 -1.4424  0.7214  1.5437
 1774SOL     OW16957   0.970   1.132   4.879 -0.2182  0.0897  0.2838
 1774SOL    HW116958   0.943   1.189   4.950 -2.3096  0.4736 -0.8267
 1774SOL    HW216959   1.050   1.179   4.855 -0.5191 -0.2676 -1.4367
 1775SOL     OW16960   1.128   3.383   2.429  0.0374  0.3680 -0.4220
 1775SOL    HW116961   1.086   3.467   2.444  0.4333  0.6685 -1.0081
 1775SOL    HW216962   1.078   3.318   2.478  0.1974 -1.3705 -2.5433
 1776SOL     OW16963   3.203   2.862   5.370 -0.3030 -0.1557  0.2142
 1776SOL    HW116964   3.253   2.830   5.295  0.3623 -1.3880  1.1806
 1776SOL    HW216965   3.265   2.855   5.443 -3.5499  0.1658  3.0129
 1777SOL     OW16966   3.771   1.669   6.442 -0.7536  0.2318 -0.1749
 1777SOL    HW116967   3.685   1.669   6.484 -0.7654 -0.2129 -0.1970
 1777SOL    HW216968   3.819   1.616   6.506 -1.1421  2.1326  1.7031
 1778SOL     OW16969   2.144   0.424  11.462  0.0927 -0.0256 -0.5263
 1778SOL    HW116970   2.068   0.376  11.429  1.9538 -3.6117  0.2948
 1778SOL    HW216971   2.213   0.402  11.399 -1.6105 -2.0955 -1.6971
 1779SOL     OW16972   0.019   4.433  16.675 -0.4217 -0.3729 -0.0671
 1779SOL    HW116973   0.071   4.512  16.657  1.3767 -0.9743  2.4818
 1779SOL    HW216974   0.076   4.369  16.633 -0.1987  0.7820 -1.5443
 1780SOL     OW16975   4.579   0.827   5.232 -0.5165  0.7266  0.4961
 1780SOL    HW116976   4.663   0.832   5.186  0.7780 -1.9834  2.5629
 1780SOL    HW216977   4.587   0.908   5.283  1.1883 -0.3572  1.9561
 1781SOL     OW16978   2.792   4.383  17.491 -0.0176 -0.0017 -0.2573
 1781SOL    HW116979   2.724   4.365  17.426  0.6630 -0.5359 -0.8168
 1781SOL    HW216980   2.814   4.292  17.507 -2.1476  0.0283  2.7910
 1782SOL     OW16981   3.615   3.929   5.493 -0.1181  0.2459  0.3442
 1782SOL    HW116982   3.591   3.888   5.576 -1.3440 -1.0572 -0.6514
 1782SOL    HW216983   3.601   4.019   5.520  2.1676  1.1864 -1.6436
 1783SOL     OW16984   1.647   1.701   8.584 -0.4066  0.1968 -0.4260
 1783SOL    HW116985   1.662   1.713   8.490 -0.0519 -0.1698 -0.4144
 1783SOL    HW216986   1.687   1.776   8.627 -1.3359  0.3696  0.1555
 1784SOL     OW16987   0.396   0.169  16.681 -0.1794  0.3597 -0.4110
 1784SOL    HW116988   0.456   0.212  16.620 -0.6275 -0.2358 -1.2843
 1784SOL    HW216989   0.361   0.097  16.627  1.6221 -1.3543  0.7104
 1785SOL     OW16990   2.213   2.492   7.558  0.9826 -0.6800  0.4156
 1785SOL    HW116991   2.273   2.418   7.572 -0.9105 -2.7155 -2.2078
 1785SOL    HW216992   2.133   2.441   7.555 -1.1928  2.7291  0.8468
 1786SOL     OW16993   1.124   4.665   3.097 -0.2385 -0.5154  0.5489
 1786SOL    HW116994   1.147   4.574   3.113  2.2790  0.1897  0.8907
 1786SOL    HW216995   1.214   4.697   3.095 -0.1503 -0.7604  0.6066
 1787SOL     OW16996   0.517   2.777   8.220  0.2291 -0.3787  0.0289
 1787SOL    HW116997   0.458   2.807   8.152 -0.7710 -0.2241  0.9607
 1787SOL    HW216998   0.511   2.858   8.271  1.0699 -1.4356  1.7975
 1788SOL     OW16999   0.622   2.157   4.265  0.1775  0.7842  0.3533
 1788SOL    HW117000   0.704   2.165   4.314 -0.6776  1.2325  1.7227
 1788SOL    HW217001   0.589   2.245   4.286  0.8943  0.6786  1.9183
 1789SOL     OW17002   0.747   0.248   5.823  0.4874  0.2278  0.4848
 1789SOL    HW117003   0.765   0.167   5.869 -1.6401  0.7491  2.2288
 1789SOL    HW217004   0.773   0.230   5.732  2.0147 -1.5414  1.2817
 1790SOL     OW17005   0.183   4.246  14.698 -0.2748 -0.2122 -0.1868
 1790SOL    HW117006   0.159   4.290  14.780  0.1911 -3.4148  1.7032
 1790SOL    HW217007   0.098   4.264  14.658  0.2256  1.5417 -0.4493
 1791SOL     OW17008   2.187   3.815   1.836 -0.1383 -0.1167  0.4271
 1791SOL    HW117009   2.096   3.806   1.864 -0.4463  0.1789 -0.4909
 1791SOL    HW217010   2.227   3.736   1.874  0.2437  0.8720  2.0813
 1792SOL     OW17011   0.536   4.067   8.028  0.5427 -0.6910 -0.1458
 1792SOL    HW117012   0.477   4.117   8.084 -1.2981 -1.0997 -1.7334
 1792SOL    HW217013   0.621   4.086   8.067 -0.1349 -0.9236  1.4263
 1793SOL     OW17014   0.479   4.015  10.964 -0.0855 -0.0333 -0.2267
 1793SOL    HW117015   0.441   4.020  11.051  2.1013  1.2496  0.6689
 1793SOL    HW217016   0.556   3.960  10.980 -0.0150 -0.1809 -1.0561
 1794SOL     OW17017   3.315   2.073  16.892  0.2503 -0.1076  0.0930
 1794SOL    HW117018   3.310   1.994  16.947  2.0591 -0.1020  0.2781
 1794SOL    HW217019   3.224   2.084  16.866  0.9094  0.6056 -1.9523
 1795SOL     OW17020   3.478   1.477   0.273  0.0217  0.1432  0.1133
 1795SOL    HW117021   3.474   1.466   0.368  1.7947  0.8799  0.2859
 1795SOL    HW217022   3.408   1.418   0.248  0.1116 -0.3243  0.9517
 1796SOL     OW17023   0.074   2.298   7.617 -0.3488  0.0899 -0.1634
 1796SOL    HW117024   4.731   2.303   7.666  1.1502  3.8053  1.9961
 1796SOL    HW217025   0.120   2.240   7.677 -1.7810 -0.2924  0.5665
 1797SOL     OW17026   0.602   0.917   9.146 -0.0197 -0.1168  0.3963
 1797SOL    HW117027   0.612   0.982   9.077  1.2434  1.0475  1.6644
 1797SOL    HW217028   0.577   0.852   9.081  0.7960  1.6328 -1.6494
 1798SOL     OW17029   0.243   4.413   5.405 -0.6515  0.1209 -0.8539
 1798SOL    HW117030   0.216   4.359   5.331  1.3567 -3.4849  1.0201
 1798SOL    HW217031   0.303   4.470   5.357  0.3818 -1.5852 -1.5964
 1799SOL     OW17032   3.621   1.914   3.767 -0.2890  0.2643 -0.4734
 1799SOL    HW117033   3.676   1.976   3.815 -0.2253  0.1414 -0.3880
 1799SOL    HW217034   3.635   1.828   3.806 -0.3418  0.2188 -0.5545
 1800SOL     OW17035   2.221   3.278  11.444  0.5479  0.1058  0.7288
 1800SOL    HW117036   2.278   3.215  11.488  0.4328 -0.0044  0.7204
 1800SOL    HW217037   2.233   3.359  11.494 -1.3170  0.7251  0.1758
 1801SOL     OW17038   1.932   0.102   3.034 -0.4986 -0.3114 -0.2195
 1801SOL    HW117039   1.998   0.047   2.992 -1.3476  0.4179 -2.5291
 1801SOL    HW217040   1.894   0.150   2.960  1.4939 -0.3313 -1.2483
 1802SOL     OW17041   3.845   4.602   4.013  0.5046 -0.0998 -0.2170
 1802SOL    HW117042   3.896   4.632   4.089 -1.1207  0.1968  0.7726
 1802SOL    HW217043   3.789   4.545   4.067  0.0149  0.8810  0.3188
 1803SOL     OW17044   3.184   1.262  10.633 -0.1290 -0.1537  0.1162
 1803SOL    HW117045   3.175   1.354  10.660  0.4655 -0.7437  2.3150
 1803SOL    HW217046   3.108   1.243  10.578 -1.2835  1.8504  1.0278
 1804SOL     OW17047   1.779   0.975  10.928  0.1074  0.0968  0.2311
 1804SOL    HW117048   1.757   1.066  10.949 -3.1742 -0.3707 -1.1349
 1804SOL    HW217049   1.860   0.952  10.974  1.4626 -1.0703 -2.7148
 1805SOL     OW17050   0.587   1.471   7.949 -0.2049 -0.0419  0.6092
 1805SOL    HW117051   0.549   1.406   8.008  0.4420 -2.4091 -1.5808
 1805SOL    HW217052   0.678   1.470   7.980  0.5850 -1.4855 -1.7726
 1806SOL     OW17053   3.981   2.903   4.262 -0.8453  0.2330  0.3466
 1806SOL    HW117054   3.964   2.943   4.177 -0.2942  0.5801  0.3978
 1806SOL    HW217055   3.897   2.860   4.278  0.1460 -1.8374  0.0308
 1807SOL     OW17056   2.408   0.003   9.879  0.2481  0.2242 -0.0730
 1807SOL    HW117057   2.382   0.094   9.868  0.5405  0.7045  3.0389
 1807SOL    HW217058   2.402   0.003   9.975  1.7186  0.3716  0.0161
 1808SOL     OW17059   3.452   1.731   9.585  0.1042  0.5204  0.2249
 1808SOL    HW117060   3.483   1.780   9.662  1.1280 -0.4411  0.4284
 1808SOL    HW217061   3.524   1.670   9.567 -1.8434 -1.5843 -0.4525
 1809SOL     OW17062   1.279   0.041   3.667 -1.0174 -0.6403 -0.1619
 1809SOL    HW117063   1.301   4.728   3.590 -1.6976 -3.1042  1.2922
 1809SOL    HW217064   1.310   0.126   3.636 -1.1435 -0.3484  0.5087
 1810SOL     OW17065   4.630   2.924  16.054 -0.6617 -0.7414 -0.5331
 1810SOL    HW117066   4.671   2.846  16.018 -1.2208 -0.2968 -2.1274
 1810SOL    HW217067   4.538   2.913  16.030 -1.0180  2.6422 -0.6654
 1811SOL     OW17068   2.506   3.831   9.920 -0.7561  0.2692 -0.1552
 1811SOL    HW117069   2.573   3.769   9.949 -1.4209  0.0292  0.8738
 1811SOL    HW217070   2.426   3.786   9.946 -1.7254  2.2450  0.2517
 1812SOL     OW17071   4.074   2.177   1.128  0.3678 -0.2016  0.1306
 1812SOL    HW117072   4.159   2.214   1.105  0.7177 -0.7259  0.5913
 1812SOL    HW217073   4.012   2.232   1.079  2.3255 -0.3192 -2.4218
 1813SOL     OW17074   4.522   3.882   8.032 -0.0007 -0.5299  0.0859
 1813SOL    HW117075   4.437   3.897   7.990  0.1236  0.2835  0.1259
 1813SOL    HW217076   4.561   3.828   7.963  0.7788 -1.2801  1.1069
 1814SOL     OW17077   2.865   4.517   3.563 -0.0029 -0.6328 -0.2963
 1814SOL    HW117078   2.919   4.581   3.517  0.6575  1.1633  3.0279
 1814SOL    HW217079   2.845   4.557   3.648  2.3047 -0.4148  0.1339
 1815SOL     OW17080   0.018   4.114   0.423 -0.1011  0.1920  0.1851
 1815SOL    HW117081   4.669   4.146   0.404 -0.3048 -1.6763 -1.9885
 1815SOL    HW217082   0.029   4.050   0.353  1.1136 -1.9107  2.2826
 1816SOL     OW17083   1.163   0.681  14.008  0.3852  0.2740  0.1219
 1816SOL    HW117084   1.069   0.664  14.015  0.0858  1.2618 -1.5180
 1816SOL    HW217085   1.157   0.719  13.920  1.7950 -1.5603 -0.7531
 1817SOL     OW17086   3.259   1.304   0.186  0.1911  0.0596 -0.3490
 1817SOL    HW117087   3.179   1.352   0.166 -0.1844  0.2304  1.5564
 1817SOL    HW217088   3.262   1.236   0.119 -0.3917  2.3475 -2.6868
 1818SOL     OW17089   1.219   3.868   9.158  0.1413  0.8699 -0.2187
 1818SOL    HW117090   1.261   3.930   9.099 -0.9294  1.0826 -0.7521
 1818SOL    HW217091   1.167   3.928   9.212 -1.8795 -0.3240 -0.8338
 1819SOL     OW17092   2.645   1.355  16.242 -0.2575  0.6846  0.0334
 1819SOL    HW117093   2.604   1.440  16.228  1.9049  1.7909  0.2971
 1819SOL    HW217094   2.722   1.377  16.296  0.1025 -0.1502 -0.1430
 1820SOL     OW17095   1.339   1.263   4.142  0.2795 -0.0576 -0.0053
 1820SOL    HW117096   1.346   1.259   4.047  2.5620 -0.5874  0.1912
 1820SOL    HW217097   1.430   1.245   4.165  1.1877  1.9420 -2.0416
 1821SOL     OW17098   3.370   0.374  17.304 -0.6371 -0.5014  0.1327
 1821SOL    HW117099   3.428   0.387  17.229 -1.4085 -0.7792 -0.5147
 1821SOL    HW217100   3.343   0.282  17.304 -1.4018 -0.2782 -1.4630
 1822SOL     OW17101   0.204   3.570  13.100  0.2629  0.3045  0.2396
 1822SOL    HW117102   0.117   3.531  13.094  0.1588  0.8584 -2.0795
 1822SOL    HW217103   0.254   3.538  13.024  2.4418  0.8170  1.4601
 1823SOL     OW17104   3.741   3.001  17.647  0.0709 -0.3047  0.1147
 1823SOL    HW117105   3.774   3.077  17.695  0.1743 -0.5172  0.3780
 1823SOL    HW217106   3.653   2.997  17.685  0.5344 -1.3636  1.0634
 1824SOL     OW17107   0.085   3.825  13.392 -0.3758 -0.6311 -0.1422
 1824SOL    HW117108   0.097   3.814  13.487 -0.8430 -0.2472 -0.0392
 1824SOL    HW217109   0.071   3.919  13.391  2.0584 -0.2891 -0.9949
 1825SOL     OW17110   2.465   2.815   8.244 -0.5357 -0.4298 -0.3316
 1825SOL    HW117111   2.374   2.786   8.251 -0.7892  0.2345 -0.8966
 1825SOL    HW217112   2.504   2.734   8.210  2.2680  1.3920 -1.4295
 1826SOL     OW17113   3.867   1.968   4.712  0.1608 -0.5378  0.0828
 1826SOL    HW117114   3.867   1.958   4.807  2.1389 -0.6698  0.0625
 1826SOL    HW217115   3.962   1.966   4.704  0.3447  2.9280  1.2563
 1827SOL     OW17116   2.881   4.685  12.278 -0.1229 -0.1159  0.5934
 1827SOL    HW117117   2.914   4.598  12.257  0.0237  0.1841 -0.3987
 1827SOL    HW217118   2.802   4.662  12.328  0.3493 -0.5482  1.1337
 1828SOL     OW17119   3.151   3.980   4.764  0.4884  0.1452  0.8966
 1828SOL    HW117120   3.175   4.072   4.770  2.6416 -0.4315  1.2106
 1828SOL    HW217121   3.228   3.943   4.807 -0.7700 -3.4204  0.1211
 1829SOL     OW17122   1.238   2.605   6.855 -0.8973  0.2605 -0.3904
 1829SOL    HW117123   1.185   2.560   6.790 -0.8786  1.6723 -1.3819
 1829SOL    HW217124   1.255   2.689   6.814 -1.2300 -0.4862 -2.0500
 1830SOL     OW17125   0.758   1.923   6.770 -0.0012  0.1739 -0.1584
 1830SOL    HW117126   0.724   1.945   6.856  0.3244  0.7810 -0.1857
 1830SOL    HW217127   0.812   1.851   6.804 -1.1083  0.1945  1.6585
 1831SOL     OW17128   3.075   2.906   0.698 -0.8864  0.0429 -0.6029
 1831SOL    HW117129   3.072   2.892   0.793  1.8348  2.7582 -0.1323
 1831SOL    HW217130   3.054   3.000   0.690  1.3858  0.5206 -0.8069
 1832SOL     OW17131   2.994   3.049   5.301 -0.1264 -0.2525  0.1580
 1832SOL    HW117132   3.026   2.972   5.347 -1.1196 -1.7616 -1.6895
 1832SOL    HW217133   3.077   3.088   5.274 -0.5128 -0.3500 -1.1578
 1833SOL     OW17134   2.689   1.475   3.876  0.5598  0.1732  0.5670
 1833SOL    HW117135   2.762   1.533   3.852  0.0217  0.1359 -1.1370
 1833SOL    HW217136   2.725   1.393   3.842  0.3680 -0.6156  2.2688
 1834SOL     OW17137   2.964   4.158   1.735 -0.5941 -0.4369 -0.0076
 1834SOL    HW117138   2.925   4.085   1.784 -3.5477  1.2011  0.0411
 1834SOL    HW217139   2.998   4.099   1.669 -0.8041  1.0714 -1.4598
 1835SOL     OW17140   3.314   1.549  13.186 -0.2419  0.1522  0.7558
 1835SOL    HW117141   3.222   1.577  13.183  0.2959  1.6280 -1.6367
 1835SOL    HW217142   3.352   1.584  13.266  0.0970 -0.1883  0.7442
 1836SOL     OW17143   2.503   0.716  16.286  0.2225 -0.6110 -0.3569
 1836SOL    HW117144   2.545   0.760  16.212 -2.2516  0.2383 -1.2398
 1836SOL    HW217145   2.573   0.745  16.345  2.0184 -2.2705 -1.6561
 1837SOL     OW17146   1.529   4.405   4.145  0.5355 -0.1082  0.2813
 1837SOL    HW117147   1.443   4.390   4.105  0.0795 -0.4433  1.3633
 1837SOL    HW217148   1.548   4.484   4.096 -0.2100  0.7008  1.2832
 1838SOL     OW17149   2.157   0.225  12.241 -0.3235  0.3874 -0.7328
 1838SOL    HW117150   2.100   0.290  12.202 -1.1458 -0.2195 -0.5332
 1838SOL    HW217151   2.102   0.165  12.292  1.3482 -0.6971 -0.1798
 1839SOL     OW17152   3.373   4.588  13.798 -0.1171  0.2171 -0.7274
 1839SOL    HW117153   3.331   4.674  13.808  0.0913  0.0637  1.4550
 1839SOL    HW217154   3.373   4.576  13.703  0.6037 -1.7462 -0.4689
 1840SOL     OW17155   1.259   2.383   1.394  0.2863  0.1358  0.3532
 1840SOL    HW117156   1.185   2.333   1.358 -0.0446  0.4131  0.6468
 1840SOL    HW217157   1.300   2.324   1.458 -0.0818 -3.1995 -2.5099
 1841SOL     OW17158   1.665   1.723   8.915 -0.1785  0.0259 -0.1761
 1841SOL    HW117159   1.702   1.732   9.003 -2.7751  2.7214  0.6087
 1841SOL    HW217160   1.723   1.777   8.861 -0.1795 -0.1185 -0.3213
 1842SOL     OW17161   3.727   1.266   4.188  0.0356 -0.3814  0.1868
 1842SOL    HW117162   3.794   1.302   4.130 -0.7039 -2.0166 -1.6931
 1842SOL    HW217163   3.782   1.217   4.249  0.7671  2.0345  1.4589
 1843SOL     OW17164   4.161   0.949   1.769 -0.2352 -0.2526 -0.2914
 1843SOL    HW117165   4.231   0.951   1.834  0.2237  0.3673 -0.7974
 1843SOL    HW217166   4.087   0.999   1.802  0.9997  1.0709  0.4735
 1844SOL     OW17167   2.485   1.003   1.913 -0.2886 -0.5734  0.4325
 1844SOL    HW117168   2.449   1.069   1.971 -1.1071 -1.8057  1.3427
 1844SOL    HW217169   2.578   0.990   1.931 -0.0636  2.0645  1.0604
 1845SOL     OW17170   1.979   1.899   9.090 -0.3746 -0.0923 -0.3750
 1845SOL    HW117171   2.026   1.864   9.166  0.7465  1.1287 -0.5133
 1845SOL    HW217172   2.036   1.860   9.023  1.0445 -1.0991  1.4045
 1846SOL     OW17173   2.221   3.891   4.719 -0.5995  0.0597  0.7002
 1846SOL    HW117174   2.183   3.813   4.680  0.5272 -0.8453  1.4326
 1846SOL    HW217175   2.283   3.901   4.647  0.6628  0.9882  1.9134
 1847SOL     OW17176   0.330   2.664   2.166  0.5085 -0.2405  0.3499
 1847SOL    HW117177   0.371   2.700   2.244  1.3140 -1.0700  0.3185
 1847SOL    HW217178   0.399   2.652   2.102 -0.8194 -2.2123 -0.7399
 1848SOL     OW17179   1.037   4.580  10.792 -0.3978 -0.0935 -0.6319
 1848SOL    HW117180   1.036   4.647  10.723  0.4587  0.9015  0.3218
 1848SOL    HW217181   0.946   4.548  10.788  0.3868 -2.2887 -0.9485
 1849SOL     OW17182   4.608   4.065   3.476 -0.9159  0.4426  0.0624
 1849SOL    HW117183   4.659   4.065   3.395  2.0502 -0.4416  1.9390
 1849SOL    HW217184   4.577   4.155   3.472  0.5566  0.9407  0.1095
 1850SOL     OW17185   1.109   0.641  12.324 -0.3449  0.3519  0.4596
 1850SOL    HW117186   1.069   0.554  12.324  2.0641 -0.7447 -1.2557
 1850SOL    HW217187   1.196   0.620  12.291 -0.2857 -1.3207  1.6456
 1851SOL     OW17188   4.417   1.807  10.272 -0.0442  0.0150 -0.3026
 1851SOL    HW117189   4.330   1.782  10.305  0.6340  0.7940  2.0863
 1851SOL    HW217190   4.473   1.744  10.318  0.6329  0.4703 -0.5177
 1852SOL     OW17191   2.023   1.613   9.372  0.1272  0.2110 -0.3887
 1852SOL    HW117192   2.033   1.708   9.364 -0.0131  0.3413  0.8866
 1852SOL    HW217193   2.116   1.589   9.371  0.1114  0.1304  0.0878
 1853SOL     OW17194   1.283   3.663   6.394 -0.3306 -0.4938  0.3402
 1853SOL    HW117195   1.293   3.571   6.418  1.1024  0.5696  3.8321
 1853SOL    HW217196   1.210   3.700   6.443 -0.0618  0.6536 -0.1226
 1854SOL     OW17197   1.871   3.020  15.214  0.6369  0.6406 -0.0532
 1854SOL    HW117198   1.903   3.096  15.263 -0.6036  1.3381 -0.3026
 1854SOL    HW217199   1.828   3.055  15.136 -2.4714 -1.5472  0.6852
 1855SOL     OW17200   3.950   1.961   8.342 -0.0882 -0.0085  0.1864
 1855SOL    HW117201   3.923   2.047   8.311 -1.2655  0.1059  1.4952
 1855SOL    HW217202   4.029   1.985   8.390 -0.9252 -1.2163  2.1387
 1856SOL     OW17203   3.451   2.130  17.389  0.0086 -0.3039 -0.4209
 1856SOL    HW117204   3.499   2.067  17.442 -0.5650  0.8639  1.4824
 1856SOL    HW217205   3.453   2.068  17.316  0.0679 -0.4702 -0.2760
 1857SOL     OW17206   3.190   4.222   5.724 -0.0263  0.0385  0.4735
 1857SOL    HW117207   3.194   4.161   5.650  1.5001 -0.5160  1.0268
 1857SOL    HW217208   3.250   4.190   5.791 -0.6559 -0.5294  0.7620
 1858SOL     OW17209   0.661   4.266   2.904 -0.0695  0.1133  0.1367
 1858SOL    HW117210   0.737   4.247   2.849 -0.4303  1.5436 -0.8539
 1858SOL    HW217211   0.694   4.233   2.988  2.6669 -0.9235 -1.3606
 1859SOL     OW17212   1.342   3.430   1.359  0.2589 -0.5179 -0.1842
 1859SOL    HW117213   1.417   3.376   1.383  0.6917 -0.4530 -1.3733
 1859SOL    HW217214   1.384   3.496   1.304 -0.5995 -0.7204 -1.0811
 1860SOL     OW17215   3.235   4.691   6.424  0.7916 -0.4894  0.2119
 1860SOL    HW117216   3.226   4.599   6.399  1.1208 -0.6140  0.5549
 1860SOL    HW217217   3.210   4.677   6.515  3.2751  0.3661  1.0118
 1861SOL     OW17218   3.411   4.180  12.328 -0.4710 -0.2321 -0.5121
 1861SOL    HW117219   3.468   4.236  12.274 -1.1920 -0.2799 -1.3243
 1861SOL    HW217220   3.340   4.243  12.337  0.7039  0.7698  1.8924
 1862SOL     OW17221   3.574   4.030  13.419 -0.1234 -0.0322  0.1355
 1862SOL    HW117222   3.523   4.087  13.477 -1.1634 -1.3180  0.5060
 1862SOL    HW217223   3.579   3.948  13.470  1.6550  0.1108  0.1968
 1863SOL     OW17224   4.693   3.382   6.750 -0.6645  0.0499  0.4594
 1863SOL    HW117225   4.691   3.463   6.800 -3.0295 -1.1001  2.2368
 1863SOL    HW217226   4.698   3.416   6.661 -1.4658  1.8126  1.0890
 1864SOL     OW17227   2.402   2.640   2.537  0.0719  0.6598  0.2097
 1864SOL    HW117228   2.348   2.662   2.461 -0.1469 -0.6609 -0.0158
 1864SOL    HW217229   2.490   2.641   2.498  1.0108 -0.5909  2.3053
 1865SOL     OW17230   1.754   0.487   4.204  0.0161  0.3909 -0.0460
 1865SOL    HW117231   1.728   0.569   4.162  0.0175 -0.2832 -1.3836
 1865SOL    HW217232   1.761   0.513   4.295  0.2852  0.7621 -0.1747
 1866SOL     OW17233   4.320   2.357   8.276 -0.2292  0.4217 -0.4870
 1866SOL    HW117234   4.233   2.390   8.300 -0.3072 -0.8303  0.9149
 1866SOL    HW217235   4.310   2.268   8.310  0.3950 -0.0583 -1.5615
 1867SOL     OW17236   4.493   3.839   3.568 -0.4644  0.2225 -0.5350
 1867SOL    HW117237   4.400   3.829   3.550 -0.3471  0.2587 -1.1688
 1867SOL    HW217238   4.519   3.908   3.506 -2.0980  0.7626 -0.6152
 1868SOL     OW17239   1.625   3.745   6.224 -0.0283  0.9402  0.2271
 1868SOL    HW117240   1.545   3.701   6.193  1.9193 -2.4024 -0.0892
 1868SOL    HW217241   1.653   3.770   6.136 -2.1634 -0.8946 -0.9916
 1869SOL     OW17242   1.570   3.143   4.041 -0.1186  0.5533  0.3091
 1869SOL    HW117243   1.545   3.230   4.009 -1.1040 -0.2273 -0.9891
 1869SOL    HW217244   1.500   3.089   4.007  0.2713 -0.4542  1.0949
 1870SOL     OW17245   4.562   3.567   2.557  0.1955  0.0085 -0.2747
 1870SOL    HW117246   4.494   3.607   2.504  1.3604  0.1721 -1.6301
 1870SOL    HW217247   4.641   3.613   2.530 -0.3808  1.2268  0.1348
 1871SOL     OW17248   2.634   0.339   9.293 -0.2625  0.5288 -0.2396
 1871SOL    HW117249   2.677   0.423   9.309  0.9147 -0.0175 -0.5282
 1871SOL    HW217250   2.709   0.288   9.263 -0.6759  2.3072 -4.2025
 1872SOL     OW17251   1.564   0.234   1.270  0.3688  0.0046  0.1254
 1872SOL    HW117252   1.635   0.215   1.208 -0.0915  1.5415 -0.8850
 1872SOL    HW217253   1.515   0.307   1.231 -0.2257 -0.5291 -0.1160
 1873SOL     OW17254   3.363   4.295   7.510 -0.4411 -0.4645 -0.5119
 1873SOL    HW117255   3.362   4.311   7.605  0.7074  1.3382 -0.7939
 1873SOL    HW217256   3.284   4.343   7.484 -0.1535  0.7666  0.8300
 1874SOL     OW17257   4.588   1.658   6.638  0.3893 -0.2542 -0.0733
 1874SOL    HW117258   4.581   1.705   6.555  1.7663  1.6669  0.8872
 1874SOL    HW217259   4.498   1.654   6.670 -0.3160  1.5126 -1.8389
 1875SOL     OW17260   4.261   1.333   6.538  0.4673 -0.3165 -0.3138
 1875SOL    HW117261   4.225   1.413   6.499 -2.5353 -2.2497 -1.4655
 1875SOL    HW217262   4.332   1.312   6.478  2.3482  0.7152  1.5534
 1876SOL     OW17263   0.518   1.286   8.130 -0.1479 -0.0395 -1.3087
 1876SOL    HW117264   0.447   1.263   8.189  2.3995 -1.0349  1.3829
 1876SOL    HW217265   0.537   1.199   8.094  0.9282 -0.3693  0.0409
 1877SOL     OW17266   2.784   3.170   8.280 -0.2223 -0.2744  0.1514
 1877SOL    HW117267   2.735   3.119   8.216 -0.0310  2.2564 -2.0154
 1877SOL    HW217268   2.865   3.120   8.288  0.5815  1.1582  0.9855
 1878SOL     OW17269   4.422   3.665  12.962  0.7339 -0.2754 -0.0322
 1878SOL    HW117270   4.432   3.575  12.992  0.8927 -0.4347 -0.5601
 1878SOL    HW217271   4.448   3.647  12.871 -1.1376  1.9303 -1.0120
 1879SOL     OW17272   3.916   0.475  16.505  0.3089 -0.1046 -0.2158
 1879SOL    HW117273   3.856   0.543  16.536 -0.3549 -1.4395  1.4379
 1879SOL    HW217274   3.988   0.530  16.475 -0.0911  0.8651  0.5753
 1880SOL     OW17275   0.889   1.397   9.126  0.0079 -0.0075 -0.2262
 1880SOL    HW117276   0.935   1.313   9.130  1.4431  0.7245 -1.2886
 1880SOL    HW217277   0.810   1.383   9.177  0.4043 -1.3353  0.0203
 1881SOL     OW17278   0.281   2.737   4.555  0.4625  0.5305  0.0799
 1881SOL    HW117279   0.270   2.832   4.550 -1.1213  0.4603  2.3284
 1881SOL    HW217280   0.189   2.710   4.546  0.6277  0.4019 -1.2687
 1882SOL     OW17281   2.400   1.988   7.791  0.1636 -0.2427 -0.1577
 1882SOL    HW117282   2.419   1.905   7.748  0.3282  0.0942 -0.7301
 1882SOL    HW217283   2.416   1.964   7.883  0.4477 -4.7959 -1.4095
 1883SOL     OW17284   1.591   2.506  15.806 -0.0103  0.2410 -0.4517
 1883SOL    HW117285   1.528   2.480  15.873  0.7279 -1.7682 -0.5488
 1883SOL    HW217286   1.533   2.507  15.730  0.2955 -0.3652 -0.6943
 1884SOL     OW17287   4.101   4.578   5.132 -0.3685  0.0472  0.2045
 1884SOL    HW117288   4.011   4.565   5.165  0.0754 -0.6249  1.1692
 1884SOL    HW217289   4.088   4.537   5.047  3.3550 -0.3613 -0.1522
 1885SOL     OW17290   1.955   0.243   4.432 -0.7818 -0.0415 -0.0634
 1885SOL    HW117291   2.010   0.303   4.382 -0.3569 -2.3311 -2.3188
 1885SOL    HW217292   1.902   0.209   4.360  0.2098  0.5052 -1.0537
 1886SOL     OW17293   2.508   3.489   0.894 -0.3352 -0.4426  0.6965
 1886SOL    HW117294   2.567   3.427   0.936  0.4047 -0.2103  0.0071
 1886SOL    HW217295   2.453   3.500   0.971 -3.6091  0.1054 -1.7514
 1887SOL     OW17296   0.511   0.034   9.559 -0.0417  0.1670  0.1181
 1887SOL    HW117297   0.568   0.049   9.483  1.2876  2.3763  1.5818
 1887SOL    HW217298   0.526   4.683   9.590  1.0407 -0.1291 -1.2504
 1888SOL     OW17299   1.015   2.870   7.248  0.5301 -0.5996  0.0034
 1888SOL    HW117300   1.103   2.835   7.235  0.4220  0.2739 -3.1646
 1888SOL    HW217301   0.998   2.945   7.191 -0.5623 -0.6564  0.2640
 1889SOL     OW17302   4.071   0.306  14.450  0.2930  0.2256 -0.0042
 1889SOL    HW117303   3.982   0.327  14.479  0.2426  0.8055 -0.5851
 1889SOL    HW217304   4.053   0.214  14.430 -0.5265  0.5748 -0.8661
 1890SOL     OW17305   2.289   3.711   7.532  0.0922  0.0881 -0.0785
 1890SOL    HW117306   2.309   3.665   7.450 -1.1028 -1.9462  0.7723
 1890SOL    HW217307   2.376   3.734   7.564  0.5237 -1.1382 -0.3553
 1891SOL     OW17308   2.505   2.977   6.273  0.0613 -0.5169 -0.5232
 1891SOL    HW117309   2.451   2.946   6.346  0.3789 -1.7727 -0.8203
 1891SOL    HW217310   2.482   3.069   6.268 -1.1429 -0.8427 -0.9162
 1892SOL     OW17311   3.753   3.928   3.120 -0.3439  0.6040 -0.5501
 1892SOL    HW117312   3.796   3.947   3.203 -1.9550 -0.0223  0.4247
 1892SOL    HW217313   3.817   3.884   3.064 -1.2003  1.8672 -2.5518
 1893SOL     OW17314   1.797   2.615   4.328  0.9638  0.1599 -0.0483
 1893SOL    HW117315   1.739   2.618   4.252  0.1413 -0.4096  0.5582
 1893SOL    HW217316   1.759   2.543   4.378  1.0009 -0.4715 -0.9178
 1894SOL     OW17317   4.643   0.006  13.360  0.1205  0.0556  0.2363
 1894SOL    HW117318   4.583   0.065  13.406  0.0935  0.2859 -0.0987
 1894SOL    HW217319   4.601   4.660  13.375 -0.5074  0.2918 -0.1892
 1895SOL     OW17320   0.289   3.869   8.766 -0.2413  0.0275  0.0581
 1895SOL    HW117321   0.240   3.864   8.848 -1.1028  0.9236 -0.3893
 1895SOL    HW217322   0.311   3.779   8.741 -1.7127 -0.7820  1.6791
 1896SOL     OW17323   0.639   3.236  16.028 -0.0311 -0.3524 -0.8855
 1896SOL    HW117324   0.692   3.158  16.048  1.5863  0.8184 -0.5992
 1896SOL    HW217325   0.609   3.212  15.940 -0.5569  1.1683 -1.1109
 1897SOL     OW17326   3.821   3.389   1.067  0.1327  0.2610  0.4429
 1897SOL    HW117327   3.865   3.426   0.990  2.4079 -0.7316  1.2393
 1897SOL    HW217328   3.730   3.403   1.042  0.1870  2.6297  1.5083
 1898SOL     OW17329   0.572   2.656  16.993 -0.4777 -0.4308  0.0542
 1898SOL    HW117330   0.490   2.665  16.945 -2.3673  0.9631  3.6245
 1898SOL    HW217331   0.536   2.696  17.071  2.1608  2.0656  0.0193
 1899SOL     OW17332   3.685   1.878   8.318 -0.1546 -0.5683 -0.9090
 1899SOL    HW117333   3.774   1.903   8.342 -0.0345 -0.6629 -1.2453
 1899SOL    HW217334   3.664   1.800   8.370  0.5040  0.6534  1.1756
 1900SOL     OW17335   1.181   0.867   6.841  0.3236  0.6678 -0.1260
 1900SOL    HW117336   1.172   0.947   6.791  0.9418  0.2934 -0.8507
 1900SOL    HW217337   1.275   0.863   6.862 -0.1408  1.4488  2.0225
 1901SOL     OW17338   1.846   0.831   5.800 -0.0173  0.3948  0.1426
 1901SOL    HW117339   1.806   0.850   5.715 -0.5284 -0.8196  0.1090
 1901SOL    HW217340   1.773   0.860   5.855  2.3168  0.7188  3.0585
 1902SOL     OW17341   0.080   0.441   4.643  0.2251  0.2061 -0.3525
 1902SOL    HW117342   0.141   0.374   4.673 -0.4578  0.3145  1.2823
 1902SOL    HW217343   4.735   0.395   4.633  0.6374 -0.8239  0.9246
 1903SOL     OW17344   3.695   3.325   2.350  0.1241  0.0588 -0.0041
 1903SOL    HW117345   3.655   3.395   2.400  0.6156 -2.2213  3.5833
 1903SOL    HW217346   3.787   3.352   2.358 -0.2908  0.5643  2.9391
 1904SOL     OW17347   3.175   0.275   4.126  0.2364 -0.7805  0.0901
 1904SOL    HW117348   3.190   0.370   4.128 -1.0309 -0.5300 -2.7984
 1904SOL    HW217349   3.243   0.249   4.189  1.4076 -0.0455 -0.8681
 1905SOL     OW17350   2.408   1.673   7.693  0.0133  0.2493 -0.5366
 1905SOL    HW117351   2.498   1.682   7.725  0.3561  0.7928 -1.6643
 1905SOL    HW217352   2.398   1.578   7.693  0.9841  0.1473 -1.0835
 1906SOL     OW17353   2.568   0.299  15.541  0.2640 -0.0019  0.2113
 1906SOL    HW117354   2.621   0.325  15.616 -2.4231  0.5775  1.9177
 1906SOL    HW217355   2.636   0.279  15.477  0.2112  1.3727 -0.2684
 1907SOL     OW17356   2.391   3.621   4.644 -0.1599 -0.3313  0.9082
 1907SOL    HW117357   2.410   3.687   4.577 -0.7259 -1.1918 -0.1121
 1907SOL    HW217358   2.297   3.637   4.648 -0.0877  0.0427  1.0964
 1908SOL     OW17359   3.003   1.499  13.274 -0.2751 -0.4232  0.0384
 1908SOL    HW117360   2.956   1.439  13.216 -0.3987  0.4666 -0.7891
 1908SOL    HW217361   2.983   1.585  13.235  2.0161  0.0726 -0.0115
 1909SOL     OW17362   1.064   2.625   3.106 -0.0768 -0.6077  0.5468
 1909SOL    HW117363   1.111   2.628   3.022  0.1851  1.7122  0.7884
 1909SOL    HW217364   0.989   2.679   3.080 -0.5595 -2.0321 -1.1064
 1910SOL     OW17365   0.221   4.051   3.466  0.0414  0.2271 -0.4610
 1910SOL    HW117366   0.195   4.047   3.374 -0.2825 -1.0574 -0.3186
 1910SOL    HW217367   0.181   3.970   3.499 -0.9965  1.2324  0.7467
 1911SOL     OW17368   3.881   0.259   8.612 -0.1650  0.3007  0.5870
 1911SOL    HW117369   3.965   0.305   8.599 -0.3274  0.3347 -0.3190
 1911SOL    HW217370   3.852   0.297   8.695 -2.9702 -1.6527  0.4831
 1912SOL     OW17371   0.918   0.494   5.976 -0.0197  0.8050  0.2557
 1912SOL    HW117372   0.891   0.428   6.041  0.6142 -0.6710 -0.9650
 1912SOL    HW217373   0.850   0.560   5.988 -0.4569  0.4144 -0.0515
 1913SOL     OW17374   4.348   3.714   2.470 -0.7514 -0.4081 -0.0938
 1913SOL    HW117375   4.392   3.707   2.386 -0.3199  1.9573 -0.0743
 1913SOL    HW217376   4.351   3.809   2.480  2.8418 -0.5040 -0.3946
 1914SOL     OW17377   0.672   0.420   0.375  0.0412  0.3688 -0.4247
 1914SOL    HW117378   0.690   0.327   0.361 -0.4104  0.1604  0.4093
 1914SOL    HW217379   0.758   0.461   0.386  0.6487 -0.9740 -0.2529
 1915SOL     OW17380   1.979   0.139  17.422 -0.0132  0.0800  0.1386
 1915SOL    HW117381   1.996   0.158  17.330 -0.5126 -1.5862 -0.3076
 1915SOL    HW217382   2.066   0.142  17.461 -0.2562  0.6939  0.6257
 1916SOL     OW17383   0.639   2.291   9.033  0.0928  0.4542 -0.3636
 1916SOL    HW117384   0.638   2.205   8.989 -1.9206  0.8361 -1.0533
 1916SOL    HW217385   0.730   2.315   9.014  0.1211  0.5164 -0.1491
 1917SOL     OW17386   4.177   2.699   4.269 -0.1790  0.2171 -0.1500
 1917SOL    HW117387   4.111   2.765   4.289  0.0731  1.6394 -3.8926
 1917SOL    HW217388   4.246   2.720   4.332  2.4592 -4.9424 -1.2995
 1918SOL     OW17389   3.313   2.513   0.010  0.5922  0.1396  0.1289
 1918SOL    HW117390   3.324   2.594  17.714  2.2385  0.2876  0.7518
 1918SOL    HW217391   3.356   2.456  17.698  0.6745 -1.0566  1.2308
 1919SOL     OW17392   0.815   4.163   1.595  0.3590  0.2050  0.2026
 1919SOL    HW117393   0.869   4.166   1.517 -0.5973  0.1175 -0.4663
 1919SOL    HW217394   0.877   4.182   1.666  0.2300 -0.4832  0.4950
 1920SOL     OW17395   3.195   1.501  16.366 -0.2147  0.0934 -0.0655
 1920SOL    HW117396   3.121   1.559  16.350  0.3428  1.5833  2.6476
 1920SOL    HW217397   3.263   1.536  16.308  0.6677 -0.2568  0.7509
 1921SOL     OW17398   2.679   1.418  14.138  0.1746  0.2014 -0.5673
 1921SOL    HW117399   2.722   1.435  14.054  0.0416  0.1782 -0.6405
 1921SOL    HW217400   2.670   1.323  14.132 -1.5807  0.2275  1.8323
 1922SOL     OW17401   3.060   2.160   7.118 -0.1496 -0.0442 -0.3192
 1922SOL    HW117402   3.106   2.115   7.189  1.4167  0.4920 -0.9789
 1922SOL    HW217403   3.077   2.253   7.133  1.4722  0.0413 -2.6429
 1923SOL     OW17404   1.187   1.542   9.288 -0.2564  0.0538  0.3171
 1923SOL    HW117405   1.205   1.483   9.362  0.2709  0.8745  0.8514
 1923SOL    HW217406   1.255   1.515   9.227 -1.1762 -0.2233 -0.5714
 1924SOL     OW17407   1.297   2.189   6.518  0.5523  0.4976 -0.6716
 1924SOL    HW117408   1.356   2.243   6.571  1.1103 -1.0692  0.3039
 1924SOL    HW217409   1.301   2.224   6.429  0.8755  0.4841 -0.6634
 1925SOL     OW17410   2.067   2.668   3.319  0.8415  0.0818 -0.5180
 1925SOL    HW117411   2.137   2.670   3.254  1.9530 -0.2996  0.6845
 1925SOL    HW217412   1.997   2.622   3.272 -0.0603  0.8887  0.0234
 1926SOL     OW17413   1.906   4.624   6.229  0.4737 -0.6780 -0.4729
 1926SOL    HW117414   1.987   4.609   6.278  1.2273 -0.3290 -1.5973
 1926SOL    HW217415   1.904   4.538   6.188  0.0241 -1.5853  1.4479
 1927SOL     OW17416   0.990   2.949  11.844 -0.4185  0.1579  0.0458
 1927SOL    HW117417   1.026   3.033  11.871  2.2097 -0.1935 -2.2876
 1927SOL    HW217418   1.026   2.943  11.755  1.7118 -1.5991  1.0287
 1928SOL     OW17419   3.959   2.150   1.381  0.3465 -0.1441 -0.1287
 1928SOL    HW117420   4.008   2.213   1.433 -0.9167  0.7382  0.0070
 1928SOL    HW217421   3.995   2.171   1.294 -1.7838 -1.5515 -1.3421
 1929SOL     OW17422   0.541   1.216   3.198 -0.7395  0.2866 -0.0292
 1929SOL    HW117423   0.610   1.233   3.133  0.4559  0.8372  1.3810
 1929SOL    HW217424   0.513   1.308   3.191 -0.0428  0.6651  2.1942
 1930SOL     OW17425   2.972   3.609   7.823 -0.0291 -0.0173  0.2020
 1930SOL    HW117426   3.028   3.537   7.851 -0.3421 -0.5193 -0.4603
 1930SOL    HW217427   2.962   3.658   7.905  0.3525 -1.7571  1.2996
 1931SOL     OW17428   1.825   3.390   3.734 -0.3052 -0.0946 -0.6062
 1931SOL    HW117429   1.838   3.396   3.829  0.8753  0.2721 -0.7860
 1931SOL    HW217430   1.904   3.343   3.707 -0.4681 -0.7258  0.0018
 1932SOL     OW17431   0.210   4.274  16.568 -0.0557  0.3183 -0.4680
 1932SOL    HW117432   0.280   4.336  16.548 -0.6006  0.8561 -0.7276
 1932SOL    HW217433   0.262   4.208  16.613 -0.7536  1.3243  1.8345
 1933SOL     OW17434   1.859   3.877   7.552 -0.1426  0.0197  0.1169
 1933SOL    HW117435   1.851   3.958   7.602  2.2141 -0.1449  0.7613
 1933SOL    HW217436   1.929   3.839   7.605 -0.9404 -1.3081  0.2004
 1934SOL     OW17437   4.173   1.771   4.786 -0.2679  0.0172  0.4323
 1934SOL    HW117438   4.214   1.712   4.849  0.6687 -0.1670 -0.3452
 1934SOL    HW217439   4.170   1.714   4.709 -2.1515  0.5698  0.1056
 1935SOL     OW17440   1.742   2.371   9.229  0.1115 -0.1401  0.4173
 1935SOL    HW117441   1.831   2.337   9.240 -0.4551 -2.1784 -1.4119
 1935SOL    HW217442   1.762   2.465   9.223  1.0009 -0.2861  1.1233
 1936SOL     OW17443   4.402   1.103   3.151  0.2344  0.1587  0.0650
 1936SOL    HW117444   4.406   1.108   3.056 -0.6543 -0.7130 -0.0190
 1936SOL    HW217445   4.470   1.168   3.170  0.7975  0.1871 -2.0814
 1937SOL     OW17446   0.032   4.041  14.903 -0.4901  0.0820 -0.2379
 1937SOL    HW117447   0.103   4.014  14.844 -0.9346  0.0639 -0.7640
 1937SOL    HW217448   4.724   4.094  14.838  0.1478 -0.6863 -1.3385
 1938SOL     OW17449   3.060   3.009   2.643  0.1554 -0.0567  0.0396
 1938SOL    HW117450   3.053   3.104   2.651  3.3923  0.1760 -0.2335
 1938SOL    HW217451   3.154   2.992   2.640  0.6845  2.5198  2.3581
 1939SOL     OW17452   1.159   2.639   2.080 -0.1070 -0.1140  0.6232
 1939SOL    HW117453   1.211   2.710   2.042 -0.4285 -0.1697  0.0810
 1939SOL    HW217454   1.127   2.589   2.005  1.0083  1.0376 -0.6260
 1940SOL     OW17455   0.737   3.593   6.519  0.7411  0.3774  0.3817
 1940SOL    HW117456   0.650   3.557   6.501  0.4838  1.6486 -0.8836
 1940SOL    HW217457   0.716   3.617   6.610 -2.4588  1.6350 -0.6882
 1941SOL     OW17458   0.841   2.406   2.522 -0.0085 -0.7667  0.1375
 1941SOL    HW117459   0.824   2.404   2.428  0.8886  1.8188 -0.0877
 1941SOL    HW217460   0.935   2.394   2.528  0.1511  0.5349  0.2944
 1942SOL     OW17461   2.828   1.118   6.712 -0.6836  0.1089  0.4309
 1942SOL    HW117462   2.905   1.062   6.703 -1.0481 -0.1779 -0.9993
 1942SOL    HW217463   2.809   1.133   6.804  2.0513  0.7962  0.8698
 1943SOL     OW17464   1.810   0.397   8.367  0.3871  0.1509 -0.5262
 1943SOL    HW117465   1.741   0.447   8.324  3.0366  1.6888 -2.9885
 1943SOL    HW217466   1.801   0.426   8.458  0.6781 -1.2255 -0.0713
 1944SOL     OW17467   4.077   4.154  10.225 -0.4647 -0.0537  0.2620
 1944SOL    HW117468   4.118   4.164  10.139 -2.9991 -0.2432 -0.9748
 1944SOL    HW217469   4.019   4.229  10.216  0.1601  0.3499 -0.3126
 1945SOL     OW17470   2.580   3.588   6.578  0.4518  0.0823  0.3339
 1945SOL    HW117471   2.659   3.634   6.549  0.9387  0.1164  1.7465
 1945SOL    HW217472   2.512   3.655   6.584  1.0137  0.3772  3.3353
 1946SOL     OW17473   3.900   3.588   7.275  0.3513 -0.0553  0.6514
 1946SOL    HW117474   3.951   3.517   7.315 -1.6357 -1.5226  0.5708
 1946SOL    HW217475   3.890   3.648   7.349  0.3531  0.0887  0.5359
 1947SOL     OW17476   4.695   1.985   2.866  0.0194  0.2206 -0.1898
 1947SOL    HW117477   4.609   1.943   2.867 -0.0938  0.4214 -2.1914
 1947SOL    HW217478   4.723   1.968   2.956 -0.9138  2.5574  0.5636
 1948SOL     OW17479   4.153   1.695   8.927 -0.6590 -0.1391  0.1807
 1948SOL    HW117480   4.134   1.637   8.853  0.9937 -1.6907  0.9839
 1948SOL    HW217481   4.194   1.628   8.981  0.1536  0.1166 -0.1262
 1949SOL     OW17482   1.997   0.581   2.758  0.1833  0.7315  0.1239
 1949SOL    HW117483   1.935   0.653   2.755 -0.9999 -0.2351  1.0274
 1949SOL    HW217484   1.939   0.514   2.720  0.1248  0.9856 -0.2307
 1950SOL     OW17485   0.971   2.410   7.244 -0.3966  0.6048  0.4289
 1950SOL    HW117486   0.901   2.371   7.297 -0.1910  0.0455  0.2920
 1950SOL    HW217487   0.927   2.442   7.166 -1.0915  2.1300  1.4448
 1951SOL     OW17488   4.008   2.439   9.186 -0.4049  0.9449 -0.1861
 1951SOL    HW117489   4.054   2.523   9.184  2.1678 -0.4759 -1.5264
 1951SOL    HW217490   3.996   2.431   9.091  1.1727 -0.8300 -0.2531
 1952SOL     OW17491   2.124   1.787   5.666 -0.2792 -0.0787  0.0502
 1952SOL    HW117492   2.209   1.806   5.628  0.4543  0.0151  1.7197
 1952SOL    HW217493   2.136   1.803   5.760  0.5583  2.7599 -0.5551
 1953SOL     OW17494   3.764   1.107  12.956  0.5867  0.3398  0.2624
 1953SOL    HW117495   3.694   1.042  12.961  0.1249  0.8897  1.0513
 1953SOL    HW217496   3.841   1.054  12.939 -0.4661 -1.1202  0.0516
 1954SOL     OW17497   4.041   3.659   3.589  0.2447 -0.2975  0.0394
 1954SOL    HW117498   4.118   3.717   3.590  0.0482 -0.0067 -1.4036
 1954SOL    HW217499   4.001   3.689   3.508  0.4239  0.7863  0.3496
 1955SOL     OW17500   2.069   0.936  12.486 -0.1238  0.3308  0.1432
 1955SOL    HW117501   2.089   1.029  12.499 -0.0577  0.4992 -1.2035
 1955SOL    HW217502   1.990   0.918  12.536 -0.4267 -2.2768 -1.2834
 1956SOL     OW17503   3.833   3.018   6.743 -0.0583  0.0801 -0.1578
 1956SOL    HW117504   3.867   2.939   6.785  1.4628  0.5823 -0.4595
 1956SOL    HW217505   3.814   2.996   6.652 -1.1693  1.0789 -0.1652
 1957SOL     OW17506   3.474   4.156  14.680  0.0953  0.1027  0.0293
 1957SOL    HW117507   3.555   4.125  14.639 -1.1344 -1.6740 -1.0706
 1957SOL    HW217508   3.415   4.177  14.607  0.3553 -1.0047 -0.4894
 1958SOL     OW17509   0.536   3.080   4.681  0.1716 -0.5177  0.3607
 1958SOL    HW117510   0.604   3.131   4.636 -1.0525  1.9450  1.2982
 1958SOL    HW217511   0.489   3.035   4.610 -1.3901 -1.5808  2.0779
 1959SOL     OW17512   2.160   2.281   7.838 -0.0591 -0.2373 -0.0955
 1959SOL    HW117513   2.159   2.352   7.902  0.7921 -0.4078  0.1051
 1959SOL    HW217514   2.066   2.283   7.821 -0.1517 -0.1582  0.4295
 1960SOL     OW17515   0.390   2.554   5.239  0.6545 -0.1782  0.0207
 1960SOL    HW117516   0.311   2.559   5.185  0.9932 -1.0048 -0.5436
 1960SOL    HW217517   0.361   2.497   5.311  0.0807  1.5742  1.1697
 1961SOL     OW17518   3.248   3.664   6.590 -0.3784  0.6856  0.1927
 1961SOL    HW117519   3.309   3.604   6.546 -0.0462 -1.1528  3.1713
 1961SOL    HW217520   3.186   3.601   6.626 -0.6130  0.9086  0.1777
 1962SOL     OW17521   0.856   2.280   6.242 -0.3567 -0.2968 -0.2210
 1962SOL    HW117522   0.876   2.358   6.191  2.4192  0.1997  1.6267
 1962SOL    HW217523   0.859   2.220   6.168 -0.3081 -0.2095 -0.2895
 1963SOL     OW17524   0.594   3.414  11.249  0.0871 -0.2908 -0.3961
 1963SOL    HW117525   0.598   3.481  11.181  1.5532  0.0056 -0.0194
 1963SOL    HW217526   0.573   3.464  11.328 -1.2136 -1.3616 -0.0762
 1964SOL     OW17527   0.535   2.768   7.554 -0.5493  0.4686 -0.2235
 1964SOL    HW117528   0.601   2.800   7.616 -0.8892 -3.2751  2.1009
 1964SOL    HW217529   0.448   2.798   7.581 -0.2845 -0.2134  1.3716
 1965SOL     OW17530   0.194   0.848   5.630 -0.6122 -0.0651 -0.9855
 1965SOL    HW117531   0.170   0.941   5.628  3.8976  1.1857  4.5503
 1965SOL    HW217532   0.281   0.847   5.589  0.6633  1.0177  1.6761
 1966SOL     OW17533   1.172   0.946  10.820  0.4409  0.2194 -0.4847
 1966SOL    HW117534   1.139   0.997  10.746 -0.3500 -2.9944 -2.3592
 1966SOL    HW217535   1.251   0.996  10.841  1.3922 -0.5840 -2.0952
 1967SOL     OW17536   0.828   0.461  17.679  0.5123 -0.4271  0.0225
 1967SOL    HW117537   0.887   0.432  17.748 -0.1343 -0.5867  0.5113
 1967SOL    HW217538   0.748   0.416  17.708 -1.5872  1.3446 -2.9876
 1968SOL     OW17539   0.245   3.011   7.489  0.4296 -0.3818 -0.2991
 1968SOL    HW117540   0.211   2.991   7.402 -0.9507  0.2091  0.1021
 1968SOL    HW217541   0.183   2.961   7.541  1.6045  0.8060  2.2618
 1969SOL     OW17542   3.090   2.364   5.809 -0.1505 -0.2645 -0.1247
 1969SOL    HW117543   3.135   2.378   5.725 -1.4112 -0.8152 -0.8920
 1969SOL    HW217544   3.006   2.410   5.808 -0.4828 -0.8574  1.8158
 1970SOL     OW17545   0.494   2.412   5.647  0.6529  0.0679 -0.3716
 1970SOL    HW117546   0.529   2.334   5.690 -1.9154 -0.7672  0.1812
 1970SOL    HW217547   0.577   2.451   5.618  1.0026  0.6359  1.3935
 1971SOL     OW17548   0.981   1.172   4.005 -0.6520  0.3557 -0.1026
 1971SOL    HW117549   1.005   1.215   4.087  2.1673  0.4221 -0.9513
 1971SOL    HW217550   0.887   1.178   3.989 -0.5083  0.3186 -0.9768
 1972SOL     OW17551   4.600   4.657   1.688 -0.0504  0.4697  0.3374
 1972SOL    HW117552   4.599   4.657   1.783  0.3951 -0.3679  0.3354
 1972SOL    HW217553   4.663   4.726   1.669  1.5030 -0.7462  1.0925
 1973SOL     OW17554   2.643   3.490   0.679 -0.1755  0.1824  0.2061
 1973SOL    HW117555   2.658   3.401   0.647  1.9260  1.1659 -1.5593
 1973SOL    HW217556   2.588   3.466   0.753 -0.0407 -1.4961 -0.2479
 1974SOL     OW17557   3.628   0.960  17.372 -0.1344 -0.1705 -0.3930
 1974SOL    HW117558   3.541   1.000  17.377  0.3562  1.0048 -1.3697
 1974SOL    HW217559   3.609   0.866  17.365  0.2792 -0.4473  2.2186
 1975SOL     OW17560   2.995   1.460   3.531  0.6572 -0.8040  0.1829
 1975SOL    HW117561   2.931   1.442   3.462  1.0426  1.0418 -0.6497
 1975SOL    HW217562   3.063   1.503   3.479  0.5638 -0.0332  0.7100
 1976SOL     OW17563   4.584   0.521   7.383 -0.6720 -0.8637  0.2976
 1976SOL    HW117564   4.572   0.428   7.361  2.9994 -0.9163 -1.5534
 1976SOL    HW217565   4.667   0.517   7.431  0.6545  0.3920 -1.9056
 1977SOL     OW17566   0.271   3.331   2.909  0.1079  0.1767 -0.0161
 1977SOL    HW117567   0.189   3.368   2.942  0.1195 -0.7233  1.0387
 1977SOL    HW217568   0.324   3.407   2.886 -0.0073  0.8817  1.9973
 1978SOL     OW17569   3.453   2.470  17.146  0.1930 -0.2363 -0.3103
 1978SOL    HW117570   3.392   2.496  17.215 -0.8701  0.5953 -1.5659
 1978SOL    HW217571   3.412   2.502  17.066 -2.7935 -0.4325  1.1445
 1979SOL     OW17572   4.298   2.294   8.775  0.2182 -0.1754  0.0872
 1979SOL    HW117573   4.387   2.309   8.805 -0.0042  1.7964 -0.2254
 1979SOL    HW217574   4.248   2.368   8.809  0.4021  0.0404 -0.1183
 1980SOL     OW17575   0.513   1.174   8.464 -0.0194 -0.5863  0.9107
 1980SOL    HW117576   0.510   1.101   8.526 -1.4664 -1.7812 -0.5864
 1980SOL    HW217577   0.602   1.155   8.437 -0.1632 -0.1971  0.1700
 1981SOL     OW17578   1.950   4.053   0.963  0.4076 -0.2604 -0.5696
 1981SOL    HW117579   1.943   3.959   0.948  0.9128 -0.3694 -0.1165
 1981SOL    HW217580   1.923   4.058   1.055  0.5828  1.3458 -0.6031
 1982SOL     OW17581   1.137   2.220   7.545 -0.2520 -0.5507  0.3006
 1982SOL    HW117582   1.116   2.313   7.544  0.6987 -0.3504 -1.1700
 1982SOL    HW217583   1.049   2.187   7.525  0.5936 -3.3978  1.2825
 1983SOL     OW17584   2.353   0.886   6.520 -0.1356  0.1592 -0.2704
 1983SOL    HW117585   2.440   0.848   6.535  0.2025 -0.2488 -3.1886
 1983SOL    HW217586   2.290   0.838   6.574  1.1600  0.5891  1.6286
 1984SOL     OW17587   0.282   1.562   6.493 -0.3723  0.4028 -0.4007
 1984SOL    HW117588   0.215   1.570   6.561  0.5494 -0.0325  0.5606
 1984SOL    HW217589   0.308   1.653   6.481  1.5896 -0.3318 -1.7820
 1985SOL     OW17590   0.184   3.148   3.704  0.0452 -0.0970 -0.2164
 1985SOL    HW117591   0.170   3.105   3.788  0.8941 -0.7136 -0.3893
 1985SOL    HW217592   0.196   3.239   3.731  1.1406  0.3559 -2.2175
 1986SOL     OW17593   4.348   2.649   7.154  0.0693  0.1695 -0.2189
 1986SOL    HW117594   4.374   2.588   7.223  0.9909  2.5433  1.5448
 1986SOL    HW217595   4.257   2.675   7.170 -0.3813  0.8992 -3.9860
 1987SOL     OW17596   3.670   2.171   8.601 -1.0589  0.6650  0.8453
 1987SOL    HW117597   3.723   2.250   8.594 -0.2812 -0.0079 -0.8825
 1987SOL    HW217598   3.660   2.170   8.697  0.0317 -0.1998  0.9433
 1988SOL     OW17599   0.743   1.280  12.945  0.4011 -0.3200 -0.4236
 1988SOL    HW117600   0.789   1.234  13.015 -3.6166 -1.8606  1.2219
 1988SOL    HW217601   0.817   1.328  12.907  0.4389  0.4162  0.5738
 1989SOL     OW17602   4.251   1.144  14.743 -0.2864 -0.5427 -0.0052
 1989SOL    HW117603   4.344   1.136  14.763 -0.3897 -0.3824  0.5448
 1989SOL    HW217604   4.253   1.119  14.651  1.1193 -0.6892  0.0762
 1990SOL     OW17605   2.695   2.509   4.317 -0.0162 -0.0529 -0.5374
 1990SOL    HW117606   2.765   2.511   4.252  0.5037  2.8015  0.1116
 1990SOL    HW217607   2.625   2.462   4.272  1.2172 -1.3509 -1.0528
 1991SOL     OW17608   2.468   1.663   5.942  0.4773  0.4359 -0.5121
 1991SOL    HW117609   2.490   1.619   6.024  1.2400  0.7933 -0.5242
 1991SOL    HW217610   2.506   1.605   5.876  1.2956  1.3460 -0.8480
 1992SOL     OW17611   2.839   2.355  11.538  0.2398  0.1329 -0.3299
 1992SOL    HW117612   2.905   2.287  11.530 -0.5952 -0.6661 -0.4957
 1992SOL    HW217613   2.812   2.356  11.446 -1.4768 -1.1890  0.1520
 1993SOL     OW17614   0.734   0.894   6.117  0.4151  0.3911 -0.1297
 1993SOL    HW117615   0.748   0.883   6.211  3.6904  1.8920 -0.4420
 1993SOL    HW217616   0.825   0.874   6.095  0.0646 -1.0118 -0.3169
 1994SOL     OW17617   2.276   4.307   3.832  0.1782  0.3432 -0.1742
 1994SOL    HW117618   2.300   4.367   3.762 -1.9058  0.9250 -0.3882
 1994SOL    HW217619   2.185   4.324   3.858 -0.6311 -1.8752 -1.5696
 1995SOL     OW17620   3.096   0.928   2.403  0.2041  0.0794 -0.3114
 1995SOL    HW117621   3.092   0.832   2.408 -0.6087  0.0217 -2.0661
 1995SOL    HW217622   3.004   0.953   2.414 -0.1090 -0.6089 -1.4106
 1996SOL     OW17623   2.677   2.296   6.732  0.0229  0.4707 -0.0027
 1996SOL    HW117624   2.685   2.235   6.659 -0.2183  0.2596  0.1478
 1996SOL    HW217625   2.706   2.377   6.690 -0.3496  0.0485 -1.0625
 1997SOL     OW17626   3.964   3.454   4.873 -0.3818 -0.2245  0.1557
 1997SOL    HW117627   3.958   3.548   4.860 -0.3041 -0.5982 -2.4978
 1997SOL    HW217628   3.875   3.422   4.887 -1.1038  1.6039 -0.3232
 1998SOL     OW17629   2.084   3.949   9.571 -0.4873 -0.1676 -0.6134
 1998SOL    HW117630   2.054   3.997   9.648  2.0595  1.4261 -0.6239
 1998SOL    HW217631   2.075   3.861   9.609 -3.0246 -0.2074 -1.3420
 1999SOL     OW17632   1.588   4.377  15.396 -0.7833  0.0113  0.0182
 1999SOL    HW117633   1.551   4.447  15.451 -1.7679 -0.0913 -0.5202
 1999SOL    HW217634   1.678   4.374  15.428 -0.3318 -2.8538 -1.5469
 2000SOL     OW17635   1.882   1.509  10.618  0.0184 -0.3988 -0.1708
 2000SOL    HW117636   1.908   1.573  10.685  0.6591 -1.5852  0.7083
 2000SOL    HW217637   1.811   1.459  10.657 -0.5021  1.1192  0.8399
 2001SOL     OW17638   0.477   2.264   3.699  1.2874  0.4042  0.5270
 2001SOL    HW117639   0.461   2.267   3.793  0.6460  1.3496  0.3949
 2001SOL    HW217640   0.524   2.181   3.698 -0.0106 -0.3173 -0.1957
 2002SOL     OW17641   4.387   3.022   8.457 -0.3414  0.0617  0.0581
 2002SOL    HW117642   4.315   3.085   8.460 -0.0537  0.3853  0.1055
 2002SOL    HW217643   4.396   3.008   8.362 -0.0779 -1.4053  0.2962
 2003SOL     OW17644   1.615   0.300   5.855 -0.0125  0.1862 -0.3954
 2003SOL    HW117645   1.668   0.230   5.893  0.0890  1.2140  1.3455
 2003SOL    HW217646   1.684   0.348   5.809  0.0051  0.9903  0.4628
 2004SOL     OW17647   3.172   2.660   7.295  0.2992 -0.0690 -0.3020
 2004SOL    HW117648   3.133   2.740   7.330  0.4671 -0.7751  1.5041
 2004SOL    HW217649   3.192   2.611   7.374  2.8985 -2.3184 -2.3615
 2005SOL     OW17650   1.495   3.037   2.900 -0.3473 -0.1311 -0.1951
 2005SOL    HW117651   1.507   3.131   2.911  1.9213 -0.5393  0.8914
 2005SOL    HW217652   1.587   3.021   2.924 -0.0337  1.5547 -0.2750
 2006SOL     OW17653   1.305   0.320   0.182 -0.4062  0.2325 -0.1450
 2006SOL    HW117654   1.368   0.253   0.155  0.4310  0.1651  2.0249
 2006SOL    HW217655   1.320   0.391   0.119 -4.0230  0.3501 -0.8258
 2007SOL     OW17656   1.325   4.230   0.415 -0.0002 -0.5274 -0.0662
 2007SOL    HW117657   1.390   4.189   0.357  0.7092  0.0073  0.3421
 2007SOL    HW217658   1.252   4.245   0.356 -1.2463 -2.6584  0.9333
 2008SOL     OW17659   2.285   4.002   7.133 -0.6136  0.2382 -0.1412
 2008SOL    HW117660   2.349   3.933   7.150 -2.4841 -0.1929  5.2217
 2008SOL    HW217661   2.265   4.032   7.222 -0.8550  2.7784 -1.0762
 2009SOL     OW17662   2.175   3.453  13.201  0.1651 -0.5356  0.6213
 2009SOL    HW117663   2.206   3.417  13.118  1.1896 -0.4436  0.9721
 2009SOL    HW217664   2.264   3.469  13.231  0.5377 -0.0105 -0.7754
 2010SOL     OW17665   2.059   4.422   4.203  0.1575 -0.1694 -0.0591
 2010SOL    HW117666   2.095   4.404   4.289 -0.3238 -0.1019  0.1576
 2010SOL    HW217667   1.966   4.426   4.226  0.7237  0.6341  2.0035
 2011SOL     OW17668   1.854   2.862   3.366 -0.0846 -0.0448 -0.7144
 2011SOL    HW117669   1.920   2.796   3.347 -0.4389 -0.5952 -0.0438
 2011SOL    HW217670   1.788   2.798   3.394  0.1438 -0.3646 -0.9117
 2012SOL     OW17671   4.245   1.538   4.956 -0.1228  0.4227 -1.0349
 2012SOL    HW117672   4.328   1.557   5.001 -0.5705 -1.2699  0.4970
 2012SOL    HW217673   4.253   1.443   4.958  1.3374  0.5275 -1.6040
 2013SOL     OW17674   3.038   1.442   5.263 -0.2937 -0.5013 -0.1754
 2013SOL    HW117675   3.118   1.406   5.300 -1.1242 -1.2592  0.8613
 2013SOL    HW217676   2.984   1.375   5.305  0.0915  0.0616  1.2171
 2014SOL     OW17677   3.542   0.424  12.524  0.4859 -0.1944  0.3670
 2014SOL    HW117678   3.468   0.481  12.505  0.5529 -0.1849  0.1342
 2014SOL    HW217679   3.549   0.448  12.617 -1.2691  2.9303 -0.3199
 2015SOL     OW17680   0.149   1.386   3.801  0.0958 -0.5519 -0.0109
 2015SOL    HW117681   0.189   1.303   3.824 -2.0683 -2.0596 -1.7255
 2015SOL    HW217682   0.163   1.439   3.880  0.9620 -0.5387 -0.1698
 2016SOL     OW17683   0.508   0.107   9.000  0.1779  0.0169 -0.3479
 2016SOL    HW117684   0.413   0.118   9.000  0.1571 -0.2074  0.3268
 2016SOL    HW217685   0.523   0.028   9.051  0.7594  1.2659  1.4198
 2017SOL     OW17686   2.299   2.819  12.024 -0.1103 -0.1996  0.0009
 2017SOL    HW117687   2.305   2.779  12.110  0.0999  3.4610  1.6854
 2017SOL    HW217688   2.341   2.904  12.039  0.4679 -0.6738  1.0573
 2018SOL     OW17689   2.334   2.755   1.195 -0.3099 -0.4432  0.2052
 2018SOL    HW117690   2.301   2.667   1.213  0.3951 -1.3057 -2.6180
 2018SOL    HW217691   2.414   2.733   1.147 -0.3564 -1.6508  0.6915
 2019SOL     OW17692   3.412   4.037   7.440 -0.1178 -0.0618  0.1248
 2019SOL    HW117693   3.341   4.019   7.378  1.4879  0.1354 -1.7651
 2019SOL    HW217694   3.378   4.109   7.493  0.0248 -1.6243  2.3908
 2020SOL     OW17695   3.378   0.330   4.555  0.6882 -0.0245 -0.0251
 2020SOL    HW117696   3.392   0.332   4.649  2.6111  2.4154 -0.3654
 2020SOL    HW217697   3.359   0.423   4.540  2.2988  0.2598 -0.3088
 2021SOL     OW17698   2.055   2.426  17.558 -0.0555 -0.1008 -0.2684
 2021SOL    HW117699   2.025   2.516  17.565  3.1746  0.7947  2.0525
 2021SOL    HW217700   2.013   2.393  17.637 -2.2111  2.4334 -0.3546
 2022SOL     OW17701   1.902   2.063   3.013 -0.4251  0.6245  0.5727
 2022SOL    HW117702   1.984   2.015   3.005  0.3597  2.0544  0.1122
 2022SOL    HW217703   1.905   2.104   2.926 -2.8329  0.9343  0.6149
 2023SOL     OW17704   0.091   1.591   2.760  0.5282  0.1225 -0.5240
 2023SOL    HW117705   0.181   1.622   2.760  0.9014 -0.9573  0.1035
 2023SOL    HW217706   0.089   1.575   2.855 -0.5131  2.2285 -0.1924
 2024SOL     OW17707   3.019   2.190   2.432 -0.1476 -0.2667 -0.3433
 2024SOL    HW117708   3.096   2.141   2.403  0.5541  0.1740  0.7844
 2024SOL    HW217709   3.018   2.158   2.522  0.1665 -0.5446 -0.4399
 2025SOL     OW17710   3.489   2.565  10.750 -0.0654 -0.5235 -0.5133
 2025SOL    HW117711   3.558   2.506  10.779 -0.0787 -0.0922  0.3953
 2025SOL    HW217712   3.543   2.643  10.764 -0.6104 -0.1085 -0.6791
 2026SOL     OW17713   0.849   0.483   4.592 -0.0819 -0.3122  0.6070
 2026SOL    HW117714   0.880   0.552   4.534  1.5462 -1.7519 -0.2063
 2026SOL    HW217715   0.764   0.452   4.559  0.3381 -2.0104  1.1247
 2027SOL     OW17716   3.108   3.618   4.818 -0.0161  0.0446  0.9396
 2027SOL    HW117717   3.136   3.682   4.884  0.5592 -1.4142  2.1103
 2027SOL    HW217718   3.048   3.561   4.865 -0.6081  0.1428  0.3061
 2028SOL     OW17719   2.287   1.136   1.720  0.2831 -0.0169  0.5448
 2028SOL    HW117720   2.302   1.042   1.718  3.3587  0.5211 -1.2464
 2028SOL    HW217721   2.374   1.175   1.720  0.4802 -0.4599  0.6875
 2029SOL     OW17722   1.619   3.069  12.641  0.1716 -0.0165  0.3305
 2029SOL    HW117723   1.587   3.153  12.609  1.4580  0.2425 -0.2597
 2029SOL    HW217724   1.538   3.017  12.634  1.2678 -1.5700 -0.8555
 2030SOL     OW17725   2.536   3.783   7.636  0.0905 -0.2208 -0.0920
 2030SOL    HW117726   2.561   3.835   7.559 -0.7564  1.5083  0.8109
 2030SOL    HW217727   2.553   3.849   7.703  0.7727  0.7778 -1.2556
 2031SOL     OW17728   3.862   2.036   0.743  0.0567  0.0314  0.3270
 2031SOL    HW117729   3.801   1.987   0.687 -0.2842  2.6801 -1.5973
 2031SOL    HW217730   3.795   2.086   0.790 -0.1668 -0.2670  0.3303
 2032SOL     OW17731   0.867   0.464   7.028 -0.3258  0.0412  0.6754
 2032SOL    HW117732   0.864   0.490   7.120 -1.3033 -1.3607  1.0455
 2032SOL    HW217733   0.959   0.485   7.011 -0.1480 -0.3988  1.0675
 2033SOL     OW17734   1.095   3.093   7.852 -0.0618 -0.0864  0.4263
 2033SOL    HW117735   1.062   3.148   7.923 -0.2806  0.9516 -0.4877
 2033SOL    HW217736   1.181   3.065   7.884  0.4630 -0.0993 -1.0383
 2034SOL     OW17737   0.838   2.631   4.117  0.2539 -0.3957 -0.1020
 2034SOL    HW117738   0.896   2.568   4.160  0.3514  0.4077  0.9691
 2034SOL    HW217739   0.849   2.613   4.024  1.1253 -1.5475  0.2253
 2035SOL     OW17740   0.583   1.278   6.308  0.2135  0.8542 -0.0572
 2035SOL    HW117741   0.642   1.259   6.235 -2.0666 -0.4642 -1.5853
 2035SOL    HW217742   0.622   1.362   6.333 -1.0025  1.8934 -1.6573
 2036SOL     OW17743   0.576   0.711   8.115  0.9084  0.6338 -0.1325
 2036SOL    HW117744   0.656   0.683   8.070  0.5619  0.3769 -0.5900
 2036SOL    HW217745   0.522   0.751   8.046  0.1366  0.5889  0.4510
 2037SOL     OW17746   3.769   4.720   7.365 -0.4939 -0.1535  0.0906
 2037SOL    HW117747   3.742   4.694   7.277 -0.2945  0.4369 -0.1413
 2037SOL    HW217748   3.855   0.022   7.364 -1.0884  1.1191  0.3415
 2038SOL     OW17749   4.720   1.054   2.792  0.0619 -0.5755 -0.5434
 2038SOL    HW117750   0.025   1.138   2.780 -1.1950 -0.1266 -1.9700
 2038SOL    HW217751   0.055   1.009   2.833  1.6327 -1.2455 -4.0696
 2039SOL     OW17752   1.401   1.467   6.928 -0.0204 -0.1141 -0.4210
 2039SOL    HW117753   1.382   1.540   6.869  0.6266 -1.2098 -1.9904
 2039SOL    HW217754   1.494   1.456   6.908 -0.1461 -1.0054 -0.5323
 2040SOL     OW17755   4.130   1.411   5.311 -0.3272 -0.3000  0.2852
 2040SOL    HW117756   4.036   1.394   5.312 -0.3541 -0.2928 -1.9436
 2040SOL    HW217757   4.131   1.491   5.258  0.1371 -0.5177 -0.0346
 2041SOL     OW17758   2.292   3.301   6.547  0.2212  0.5334 -0.1872
 2041SOL    HW117759   2.271   3.394   6.562 -0.6537  0.2604  0.2718
 2041SOL    HW217760   2.387   3.301   6.556  0.4310 -1.1506 -2.4105
 2042SOL     OW17761   4.254   2.906  15.040  0.4164  0.3812 -0.5325
 2042SOL    HW117762   4.214   2.855  14.969 -0.5465 -1.8392  1.5797
 2042SOL    HW217763   4.183   2.925  15.102  2.1548  1.4230  1.1241
 2043SOL     OW17764   3.558   0.745  15.350  0.0664 -0.2252 -0.2902
 2043SOL    HW117765   3.474   0.701  15.360 -0.8961  1.6748  0.1454
 2043SOL    HW217766   3.535   0.836  15.329 -2.8141 -0.9559 -0.2332
 2044SOL     OW17767   1.242   1.319   2.005  0.1425  0.2775  0.0021
 2044SOL    HW117768   1.281   1.405   1.987 -0.4520 -0.0315 -2.6294
 2044SOL    HW217769   1.309   1.256   1.980  0.0787 -0.2972  1.2471
 2045SOL     OW17770   1.476   2.819  12.147  0.3740 -0.1490  0.0195
 2045SOL    HW117771   1.512   2.731  12.132  1.7946  0.4122  0.1994
 2045SOL    HW217772   1.381   2.806  12.143  0.4300  0.0019 -1.7049
 2046SOL     OW17773   2.114   3.716   3.522  0.3543 -0.7514 -0.2151
 2046SOL    HW117774   2.165   3.660   3.580 -1.6076 -1.3034  0.9618
 2046SOL    HW217775   2.062   3.758   3.591  3.1100 -1.4903  2.2896
 2047SOL     OW17776   1.721   4.590  11.299 -0.3620  0.0049  0.0045
 2047SOL    HW117777   1.785   4.522  11.278  0.5268  0.6736  0.5254
 2047SOL    HW217778   1.648   4.557  11.246  0.7150  0.5017 -1.7777
 2048SOL     OW17779   4.067   2.554  11.517 -0.0729  0.4443 -0.4842
 2048SOL    HW117780   4.119   2.485  11.476  1.0273 -0.5710  2.6362
 2048SOL    HW217781   4.060   2.513  11.603 -0.4008  0.2083 -0.6190
 2049SOL     OW17782   2.046   2.512   3.873  0.1174  0.3442  0.4887
 2049SOL    HW117783   2.105   2.449   3.831 -0.2612 -0.2691  0.8721
 2049SOL    HW217784   1.997   2.454   3.932 -1.8898  2.2469  0.7114
 2050SOL     OW17785   3.663   2.540   8.385 -0.4943 -0.4710 -0.0253
 2050SOL    HW117786   3.613   2.580   8.456  0.2700  1.8447 -0.7895
 2050SOL    HW217787   3.731   2.508   8.443 -0.1533  0.6735  0.1966
 2051SOL     OW17788   2.248   0.758   5.377 -0.1980  0.2885 -0.3866
 2051SOL    HW117789   2.263   0.852   5.389 -2.1965  0.6219 -0.5204
 2051SOL    HW217790   2.169   0.747   5.430  0.6603  2.7214  1.3562
 2052SOL     OW17791   4.471   0.246   6.912 -0.4406  0.1529  0.4762
 2052SOL    HW117792   4.425   0.280   6.835  0.2229 -0.5307 -0.2154
 2052SOL    HW217793   4.417   0.171   6.936 -0.9521  0.9447  1.8048
 2053SOL     OW17794   0.258   3.266  12.259  0.4060 -0.3267  0.4593
 2053SOL    HW117795   0.350   3.275  12.283  0.2874 -0.7706  1.0928
 2053SOL    HW217796   0.234   3.212  12.334 -2.6399  1.7684  0.9874
 2054SOL     OW17797   0.587   0.161   2.910 -0.0529 -0.2652 -0.5466
 2054SOL    HW117798   0.502   0.127   2.884 -0.5253  1.5053 -1.3386
 2054SOL    HW217799   0.637   0.092   2.865  0.0089 -1.0479  0.7292
 2055SOL     OW17800   1.357   0.922   6.571  0.0667  0.1461  0.1286
 2055SOL    HW117801   1.387   1.004   6.532 -1.3017  0.7751  0.3962
 2055SOL    HW217802   1.403   0.858   6.517  0.8325  0.5118  0.3481
 2056SOL     OW17803   2.047   4.328   7.276 -0.5029  0.2103  0.1415
 2056SOL    HW117804   1.981   4.380   7.323 -0.6445 -2.5561  2.9557
 2056SOL    HW217805   2.084   4.282   7.351  1.2185 -0.3239 -1.0499
 2057SOL     OW17806   3.809   0.394  14.237 -0.9868  0.3230 -0.0034
 2057SOL    HW117807   3.772   0.397  14.325  2.4244 -0.2092  1.4038
 2057SOL    HW217808   3.787   0.486  14.219 -2.5127  0.1239  0.8521
 2058SOL     OW17809   3.271   1.385   7.530 -0.4736  0.2539  0.4276
 2058SOL    HW117810   3.237   1.474   7.542  0.4778  0.6898 -0.1558
 2058SOL    HW217811   3.229   1.361   7.448  1.1582 -2.6409  0.4358
 2059SOL     OW17812   2.141   2.724   8.627  0.4153 -0.2332  0.6490
 2059SOL    HW117813   2.053   2.686   8.629 -0.2218  1.1151 -1.8585
 2059SOL    HW217814   2.134   2.819   8.631  0.3888 -0.0964 -2.3471
 2060SOL     OW17815   2.522   3.916   1.250 -0.0846 -0.2270 -0.0664
 2060SOL    HW117816   2.452   3.932   1.313 -0.7912 -1.7889 -0.4698
 2060SOL    HW217817   2.591   3.940   1.311 -2.2544 -0.4660  2.4640
 2061SOL     OW17818   4.006   2.890   5.648 -0.4159 -0.1578  0.1384
 2061SOL    HW117819   3.978   2.924   5.563  1.0042  1.6699  0.3784
 2061SOL    HW217820   3.993   2.969   5.700 -0.1227 -1.1946  1.7851
 2062SOL     OW17821   4.504   2.820  10.131  0.2874 -0.0842 -0.0731
 2062SOL    HW117822   4.438   2.781  10.188  0.2250  0.4760  0.2414
 2062SOL    HW217823   4.584   2.789  10.173 -0.9271  1.9744  3.7572
 2063SOL     OW17824   0.875   0.556   3.225 -0.0411  0.2230  0.9671
 2063SOL    HW117825   0.896   0.649   3.220  0.6427  0.0178  0.1620
 2063SOL    HW217826   0.805   0.557   3.160  1.8774  2.4476 -1.0068
 2064SOL     OW17827   1.300   2.136   2.112 -1.2543  0.1747 -0.1260
 2064SOL    HW117828   1.245   2.083   2.170 -2.4397  1.2651 -0.2712
 2064SOL    HW217829   1.284   2.223   2.147  1.1547  0.7311 -0.4224
 2065SOL     OW17830   3.151   0.835   3.104  0.1061 -0.2612  0.4291
 2065SOL    HW117831   3.144   0.889   3.025 -0.1697 -0.2638  0.4508
 2065SOL    HW217832   3.061   0.803   3.106 -0.1157  0.1736 -2.1715
 2066SOL     OW17833   0.248   0.483  12.611 -0.2398  0.0088 -0.2447
 2066SOL    HW117834   0.171   0.430  12.631  1.1038 -1.3262  1.2792
 2066SOL    HW217835   0.315   0.449  12.669 -2.3927 -0.6651  1.8463
 2067SOL     OW17836   0.528   0.640   8.705  0.1732  0.0372  0.3102
 2067SOL    HW117837   0.478   0.568   8.743 -2.5615  0.6617 -2.0724
 2067SOL    HW217838   0.535   0.690   8.786 -0.0314  0.2719  0.1828
 2068SOL     OW17839   2.826   3.280   4.136 -0.5084 -0.0073 -0.1299
 2068SOL    HW117840   2.849   3.329   4.215 -0.0976  0.1999 -0.3769
 2068SOL    HW217841   2.741   3.249   4.166 -1.2724  2.0066 -0.1933
 2069SOL     OW17842   2.983   1.059  16.706  0.0258 -0.0314  0.6661
 2069SOL    HW117843   2.931   1.136  16.727  1.8648  0.2920  3.9813
 2069SOL    HW217844   3.060   1.091  16.658 -0.0112  0.1163  0.7060
 2070SOL     OW17845   3.709   3.545  10.831 -0.1058 -0.1236 -0.4473
 2070SOL    HW117846   3.676   3.556  10.741  0.3063  0.4107 -0.5323
 2070SOL    HW217847   3.678   3.629  10.866 -2.4186 -0.2545 -2.1346
 2071SOL     OW17848   0.698   4.105   3.251  1.0045  0.2994  0.1008
 2071SOL    HW117849   0.671   4.015   3.268 -0.5590  0.5271 -1.1885
 2071SOL    HW217850   0.611   4.146   3.260  0.2091 -1.2790 -0.4517
 2072SOL     OW17851   0.535   4.481   3.660  0.2246  0.1037  0.0330
 2072SOL    HW117852   0.462   4.448   3.712 -0.2341  1.5638  0.3129
 2072SOL    HW217853   0.599   4.410   3.664  0.3927  0.0610 -3.4016
 2073SOL     OW17854   1.883   1.065   4.793  0.2031 -0.0367  0.9388
 2073SOL    HW117855   1.938   1.041   4.867  1.9928 -0.7094 -0.6274
 2073SOL    HW217856   1.892   1.160   4.799  1.0273 -0.1075  0.8015
 2074SOL     OW17857   1.631   1.724   4.383 -0.2529 -0.0377 -0.1922
 2074SOL    HW117858   1.599   1.724   4.292 -0.7718  1.1543 -0.0032
 2074SOL    HW217859   1.724   1.712   4.361 -0.4159  1.4184 -1.7245
 2075SOL     OW17860   1.769   1.471   8.689 -0.1856 -0.4944  0.1771
 2075SOL    HW117861   1.709   1.397   8.675  0.4795 -0.8172 -0.9260
 2075SOL    HW217862   1.712   1.540   8.655 -0.9111 -0.6746  1.0263
 2076SOL     OW17863   3.844   4.402   2.942  0.2813  0.1478 -0.2765
 2076SOL    HW117864   3.752   4.423   2.924 -0.3161 -0.4113  2.1829
 2076SOL    HW217865   3.864   4.437   3.029 -0.9736  1.4629 -0.5221
 2077SOL     OW17866   2.516   3.113   8.722  0.1159 -0.1152  0.2027
 2077SOL    HW117867   2.512   3.208   8.731  1.8744 -0.1131  0.9332
 2077SOL    HW217868   2.519   3.110   8.626  0.6152 -3.6423  0.3181
 2078SOL     OW17869   1.776   2.482   6.400  0.3200  0.2617  0.0495
 2078SOL    HW117870   1.869   2.496   6.380  0.7647  0.0174  2.0040
 2078SOL    HW217871   1.749   2.439   6.319  0.0593  1.6132 -0.5970
 2079SOL     OW17872   1.648   1.258  15.511  0.0189 -0.3041  0.1469
 2079SOL    HW117873   1.724   1.255  15.452  1.0442 -1.8116  1.5520
 2079SOL    HW217874   1.592   1.187  15.478 -0.8200  1.2323 -1.7084
 2080SOL     OW17875   1.959   4.650  14.464  0.3092  0.4390 -0.0800
 2080SOL    HW117876   2.032   4.609  14.417  0.1341  0.9701 -0.8130
 2080SOL    HW217877   1.913   4.699  14.396  0.1265 -2.0333 -1.7186
 2081SOL     OW17878   2.315   0.448   9.638  0.2955  0.4565  0.1265
 2081SOL    HW117879   2.375   0.457   9.564 -1.5452  1.3097 -1.2631
 2081SOL    HW217880   2.226   0.449   9.603 -0.1272  0.2418  1.2016
 2082SOL     OW17881   2.847   2.871  13.592  0.4134 -0.5651  0.4972
 2082SOL    HW117882   2.923   2.886  13.648  0.2180 -2.0772  1.1653
 2082SOL    HW217883   2.813   2.796  13.641 -1.7169 -1.3120 -2.1054
 2083SOL     OW17884   2.015   3.733   2.227  0.6518 -0.3924 -0.0428
 2083SOL    HW117885   2.021   3.808   2.288 -0.9458  0.9623 -1.5616
 2083SOL    HW217886   2.092   3.681   2.250  0.5457 -0.1285  0.9529
 2084SOL     OW17887   2.232   4.666  15.649  0.3219  0.5314 -0.6224
 2084SOL    HW117888   2.316   4.629  15.678 -0.2144 -1.4403 -1.6486
 2084SOL    HW217889   2.247   0.018  15.676 -0.3675  0.9945 -1.7875
 2085SOL     OW17890   4.167   2.070   8.227 -0.0755 -0.3113  0.6197
 2085SOL    HW117891   4.198   1.988   8.188 -0.5620 -0.6207  0.8877
 2085SOL    HW217892   4.162   2.135   8.157  1.6389  0.3649  1.1218
 2086SOL     OW17893   3.723   3.104   0.664  0.0592 -0.4364 -0.0956
 2086SOL    HW117894   3.644   3.148   0.696  0.0368 -0.4501 -0.1327
 2086SOL    HW217895   3.697   3.015   0.687 -0.9335 -0.5413 -1.6603
 2087SOL     OW17896   0.614   3.678   0.585 -0.2232  0.3457 -0.4955
 2087SOL    HW117897   0.658   3.743   0.531  0.2361  2.8295  2.8327
 2087SOL    HW217898   0.578   3.616   0.521  2.0779 -0.9568 -0.5323
 2088SOL     OW17899   4.395   0.795   8.809  0.2138 -0.3636  0.1319
 2088SOL    HW117900   4.308   0.826   8.785 -0.8879 -3.0633  0.6194
 2088SOL    HW217901   4.410   0.835   8.895 -1.8371 -1.1440  0.8478
 2089SOL     OW17902   2.733   3.999   3.314  0.0257 -0.5075  0.5205
 2089SOL    HW117903   2.710   4.068   3.376 -0.4387 -0.8603  0.7421
 2089SOL    HW217904   2.789   3.950   3.373  2.2664  0.5172 -0.7653
 2090SOL     OW17905   3.694   0.917   6.050  0.0245 -0.2643  0.5476
 2090SOL    HW117906   3.665   1.008   6.053  0.7622 -0.0232  0.4502
 2090SOL    HW217907   3.788   0.920   6.035 -0.1404  1.2303 -0.2128
 2091SOL     OW17908   2.660   3.432   3.024 -0.5870 -0.4980 -0.0987
 2091SOL    HW117909   2.655   3.349   2.976 -4.2647 -0.3572  0.0552
 2091SOL    HW217910   2.677   3.404   3.113  1.5247 -0.4644 -0.4927
 2092SOL     OW17911   4.305   0.430  13.390 -0.6254 -0.0427 -0.3888
 2092SOL    HW117912   4.387   0.456  13.348  0.6171 -0.7315  1.6203
 2092SOL    HW217913   4.258   0.513  13.396 -0.2083  0.0727  1.3704
 2093SOL     OW17914   1.906   1.744   7.377  0.4444  0.1961 -0.0293
 2093SOL    HW117915   1.924   1.790   7.459  0.4046  0.2043 -0.0250
 2093SOL    HW217916   1.863   1.812   7.324  0.8479  0.7814  0.3935
 2094SOL     OW17917   3.931   3.693   3.317 -0.0803  0.4949 -0.4963
 2094SOL    HW117918   3.940   3.709   3.223 -2.1815  2.1794 -0.4301
 2094SOL    HW217919   3.872   3.618   3.313 -2.3200  2.2414 -0.0882
 2095SOL     OW17920   4.083   0.374   2.491  0.1045 -0.0691 -0.0305
 2095SOL    HW117921   4.046   0.379   2.403  1.1115 -0.5319 -0.4786
 2095SOL    HW217922   4.034   0.299   2.525 -0.1555 -0.4296 -1.2120
 2096SOL     OW17923   0.575   1.578   4.368 -0.1615  0.1638 -0.7671
 2096SOL    HW117924   0.578   1.631   4.288 -1.1596  0.5417 -0.5498
 2096SOL    HW217925   0.638   1.509   4.350  1.3518  1.3849 -0.2171
 2097SOL     OW17926   0.482   3.356   4.303  0.3860 -0.6683 -0.0614
 2097SOL    HW117927   0.442   3.442   4.294  0.2187 -1.0822 -3.2173
 2097SOL    HW217928   0.554   3.356   4.240  2.3401  1.6528  2.1761
 2098SOL     OW17929   3.751   4.357  12.872 -0.0903 -0.1115 -0.2384
 2098SOL    HW117930   3.791   4.290  12.927 -1.5230  0.7552  1.8638
 2098SOL    HW217931   3.806   4.334  12.797 -2.7366 -2.2995 -1.4791
 2099SOL     OW17932   0.322   4.726   1.530  0.4104  0.9486 -0.2387
 2099SOL    HW117933   0.281   4.709   1.445  0.1668  0.8475 -0.1016
 2099SOL    HW217934   0.393   4.662   1.535  0.4814  1.1909  1.7243
 2100SOL     OW17935   4.616   3.161   2.700  0.0129 -0.5652 -0.1390
 2100SOL    HW117936   4.526   3.132   2.707 -0.4706  0.8573 -0.4211
 2100SOL    HW217937   4.652   3.077   2.729 -1.5751 -1.5032 -0.9057
 2101SOL     OW17938   1.573   2.907   4.983 -0.4801  0.3411  0.1195
 2101SOL    HW117939   1.533   2.989   5.012  0.2243  0.6755  0.1644
 2101SOL    HW217940   1.524   2.839   5.029  0.3313 -0.2509  0.1309
 2102SOL     OW17941   3.924   0.669  10.124  0.0922  0.0974 -0.0502
 2102SOL    HW117942   3.917   0.650  10.218 -0.9366  0.9234  0.0510
 2102SOL    HW217943   4.016   0.663  10.101  0.0870 -3.8273  1.0307
 2103SOL     OW17944   2.559   1.665   4.033 -0.3693  0.1674 -0.5433
 2103SOL    HW117945   2.629   1.728   4.014  0.1454 -0.4241 -0.6314
 2103SOL    HW217946   2.609   1.596   3.988  0.3642 -0.0558  0.5996
 2104SOL     OW17947   4.674   0.743  14.245  0.3925  0.5536 -0.5492
 2104SOL    HW117948   0.024   0.731  14.212  0.2605 -0.1919 -0.6292
 2104SOL    HW217949   4.626   0.703  14.173  1.9856 -1.5165 -0.4545
 2105SOL     OW17950   1.730   1.066   2.316  0.2095  0.0984 -0.3853
 2105SOL    HW117951   1.737   0.972   2.298 -2.0266  0.1153 -1.3743
 2105SOL    HW217952   1.712   1.062   2.410  1.4488  1.7452 -0.0915
 2106SOL     OW17953   3.424   0.583  17.495  0.1064 -0.1925 -0.0681
 2106SOL    HW117954   3.427   0.541  17.409  0.3704  1.8741 -1.0635
 2106SOL    HW217955   3.329   0.587  17.489  0.1500  0.0504 -0.5730
 2107SOL     OW17956   3.520   0.849  12.670  0.3705  0.4182 -0.3781
 2107SOL    HW117957   3.559   0.761  12.662  0.4575  0.2237  2.3607
 2107SOL    HW217958   3.475   0.861  12.586  1.3603  0.3915 -0.9216
 2108SOL     OW17959   4.269   0.784  16.087 -0.5184  0.0087  0.6346
 2108SOL    HW117960   4.362   0.784  16.065 -0.6994  1.1179 -0.1238
 2108SOL    HW217961   4.252   0.870  16.124  0.7352  0.1260  0.9062
 2109SOL     OW17962   0.619   0.706   5.464 -0.3089 -0.5426 -0.1054
 2109SOL    HW117963   0.555   0.776   5.480 -0.2076 -0.3144 -0.6969
 2109SOL    HW217964   0.558   0.641   5.428  0.6615 -3.4366  3.5238
 2110SOL     OW17965   2.047   1.122  16.851  0.3330  0.0769  0.2617
 2110SOL    HW117966   2.051   1.183  16.925 -0.2019  0.0244  0.3310
 2110SOL    HW217967   1.963   1.141  16.809  0.7497  0.0340 -0.5847
 2111SOL     OW17968   4.574   2.974   4.278 -0.2310  0.5572  0.0410
 2111SOL    HW117969   4.612   2.942   4.360  1.2266 -1.8487 -1.5893
 2111SOL    HW217970   4.655   2.999   4.233 -0.1648  0.0251 -0.1262
 2112SOL     OW17971   2.144   0.929   1.321 -0.1366  0.1912 -0.0104
 2112SOL    HW117972   2.115   0.898   1.235 -2.1618  0.6020  0.5329
 2112SOL    HW217973   2.077   0.997   1.314 -0.4688  0.1592  3.0052
 2113SOL     OW17974   0.348   4.018   1.971 -0.1184 -0.4023 -0.2308
 2113SOL    HW117975   0.254   4.037   1.977  0.0124  0.8556 -2.0765
 2113SOL    HW217976   0.379   4.053   2.054 -0.5066  2.7897 -1.4334
 2114SOL     OW17977   0.653   0.311   3.648 -0.2863 -0.1167 -0.2926
 2114SOL    HW117978   0.663   0.393   3.599 -1.4683  0.8779  1.1237
 2114SOL    HW217979   0.622   0.260   3.573  0.6513 -1.5822  0.3396
 2115SOL     OW17980   0.147   2.297   1.850 -0.5022 -0.1342 -0.3584
 2115SOL    HW117981   0.175   2.334   1.933  0.0854  0.7643 -0.9572
 2115SOL    HW217982   0.058   2.276   1.879 -0.6685  1.4171  0.2518
 2116SOL     OW17983   3.968   2.088  11.527 -0.3945 -0.3764  0.4822
 2116SOL    HW117984   4.034   2.022  11.550  1.1666  1.1543  0.3334
 2116SOL    HW217985   3.978   2.147  11.602  1.1391 -0.3596  0.2650
 2117SOL     OW17986   0.150   1.864   6.912 -1.0817  0.2483  0.6304
 2117SOL    HW117987   0.244   1.881   6.918 -0.9152 -1.6900  2.9621
 2117SOL    HW217988   0.107   1.949   6.899  0.1762  0.7728 -0.1890
 2118SOL     OW17989   1.898   0.915  12.707 -0.2165  0.0321  0.4496
 2118SOL    HW117990   1.856   0.953  12.784 -1.2912 -0.0356 -0.1044
 2118SOL    HW217991   1.970   0.863  12.743  0.8932 -0.4746 -2.4520
 2119SOL     OW17992   2.876   2.156  12.928  0.4332  0.4577 -0.3391
 2119SOL    HW117993   2.903   2.147  13.019  0.6663  2.3755 -0.2178
 2119SOL    HW217994   2.909   2.245  12.916 -1.8585  1.4143  0.4413
 2120SOL     OW17995   0.220   0.200   8.071  0.0994  0.6341  0.1403
 2120SOL    HW117996   0.127   0.195   8.048  1.6012 -1.1241 -5.6359
 2120SOL    HW217997   0.227   0.148   8.151 -0.3073  0.4920  0.0893
 2121SOL     OW17998   1.445   0.404   7.305  0.3220  0.2445  0.0994
 2121SOL    HW117999   1.449   0.486   7.257 -1.4754 -1.2342 -2.5227
 2121SOL    HW218000   1.355   0.403   7.338 -0.7935 -0.8822 -3.0382
 2122SOL     OW18001   2.573   2.979  17.749 -0.6754 -0.6819  0.0360
 2122SOL    HW118002   2.634   3.038  17.704 -0.0723 -0.0328  1.7083
 2122SOL    HW218003   2.631   2.904   0.011 -2.4707 -1.7834  1.4691
 2123SOL     OW18004   0.933   4.478   2.510  0.2778 -0.2108 -0.2015
 2123SOL    HW118005   1.025   4.503   2.508  0.0751  0.3047 -2.5160
 2123SOL    HW218006   0.894   4.563   2.532  0.0949 -0.0663 -1.0973
 2124SOL     OW18007   0.245   0.763  10.762  0.1653  0.1901  0.2500
 2124SOL    HW118008   0.249   0.692  10.826 -0.1529 -0.9531 -1.0013
 2124SOL    HW218009   0.319   0.811  10.799  0.8326 -0.9320  0.3696
 2125SOL     OW18010   2.304   1.145   5.783 -0.1784 -0.2768  0.3421
 2125SOL    HW118011   2.210   1.129   5.793 -0.3608  1.4030  1.3471
 2125SOL    HW218012   2.341   1.095   5.856 -2.0547 -0.4933  1.1458
 2126SOL     OW18013   2.930   2.632   7.535  0.0174 -0.1033  0.4775
 2126SOL    HW118014   2.851   2.644   7.482 -0.6422 -0.4591  1.3961
 2126SOL    HW218015   2.989   2.696   7.496 -0.1791 -0.0005  0.3514
 2127SOL     OW18016   1.517   1.530   2.121  0.2271  0.2903  0.5351
 2127SOL    HW118017   1.565   1.559   2.044 -2.3417  0.2427 -1.1015
 2127SOL    HW218018   1.525   1.435   2.117  1.4228  0.4413 -0.5386
 2128SOL     OW18019   0.112   0.934  15.078 -0.2174 -0.0159 -0.2893
 2128SOL    HW118020   0.140   0.884  15.002  1.7237  0.4863  0.1133
 2128SOL    HW218021   0.194   0.973  15.106  0.7316 -0.6587 -2.2021
 2129SOL     OW18022   4.167   3.296   5.947 -0.2371  0.5474  0.1454
 2129SOL    HW118023   4.203   3.376   5.909 -1.1026  1.6538  1.6610
 2129SOL    HW218024   4.236   3.271   6.008  0.8599 -0.7447 -1.6177
 2130SOL     OW18025   4.539   3.841  16.237  0.4486 -0.3395  0.3445
 2130SOL    HW118026   4.617   3.856  16.184 -0.7532  1.0960 -1.0232
 2130SOL    HW218027   4.542   3.912  16.301 -0.0133 -0.7841  0.8574
 2131SOL     OW18028   0.185   3.023   4.487  0.2056 -0.1686  0.1311
 2131SOL    HW118029   0.095   3.036   4.519 -0.3871  0.3509 -1.7452
 2131SOL    HW218030   0.225   3.098   4.532  0.5051 -0.7903  0.8980
 2132SOL     OW18031   2.938   2.458   0.535  0.1071  0.4472  0.0605
 2132SOL    HW118032   2.963   2.454   0.442  0.0922  0.1108  0.0696
 2132SOL    HW218033   3.018   2.421   0.574 -0.2269 -1.0418 -0.6623
 2133SOL     OW18034   2.062   4.380   5.292 -0.1822 -0.5222  0.2956
 2133SOL    HW118035   2.142   4.418   5.255 -0.2794  1.3980  2.0600
 2133SOL    HW218036   2.015   4.452   5.335  1.7212  1.3980 -0.8055
 2134SOL     OW18037   3.451   0.816   4.825 -0.1726 -0.6142  0.3431
 2134SOL    HW118038   3.372   0.786   4.781 -1.6598  1.5092  1.5808
 2134SOL    HW218039   3.444   0.911   4.820  1.0593 -0.4862  0.9919
 2135SOL     OW18040   1.752   3.746   7.912  0.6153 -0.0691 -0.6165
 2135SOL    HW118041   1.681   3.790   7.864  0.0064 -1.6429 -1.1665
 2135SOL    HW218042   1.751   3.808   7.984  0.7212 -2.2669  1.2528
 2136SOL     OW18043   3.495   1.648   6.528 -0.5124 -0.9018 -0.0284
 2136SOL    HW118044   3.466   1.701   6.602  0.1606 -0.9282  0.2526
 2136SOL    HW218045   3.425   1.672   6.467 -0.7282  1.9906  1.3951
 2137SOL     OW18046   4.331   4.268   4.011 -0.1403 -0.0419  0.4069
 2137SOL    HW118047   4.421   4.297   4.027  0.1147  0.8947 -2.8772
 2137SOL    HW218048   4.345   4.197   3.948 -0.3690  0.3874 -0.1262
 2138SOL     OW18049   4.494   3.106  10.069 -0.3272  0.0984  0.1073
 2138SOL    HW118050   4.480   3.027  10.017 -2.2268 -0.8425  2.0286
 2138SOL    HW218051   4.438   3.088  10.145 -2.1716 -0.0368 -1.2819
 2139SOL     OW18052   3.412   4.162  14.945 -0.2616  0.0127 -0.8542
 2139SOL    HW118053   3.372   4.248  14.929  0.2828  0.4507  0.1610
 2139SOL    HW218054   3.433   4.135  14.856 -0.3193  0.5106 -1.0198
 2140SOL     OW18055   0.192   0.944   2.914  0.3324 -0.2691  0.1166
 2140SOL    HW118056   0.257   0.875   2.931  0.7371 -0.8220 -3.6950
 2140SOL    HW218057   0.187   0.987   2.999 -0.6969  0.4707 -0.3229
 2141SOL     OW18058   0.395   1.489   2.477  0.3411  0.6681  0.2643
 2141SOL    HW118059   0.449   1.568   2.477 -0.5926  1.3092 -0.9618
 2141SOL    HW218060   0.305   1.522   2.477 -0.3140 -1.1400 -1.0096
 2142SOL     OW18061   0.084   1.888   5.094  0.1334 -0.1057 -0.2110
 2142SOL    HW118062   0.045   1.972   5.069 -1.3978 -0.7870 -0.1128
 2142SOL    HW218063   0.005   1.835   5.106  0.2123  0.1570  1.4135
 2143SOL     OW18064   4.329   0.847   5.766  0.2177  0.4114 -0.4206
 2143SOL    HW118065   4.288   0.796   5.696 -1.1546 -0.9798  1.4058
 2143SOL    HW218066   4.338   0.934   5.726  2.0221 -0.5508 -2.1250
 2144SOL     OW18067   0.531   4.403   8.533 -0.2750  0.5107 -1.0661
 2144SOL    HW118068   0.538   4.355   8.615 -1.3443  1.3219 -0.5070
 2144SOL    HW218069   0.449   4.370   8.496 -0.7249  0.9707 -0.4669
 2145SOL     OW18070   0.272   1.591   3.155 -0.2205 -0.2481 -0.1614
 2145SOL    HW118071   0.311   1.667   3.111  0.0624 -1.0920 -1.3672
 2145SOL    HW218072   0.358   1.554   3.173 -0.6199 -0.4877  1.2306
 2146SOL     OW18073   1.101   4.462   4.343  0.3775 -0.2139 -0.1300
 2146SOL    HW118074   1.173   4.399   4.347 -0.4492 -1.1916 -0.2960
 2146SOL    HW218075   1.146   4.532   4.390  0.1302 -0.0659 -0.1132
 2147SOL     OW18076   1.249   3.302   3.503  0.0973  0.3173  0.2646
 2147SOL    HW118077   1.273   3.211   3.487 -1.5216 -0.0620 -0.0152
 2147SOL    HW218078   1.206   3.329   3.421 -1.1665 -3.2403 -0.2430
 2148SOL     OW18079   3.489   3.226   0.736 -0.2272 -0.4526  0.0330
 2148SOL    HW118080   3.417   3.284   0.711  0.5311  0.7248  0.5982
 2148SOL    HW218081   3.440   3.153   0.773  1.0016  0.2351  3.0308
 2149SOL     OW18082   1.899   3.794   2.806  0.4694  0.1293  0.1662
 2149SOL    HW118083   1.973   3.851   2.787  0.5254  0.7880  2.3859
 2149SOL    HW218084   1.868   3.781   2.717  1.1920 -0.4227 -0.0079
 2150SOL     OW18085   4.227   3.643   4.736  0.5167  0.4690 -0.4142
 2150SOL    HW118086   4.139   3.656   4.773  0.5518  0.0204 -0.1718
 2150SOL    HW218087   4.273   3.617   4.816 -0.4323  1.6940  0.5337
 2151SOL     OW18088   3.901   4.728   6.115 -0.2500  0.6041 -0.2692
 2151SOL    HW118089   3.828   0.040   6.078 -1.3919 -0.6389  0.2852
 2151SOL    HW218090   3.969   0.056   6.103  1.2688 -0.8510  0.3036
 2152SOL     OW18091   1.798   3.737   1.168  0.4449  0.0299 -0.3807
 2152SOL    HW118092   1.795   3.831   1.190  0.1805 -0.4072  1.4126
 2152SOL    HW218093   1.884   3.715   1.202  0.9981  0.7616 -1.3003
 2153SOL     OW18094   3.023   1.831   8.303  0.4790 -0.2021 -0.0871
 2153SOL    HW118095   2.986   1.744   8.315  3.2877 -1.3966  0.0362
 2153SOL    HW218096   2.944   1.883   8.315 -0.6313 -2.4697  2.3430
 2154SOL     OW18097   4.637   1.079   3.787  0.0539 -0.3619 -0.2225
 2154SOL    HW118098   4.668   1.048   3.702 -2.7231  0.7580 -1.6373
 2154SOL    HW218099   4.720   1.074   3.834 -1.1646  0.6687  2.0396
 2155SOL     OW18100   4.487   3.485   7.630 -0.3891  0.8637  0.2081
 2155SOL    HW118101   4.394   3.481   7.606  0.1185 -0.5956 -1.4715
 2155SOL    HW218102   4.473   3.463   7.723  0.6259 -0.5183  0.0295
 2156SOL     OW18103   3.148   3.467   3.536 -0.0053  0.1551  0.2482
 2156SOL    HW118104   3.206   3.394   3.517 -0.0539  0.5099 -1.3378
 2156SOL    HW218105   3.170   3.511   3.453  3.4767  1.2406  1.7829
 2157SOL     OW18106   1.137   1.031   6.189 -0.4511  0.7359 -0.1654
 2157SOL    HW118107   1.101   1.118   6.206 -1.8457 -0.0609  0.9895
 2157SOL    HW218108   1.230   1.038   6.212 -0.5902  2.1400 -0.0282
 2158SOL     OW18109   1.067   0.721  15.571 -0.0689 -0.4666  0.7227
 2158SOL    HW118110   1.115   0.797  15.537  0.2438 -0.0018  2.2026
 2158SOL    HW218111   1.023   0.765  15.644 -0.9957  1.2474 -0.8588
 2159SOL     OW18112   1.523   0.776  16.954 -0.1286 -0.6772 -0.8643
 2159SOL    HW118113   1.547   0.688  16.984 -0.9541 -0.9521 -1.0072
 2159SOL    HW218114   1.442   0.800  16.999  0.5634  2.9232 -1.5524
 2160SOL     OW18115   3.398   3.533   4.003 -0.4372 -0.1643 -0.1649
 2160SOL    HW118116   3.481   3.553   4.044 -2.4386  1.9112  2.8932
 2160SOL    HW218117   3.346   3.495   4.074  1.1902  1.0089  1.6305
 2161SOL     OW18118   3.996   0.820   6.652 -0.3575 -0.1908  0.1422
 2161SOL    HW118119   3.998   0.725   6.636 -1.0328 -0.6551  2.7874
 2161SOL    HW218120   3.945   0.852   6.578  0.5312  0.4312 -0.2015
 2162SOL     OW18121   1.050   3.204  17.153 -0.3306 -0.4398 -0.3818
 2162SOL    HW118122   1.049   3.241  17.241  0.7815  0.0638 -0.5805
 2162SOL    HW218123   0.967   3.227  17.111 -0.9568 -0.1791  0.9989
 2163SOL     OW18124   0.371   1.017  15.111 -0.2167 -0.5415 -0.2739
 2163SOL    HW118125   0.414   1.003  15.026  2.0639  0.9928  0.6329
 2163SOL    HW218126   0.452   1.017  15.161 -0.2668  2.6586 -0.1914
 2164SOL     OW18127   2.657   3.612   1.481  0.0451 -0.1998 -0.7916
 2164SOL    HW118128   2.583   3.586   1.426  0.3413 -0.9212 -0.8419
 2164SOL    HW218129   2.634   3.690   1.532  0.6546 -0.1376 -0.6117
 2165SOL     OW18130   1.144   2.804   8.509 -0.2863 -0.1114 -0.0804
 2165SOL    HW118131   1.134   2.791   8.415 -2.1461  0.9836 -0.0396
 2165SOL    HW218132   1.217   2.749   8.536 -0.1510 -2.2337 -4.8025
 2166SOL     OW18133   3.785   0.710  12.336 -0.4914  0.1957 -0.7753
 2166SOL    HW118134   3.787   0.682  12.428 -0.0119 -4.0102 -2.0439
 2166SOL    HW218135   3.864   0.764  12.333  0.9620 -1.7627  2.1147
 2167SOL     OW18136   0.854   3.967  11.543 -0.1763  0.4921 -0.1203
 2167SOL    HW118137   0.811   3.976  11.458 -0.2632  1.8221  0.0739
 2167SOL    HW218138   0.789   4.004  11.602 -0.7890 -0.9702  0.1290
 2168SOL     OW18139   3.337   1.489  13.824 -0.0154 -0.0155  0.4049
 2168SOL    HW118140   3.313   1.401  13.853  1.4200 -0.3203  0.6844
 2168SOL    HW218141   3.278   1.514  13.754  0.8642  3.0503  0.7664
 2169SOL     OW18142   3.543   3.571  17.508 -0.0090  0.9783 -0.1884
 2169SOL    HW118143   3.523   3.484  17.475  0.0100  0.8975  0.0170
 2169SOL    HW218144   3.599   3.616  17.445 -2.1988  0.1474 -2.7515
 2170SOL     OW18145   0.453   1.593   7.738 -0.3181  0.1460 -0.0708
 2170SOL    HW118146   0.372   1.622   7.779 -0.4542 -1.3171  0.6990
 2170SOL    HW218147   0.509   1.573   7.813  0.2625 -0.9485 -0.7790
 2171SOL     OW18148   1.694   2.197  15.236 -0.1032 -0.1061  0.3180
 2171SOL    HW118149   1.696   2.272  15.176 -0.2185 -1.1367 -0.9801
 2171SOL    HW218150   1.777   2.158  15.208  0.9597  0.9483  2.0123
 2172SOL     OW18151   4.547   2.853   5.785  0.5129  0.0214 -0.2177
 2172SOL    HW118152   4.635   2.829   5.814  0.7771  1.6061  0.2914
 2172SOL    HW218153   4.527   2.775   5.734  2.5406  0.6324 -1.9230
 2173SOL     OW18154   3.487   0.471   2.818  0.4088  0.7975 -0.0088
 2173SOL    HW118155   3.406   0.437   2.856  0.9849 -0.2954  0.2369
 2173SOL    HW218156   3.513   0.542   2.876 -1.7300  1.3303  0.2892
 2174SOL     OW18157   3.576   0.618   5.743  0.1418 -0.4681 -0.1908
 2174SOL    HW118158   3.530   0.696   5.711  0.9990 -0.2859 -0.9849
 2174SOL    HW218159   3.583   0.640   5.836 -3.4271  2.4012 -0.5807
 2175SOL     OW18160   3.772   2.063   2.864  0.0844  0.2907  0.3104
 2175SOL    HW118161   3.695   2.119   2.866 -1.5061 -1.9327  0.9105
 2175SOL    HW218162   3.731   1.978   2.876  0.0771  0.0968 -1.1973
 2176SOL     OW18163   3.405   3.422   3.762 -0.4355 -0.2419 -0.2135
 2176SOL    HW118164   3.387   3.465   3.846 -1.2588 -0.6948 -0.1585
 2176SOL    HW218165   3.397   3.495   3.700 -0.6923  2.0474  2.5507
 2177SOL     OW18166   3.966   4.116   5.709  0.1251  0.0663 -0.4514
 2177SOL    HW118167   3.920   4.170   5.645 -0.6546 -1.2071 -0.9634
 2177SOL    HW218168   4.022   4.182   5.751 -0.8615  0.1133  0.7759
 2178SOL     OW18169   4.228   4.562   1.927  0.1724 -0.0998 -0.7241
 2178SOL    HW118170   4.284   4.501   1.879 -1.5682 -1.1038 -1.5127
 2178SOL    HW218171   4.205   4.620   1.854 -0.4318  0.7441  0.1322
 2179SOL     OW18172   1.870   3.941   7.061 -0.3117  0.1845 -0.1028
 2179SOL    HW118173   1.848   4.034   7.053 -1.5257 -0.0385  0.6908
 2179SOL    HW218174   1.920   3.936   7.142 -0.5976  3.4760  0.2794
 2180SOL     OW18175   3.056   1.329   3.781 -0.1478 -0.9894 -0.1351
 2180SOL    HW118176   2.964   1.317   3.802 -0.3170  0.2649 -0.1171
 2180SOL    HW218177   3.059   1.310   3.687  1.4630 -0.9676 -0.0983
 2181SOL     OW18178   4.061   2.834   8.401  0.4705 -0.2091  0.0334
 2181SOL    HW118179   4.154   2.818   8.384  0.3628 -1.4744  0.6990
 2181SOL    HW218180   4.023   2.787   8.327  1.5009 -1.3684  0.2645
 2182SOL     OW18181   0.677   0.331   3.938 -0.2428  0.4134  0.1257
 2182SOL    HW118182   0.683   0.340   3.843  1.8295 -1.9651  0.0139
 2182SOL    HW218183   0.755   0.280   3.958 -1.4042 -2.1751 -1.9990
 2183SOL     OW18184   4.384   4.583  16.868  0.2907  0.7655  1.0428
 2183SOL    HW118185   4.394   4.626  16.782  2.0050 -1.4224  0.1640
 2183SOL    HW218186   4.471   4.600  16.904  0.1276  1.2867  1.1937
 2184SOL     OW18187   0.489   3.584   6.065  0.2222 -0.0900  0.6512
 2184SOL    HW118188   0.536   3.631   6.135 -1.1892 -1.0893  2.2593
 2184SOL    HW218189   0.414   3.645   6.065  0.7741  0.5818 -0.7713
 2185SOL     OW18190   1.993   3.017   4.445 -0.4286 -0.4127 -0.2982
 2185SOL    HW118191   2.011   2.990   4.535 -2.0278 -0.1263  0.1021
 2185SOL    HW218192   1.962   3.106   4.460  1.9756  0.3694 -0.0031
 2186SOL     OW18193   0.697   3.453   3.396 -0.5389  0.3373 -1.0811
 2186SOL    HW118194   0.708   3.362   3.371  0.4591  0.3718 -0.7615
 2186SOL    HW218195   0.665   3.499   3.319  0.8980  2.6982 -0.2646
 2187SOL     OW18196   3.532   3.621   5.486 -0.0390 -0.2710 -0.2372
 2187SOL    HW118197   3.585   3.541   5.496  0.4494  0.0758 -0.0681
 2187SOL    HW218198   3.469   3.618   5.558 -2.5195  0.4232 -2.3521
 2188SOL     OW18199   1.973   1.123  10.135  0.4337  0.2923  0.2538
 2188SOL    HW118200   2.034   1.053  10.113  0.1259  0.5399 -1.3570
 2188SOL    HW218201   2.031   1.172  10.195  3.2796 -0.5722 -1.7952
 2189SOL     OW18202   4.028   1.231   8.903 -0.2710  0.2841  0.3130
 2189SOL    HW118203   4.046   1.190   8.819  0.7847  1.8525 -0.2140
 2189SOL    HW218204   4.069   1.167   8.962  3.2834  2.8111  0.5882
 2190SOL     OW18205   2.771   1.547  11.386 -0.5621 -0.1280 -0.2945
 2190SOL    HW118206   2.747   1.572  11.296 -0.4527 -0.5467 -0.4421
 2190SOL    HW218207   2.748   1.624  11.438 -2.0641  0.5290 -1.9033
 2191SOL     OW18208   0.709   1.264   9.562  0.2290 -0.5013 -0.0582
 2191SOL    HW118209   0.767   1.320   9.615 -0.7692 -0.0310  0.5369
 2191SOL    HW218210   0.771   1.191   9.555 -0.1035 -0.9996  2.2502
 2192SOL     OW18211   2.692   0.203   7.855  0.8101 -0.0893 -0.1061
 2192SOL    HW118212   2.738   0.207   7.772  0.8600 -1.1256 -0.1318
 2192SOL    HW218213   2.737   0.125   7.887 -1.4686 -1.2146  0.3968
 2193SOL     OW18214   4.646   0.558   9.948  0.4879 -0.0229 -0.1322
 2193SOL    HW118215   4.706   0.490   9.979  3.3839  2.4018 -0.3419
 2193SOL    HW218216   4.694   0.638   9.927  1.0292  0.2678  2.1441
 2194SOL     OW18217   1.258   4.205   6.481 -0.2517  0.6588 -0.0123
 2194SOL    HW118218   1.246   4.123   6.434  2.7981  1.1711 -1.6914
 2194SOL    HW218219   1.302   4.264   6.420 -0.1384  0.1630 -0.4124
 2195SOL     OW18220   4.397   1.716   3.368  0.2744 -0.2303  0.0098
 2195SOL    HW118221   4.383   1.634   3.414 -1.4306  0.6478  1.0623
 2195SOL    HW218222   4.403   1.768   3.449 -2.1221 -2.1881  1.4049
 2196SOL     OW18223   2.992   2.983   3.455 -0.4602  0.2690  0.3446
 2196SOL    HW118224   2.973   3.035   3.376  1.5618  0.6325  0.0895
 2196SOL    HW218225   2.916   3.015   3.502  2.1038  4.9193  1.3545
 2197SOL     OW18226   2.356   1.544  10.402  0.2281 -0.4686 -0.7731
 2197SOL    HW118227   2.266   1.535  10.433  0.6245 -0.2407  0.4425
 2197SOL    HW218228   2.382   1.593  10.480  0.0867 -0.3041 -0.8281
 2198SOL     OW18229   4.733   2.810   8.051  0.0640 -0.5026  0.5533
 2198SOL    HW118230   4.718   2.716   8.049  0.5508 -0.5922  1.0123
 2198SOL    HW218231   4.720   2.824   8.145 -0.2133  2.4640  0.0780
 2199SOL     OW18232   0.464   4.427   9.309  0.0251 -0.7364 -0.6694
 2199SOL    HW118233   0.403   4.403   9.239 -1.0753 -1.4887  0.5444
 2199SOL    HW218234   0.484   4.518   9.287  0.6149 -0.1556  2.2285
 2200SOL     OW18235   2.254   0.697   1.459  0.3863 -0.2674  0.3641
 2200SOL    HW118236   2.274   0.681   1.366 -1.9084  2.1617 -0.5357
 2200SOL    HW218237   2.341   0.708   1.498  0.1153 -0.9224  1.1444
 2201SOL     OW18238   2.154   2.656   6.058  0.1972  0.2090  0.0073
 2201SOL    HW118239   2.222   2.724   6.064 -0.0618  0.3571  1.3085
 2201SOL    HW218240   2.149   2.640   5.963 -0.1478 -0.5854  0.1589
 2202SOL     OW18241   4.602   4.220   8.365  0.0421  0.0533  0.4650
 2202SOL    HW118242   4.665   4.244   8.433  2.9146 -0.4468 -2.0018
 2202SOL    HW218243   4.581   4.130   8.387 -1.5308  0.1149 -0.7978
 2203SOL     OW18244   3.163   4.619   8.339  0.2379 -0.1827  0.3390
 2203SOL    HW118245   3.183   4.713   8.340  0.5252 -0.2074 -2.3652
 2203SOL    HW218246   3.119   4.606   8.423 -0.1347 -2.9030 -0.2840
 2204SOL     OW18247   1.344   4.027   8.966  0.9265 -0.0276  0.3800
 2204SOL    HW118248   1.285   4.098   8.940  1.0592  0.6139  1.8170
 2204SOL    HW218249   1.408   4.024   8.895 -1.5869 -1.0414 -1.8262
 2205SOL     OW18250   2.270   3.918  15.596  0.3612  0.4749  0.0285
 2205SOL    HW118251   2.227   3.861  15.661 -0.3293 -1.0854 -1.7815
 2205SOL    HW218252   2.234   3.875  15.518 -1.1978 -0.4439  1.2369
 2206SOL     OW18253   1.313   2.182   6.232 -0.4859 -0.4195 -0.3862
 2206SOL    HW118254   1.375   2.116   6.264 -1.2205 -2.1958 -2.6125
 2206SOL    HW218255   1.237   2.125   6.225 -0.8006  0.1764 -1.9087
 2207SOL     OW18256   4.493   2.411   3.006 -0.5533 -0.0349  0.0245
 2207SOL    HW118257   4.497   2.423   3.101 -0.2951  1.2572 -0.1512
 2207SOL    HW218258   4.438   2.334   2.991  0.2776 -0.9133  1.5138
 2208SOL     OW18259   3.010   2.145   0.023 -0.8281 -0.4249 -0.3859
 2208SOL    HW118260   2.932   2.199   0.009 -0.6529 -0.3074 -0.8940
 2208SOL    HW218261   2.981   2.082   0.089 -2.0535 -0.2265 -0.7288
 2209SOL     OW18262   3.269   1.042   0.087  0.2847  0.4373  0.2833
 2209SOL    HW118263   3.327   1.014   0.016  1.0239 -0.0877  1.0897
 2209SOL    HW218264   3.202   1.082   0.032  0.4173 -1.4534 -1.2549
 2210SOL     OW18265   0.880   3.176   4.235  0.5021 -0.4924 -0.1125
 2210SOL    HW118266   0.877   3.111   4.305  0.6266  0.3335  0.6568
 2210SOL    HW218267   0.968   3.212   4.234 -0.0493  0.8721 -0.4123
 2211SOL     OW18268   2.534   2.559  13.592 -0.2403  0.1193  0.3110
 2211SOL    HW118269   2.514   2.536  13.683  2.5731 -0.3441  0.8173
 2211SOL    HW218270   2.612   2.613  13.599 -0.2188  0.1008  0.2183
 2212SOL     OW18271   3.171   3.488   3.155  0.0972 -0.4192 -0.5354
 2212SOL    HW118272   3.256   3.521   3.186 -0.4284 -0.4204  0.8887
 2212SOL    HW218273   3.112   3.554   3.192  0.5698 -0.2823 -0.0175
 2213SOL     OW18274   3.335   0.389   6.039 -0.0125 -0.1236  0.1806
 2213SOL    HW118275   3.284   0.308   6.045  0.5240 -0.3406  1.9684
 2213SOL    HW218276   3.382   0.357   5.962 -0.0612  1.2510 -0.4148
 2214SOL     OW18277   0.739   2.844  16.842 -0.1628  0.0443  0.2254
 2214SOL    HW118278   0.718   2.757  16.874  2.4850 -1.4257 -2.0303
 2214SOL    HW218279   0.803   2.821  16.775  0.3492 -0.2545  0.8177
 2215SOL     OW18280   4.310   4.413  13.566  0.0406  0.6016 -0.3568
 2215SOL    HW118281   4.371   4.386  13.633 -0.2673  0.0952 -0.2843
 2215SOL    HW218282   4.243   4.462  13.614 -1.9863 -3.2314  0.6791
 2216SOL     OW18283   2.260   4.101   2.331 -0.5615  0.4112 -0.0860
 2216SOL    HW118284   2.334   4.083   2.388 -0.7570  1.7627  0.5796
 2216SOL    HW218285   2.310   4.161   2.277  0.4201 -0.3180 -0.0032
 2217SOL     OW18286   3.447   3.654   2.418 -0.6072 -0.4495 -0.8494
 2217SOL    HW118287   3.515   3.721   2.411 -0.2023 -0.8713 -0.9340
 2217SOL    HW218288   3.381   3.698   2.472  1.7930 -0.4524  2.0568
 2218SOL     OW18289   0.854   0.149  11.019 -0.8265 -0.5296 -0.3083
 2218SOL    HW118290   0.789   0.185  11.080 -0.9836 -1.7719  0.2666
 2218SOL    HW218291   0.924   0.146  11.084 -4.3060  0.6216  3.5355
 2219SOL     OW18292   1.577   3.885   7.709 -0.0297  0.2708  0.5854
 2219SOL    HW118293   1.519   3.863   7.636  0.0648 -1.6439  1.0736
 2219SOL    HW218294   1.664   3.879   7.669  0.7364  3.4023  1.8324
 2220SOL     OW18295   2.801   4.118  17.525  0.0377  0.0348  0.1751
 2220SOL    HW118296   2.837   4.113  17.436 -1.3069  1.9487 -0.4739
 2220SOL    HW218297   2.713   4.091  17.500 -0.4799  1.0844  0.8510
 2221SOL     OW18298   0.632   0.095   4.512  0.0264  0.7255  0.2164
 2221SOL    HW118299   0.708   0.037   4.509 -0.1918  0.3925  1.0506
 2221SOL    HW218300   0.556   0.037   4.523  1.5697 -1.2527  0.3870
 2222SOL     OW18301   2.523   0.020   4.746  0.1669  1.1027  0.1969
 2222SOL    HW118302   2.590   0.073   4.703  0.0907  1.1094  0.0872
 2222SOL    HW218303   2.450   0.020   4.685  0.2894 -2.0658  0.0475
 2223SOL     OW18304   0.712   0.276  15.325 -0.5108  0.3993 -0.3719
 2223SOL    HW118305   0.668   0.241  15.247  0.6852 -1.5593 -0.1750
 2223SOL    HW218306   0.782   0.210  15.324  0.5460  1.5266 -0.4694
 2224SOL     OW18307   4.072   0.537   0.440  0.0307 -0.2379 -0.5498
 2224SOL    HW118308   4.039   0.453   0.470 -3.6524  0.8456 -1.5560
 2224SOL    HW218309   4.070   0.512   0.348 -2.2432  0.7892 -0.7961
 2225SOL     OW18310   0.816   3.370  14.681 -0.0661 -0.1422 -0.2478
 2225SOL    HW118311   0.818   3.371  14.585 -0.3010  0.2320 -0.2464
 2225SOL    HW218312   0.891   3.311  14.690 -0.9316 -1.3042 -0.5825
 2226SOL     OW18313   1.820   0.519   7.336  0.3842  0.3257 -0.1657
 2226SOL    HW118314   1.859   0.502   7.422  0.0511  1.7211  0.2674
 2226SOL    HW218315   1.737   0.562   7.356  1.5362  3.5463 -2.4019
 2227SOL     OW18316   1.030   1.445  10.424 -0.4790 -0.4228  0.0681
 2227SOL    HW118317   0.938   1.442  10.451 -0.6536 -0.2865 -0.5247
 2227SOL    HW218318   1.092   1.418  10.492 -1.6586 -3.1686  0.0505
 2228SOL     OW18319   0.135   1.322   9.448 -0.1980 -0.0489 -0.0404
 2228SOL    HW118320   0.154   1.228   9.452  0.3037  0.1197  1.3839
 2228SOL    HW218321   0.181   1.353   9.526 -1.5142  0.2214  0.6284
 2229SOL     OW18322   3.170   2.048   0.252 -0.3135  0.3227 -0.1532
 2229SOL    HW118323   3.180   1.970   0.198  1.8593  0.1339  0.5207
 2229SOL    HW218324   3.158   2.115   0.185 -0.2576  0.9490  0.4664
 2230SOL     OW18325   1.970   1.340   2.775 -0.5706 -0.6110 -0.1818
 2230SOL    HW118326   1.878   1.349   2.799 -0.1123  2.3123  0.5110
 2230SOL    HW218327   2.005   1.327   2.864 -1.1579  0.0933  0.1584
 2231SOL     OW18328   0.435   3.966   1.720  0.2893  0.3336 -0.6102
 2231SOL    HW118329   0.524   3.934   1.735  0.5612  1.2504 -0.2466
 2231SOL    HW218330   0.415   3.988   1.811  0.2304  0.3026 -0.6158
 2232SOL     OW18331   2.105   0.964   3.435 -0.6175  0.2683 -0.1493
 2232SOL    HW118332   2.040   0.894   3.425 -0.8182  0.3999  0.2201
 2232SOL    HW218333   2.178   0.911   3.404  2.4518  4.3872  0.0046
 2233SOL     OW18334   3.469   1.872   2.269 -0.2822  0.1681  0.0393
 2233SOL    HW118335   3.529   1.947   2.261  1.4131 -1.2739 -0.8684
 2233SOL    HW218336   3.517   1.803   2.224 -2.0811 -0.4415 -0.9373
 2234SOL     OW18337   3.203   2.276   2.112 -0.0444  0.3019 -0.0330
 2234SOL    HW118338   3.141   2.345   2.136  0.3940  0.7628 -0.2100
 2234SOL    HW218339   3.148   2.205   2.078 -0.6350  0.2945  0.9351
 2235SOL     OW18340   1.355   1.269  11.098 -0.1355  0.3179 -0.0387
 2235SOL    HW118341   1.441   1.308  11.115  0.6825 -1.2892 -0.4544
 2235SOL    HW218342   1.299   1.345  11.114 -1.9146 -0.1527 -4.1891
 2236SOL     OW18343   0.669   4.507  15.995  0.3545 -0.6700 -0.0900
 2236SOL    HW118344   0.589   4.504  15.942 -0.7235  1.2110  1.4084
 2236SOL    HW218345   0.636   4.461  16.072  0.5450  1.1286  1.0537
 2237SOL     OW18346   3.698   1.299   8.641 -0.4860  0.4385 -0.2354
 2237SOL    HW118347   3.686   1.241   8.717  0.7739 -0.8508 -1.0155
 2237SOL    HW218348   3.756   1.241   8.591 -1.2790  1.3044 -2.1463
 2238SOL     OW18349   1.437   4.044   2.436  0.2714 -0.5365  0.0496
 2238SOL    HW118350   1.411   4.127   2.476  0.6330  0.1286 -1.1125
 2238SOL    HW218351   1.406   3.980   2.501  2.4046 -1.5428  0.0787
 2239SOL     OW18352   3.993   2.157   9.275  0.2762  0.6633  0.0140
 2239SOL    HW118353   4.085   2.157   9.247  0.4909 -0.0464  0.7254
 2239SOL    HW218354   3.991   2.252   9.271  0.4794  0.6666 -0.0267
 2240SOL     OW18355   2.013   1.675   6.637  0.4347  0.1714 -0.2591
 2240SOL    HW118356   1.922   1.669   6.664 -0.0735 -1.1887 -2.2759
 2240SOL    HW218357   2.028   1.763   6.603  1.4046 -0.3483 -1.1654
 2241SOL     OW18358   2.569   1.460   5.594 -0.4038  0.1153  0.5512
 2241SOL    HW118359   2.574   1.513   5.514 -3.1938  2.4280  1.8714
 2241SOL    HW218360   2.474   1.463   5.608 -0.6542  0.5833 -1.2778
 2242SOL     OW18361   2.207   0.006  12.593 -0.1918 -0.4754  0.0587
 2242SOL    HW118362   2.245   4.726  12.679 -1.9592 -1.6321  0.5722
 2242SOL    HW218363   2.159   4.668  12.563  0.5263 -0.7535 -0.3799
 2243SOL     OW18364   4.611   4.272   5.115  0.0455  0.3400  0.5707
 2243SOL    HW118365   4.632   4.180   5.130  0.5417  0.6564  1.8751
 2243SOL    HW218366   4.596   4.312   5.201 -1.3258  0.4077  0.2978
 2244SOL     OW18367   0.020   0.590  14.538 -0.6053  0.0419 -0.4194
 2244SOL    HW118368   4.727   0.679  14.556 -1.1305 -0.0498 -0.8788
 2244SOL    HW218369   4.676   0.545  14.521 -1.0365  0.7734 -0.2657
 2245SOL     OW18370   3.509   3.592   6.517  0.2575  0.5078 -0.1109
 2245SOL    HW118371   3.517   3.549   6.603 -1.5769 -1.6881 -1.0382
 2245SOL    HW218372   3.597   3.631   6.518  0.2769  0.4294  1.2714
 2246SOL     OW18373   0.185   4.503   2.240 -0.0863 -0.3511 -0.0772
 2246SOL    HW118374   0.154   4.552   2.317 -0.9049  0.3447 -0.8439
 2246SOL    HW218375   0.246   4.440   2.279 -0.9423  1.0020  3.4700
 2247SOL     OW18376   3.384   2.461   1.880  0.2233  0.5794  0.3086
 2247SOL    HW118377   3.347   2.373   1.881  1.5086  0.0384  0.3404
 2247SOL    HW218378   3.302   2.504   1.903  0.3480  1.3093 -0.6329
 2248SOL     OW18379   1.478   0.889   1.448  0.4098  0.0754  1.0419
 2248SOL    HW118380   1.550   0.948   1.427 -0.6561  1.2092  0.5385
 2248SOL    HW218381   1.411   0.956   1.436 -1.3329 -1.3621  2.7389
 2249SOL     OW18382   4.071   3.642   2.334 -0.5704  0.6213  0.5066
 2249SOL    HW118383   4.050   3.558   2.376 -0.4953  0.9153  1.1312
 2249SOL    HW218384   4.131   3.682   2.397 -0.0473 -1.7175  1.5349
 2250SOL     OW18385   2.961   3.823   3.067  0.4262  0.0963  0.1043
 2250SOL    HW118386   2.942   3.787   3.153 -2.3369  1.3392  0.0150
 2250SOL    HW218387   3.051   3.852   3.076  0.4379  0.3477 -0.8630
 2251SOL     OW18388   0.580   2.530   8.801 -0.2035 -0.0811  0.7371
 2251SOL    HW118389   0.655   2.585   8.822  0.2726 -0.6926  0.6316
 2251SOL    HW218390   0.501   2.584   8.810  0.0549  0.5167 -0.7568
 2252SOL     OW18391   4.025   4.464   4.907 -0.3891 -0.0520  0.6581
 2252SOL    HW118392   3.942   4.437   4.946 -0.2226  0.0695  1.0891
 2252SOL    HW218393   4.038   4.389   4.848 -2.8019 -0.7662  1.0714
 2253SOL     OW18394   0.932   2.241   6.497 -0.1158 -0.1668  0.2088
 2253SOL    HW118395   1.010   2.293   6.476 -0.9555  1.4513  1.0668
 2253SOL    HW218396   0.874   2.245   6.422 -1.1854  1.1375  1.0955
 2254SOL     OW18397   3.749   2.692   2.677  0.4406  0.0906  0.1851
 2254SOL    HW118398   3.689   2.679   2.750  2.2175  1.0881  1.8261
 2254SOL    HW218399   3.836   2.690   2.718  0.5172 -2.3725 -0.0921
 2255SOL     OW18400   0.733   2.387   3.833 -0.4453  0.0280  0.4730
 2255SOL    HW118401   0.693   2.302   3.816 -1.0480  0.5778 -0.8384
 2255SOL    HW218402   0.682   2.426   3.904 -0.3427  1.3470 -0.1689
 2256SOL     OW18403   3.350   0.269   9.036 -0.0376 -0.1727 -0.2808
 2256SOL    HW118404   3.400   0.239   8.960  1.3344  1.4743 -0.0198
 2256SOL    HW218405   3.264   0.244   9.003  0.5432 -1.6276 -0.7006
 2257SOL     OW18406   2.560   1.973   2.099  0.5600 -0.5188  0.2040
 2257SOL    HW118407   2.569   2.004   2.190 -0.1603  0.5996 -0.1030
 2257SOL    HW218408   2.652   1.984   2.077  0.2009 -0.5511 -1.2586
 2258SOL     OW18409   0.566   0.295   8.138 -0.0348  0.4916 -0.8676
 2258SOL    HW118410   0.525   0.307   8.223  1.2957  1.5842 -0.3660
 2258SOL    HW218411   0.617   0.215   8.148 -0.8802 -0.1829 -2.0029
 2259SOL     OW18412   0.622   2.649   2.128  0.0077 -0.1567  0.7669
 2259SOL    HW118413   0.641   2.606   2.211 -0.0722 -1.3679  0.1554
 2259SOL    HW218414   0.697   2.706   2.112  0.2579 -0.5371  0.5925
 2260SOL     OW18415   2.479   3.176   1.218 -0.3789  0.8116 -0.0711
 2260SOL    HW118416   2.420   3.222   1.158  1.7766  2.4685 -0.8817
 2260SOL    HW218417   2.411   3.144   1.278 -0.7927  2.8682  0.5474
 2261SOL     OW18418   1.302   1.954  11.735  0.6340  0.3924  0.3105
 2261SOL    HW118419   1.386   1.998  11.745  0.2989  0.6584  1.8551
 2261SOL    HW218420   1.259   1.984  11.815 -0.8163  1.4108 -0.8333
 2262SOL     OW18421   1.959   0.261   0.826 -0.2683  0.0933  0.2251
 2262SOL    HW118422   1.890   0.285   0.764 -0.9284 -2.1040  0.1306
 2262SOL    HW218423   2.037   0.301   0.789  0.4881 -0.7126  0.9396
 2263SOL     OW18424   1.242   4.281   8.944 -0.1745 -0.3525  0.3807
 2263SOL    HW118425   1.234   4.276   9.039  0.4127  1.0585  0.5060
 2263SOL    HW218426   1.271   4.371   8.930 -0.2722 -0.6122 -1.4793
 2264SOL     OW18427   1.430   2.575   8.413  0.1244 -0.1676 -0.4220
 2264SOL    HW118428   1.416   2.493   8.364  0.5204 -0.0002 -0.8119
 2264SOL    HW218429   1.438   2.643   8.347 -0.8444  0.7705  0.4377
 2265SOL     OW18430   3.290   2.557  14.142 -0.5946 -0.3436  0.6243
 2265SOL    HW118431   3.318   2.474  14.180  1.9968  1.0660  1.8037
 2265SOL    HW218432   3.226   2.532  14.076  0.3988  1.0736 -0.8789
 2266SOL     OW18433   4.693   4.474   8.732 -0.0160  0.1918  0.0881
 2266SOL    HW118434   4.619   4.490   8.791 -0.9734 -0.2193 -1.0021
 2266SOL    HW218435   4.674   4.546   8.672 -2.8925  1.4898  2.5000
 2267SOL     OW18436   1.625   4.691   9.914  0.3032 -0.2813  0.1364
 2267SOL    HW118437   1.567   0.021   9.949 -0.8077 -0.5087 -1.2613
 2267SOL    HW218438   1.707   0.001   9.919 -1.1836  2.2031  0.2692
 2268SOL     OW18439   3.339   3.812   6.276 -0.1713 -0.4559 -0.1729
 2268SOL    HW118440   3.300   3.892   6.239  1.6231  0.1960 -0.6445
 2268SOL    HW218441   3.381   3.842   6.357 -1.0165 -1.6737  0.7106
 2269SOL     OW18442   0.138   2.922   7.848 -0.3724  0.9774  0.3204
 2269SOL    HW118443   0.100   2.881   7.925  0.3087 -0.1467  0.0610
 2269SOL    HW218444   0.184   2.991   7.895 -1.2270  1.7281  0.0545
 2270SOL     OW18445   2.293   1.185   3.474 -0.5142 -0.4410 -0.7958
 2270SOL    HW118446   2.270   1.261   3.420  0.5529  0.3240 -0.1771
 2270SOL    HW218447   2.222   1.122   3.464 -1.9925  1.5075 -2.4632
 2271SOL     OW18448   0.999   3.770  12.157  0.5754  0.6657 -0.0553
 2271SOL    HW118449   1.045   3.723  12.227  0.6569  0.0785 -0.4989
 2271SOL    HW218450   0.939   3.702  12.125  0.7421  0.7067 -0.4472
 2272SOL     OW18451   0.681   1.159   7.204 -0.1579 -0.1549  0.3474
 2272SOL    HW118452   0.750   1.203   7.155  0.8553  0.5677  2.3886
 2272SOL    HW218453   0.711   1.155   7.295  3.2276  0.4432 -0.7459
 2273SOL     OW18454   1.659   3.605  13.515 -0.1664 -0.1955  0.5179
 2273SOL    HW118455   1.708   3.627  13.594  1.2546 -3.0828  0.4456
 2273SOL    HW218456   1.571   3.632  13.539 -0.4192  0.8546 -1.6042
 2274SOL     OW18457   1.500   2.906   5.603 -0.3671 -0.2985 -0.3244
 2274SOL    HW118458   1.494   2.817   5.635  2.3861 -0.2066  0.4756
 2274SOL    HW218459   1.573   2.907   5.540  0.7914 -0.8184  1.0206
 2275SOL     OW18460   0.762   1.032   7.801 -0.0531 -0.0526  0.3228
 2275SOL    HW118461   0.776   0.967   7.733 -2.4967  0.4284 -0.6626
 2275SOL    HW218462   0.708   1.094   7.752 -1.1483 -2.4351 -1.4657
 2276SOL     OW18463   3.172   0.208   3.175  0.4874 -0.1280 -0.1681
 2276SOL    HW118464   3.253   0.176   3.135  1.4706  2.8983 -0.5410
 2276SOL    HW218465   3.216   0.262   3.240 -1.4516 -0.4574  1.4103
 2277SOL     OW18466   3.879   3.271   2.032 -0.1257  0.2063 -0.8624
 2277SOL    HW118467   3.959   3.220   2.024 -0.7822 -0.4983 -3.0467
 2277SOL    HW218468   3.838   3.274   1.945  2.5678  0.0640 -2.1292
 2278SOL     OW18469   3.463   0.053  16.841  0.4274 -0.1942 -0.1371
 2278SOL    HW118470   3.555   0.035  16.823  1.4837  2.2678  2.8792
 2278SOL    HW218471   3.402   0.029  16.771  1.1097 -0.4706 -0.6433
 2279SOL     OW18472   1.023   0.050   2.709 -0.3015  0.5731 -0.2234
 2279SOL    HW118473   0.949   0.044   2.650 -1.4086  2.0832  1.0053
 2279SOL    HW218474   1.099   0.079   2.658 -0.1074 -1.9015 -1.3626
 2280SOL     OW18475   0.021   4.249   8.590 -0.3747 -0.1117  0.8408
 2280SOL    HW118476   4.736   4.172   8.642 -0.4835  0.2610  1.3419
 2280SOL    HW218477   0.001   4.317   8.654  0.4476  1.5526 -0.6723
 2281SOL     OW18478   1.132   3.378   6.912  0.0569 -0.0020 -0.1890
 2281SOL    HW118479   1.214   3.397   6.957  0.1588  0.4656 -0.5800
 2281SOL    HW218480   1.115   3.456   6.859 -1.1892 -0.4415 -0.4473
 2282SOL     OW18481   0.546   1.260   6.946  0.0944  0.0037 -0.1214
 2282SOL    HW118482   0.515   1.350   6.960  1.4365  0.2527  1.3692
 2282SOL    HW218483   0.552   1.269   6.851  2.2789 -1.8842 -0.1740
 2283SOL     OW18484   1.940   0.831   8.904 -0.0053  0.0470 -0.3737
 2283SOL    HW118485   1.930   0.925   8.887 -1.1716  0.2080  1.1899
 2283SOL    HW218486   2.033   0.831   8.928  0.1067 -2.5973 -0.8211
 2284SOL     OW18487   3.291   1.652   8.667 -0.1927  0.5263  0.2748
 2284SOL    HW118488   3.312   1.662   8.575 -0.0382  1.6959  0.4299
 2284SOL    HW218489   3.352   1.582   8.688  0.4155  0.7761 -0.6787
 2285SOL     OW18490   4.732   3.114   1.390  0.2978  0.0521  0.4518
 2285SOL    HW118491   4.658   3.129   1.449 -0.1601 -2.4191  0.5081
 2285SOL    HW218492   0.065   3.154   1.438  0.2224  1.0584 -0.2662
 2286SOL     OW18493   3.689   0.373   3.321  0.0332  0.1730  0.7412
 2286SOL    HW118494   3.736   0.435   3.377  2.5079 -0.8375 -0.2213
 2286SOL    HW218495   3.757   0.366   3.254 -1.9149  0.9943 -1.3268
 2287SOL     OW18496   4.363   1.245   6.303 -0.3771  0.5533  0.4266
 2287SOL    HW118497   4.371   1.256   6.208  0.6005 -3.5587  0.0586
 2287SOL    HW218498   4.451   1.217   6.328 -0.0524  1.0850 -0.1336
 2288SOL     OW18499   0.730   0.767  14.961  0.4559 -0.4285  0.9202
 2288SOL    HW118500   0.820   0.798  14.954  0.0838  1.1648  2.8589
 2288SOL    HW218501   0.732   0.686  15.012  0.3882 -1.2733 -0.4109
 2289SOL     OW18502   1.948   1.750   2.509  0.5331  0.2793 -0.5126
 2289SOL    HW118503   1.974   1.743   2.417 -0.3935  0.4546 -0.7924
 2289SOL    HW218504   1.884   1.821   2.504  0.2721 -0.2493 -4.6812
 2290SOL     OW18505   0.545   2.858  10.770 -0.0332  0.1964 -0.6898
 2290SOL    HW118506   0.480   2.868  10.839  0.5456 -1.3473  0.0843
 2290SOL    HW218507   0.620   2.835  10.825 -0.3231  0.6935 -0.0865
 2291SOL     OW18508   0.539   4.129   4.820 -0.4872  0.1514  0.5406
 2291SOL    HW118509   0.611   4.177   4.780  0.0036 -0.9879  0.0594
 2291SOL    HW218510   0.504   4.085   4.743 -0.6897  0.6532  0.3455
 2292SOL     OW18511   4.646   3.619   8.409  0.6276  0.0405  0.0455
 2292SOL    HW118512   4.598   3.596   8.329 -1.6783  2.1256  0.8132
 2292SOL    HW218513   4.664   3.711   8.389  1.5711  0.4838  2.9216
 2293SOL     OW18514   0.133   0.614   4.307 -0.3280  0.2627  0.3245
 2293SOL    HW118515   0.067   0.546   4.318 -0.9013  0.6657 -0.5649
 2293SOL    HW218516   0.164   0.600   4.217 -0.9780 -3.2079  0.6582
 2294SOL     OW18517   2.931   2.165   5.203  0.1874 -0.2511  0.1415
 2294SOL    HW118518   2.992   2.201   5.139  0.1382 -1.4155 -0.5543
 2294SOL    HW218519   2.894   2.243   5.246 -0.2315 -0.6759  0.5521
 2295SOL     OW18520   1.424   1.259  11.773  0.1201 -0.0329 -0.0478
 2295SOL    HW118521   1.403   1.352  11.765  1.0592  0.3678  2.0184
 2295SOL    HW218522   1.370   1.230  11.699 -0.2233  0.1651  0.1262
 2296SOL     OW18523   0.993   4.562   5.795 -0.0150 -0.0792  0.1850
 2296SOL    HW118524   0.990   4.530   5.704  0.5331  3.3179 -1.0521
 2296SOL    HW218525   0.915   4.617   5.788  0.6031  0.7480 -0.2555
 2297SOL     OW18526   0.799   4.452   7.567 -0.5421  0.2742  0.1675
 2297SOL    HW118527   0.848   4.385   7.520  0.0070 -0.2235  1.4552
 2297SOL    HW218528   0.802   4.410   7.653 -1.2281  0.8480  0.4738
 2298SOL     OW18529   4.183   4.583  10.088 -0.1482  0.3035  0.1440
 2298SOL    HW118530   4.229   4.594  10.172  0.8142  0.6182 -0.4333
 2298SOL    HW218531   4.104   4.541  10.124 -0.3832  1.2309  0.7173
 2299SOL     OW18532   3.539   2.199   2.806 -0.0137  0.0601 -0.4147
 2299SOL    HW118533   3.515   2.254   2.731  1.3051  0.1017 -0.8083
 2299SOL    HW218534   3.526   2.255   2.882  1.0337  0.6705 -0.6875
 2300SOL     OW18535   2.469   3.757   0.833 -0.0251  0.0230 -0.1243
 2300SOL    HW118536   2.540   3.798   0.884 -0.6457 -0.4485  1.1031
 2300SOL    HW218537   2.514   3.673   0.826 -2.0648 -1.0185 -0.5812
 2301SOL     OW18538   1.009   0.606   8.435 -0.0934 -0.4814 -0.1461
 2301SOL    HW118539   0.923   0.572   8.411 -0.8441  1.4285 -0.1430
 2301SOL    HW218540   1.058   0.530   8.466 -3.3297 -2.5387 -0.0944
 2302SOL     OW18541   3.442   2.261  14.675  0.5959 -0.2779  0.1130
 2302SOL    HW118542   3.424   2.298  14.589 -2.7564  1.5957  1.6324
 2302SOL    HW218543   3.480   2.336  14.720 -1.0955  0.6768 -0.0383
 2303SOL     OW18544   1.928   1.621   1.513 -0.2925  0.0995 -0.0754
 2303SOL    HW118545   1.910   1.559   1.584  1.8345 -0.1044  0.2658
 2303SOL    HW218546   1.878   1.701   1.532 -0.9213 -0.0591 -1.0936
 2304SOL     OW18547   1.752   2.681   6.598  0.4287 -0.0431 -0.0167
 2304SOL    HW118548   1.833   2.712   6.638  0.2139 -0.0071  0.3864
 2304SOL    HW218549   1.786   2.611   6.541 -0.2880  0.7253 -1.3801
 2305SOL     OW18550   3.809   0.493   7.631  0.1210  0.0825  0.4162
 2305SOL    HW118551   3.810   0.403   7.663  1.8139  0.2136  0.7426
 2305SOL    HW218552   3.805   0.483   7.536  1.5665 -1.6157  0.5341
 2306SOL     OW18553   3.487   3.846  13.706  0.0672  0.5484  0.0763
 2306SOL    HW118554   3.515   3.786  13.636 -1.9654 -0.5486  0.2016
 2306SOL    HW218555   3.397   3.866  13.680  0.8258 -1.1040 -3.8569
 2307SOL     OW18556   3.827   0.217  16.499  0.0302  0.0048  0.1062
 2307SOL    HW118557   3.848   0.305  16.469 -1.7533  0.6276  0.6253
 2307SOL    HW218558   3.917   0.189  16.514  0.2174  2.1355  2.9878
 2308SOL     OW18559   0.704   0.495  17.427  0.0577  0.7534 -0.3091
 2308SOL    HW118560   0.632   0.544  17.467  0.3970 -0.9614  2.4184
 2308SOL    HW218561   0.762   0.482  17.502 -3.0532 -2.2333  1.6143
 2309SOL     OW18562   1.006   1.775   4.198 -0.0067  0.4077  0.1314
 2309SOL    HW118563   1.098   1.798   4.182  0.5011 -0.7519  1.3359
 2309SOL    HW218564   0.956   1.843   4.153 -0.4830  1.3271  2.0488
 2310SOL     OW18565   4.136   1.184   8.367  0.2780 -0.1646 -0.7636
 2310SOL    HW118566   4.105   1.238   8.295 -0.4122 -0.2370 -0.5204
 2310SOL    HW218567   4.142   1.104   8.315  3.3699 -1.4037  1.4624
 2311SOL     OW18568   3.284   3.616  16.543  0.0943 -0.2218 -0.1024
 2311SOL    HW118569   3.260   3.562  16.618  0.5891 -1.9604 -1.1860
 2311SOL    HW218570   3.244   3.566  16.472 -1.9412  2.0072 -0.5324
 2312SOL     OW18571   0.080   3.683   2.047  0.1166 -0.4224 -0.4161
 2312SOL    HW118572   0.096   3.744   1.976  0.1598 -1.5359 -1.3654
 2312SOL    HW218573   4.738   3.649   2.007 -0.4991  1.4222 -0.7262
 2313SOL     OW18574   4.187   3.783   6.347  0.3476  0.2997  0.3393
 2313SOL    HW118575   4.116   3.829   6.393  2.0794  3.7102 -0.3956
 2313SOL    HW218576   4.150   3.740   6.270 -2.9612  1.7821  1.0939
 2314SOL     OW18577   2.418   3.263   9.719 -0.3840 -0.0034  0.2246
 2314SOL    HW118578   2.358   3.223   9.782  0.8778 -0.6012  1.0471
 2314SOL    HW218579   2.450   3.185   9.674 -1.3856 -0.0461 -0.3974
 2315SOL     OW18580   1.540   3.317  10.481  0.4304 -1.0656 -0.0637
 2315SOL    HW118581   1.451   3.352  10.486  0.8419  0.3913 -3.0958
 2315SOL    HW218582   1.592   3.392  10.451  1.0576 -1.6129 -0.3291
 2316SOL     OW18583   1.174   2.219   9.425  0.0892  0.0726  0.2603
 2316SOL    HW118584   1.085   2.253   9.415  1.1398  2.6461 -0.2560
 2316SOL    HW218585   1.200   2.236   9.334  0.0420 -0.7393  0.0864
 2317SOL     OW18586   0.801   2.797   4.735  0.6097 -0.0692  0.5148
 2317SOL    HW118587   0.743   2.776   4.809 -0.2757  1.3379  0.2072
 2317SOL    HW218588   0.737   2.782   4.665  0.4007  1.4761  0.3733
 2318SOL     OW18589   3.568   2.441   2.615  0.6630 -0.1380  0.0055
 2318SOL    HW118590   3.663   2.438   2.629  0.4732  0.9799  1.5687
 2318SOL    HW218591   3.545   2.490   2.694  1.1313  0.2171 -0.0785
 2319SOL     OW18592   3.166   1.519  12.128 -0.0503 -0.7108  0.6509
 2319SOL    HW118593   3.163   1.480  12.216 -1.2025 -1.9360  0.0710
 2319SOL    HW218594   3.218   1.599  12.133  0.4035 -1.0858  2.2061
 2320SOL     OW18595   3.859   3.376  11.018  0.1510 -0.0189 -0.4264
 2320SOL    HW118596   3.869   3.409  11.108 -1.5873 -2.2236  0.5770
 2320SOL    HW218597   3.809   3.445  10.975  0.2041  0.5555  0.4347
 2321SOL     OW18598   2.755   1.198   2.992 -0.4649  0.1282  0.4871
 2321SOL    HW118599   2.725   1.173   2.905 -2.1821  1.6044  0.6580
 2321SOL    HW218600   2.670   1.212   3.032 -1.2927  0.3951 -1.3700
 2322SOL     OW18601   4.688   0.025   0.007 -0.3188  0.0516 -0.3134
 2322SOL    HW118602   4.693   0.117   0.035  0.0652  0.6960 -2.4348
 2322SOL    HW218603   4.637   4.723   0.077  1.6366  0.5161  1.3748
 2323SOL     OW18604   3.925   2.794   3.588 -0.0386 -0.8096 -0.2702
 2323SOL    HW118605   3.925   2.737   3.511 -1.5155 -0.4761 -0.5256
 2323SOL    HW218606   3.834   2.782   3.615  0.4415 -1.4118  1.0748
 2324SOL     OW18607   2.355   4.683  12.853  0.4471 -0.2985 -0.4239
 2324SOL    HW118608   2.419   4.648  12.916  0.6304 -0.6450 -0.8031
 2324SOL    HW218609   2.326   0.022  12.901  1.2388  0.3500 -0.9983
 2325SOL     OW18610   1.671   1.464   7.904  0.1030  0.4168 -0.5160
 2325SOL    HW118611   1.592   1.422   7.869 -0.0417  0.5901 -0.3992
 2325SOL    HW218612   1.728   1.394   7.936  0.4212  0.8945 -0.0380
 2326SOL     OW18613   0.709   0.790  17.577 -0.2167 -0.1471 -0.4557
 2326SOL    HW118614   0.717   0.763  17.668  1.1194  0.2665 -0.4528
 2326SOL    HW218615   0.623   0.754  17.555  0.4184 -1.8233 -0.1823
 2327SOL     OW18616   0.443   1.456   5.863  0.0275  0.2831 -0.3728
 2327SOL    HW118617   0.405   1.511   5.931 -2.6512 -2.0196  0.0178
 2327SOL    HW218618   0.390   1.462   5.783 -2.1202  0.4143  1.0748
 2328SOL     OW18619   0.122   3.174   5.239  0.0464  0.3980  0.4198
 2328SOL    HW118620   0.135   3.177   5.333 -1.1483 -2.7972  0.6944
 2328SOL    HW218621   0.197   3.117   5.223 -1.0141 -0.4088 -1.7631
 2329SOL     OW18622   1.698   0.922  17.158  0.3441 -0.3377  0.4844
 2329SOL    HW118623   1.752   0.944  17.233 -0.7065 -0.7262  1.3610
 2329SOL    HW218624   1.756   0.953  17.088  2.2350 -1.5313  1.5314
 2330SOL     OW18625   0.032   4.166   6.788  0.0990 -0.1579  0.1893
 2330SOL    HW118626   0.076   4.171   6.873 -0.9242 -0.8287  0.7526
 2330SOL    HW218627   0.097   4.202   6.727  0.9563 -2.4708 -0.2328
 2331SOL     OW18628   3.922   4.313   2.470  0.2745 -0.4280 -0.4138
 2331SOL    HW118629   3.903   4.286   2.380  4.7203 -0.8170 -1.2617
 2331SOL    HW218630   3.940   4.406   2.458 -2.0803 -0.2961 -2.8604
 2332SOL     OW18631   0.014   3.465  13.413 -0.3723 -0.1135  0.2870
 2332SOL    HW118632   4.708   3.527  13.355 -3.0376 -0.8525  1.5063
 2332SOL    HW218633   4.722   3.471  13.504  1.3965 -0.4678  0.8948
 2333SOL     OW18634   4.635   1.687  11.830  0.0541 -0.2355 -0.1543
 2333SOL    HW118635   4.672   1.611  11.876 -1.6208 -0.7681  0.2919
 2333SOL    HW218636   4.699   1.755  11.852 -1.4462  0.8160  0.9884
 2334SOL     OW18637   4.570   4.557   2.737 -0.5065 -0.1392  0.0259
 2334SOL    HW118638   4.483   4.539   2.703 -0.7099  2.2047 -0.7234
 2334SOL    HW218639   4.625   4.493   2.693  0.5503  0.5719  0.2913
 2335SOL     OW18640   4.302   1.679   5.763 -0.4213  0.4095 -0.1954
 2335SOL    HW118641   4.372   1.724   5.717 -0.4547 -0.1280 -0.7688
 2335SOL    HW218642   4.344   1.595   5.781  0.3008  0.7257 -0.4219
 2336SOL     OW18643   0.112   0.341  10.033 -0.1224 -0.0349  0.3342
 2336SOL    HW118644   0.187   0.334   9.974  0.8130 -1.5492  1.7054
 2336SOL    HW218645   0.074   0.254  10.021 -0.2180 -0.1598  1.5767
 2337SOL     OW18646   3.503   1.988   8.526 -0.4400  0.1611  0.0946
 2337SOL    HW118647   3.559   2.056   8.564 -1.1192 -0.1741  1.7029
 2337SOL    HW218648   3.561   1.951   8.459 -1.3567 -0.9516 -0.0919
 2338SOL     OW18649   0.044   2.715   2.821 -0.3455 -0.0964 -0.3529
 2338SOL    HW118650   0.138   2.711   2.804  0.1700 -1.7011  2.9774
 2338SOL    HW218651   0.032   2.658   2.897  1.5239 -0.5404 -0.4059
 2339SOL     OW18652   1.846   3.387   4.768  0.7047 -0.2644  0.1926
 2339SOL    HW118653   1.779   3.343   4.716 -0.1033  1.3405 -0.1157
 2339SOL    HW218654   1.791   3.464   4.780 -0.3809 -0.9579 -0.3880
 2340SOL     OW18655   3.053   4.302  15.331 -0.3224  0.5930 -0.2250
 2340SOL    HW118656   3.148   4.294  15.316 -0.3733  2.3318 -1.3911
 2340SOL    HW218657   3.047   4.389  15.369  1.3238  0.2223  0.9052
 2341SOL     OW18658   1.733   1.147  13.856  0.0696 -0.2517  0.3378
 2341SOL    HW118659   1.713   1.059  13.824  1.1560  0.1790 -1.5304
 2341SOL    HW218660   1.644   1.177  13.870  0.0253  0.3431 -1.1262
 2342SOL     OW18661   4.006   3.863   8.084  0.2258  0.6186  0.0446
 2342SOL    HW118662   3.964   3.886   8.002 -1.0843  0.1063  0.5734
 2342SOL    HW218663   3.946   3.797   8.120 -0.1773  0.1852 -1.4345
 2343SOL     OW18664   1.765   0.733   3.820  0.0598 -0.1879 -0.1532
 2343SOL    HW118665   1.765   0.637   3.812 -1.9957 -0.1969 -0.1370
 2343SOL    HW218666   1.859   0.743   3.808  0.4809  0.5239  4.0234
 2344SOL     OW18667   0.466   3.684   9.815 -0.1149 -0.1470  0.0776
 2344SOL    HW118668   0.522   3.761   9.801  2.8267 -1.6725  3.4819
 2344SOL    HW218669   0.451   3.707   9.907  2.9825 -0.0352  0.5527
 2345SOL     OW18670   2.552   3.211   9.961  0.2972  0.6402 -0.9260
 2345SOL    HW118671   2.459   3.192   9.973  0.6029  0.0864  0.6779
 2345SOL    HW218672   2.546   3.293   9.913 -0.5665  1.6667  0.9327
 2346SOL     OW18673   2.763   2.278  15.788 -0.0584  0.2953  0.4498
 2346SOL    HW118674   2.782   2.310  15.700 -3.0449  1.7626  0.3384
 2346SOL    HW218675   2.683   2.329  15.799 -0.1917  0.0414  0.6847
 2347SOL     OW18676   2.456   2.584   5.536 -0.5861 -0.4886 -0.2651
 2347SOL    HW118677   2.361   2.574   5.526 -0.9324  1.1192  1.5290
 2347SOL    HW218678   2.480   2.511   5.593  0.2504 -0.5897 -0.7469
 2348SOL     OW18679   2.537   4.260  10.663  0.3045 -0.0287 -0.2618
 2348SOL    HW118680   2.611   4.203  10.642  0.5397 -0.8832  2.9498
 2348SOL    HW218681   2.549   4.320  10.589  2.6389  0.8094  0.7821
 2349SOL     OW18682   3.840   2.401   2.585 -0.0189 -0.0841 -0.9437
 2349SOL    HW118683   3.896   2.402   2.662  1.2585 -1.7232 -1.8437
 2349SOL    HW218684   3.855   2.492   2.557 -0.4601  0.7923  1.7058
 2350SOL     OW18685   2.915   2.810  12.320  0.0083 -0.2950  0.0175
 2350SOL    HW118686   2.866   2.787  12.240  0.2789 -0.3326 -0.1365
 2350SOL    HW218687   2.855   2.881  12.343 -0.8249 -0.2440 -2.2342
 2351SOL     OW18688   2.908   3.722   8.064  0.2810 -0.0175  0.4741
 2351SOL    HW118689   2.925   3.814   8.083  0.2808  0.5020 -2.1417
 2351SOL    HW218690   2.935   3.687   8.150  1.5881  2.9458  1.2529
 2352SOL     OW18691   1.811   3.253   3.094 -0.4519  0.3304 -0.2721
 2352SOL    HW118692   1.765   3.288   3.018 -1.3329 -1.0477 -0.3786
 2352SOL    HW218693   1.790   3.160   3.085 -1.9250  0.5602  0.7868
 2353SOL     OW18694   0.045   4.705   6.362 -0.2222  0.1656  0.3225
 2353SOL    HW118695   0.007   0.050   6.389  0.1349  0.4757 -0.1612
 2353SOL    HW218696   0.118   4.710   6.424  0.6140  0.9765 -0.7527
 2354SOL     OW18697   0.508   0.656   4.256  0.2810  0.6559  0.0765
 2354SOL    HW118698   0.457   0.618   4.327  2.4180 -1.9616  0.1929
 2354SOL    HW218699   0.580   0.694   4.306 -0.1004 -0.3910  1.4230
 2355SOL     OW18700   2.220   0.415  13.207  0.4571 -0.1861  0.4132
 2355SOL    HW118701   2.154   0.376  13.149  1.0606  0.1759 -0.5316
 2355SOL    HW218702   2.240   0.502  13.173  1.2212  0.6123  2.8910
 2356SOL     OW18703   1.660   0.382   1.683 -0.2464  0.2547 -0.0621
 2356SOL    HW118704   1.586   0.333   1.720 -0.5569 -1.5057 -3.0337
 2356SOL    HW218705   1.617   0.423   1.608 -0.1185 -0.4681 -0.5261
 2357SOL     OW18706   3.175   1.142   9.490  0.3604  0.2842 -0.5317
 2357SOL    HW118707   3.259   1.186   9.505 -0.2053  0.8780  0.9732
 2357SOL    HW218708   3.173   1.134   9.395  0.6696 -1.1763 -0.4120
 2358SOL     OW18709   0.385   2.465   3.149  0.5942 -0.2765 -0.1423
 2358SOL    HW118710   0.428   2.537   3.196 -0.3540  0.6460 -0.6844
 2358SOL    HW218711   0.420   2.400   3.210 -0.7158  0.1143  1.0418
 2359SOL     OW18712   0.619   0.672   7.005  0.2730 -0.0196 -0.0573
 2359SOL    HW118713   0.664   0.741   7.055  1.6963 -0.9632 -0.0373
 2359SOL    HW218714   0.629   0.598   7.065 -1.0779  0.7294  1.1104
 2360SOL     OW18715   0.954   3.027  12.607 -0.1065  0.1209  0.0520
 2360SOL    HW118716   1.024   3.025  12.672 -0.0841 -1.8570 -0.0563
 2360SOL    HW218717   0.901   3.104  12.626  0.3645  0.3202  0.5522
 2361SOL     OW18718   2.829   3.724   2.843 -1.0409  0.6321 -0.3652
 2361SOL    HW118719   2.839   3.743   2.936 -1.8214  0.9886 -0.3486
 2361SOL    HW218720   2.923   3.718   2.827 -0.9577 -2.8265  1.4274
 2362SOL     OW18721   3.679   4.085   2.807  0.0933  0.2488  0.1854
 2362SOL    HW118722   3.620   4.090   2.883 -0.5163 -0.0943 -0.2726
 2362SOL    HW218723   3.690   3.991   2.798 -4.7727 -0.3416  0.2917
 2363SOL     OW18724   2.678   3.417  11.883 -0.1274 -0.3054  0.1970
 2363SOL    HW118725   2.583   3.410  11.890 -0.1723  1.4047  1.5527
 2363SOL    HW218726   2.695   3.434  11.976  1.1847  0.8612 -0.2579
 2364SOL     OW18727   1.282   4.148   1.220 -0.2172 -0.1253 -0.0846
 2364SOL    HW118728   1.245   4.211   1.282  0.6345  0.0135  0.2936
 2364SOL    HW218729   1.220   4.138   1.148 -1.6181 -0.3848  1.1536
 2365SOL     OW18730   2.652   3.617   8.689  0.3433  0.5971  0.3545
 2365SOL    HW118731   2.589   3.645   8.623 -1.1230 -0.7326  1.1781
 2365SOL    HW218732   2.710   3.686   8.721 -1.2099  2.0109  0.1178
 2366SOL     OW18733   3.388   2.841  16.393  0.1933 -0.1870 -0.4121
 2366SOL    HW118734   3.418   2.751  16.380 -0.6461 -0.6010  0.4664
 2366SOL    HW218735   3.384   2.839  16.489  2.1299 -0.8528 -0.3529
 2367SOL     OW18736   2.340   3.618   2.688  0.2326 -0.2557  0.6984
 2367SOL    HW118737   2.328   3.591   2.779 -1.1711 -0.9953  0.2841
 2367SOL    HW218738   2.435   3.633   2.690 -0.0286  1.5338 -0.0734
 2368SOL     OW18739   1.935   1.040   4.035 -0.0187  0.6454 -0.3762
 2368SOL    HW118740   1.924   1.095   3.958  0.8698 -0.3267 -1.2060
 2368SOL    HW218741   2.010   0.985   4.009 -0.8232 -2.4135  3.8008
 2369SOL     OW18742   2.889   4.247   4.169 -0.0216  0.2085 -0.0890
 2369SOL    HW118743   2.957   4.192   4.208  0.3709  1.8440  1.5674
 2369SOL    HW218744   2.807   4.205   4.195  0.7822 -0.9604  0.5378
 2370SOL     OW18745   0.608   3.461   5.363 -0.5188 -0.0501  0.5495
 2370SOL    HW118746   0.515   3.485   5.356 -0.6724 -0.5029  1.0474
 2370SOL    HW218747   0.618   3.419   5.277  1.2778  1.5159 -0.0064
 2371SOL     OW18748   4.560   3.502  12.774  0.4370  0.3600  1.0751
 2371SOL    HW118749   4.640   3.449  12.774 -1.0238 -1.8457 -2.3609
 2371SOL    HW218750   4.501   3.428  12.767  1.0136  0.0680 -0.5809
 2372SOL     OW18751   3.649   2.779   0.627 -0.1003 -0.0179  0.2196
 2372SOL    HW118752   3.695   2.811   0.550  1.2000 -1.1982  0.5088
 2372SOL    HW218753   3.615   2.699   0.587 -2.3789  1.6383 -1.1197
 2373SOL     OW18754   3.948   2.824   9.611  0.1589 -0.1092  0.1930
 2373SOL    HW118755   3.991   2.807   9.695  1.0513  1.2047  0.0053
 2373SOL    HW218756   3.878   2.758   9.615  1.0116 -1.0438 -0.2985
 2374SOL     OW18757   1.003   2.218   0.185  0.3200 -0.4045  0.1399
 2374SOL    HW118758   0.935   2.280   0.213 -0.5118 -1.6386  0.8951
 2374SOL    HW218759   1.070   2.281   0.160 -0.3910  1.0880  2.0141
 2375SOL     OW18760   0.645   3.619   4.489 -0.4190 -0.2632 -0.3661
 2375SOL    HW118761   0.664   3.526   4.489 -0.7608 -0.3470  1.4632
 2375SOL    HW218762   0.734   3.653   4.487 -0.3128 -0.5147 -0.0142
 2376SOL     OW18763   2.364   2.340   8.606 -0.5922 -0.0716 -0.0354
 2376SOL    HW118764   2.362   2.432   8.579 -1.7870 -0.5306 -1.4787
 2376SOL    HW218765   2.416   2.343   8.687 -1.2746 -0.2152  0.4115
 2377SOL     OW18766   2.414   0.116   2.969 -0.1015  0.0614  0.2011
 2377SOL    HW118767   2.430   0.089   2.879  2.6852  3.3347 -0.2555
 2377SOL    HW218768   2.484   0.069   3.014 -1.5304 -2.5605 -0.3108
 2378SOL     OW18769   2.925   3.805   1.453 -0.0667 -0.1177  0.3336
 2378SOL    HW118770   2.835   3.832   1.472 -0.7186 -1.4136 -0.9084
 2378SOL    HW218771   2.916   3.734   1.390  0.5564  1.7622 -1.8743
 2379SOL     OW18772   0.208   4.678   8.234 -0.0521 -0.4177 -0.0174
 2379SOL    HW118773   0.303   4.672   8.233 -0.1269 -1.8016  1.5110
 2379SOL    HW218774   0.188   4.642   8.321 -1.4791  0.8968  0.2124
 2380SOL     OW18775   1.019   2.633   9.333 -0.1844 -0.2116 -0.2933
 2380SOL    HW118776   1.054   2.691   9.265  1.6183  1.1805  1.8443
 2380SOL    HW218777   1.087   2.653   9.397  1.2839 -0.9348 -1.6162
 2381SOL     OW18778   2.963   0.688   7.727 -0.1000  0.5613  1.0168
 2381SOL    HW118779   2.917   0.691   7.811  2.5252 -0.5303  2.5056
 2381SOL    HW218780   2.927   0.764   7.682 -0.1761  0.0550  0.2341
 2382SOL     OW18781   2.337   2.985   1.476  0.5009 -0.7330 -0.1211
 2382SOL    HW118782   2.427   2.966   1.502 -0.0409 -2.6966  0.3045
 2382SOL    HW218783   2.312   2.910   1.422  1.0137 -0.3007 -0.9679
 2383SOL     OW18784   3.062   1.977  16.721  0.2638 -0.5213  0.2137
 2383SOL    HW118785   3.043   2.037  16.649 -0.4629  0.0468  0.8833
 2383SOL    HW218786   2.979   1.950  16.760  1.6124 -2.2345  1.8798
 2384SOL     OW18787   1.103   3.205   7.305  0.7414  0.1800 -0.1129
 2384SOL    HW118788   1.015   3.185   7.273 -0.1392  1.0491  1.7581
 2384SOL    HW218789   1.101   3.298   7.280  0.7663  0.1568 -0.2018
 2385SOL     OW18790   3.813   3.845   1.467  0.2203  0.7061 -0.4329
 2385SOL    HW118791   3.875   3.809   1.404  0.3758 -0.7967  0.5799
 2385SOL    HW218792   3.798   3.937   1.447  1.4834  1.1093  0.5021
 2386SOL     OW18793   1.631   3.239   6.410 -0.0231 -0.5383  0.0741
 2386SOL    HW118794   1.604   3.330   6.425 -0.5998 -0.9335  1.4722
 2386SOL    HW218795   1.579   3.221   6.332  0.5748 -0.4107 -0.3503
 2387SOL     OW18796   0.063   2.269   3.852  0.0154 -0.0121 -0.2599
 2387SOL    HW118797   0.110   2.345   3.818 -0.7822 -0.6302 -2.8160
 2387SOL    HW218798   0.093   2.205   3.787 -0.9957 -0.6914 -0.0533
 2388SOL     OW18799   1.782   3.152   6.001  0.8503  0.0890  0.1279
 2388SOL    HW118800   1.731   3.224   6.037 -0.9711 -0.0447 -2.1963
 2388SOL    HW218801   1.857   3.202   5.969 -0.1514  0.2897 -1.9339
 2389SOL     OW18802   1.724   1.905   6.518  0.3222  0.2081  0.4455
 2389SOL    HW118803   1.712   1.810   6.522 -0.8289  0.2797 -1.3501
 2389SOL    HW218804   1.820   1.906   6.524  0.3619  0.0965 -0.1748
 2390SOL     OW18805   3.083   1.288  12.907  0.5985 -0.2921  0.3030
 2390SOL    HW118806   3.009   1.229  12.891 -2.0836  3.0663  0.3706
 2390SOL    HW218807   3.126   1.246  12.982  3.8752  0.2183 -1.2935
 2391SOL     OW18808   0.561   2.165  11.799 -0.5440 -0.2500  0.2544
 2391SOL    HW118809   0.618   2.211  11.738 -1.5336 -0.7558 -1.0556
 2391SOL    HW218810   0.574   2.212  11.881 -1.3647 -2.6991  1.7724
 2392SOL     OW18811   0.804   4.126   7.593  0.4980  0.0794 -0.0932
 2392SOL    HW118812   0.783   4.157   7.505 -0.4359  0.8584  0.4027
 2392SOL    HW218813   0.748   4.180   7.649  0.6858  1.0366 -0.8481
 2393SOL     OW18814   1.577   0.368  10.099 -0.2879  0.3267 -0.1592
 2393SOL    HW118815   1.632   0.350  10.175 -0.2363  0.9103 -0.0599
 2393SOL    HW218816   1.543   0.451  10.132 -1.0338  0.1801 -0.5615
 2394SOL     OW18817   2.333   0.347  11.282 -0.0251  0.1526 -0.1360
 2394SOL    HW118818   2.301   0.358  11.192 -2.2409 -0.3648  0.5946
 2394SOL    HW218819   2.349   0.252  11.283  0.9649  0.3571  2.2008
 2395SOL     OW18820   1.044   0.652   5.360  0.0500  0.0989 -0.0414
 2395SOL    HW118821   0.973   0.704   5.323  0.6571  0.2421 -1.0011
 2395SOL    HW218822   1.020   0.560   5.345 -0.6491  0.2448  0.1892
 2396SOL     OW18823   4.380   0.778   1.806  0.7083  0.1494 -0.4222
 2396SOL    HW118824   4.312   0.804   1.744  0.2980 -1.6796 -0.7309
 2396SOL    HW218825   4.459   0.789   1.753 -1.6386 -0.9815 -4.0435
 2397SOL     OW18826   1.565   1.497   6.135 -0.0310  0.3554 -0.4940
 2397SOL    HW118827   1.639   1.450   6.173  0.9141  0.3214 -2.3449
 2397SOL    HW218828   1.569   1.579   6.185  2.3400  0.0701 -0.1939
 2398SOL     OW18829   2.437   3.728   6.245 -0.1477  0.2582 -0.7721
 2398SOL    HW118830   2.429   3.823   6.253  0.9808  0.3860 -1.2412
 2398SOL    HW218831   2.388   3.717   6.163  1.4793  3.8192 -2.2299
 2399SOL     OW18832   0.458   3.786   9.480 -0.0500 -0.6595  0.4665
 2399SOL    HW118833   0.482   3.789   9.572  1.2721  0.6138  0.0842
 2399SOL    HW218834   0.505   3.706   9.459 -0.3194 -1.0785  1.4603
 2400SOL     OW18835   4.274   4.527   3.933  0.1189 -0.0135  1.5164
 2400SOL    HW118836   4.299   4.435   3.942 -0.2726 -0.4914 -2.1031
 2400SOL    HW218837   4.255   4.552   4.023  0.2380  0.8746  1.2951
 2401SOL     OW18838   4.555   2.777   3.205  0.7063 -0.3573  0.3627
 2401SOL    HW118839   4.528   2.860   3.166 -0.2799 -0.7211  0.2645
 2401SOL    HW218840   4.470   2.732   3.203  0.6223 -0.1999  0.3901
 2402SOL     OW18841   4.306   3.032   4.206  0.1171  0.1553 -0.2625
 2402SOL    HW118842   4.400   3.022   4.223  0.1329  3.0592  1.3978
 2402SOL    HW218843   4.272   3.021   4.295 -1.5361  1.1110 -0.7720
 2403SOL     OW18844   2.053   2.483   6.770  0.6396 -0.0611  0.2575
 2403SOL    HW118845   2.124   2.523   6.819  1.2788  0.5814 -1.1697
 2403SOL    HW218846   2.094   2.441   6.694 -0.6606  1.7151 -1.4151
 2404SOL     OW18847   4.706   1.723   9.789 -0.3682 -0.0099  0.1610
 2404SOL    HW118848   4.688   1.665   9.714 -2.6515 -0.6896  1.2441
 2404SOL    HW218849   4.645   1.693   9.856 -0.5865 -0.7259 -0.3553
 2405SOL     OW18850   4.061   2.176   2.884  0.0930  0.3385  0.3131
 2405SOL    HW118851   4.087   2.122   2.810  0.9360  0.1409  0.7525
 2405SOL    HW218852   3.973   2.143   2.905  1.0124 -1.4033  1.4094
 2406SOL     OW18853   2.396   0.270   2.375  0.0407 -0.1938  0.6563
 2406SOL    HW118854   2.408   0.293   2.467 -0.6754  1.0251  0.4335
 2406SOL    HW218855   2.486   0.246   2.351  1.3464  1.5814  3.8311
 2407SOL     OW18856   4.542   3.186   2.241 -0.0688  0.0715  0.1699
 2407SOL    HW118857   4.572   3.242   2.312 -2.1399  0.6506  0.6084
 2407SOL    HW218858   4.632   3.160   2.221 -0.3426  0.4906 -1.6141
 2408SOL     OW18859   1.210   2.572   4.750 -0.0576 -0.4321  0.1943
 2408SOL    HW118860   1.142   2.505   4.757  0.7736 -1.5635 -2.2858
 2408SOL    HW218861   1.257   2.541   4.673 -1.9566  2.4137 -2.1052
 2409SOL     OW18862   4.212   2.744   5.493 -0.8487  0.1433  0.6195
 2409SOL    HW118863   4.167   2.821   5.528 -0.5130  1.5586 -2.0358
 2409SOL    HW218864   4.134   2.700   5.458 -1.7432  1.2070  1.2572
 2410SOL     OW18865   2.222   2.143   7.133  0.1313  0.1164  0.5114
 2410SOL    HW118866   2.304   2.104   7.105 -1.3989 -2.6522 -0.0469
 2410SOL    HW218867   2.187   2.171   7.048 -1.1792  0.9251  1.3147
 2411SOL     OW18868   3.847   2.257   4.282  0.2359 -0.2000  0.4602
 2411SOL    HW118869   3.847   2.323   4.212  0.2237  2.4401  2.9862
 2411SOL    HW218870   3.806   2.184   4.235  0.0882 -0.4066  0.9157
 2412SOL     OW18871   4.045   1.018   0.397 -0.1525  0.1117  0.0694
 2412SOL    HW118872   4.083   1.062   0.473  0.2944 -0.6283  0.2715
 2412SOL    HW218873   4.001   1.088   0.349  1.7769  0.2253 -1.5359
 2413SOL     OW18874   0.429   3.119   7.184  0.4186 -0.1104  0.4673
 2413SOL    HW118875   0.337   3.119   7.210  0.2275  2.2305 -0.1412
 2413SOL    HW218876   0.430   3.203   7.138 -2.0749 -0.4723 -0.2339
 2414SOL     OW18877   3.969   1.584   9.964 -0.1153 -0.2027 -0.5739
 2414SOL    HW118878   3.910   1.623   9.899  1.7594  0.7665 -1.7147
 2414SOL    HW218879   3.906   1.525  10.005  0.5464  0.6823  1.7118
 2415SOL     OW18880   2.617   3.609  14.906 -0.3892  0.0639 -0.2169
 2415SOL    HW118881   2.563   3.688  14.913 -0.7160 -0.2357  0.5898
 2415SOL    HW218882   2.697   3.635  14.859 -0.8720 -0.4583 -1.3108
 2416SOL     OW18883   3.765   3.432   8.396 -0.5324  0.3447  0.5593
 2416SOL    HW118884   3.799   3.345   8.374 -2.1742 -0.6335  1.8675
 2416SOL    HW218885   3.672   3.429   8.371 -0.5065 -0.6221  0.5748
 2417SOL     OW18886   4.271   2.751  13.371 -0.0464 -0.7680 -0.2044
 2417SOL    HW118887   4.218   2.714  13.300 -0.6222  2.1924 -1.3352
 2417SOL    HW218888   4.208   2.800  13.423 -0.0140 -1.4362  0.4637
 2418SOL     OW18889   3.747   3.963  11.907  0.2610 -0.1819  0.1018
 2418SOL    HW118890   3.764   4.056  11.920  0.5177 -0.3088  0.6584
 2418SOL    HW218891   3.805   3.930  11.837  0.0697  2.2863 -1.2061
 2419SOL     OW18892   1.876   3.658  10.209 -0.2596  0.1434  0.4102
 2419SOL    HW118893   1.935   3.731  10.228 -0.2601  0.3056 -0.2155
 2419SOL    HW218894   1.833   3.683  10.127 -0.3883 -0.5972  0.2544
 2420SOL     OW18895   0.320   2.753   1.519 -0.2004 -0.1697 -0.1663
 2420SOL    HW118896   0.237   2.797   1.536 -0.1057  0.4887 -1.4453
 2420SOL    HW218897   0.379   2.808   1.571 -1.1182  0.2435  0.4380
 2421SOL     OW18898   3.043   3.832   8.684 -0.0109  0.3228 -0.5621
 2421SOL    HW118899   3.085   3.919   8.684  0.5657  0.0542 -2.5200
 2421SOL    HW218900   3.101   3.776   8.631  0.3893 -1.4168  1.7477
 2422SOL     OW18901   0.409   2.118  17.526 -0.2746 -0.1578  0.0908
 2422SOL    HW118902   0.407   2.055  17.597 -0.4900 -0.5610 -0.2762
 2422SOL    HW218903   0.327   2.165  17.541  1.2116  1.7280  2.4215
 2423SOL     OW18904   0.228   0.062   9.027 -0.4894 -0.1623  0.3739
 2423SOL    HW118905   0.167   0.009   8.976  1.3537 -1.1077 -0.8464
 2423SOL    HW218906   0.223   0.019   9.113  0.3134 -3.4299 -1.2070
 2424SOL     OW18907   1.421   1.665   7.314  0.0492  0.1997  0.1336
 2424SOL    HW118908   1.326   1.660   7.324 -0.0465 -0.2151 -1.0098
 2424SOL    HW218909   1.430   1.740   7.373 -1.2644  0.3761  0.1172
 2425SOL     OW18910   3.467   3.993   3.054  0.2820 -0.0932 -0.4256
 2425SOL    HW118911   3.523   3.923   3.089  1.7426  1.5781  0.5940
 2425SOL    HW218912   3.519   4.070   3.078  1.8558 -1.4818  0.6019
 2426SOL     OW18913   1.949   0.923   2.169  0.2482  0.1355  0.0607
 2426SOL    HW118914   2.019   0.966   2.120  0.7717  0.2768  0.9535
 2426SOL    HW218915   1.891   0.994   2.195 -0.2032  0.4842 -1.8784
 2427SOL     OW18916   1.249   3.499   3.737  0.2494 -0.1046 -0.6077
 2427SOL    HW118917   1.267   3.420   3.687  0.7176  0.2597 -1.0176
 2427SOL    HW218918   1.179   3.460   3.789  0.7965 -0.7644 -0.3681
 2428SOL     OW18919   1.943   2.169   5.415 -0.0632  0.0076 -0.3496
 2428SOL    HW118920   1.852   2.192   5.394  0.6575  3.1764  0.0994
 2428SOL    HW218921   1.929   2.105   5.486  0.1632  0.6318  0.2515
 2429SOL     OW18922   4.670   2.702   1.866  0.1137  0.3207  0.5023
 2429SOL    HW118923   0.021   2.667   1.864  1.2744  3.2477  1.3401
 2429SOL    HW218924   4.641   2.691   1.776 -1.2421 -0.0535  0.9888
 2430SOL     OW18925   0.793   3.434   6.904  0.4475 -0.1172 -0.0370
 2430SOL    HW118926   0.804   3.339   6.910  1.0169  0.0986  2.1088
 2430SOL    HW218927   0.843   3.456   6.825 -0.0566 -1.1317 -0.6308
 2431SOL     OW18928   1.441   1.321   7.800  0.4576 -0.0680 -0.0993
 2431SOL    HW118929   1.490   1.239   7.814 -0.9805 -0.7053  1.1687
 2431SOL    HW218930   1.352   1.286   7.797  1.2373 -2.1914  1.8483
 2432SOL     OW18931   3.335   3.582  12.471 -0.3146  0.3792  0.3053
 2432SOL    HW118932   3.375   3.516  12.414 -0.6012  0.9382 -0.5476
 2432SOL    HW218933   3.400   3.650  12.450  2.8835 -2.3431  1.2935
 2433SOL     OW18934   4.577   1.234   4.061  0.2210  0.1297 -0.0924
 2433SOL    HW118935   4.561   1.148   4.099 -0.3338  1.3013  2.3615
 2433SOL    HW218936   4.662   1.230   4.017 -0.1960 -2.3263 -0.6283
 2434SOL     OW18937   0.992   3.724   4.832  0.3777  0.0801  0.5214
 2434SOL    HW118938   0.973   3.687   4.745 -0.8818 -1.7054  1.5552
 2434SOL    HW218939   0.937   3.802   4.836  0.4942  0.1093  1.5058
 2435SOL     OW18940   4.092   3.423   6.903  0.1677 -0.3508  0.0206
 2435SOL    HW118941   4.086   3.442   6.810  1.1088 -0.1669 -0.0005
 2435SOL    HW218942   4.105   3.328   6.903  1.6168 -0.1429 -2.5260
 2436SOL     OW18943   2.538   0.217  17.402  0.7011  0.0287 -0.1865
 2436SOL    HW118944   2.593   0.177  17.469 -0.6375  2.6768  2.4849
 2436SOL    HW218945   2.550   0.159  17.327 -0.6694  2.5633 -2.3860
 2437SOL     OW18946   3.327   3.880  14.926 -0.3437  0.5525 -0.7760
 2437SOL    HW118947   3.394   3.915  14.985 -0.1494  0.3332 -0.8691
 2437SOL    HW218948   3.246   3.883  14.977 -0.6536  0.3086 -1.2572
 2438SOL     OW18949   2.465   0.156   8.504 -0.1619  0.4221 -0.1150
 2438SOL    HW118950   2.512   0.237   8.523  0.9107 -0.1998 -0.1372
 2438SOL    HW218951   2.401   0.193   8.444 -0.1213  1.2138  0.3319
 2439SOL     OW18952   1.556   2.785   8.800  0.4440 -0.2098 -0.2828
 2439SOL    HW118953   1.520   2.802   8.887 -0.9102  0.1126 -0.9019
 2439SOL    HW218954   1.524   2.856   8.744 -2.0459  0.0039  1.3775
 2440SOL     OW18955   2.810   3.425   8.189  0.1697  0.3092 -0.7419
 2440SOL    HW118956   2.819   3.331   8.204 -3.3964  0.1922  0.5172
 2440SOL    HW218957   2.773   3.425   8.101  2.4729 -0.3503 -1.6988
 2441SOL     OW18958   2.874   0.351   2.189  0.1615 -0.0560  0.0648
 2441SOL    HW118959   2.884   0.443   2.213 -2.1957 -0.0594  1.0567
 2441SOL    HW218960   2.927   0.343   2.110  0.3627  1.6200  0.0422
 2442SOL     OW18961   1.437   0.307   2.085 -0.2503  0.1716 -0.1914
 2442SOL    HW118962   1.475   0.236   2.137  2.6824  0.3966 -1.9815
 2442SOL    HW218963   1.413   0.253   2.009 -1.9503  0.8425 -0.1312
 2443SOL     OW18964   3.979   4.493   7.082 -0.2745  0.7557 -0.0044
 2443SOL    HW118965   3.983   4.453   7.168  1.6958 -2.4248 -1.5557
 2443SOL    HW218966   3.893   4.464   7.054 -0.6849 -0.5461  2.6218
 2444SOL     OW18967   1.955   4.529   9.072  0.2005 -0.0849 -0.1771
 2444SOL    HW118968   1.893   4.547   9.143  1.5420  1.6932  0.5396
 2444SOL    HW218969   1.948   4.615   9.031  0.1881 -0.7729 -1.6038
 2445SOL     OW18970   2.744   4.039   3.044  0.3976  0.2742 -0.1992
 2445SOL    HW118971   2.720   4.070   3.131 -0.0992  1.2764 -0.6879
 2445SOL    HW218972   2.814   3.979   3.069 -1.0793 -2.0290 -1.5677
 2446SOL     OW18973   1.742   2.880   9.195 -0.1420  0.1460  0.2187
 2446SOL    HW118974   1.781   2.913   9.276 -1.1559  1.3275  0.2261
 2446SOL    HW218975   1.791   2.798   9.190  0.2559  0.4380 -0.5767
 2447SOL     OW18976   0.778   4.220   4.753 -0.1352  0.4164  0.3927
 2447SOL    HW118977   0.776   4.257   4.841 -0.2495 -2.6788  1.7058
 2447SOL    HW218978   0.848   4.259   4.701 -0.6939 -0.3275 -0.9433
 2448SOL     OW18979   4.443   3.298  10.766  0.3900 -0.0551 -0.3919
 2448SOL    HW118980   4.354   3.335  10.772  0.6228  0.6374 -1.1257
 2448SOL    HW218981   4.494   3.376  10.743  0.4992 -0.1773 -0.5643
 2449SOL     OW18982   3.047   0.896   6.386  0.0487 -0.1585 -0.1528
 2449SOL    HW118983   3.109   0.843   6.436 -1.4452 -0.4106  1.4040
 2449SOL    HW218984   3.089   0.939   6.311 -0.1940  0.4599  0.0701
 2450SOL     OW18985   1.239   1.824   4.463  0.9782  0.0699 -0.0642
 2450SOL    HW118986   1.308   1.821   4.530  0.2606  1.4650  0.7321
 2450SOL    HW218987   1.284   1.823   4.378  2.2028 -1.4072  0.6040
 2451SOL     OW18988   1.663   3.745  15.279  0.2791 -0.0584  0.5834
 2451SOL    HW118989   1.574   3.780  15.268  0.7594  0.1263 -2.6608
 2451SOL    HW218990   1.711   3.821  15.312  1.1639  0.2208 -1.3465
 2452SOL     OW18991   1.730   0.078   5.939 -0.0044  0.1097  0.2368
 2452SOL    HW118992   1.751   0.087   6.032 -3.5660 -1.3572  1.2146
 2452SOL    HW218993   1.817   0.064   5.901 -1.6041 -1.1309 -2.9753
 2453SOL     OW18994   1.806   0.176  13.937  0.0889 -0.0357 -0.0176
 2453SOL    HW118995   1.749   0.246  13.969 -0.1798 -0.8532  1.2857
 2453SOL    HW218996   1.738   0.109  13.938  0.4231 -0.4055 -1.5686
 2454SOL     OW18997   0.506   3.194   5.525  0.0403  0.3797 -0.2949
 2454SOL    HW118998   0.485   3.123   5.586 -1.6547  2.8450  1.9608
 2454SOL    HW218999   0.601   3.197   5.538  0.1370 -1.1910 -0.6129
 2455SOL     OW19000   0.820   0.750   4.804 -0.4443  0.0212 -0.1110
 2455SOL    HW119001   0.878   0.768   4.878  0.8433  3.0639 -1.8438
 2455SOL    HW219002   0.876   0.779   4.731 -0.0283  1.6571  0.8585
 2456SOL     OW19003   2.388   2.033   4.390  0.2841  0.5868 -0.0996
 2456SOL    HW119004   2.437   2.041   4.472  0.4658 -0.3161 -0.1274
 2456SOL    HW219005   2.319   2.096   4.414  2.5390  3.3261 -0.7778
 2457SOL     OW19006   4.183   4.694  13.376  0.6110 -0.5031  0.6314
 2457SOL    HW119007   4.233   4.649  13.308 -0.4269  0.0846 -0.5406
 2457SOL    HW219008   4.199   0.044  13.345 -1.3408 -0.2336  0.4095
 2458SOL     OW19009   1.971   2.103   8.219  0.5468  0.1447 -0.0865
 2458SOL    HW119010   2.012   2.162   8.283  2.0788 -0.6677 -0.3112
 2458SOL    HW219011   1.882   2.136   8.208  1.5046  2.9086  0.3624
 2459SOL     OW19012   4.463   1.122   2.880  0.1741 -0.4105  0.5759
 2459SOL    HW119013   4.429   1.063   2.812 -2.3464 -0.6588  2.0718
 2459SOL    HW219014   4.551   1.085   2.883  0.6833  0.8573  1.0169
 2460SOL     OW19015   2.001   1.200  14.712 -0.1235 -0.6558  0.0067
 2460SOL    HW119016   2.051   1.199  14.631  1.5253  2.0807  0.9918
 2460SOL    HW219017   2.069   1.164  14.769  1.3483 -0.0980 -1.3892
 2461SOL     OW19018   1.025   4.349   3.044  0.1520  0.7125  0.5599
 2461SOL    HW119019   1.027   4.303   3.128 -0.4034 -0.2185  0.0710
 2461SOL    HW219020   0.959   4.418   3.052 -1.0693 -0.4474  0.6867
 2462SOL     OW19021   0.638   3.633   9.034 -0.5697  0.0127  0.1100
 2462SOL    HW119022   0.669   3.632   9.125 -0.3043 -1.3288  0.0028
 2462SOL    HW219023   0.707   3.580   8.993 -2.3159 -1.3415 -1.0320
 2463SOL     OW19024   2.616   0.984  10.950  0.1889 -0.2261  1.1973
 2463SOL    HW119025   2.596   0.905  11.001  0.2682  0.0106  1.5943
 2463SOL    HW219026   2.672   1.029  11.013  1.2085 -1.5247  1.2194
 2464SOL     OW19027   4.317   2.631   2.234 -0.1241 -0.0748  0.1317
 2464SOL    HW119028   4.403   2.589   2.230 -1.6120 -3.1256  0.9204
 2464SOL    HW219029   4.266   2.565   2.188  0.0420  0.1889 -0.4356
 2465SOL     OW19030   3.173   2.386  11.716 -0.1085 -0.2690  0.2264
 2465SOL    HW119031   3.139   2.356  11.632 -0.7140  1.2015 -0.0469
 2465SOL    HW219032   3.095   2.373  11.770 -0.3918  0.0754 -0.1054
 2466SOL     OW19033   1.601   3.523   6.454  0.5831  0.0601  0.2261
 2466SOL    HW119034   1.569   3.564   6.534  0.2634  1.2883 -0.5369
 2466SOL    HW219035   1.647   3.595   6.411  0.6165  1.2772  2.3028
 2467SOL     OW19036   2.661   1.704   7.759  0.0621 -0.4305 -0.7541
 2467SOL    HW119037   2.673   1.793   7.725 -2.4263  0.8043  1.5853
 2467SOL    HW219038   2.684   1.713   7.851 -1.8624  0.6267 -0.3995
 2468SOL     OW19039   0.306   1.013   8.993 -0.0254 -0.6115  0.5358
 2468SOL    HW119040   0.388   1.008   8.944  0.0235 -0.6988  0.6282
 2468SOL    HW219041   0.304   0.925   9.030 -0.1348 -1.0119 -0.4249
 2469SOL     OW19042   3.747   4.686  15.551 -0.4890 -0.4008  0.1316
 2469SOL    HW119043   3.728   0.041  15.559 -0.5404 -0.6577  2.9438
 2469SOL    HW219044   3.663   4.659  15.586 -0.4529  3.3424  3.1305
 2470SOL     OW19045   1.996   1.818  12.583  0.0345  0.2535  1.0351
 2470SOL    HW119046   2.088   1.845  12.587  0.3828 -0.6560 -0.7279
 2470SOL    HW219047   2.001   1.750  12.516 -1.2321 -1.1200  2.3571
 2471SOL     OW19048   3.657   2.935   5.934  0.7072  0.0659 -0.0833
 2471SOL    HW119049   3.646   2.979   6.018  0.0541 -0.9659  0.3782
 2471SOL    HW219050   3.578   2.964   5.887  1.1120  0.4026 -0.5548
 2472SOL     OW19051   2.172   3.958   8.721 -0.4647  0.2005 -0.1393
 2472SOL    HW119052   2.146   4.049   8.736  0.6279  0.0034  2.8313
 2472SOL    HW219053   2.104   3.934   8.658 -1.0822 -0.6027  0.8529
 2473SOL     OW19054   2.599   0.913   5.236  0.1204  0.1046  0.3672
 2473SOL    HW119055   2.543   0.836   5.240 -1.4403  1.1318 -1.8414
 2473SOL    HW219056   2.541   0.982   5.205 -2.0474 -1.1938  1.6042
 2474SOL     OW19057   0.753   4.190   5.509 -0.2180  0.6501 -0.7243
 2474SOL    HW119058   0.677   4.197   5.567 -0.0512  0.0376 -0.4268
 2474SOL    HW219059   0.822   4.149   5.562 -2.7979 -3.8282 -0.8531
 2475SOL     OW19060   4.230   4.645  11.610  0.2525  0.0329 -0.1429
 2475SOL    HW119061   4.318   4.638  11.647 -0.1354 -1.3041  0.5054
 2475SOL    HW219062   4.223   0.002  11.616  2.1320  0.2183 -0.6504
 2476SOL     OW19063   3.128   3.258  11.725 -0.0039  0.0551 -0.1263
 2476SOL    HW119064   3.043   3.216  11.709  2.5301 -4.8069 -0.9701
 2476SOL    HW219065   3.118   3.317  11.799 -0.0294  0.3319 -0.3508
 2477SOL     OW19066   4.531   2.541   3.871  0.2999 -0.0721  0.2096
 2477SOL    HW119067   4.533   2.605   3.800  0.3989  0.6396  0.8462
 2477SOL    HW219068   4.569   2.592   3.943  1.5956 -3.7303  2.0995
 2478SOL     OW19069   2.649   2.996   4.546 -0.3178  0.9240  0.0914
 2478SOL    HW119070   2.676   2.917   4.499 -1.6714  0.8825 -0.6106
 2478SOL    HW219071   2.554   2.986   4.539 -0.3079 -0.4613  1.9443
 2479SOL     OW19072   2.527   3.056  16.218  0.0472 -0.3857  0.0069
 2479SOL    HW119073   2.502   3.122  16.153  0.1779  1.0049  1.3562
 2479SOL    HW219074   2.611   3.091  16.246  0.0221  1.7450 -2.6089
 2480SOL     OW19075   0.257   0.529   3.519 -0.4485 -0.2625 -0.6160
 2480SOL    HW119076   0.285   0.522   3.428  1.1422  1.8293 -0.2738
 2480SOL    HW219077   0.243   0.622   3.536  0.7940  0.1131 -1.6802
 2481SOL     OW19078   2.678   3.181   2.892  0.0728 -0.2639 -0.6819
 2481SOL    HW119079   2.694   3.087   2.901 -0.8954 -0.3455  0.1881
 2481SOL    HW219080   2.714   3.194   2.805  2.1531 -0.4512  0.1508
 2482SOL     OW19081   2.481   1.712   7.397  0.2136 -0.6009  0.8105
 2482SOL    HW119082   2.398   1.753   7.374  1.1284 -0.0397 -1.4350
 2482SOL    HW219083   2.450   1.672   7.479 -0.0091  0.2104  1.1209
 2483SOL     OW19084   1.522   4.694  11.917  0.3306  0.2987  0.7846
 2483SOL    HW119085   1.452   0.012  11.884  0.8897  0.3377 -0.3483
 2483SOL    HW219086   1.585   0.018  11.954  0.2141  0.8718  0.0084
 2484SOL     OW19087   2.069   4.042   2.080 -0.1211  0.3065  0.5806
 2484SOL    HW119088   1.995   4.074   2.132  1.4299 -0.3414  3.2014
 2484SOL    HW219089   2.023   3.963   2.054  1.2014 -0.6128  0.9897
 2485SOL     OW19090   3.191   3.786  10.456  0.2251  1.1698  0.0326
 2485SOL    HW119091   3.158   3.803  10.544 -1.2409 -1.8369  0.0453
 2485SOL    HW219092   3.200   3.691  10.452 -0.9337  1.0621 -0.0540
 2486SOL     OW19093   0.046   3.999   7.371 -0.2405 -0.1828  0.1074
 2486SOL    HW119094   4.734   3.954   7.304  0.8299 -0.0638 -0.7804
 2486SOL    HW219095   0.123   4.020   7.317 -0.8950  0.6950 -0.4955
 2487SOL     OW19096   1.424   0.855   8.014 -0.2404  0.5841  0.5245
 2487SOL    HW119097   1.352   0.918   8.021  0.9505  2.0048 -0.2880
 2487SOL    HW219098   1.374   0.776   8.037  1.3600 -0.7322 -0.5433
 2488SOL     OW19099   0.391   0.776   2.540 -0.2102 -0.1238 -0.3565
 2488SOL    HW119100   0.345   0.762   2.457 -0.6634 -1.8796  0.1941
 2488SOL    HW219101   0.394   0.685   2.569  0.4789 -0.2265 -0.7562
 2489SOL     OW19102   3.108   2.757  17.563  0.4729 -0.2803 -0.3622
 2489SOL    HW119103   3.115   2.843  17.523 -1.8228 -0.2306 -0.6226
 2489SOL    HW219104   3.049   2.719  17.498 -0.8797  0.0473  0.6986
 2490SOL     OW19105   0.572   0.664   0.254  0.8237 -0.0911 -0.1275
 2490SOL    HW119106   0.617   0.599   0.308  0.3832 -0.7447 -0.5544
 2490SOL    HW219107   0.645   0.706   0.209 -0.0132  1.5804  0.0725
 2491SOL     OW19108   1.359   1.776   1.515 -0.1877 -0.0746 -0.0392
 2491SOL    HW119109   1.298   1.814   1.578  1.4686 -0.7968  1.9941
 2491SOL    HW219110   1.316   1.811   1.437  1.4485 -2.0460 -1.7889
 2492SOL     OW19111   3.854   2.597   9.674  0.7687 -0.3184  0.4446
 2492SOL    HW119112   3.913   2.559   9.609 -0.8966 -1.4879 -0.3745
 2492SOL    HW219113   3.890   2.558   9.754 -1.0944 -1.4867  0.7062
 2493SOL     OW19114   2.527   3.240   6.241 -0.3117 -0.0421 -0.0862
 2493SOL    HW119115   2.594   3.288   6.192 -0.5463 -1.2776 -1.5872
 2493SOL    HW219116   2.543   3.263   6.333  1.9069 -0.5576 -0.3290
 2494SOL     OW19117   2.389   1.053  11.262  0.2409 -0.4005  0.5175
 2494SOL    HW119118   2.356   0.976  11.307  3.5889 -1.3743  1.3345
 2494SOL    HW219119   2.451   1.086  11.327  0.4689 -2.6291  1.4206
 2495SOL     OW19120   0.702   3.137   6.871  0.1666  0.4386  0.2169
 2495SOL    HW119121   0.702   3.054   6.824 -2.7698  1.4692 -1.6592
 2495SOL    HW219122   0.766   3.109   6.936  1.2314  1.4800 -0.3679
 2496SOL     OW19123   2.986   0.204   2.978  0.0244 -0.0547  0.4135
 2496SOL    HW119124   3.058   0.200   3.040 -0.7237 -2.1737  1.1381
 2496SOL    HW219125   2.987   0.112   2.952 -0.3706 -0.0113  0.2404
 2497SOL     OW19126   3.887   0.545   2.701 -0.3504 -0.1712 -0.0444
 2497SOL    HW119127   3.818   0.564   2.638 -0.2830 -0.8588 -0.3324
 2497SOL    HW219128   3.869   0.612   2.766  2.3524  0.2180  0.2909
 2498SOL     OW19129   4.503   2.559   5.735 -0.2803 -0.4956  0.2019
 2498SOL    HW119130   4.436   2.490   5.740 -1.4858  0.5880 -1.1115
 2498SOL    HW219131   4.540   2.553   5.823 -0.9118 -2.4318  0.3497
 2499SOL     OW19132   1.767   3.192   9.547  0.1844  0.9291  0.2247
 2499SOL    HW119133   1.788   3.215   9.637 -0.6130  2.9754 -0.0952
 2499SOL    HW219134   1.787   3.270   9.495  2.9333 -0.2820 -0.5237
 2500SOL     OW19135   4.681   2.332   8.163 -0.1719 -0.6051 -0.4410
 2500SOL    HW119136   4.709   2.401   8.103  1.2818  0.1734  1.1359
 2500SOL    HW219137   0.024   2.287   8.186  1.0800  1.9562  0.1434
 2501SOL     OW19138   0.466   3.499   9.369 -0.0494  0.0332 -1.0205
 2501SOL    HW119139   0.444   3.469   9.457 -1.9519  2.4135 -0.6733
 2501SOL    HW219140   0.488   3.414   9.331  1.0370  1.0674 -2.6900
 2502SOL     OW19141   2.190   3.062  12.243  0.3300 -0.2691 -0.0124
 2502SOL    HW119142   2.198   2.969  12.262 -2.5324 -0.2123  1.5452
 2502SOL    HW219143   2.164   3.096  12.329 -0.3169  2.1905 -1.1767
 2503SOL     OW19144   2.488   1.334   4.675 -0.0400 -0.2237  0.2737
 2503SOL    HW119145   2.457   1.363   4.589  0.3925  0.6697  0.4235
 2503SOL    HW219146   2.401   1.326   4.713 -0.4453  3.3118  0.0476
 2504SOL     OW19147   2.359   3.570   6.934 -0.0088  0.1215  0.0882
 2504SOL    HW119148   2.324   3.659   6.938  2.5806  1.0739  1.6333
 2504SOL    HW219149   2.288   3.535   6.881 -0.3765 -0.6522  1.0837
 2505SOL     OW19150   3.045   0.900   4.896  0.0687  0.6345 -0.0801
 2505SOL    HW119151   3.077   0.958   4.965  2.4299 -0.3256 -0.3765
 2505SOL    HW219152   2.967   0.854   4.929  0.6526 -0.0165  0.3892
 2506SOL     OW19153   3.290   0.297   3.421  0.0582  0.5404  0.1104
 2506SOL    HW119154   3.301   0.392   3.423  1.1259  0.4022  0.8729
 2506SOL    HW219155   3.341   0.267   3.496 -0.3893  1.3697  0.7399
 2507SOL     OW19156   4.001   3.703   1.311 -0.1239 -0.5403  0.1596
 2507SOL    HW119157   3.983   3.611   1.327 -0.5892 -0.6308 -0.8803
 2507SOL    HW219158   4.033   3.702   1.221  0.2597 -2.0918  0.3150
 2508SOL     OW19159   1.540   2.039   6.384 -0.5470 -0.6291 -0.3762
 2508SOL    HW119160   1.566   2.116   6.434 -1.6969 -0.1463 -0.5289
 2508SOL    HW219161   1.623   1.990   6.384 -0.5153 -0.5905 -4.6819
 2509SOL     OW19162   3.199   1.587   7.165 -0.3241  0.4219  0.0134
 2509SOL    HW119163   3.113   1.560   7.134  0.0413  0.7232 -1.2651
 2509SOL    HW219164   3.240   1.544   7.090 -0.6853  0.5442 -0.2519
 2510SOL     OW19165   0.288   2.196   5.166 -0.1272  0.5137  0.5844
 2510SOL    HW119166   0.314   2.269   5.222 -1.1121  0.8765  0.5674
 2510SOL    HW219167   0.282   2.239   5.081  1.2873 -1.2715 -0.4269
 2511SOL     OW19168   0.529   3.708   7.019 -0.0342  0.5746 -0.6953
 2511SOL    HW119169   0.539   3.698   7.113 -1.4376 -0.7293 -0.6728
 2511SOL    HW219170   0.464   3.640   7.002 -2.1720  2.2296  0.9962
 2512SOL     OW19171   0.265   1.609   6.042 -0.3992  0.1004 -0.1430
 2512SOL    HW119172   0.311   1.643   6.119 -2.0311  1.7811  0.0722
 2512SOL    HW219173   0.229   1.691   6.009 -0.4682 -0.3325 -1.1481
 2513SOL     OW19174   1.093   3.384   4.266  0.0598  0.0427  0.3833
 2513SOL    HW119175   1.058   3.466   4.233  0.2260  0.6227  1.6155
 2513SOL    HW219176   1.175   3.424   4.296  1.6928 -1.7339 -1.6694
 2514SOL     OW19177   4.047   3.534   5.487 -0.3005  0.1202  0.2200
 2514SOL    HW119178   4.038   3.505   5.578 -3.0475  0.8673  0.1994
 2514SOL    HW219179   4.027   3.450   5.444  1.8508  0.6703 -1.8193
 2515SOL     OW19180   2.843   0.971   2.327  0.3013  0.2939 -0.5714
 2515SOL    HW119181   2.755   0.998   2.300  1.2471  2.3549 -1.5728
 2515SOL    HW219182   2.884   1.014   2.253 -0.6870  0.4238 -1.0450
 2516SOL     OW19183   0.981   0.808   6.252  0.3642  0.2474 -0.1301
 2516SOL    HW119184   1.046   0.874   6.230  1.7523 -1.0545  0.0304
 2516SOL    HW219185   0.994   0.806   6.347 -0.8488 -1.3157  0.0103
 2517SOL     OW19186   2.880   2.832   2.691 -0.3615 -0.2632 -0.8870
 2517SOL    HW119187   2.959   2.882   2.670 -0.3614 -0.4151 -1.2583
 2517SOL    HW219188   2.834   2.881   2.758 -0.6546 -1.2035 -0.4102
 2518SOL     OW19189   2.891   4.150   6.387  0.2220 -0.0804  0.0318
 2518SOL    HW119190   2.934   4.076   6.430  0.0205 -0.8871 -1.1753
 2518SOL    HW219191   2.811   4.104   6.360 -1.0299  2.4667 -0.6444
 2519SOL     OW19192   2.222   3.424  13.725 -0.2557  0.1280  0.9731
 2519SOL    HW119193   2.191   3.335  13.743  0.5115  0.0275  1.8094
 2519SOL    HW219194   2.269   3.421  13.808  0.8934  2.2653  0.3941
 2520SOL     OW19195   0.105   0.225   8.389  0.3303  0.2411 -0.0629
 2520SOL    HW119196   0.103   0.206   8.483 -2.1085  0.7225 -0.0172
 2520SOL    HW219197   0.187   0.183   8.362 -0.0025 -1.8626  2.2466
 2521SOL     OW19198   2.423   1.117   5.158  0.9158 -0.2901 -0.2689
 2521SOL    HW119199   2.442   1.203   5.195  0.8006 -0.7031  0.7577
 2521SOL    HW219200   2.328   1.123   5.173  0.9801 -0.8126  0.3588
 2522SOL     OW19201   4.683   1.381   2.659 -0.6331 -0.0431  0.1507
 2522SOL    HW119202   4.739   1.333   2.596 -1.1890 -0.2473 -0.1888
 2522SOL    HW219203   4.735   1.443   2.709 -1.0252  1.1841 -0.9757
 2523SOL     OW19204   2.369   3.182   3.482  0.6543  0.4859  0.2207
 2523SOL    HW119205   2.367   3.273   3.451 -0.9918  0.3595 -0.0432
 2523SOL    HW219206   2.277   3.161   3.491  0.8284 -0.7592 -0.9353
 2524SOL     OW19207   2.745   0.039  15.716 -0.3014  0.0585  0.6431
 2524SOL    HW119208   2.725   0.116  15.769  0.6949  1.7873 -1.4970
 2524SOL    HW219209   2.803   0.075  15.650 -2.0941  2.1254  0.2014
 2525SOL     OW19210   3.542   0.243  17.508 -0.4265 -0.6265 -0.3708
 2525SOL    HW119211   3.485   0.292  17.448  0.3709 -0.0735 -0.6822
 2525SOL    HW219212   3.627   0.233  17.465  0.1754  1.1825  0.4053
 2526SOL     OW19213   4.344   3.772   5.826  0.0150  0.0045 -0.3336
 2526SOL    HW119214   4.426   3.802   5.788  0.6106 -0.2749  0.7297
 2526SOL    HW219215   4.292   3.845   5.794 -0.0618 -0.1150 -0.4841
 2527SOL     OW19216   2.404   1.502   3.821  0.3532  0.2137 -0.1126
 2527SOL    HW119217   2.497   1.494   3.798  0.8426  1.5241  1.4125
 2527SOL    HW219218   2.358   1.503   3.737  0.2874  1.3898 -0.0629
 2528SOL     OW19219   3.891   0.977   5.738 -0.1710  0.1615  0.5040
 2528SOL    HW119220   3.797   0.989   5.725  0.0407 -0.2512 -1.4961
 2528SOL    HW219221   3.902   0.893   5.693 -1.6309 -0.0970  0.6182
 2529SOL     OW19222   2.326   1.425   8.103  0.0689 -0.0563 -0.4040
 2529SOL    HW119223   2.359   1.511   8.131  0.5893  0.6644 -3.2861
 2529SOL    HW219224   2.281   1.395   8.182  1.1069 -0.4562  0.0350
 2530SOL     OW19225   1.253   0.738   4.117 -0.0898  0.2402 -0.1977
 2530SOL    HW119226   1.312   0.786   4.175  0.0891 -0.6967  0.3947
 2530SOL    HW219227   1.232   0.802   4.049 -1.5607  2.4185  2.3042
 2531SOL     OW19228   0.038   3.405   2.989 -0.1130  0.2570  0.3596
 2531SOL    HW119229   4.708   3.371   3.046  1.2590 -0.5445  1.5295
 2531SOL    HW219230   4.720   3.449   2.926  0.4262  3.1563  1.8821
 2532SOL     OW19231   3.557   1.090  10.827 -0.4138 -0.0019 -0.0574
 2532SOL    HW119232   3.604   1.065  10.907 -0.7063 -0.8412 -0.1570
 2532SOL    HW219233   3.470   1.054  10.842  0.0558  0.3908  3.6099
 2533SOL     OW19234   1.869   3.143   2.621  0.7420 -0.2569 -0.1706
 2533SOL    HW119235   1.960   3.144   2.649  1.0893 -0.5348 -1.3028
 2533SOL    HW219236   1.883   3.163   2.529 -0.9837 -2.5892 -0.9493
 2534SOL     OW19237   4.127   1.680   3.991 -0.0565 -0.4125 -0.1406
 2534SOL    HW119238   4.208   1.637   3.963  1.2891  1.5999  0.6873
 2534SOL    HW219239   4.158   1.769   4.010 -0.9088 -0.0765 -0.2926
 2535SOL     OW19240   2.439   4.580   4.924 -0.6676  0.6602  0.8296
 2535SOL    HW119241   2.432   4.506   4.864  0.0178  1.8470 -0.7290
 2535SOL    HW219242   2.494   4.634   4.867 -0.9050 -1.9059 -1.8357
 2536SOL     OW19243   3.591   3.419   7.424 -0.2418  0.0276  0.5066
 2536SOL    HW119244   3.576   3.376   7.509  2.4775  0.7395  1.3422
 2536SOL    HW219245   3.661   3.480   7.448  0.6830 -0.2955 -1.4372
 2537SOL     OW19246   3.304   2.593   8.128  0.4173  0.7075 -0.3395
 2537SOL    HW119247   3.394   2.621   8.110  1.1286 -2.1133 -1.2420
 2537SOL    HW219248   3.315   2.548   8.211  0.7101  0.0310 -0.7405
 2538SOL     OW19249   1.390   3.799  15.035 -0.8339 -0.5460 -0.3253
 2538SOL    HW119250   1.404   3.851  15.114 -1.1463 -0.5006 -0.2991
 2538SOL    HW219251   1.295   3.788  15.047 -0.8790 -1.0182 -1.1265
 2539SOL     OW19252   1.201   4.563   2.565 -0.5324  0.1045 -0.6814
 2539SOL    HW119253   1.276   4.524   2.520  0.9989  3.7938 -1.3303
 2539SOL    HW219254   1.215   4.524   2.651 -1.6762  0.1038 -0.4896
 2540SOL     OW19255   0.020   2.459  14.955  0.3826 -0.9242  0.0548
 2540SOL    HW119256   4.674   2.497  14.931  1.5880  1.9556  0.3861
 2540SOL    HW219257   4.734   2.373  14.922 -1.3655 -0.2526 -0.3991
 2541SOL     OW19258   1.297   4.351   6.790  0.5677 -0.5291  1.0683
 2541SOL    HW119259   1.369   4.395   6.745 -3.0714  2.4173 -1.7728
 2541SOL    HW219260   1.218   4.373   6.741  0.2843 -1.3426  1.1611
 2542SOL     OW19261   4.490   1.987   6.489 -0.6333  0.4392 -1.2937
 2542SOL    HW119262   4.478   1.907   6.439 -1.4652 -1.3180  1.7181
 2542SOL    HW219263   4.470   2.052   6.421  0.0401  1.7774 -0.2081
 2543SOL     OW19264   3.689   3.559   4.707  0.1978  0.0482  0.2373
 2543SOL    HW119265   3.612   3.615   4.716 -0.3675 -0.4911 -1.3374
 2543SOL    HW219266   3.713   3.570   4.799  1.2647  0.4527 -0.0804
 2544SOL     OW19267   1.223   3.117   8.722 -0.2324  0.2067  0.0785
 2544SOL    HW119268   1.185   3.191   8.771 -2.3626 -0.5076 -0.4842
 2544SOL    HW219269   1.170   3.134   8.644 -0.0713  2.0176  0.3638
 2545SOL     OW19270   4.105   2.467   8.622  0.6013  0.1778  0.2200
 2545SOL    HW119271   4.197   2.489   8.631  0.3991  1.2013 -0.1866
 2545SOL    HW219272   4.106   2.439   8.531  1.9933  1.4115 -0.1428
 2546SOL     OW19273   1.498   0.262   7.520  0.3184  0.3069  0.6782
 2546SOL    HW119274   1.490   0.312   7.439  1.2020 -1.0945 -0.2847
 2546SOL    HW219275   1.439   0.190   7.497 -0.1876 -0.1747  3.4563
 2547SOL     OW19276   1.408   1.330  12.582  0.4686 -0.1256  0.3586
 2547SOL    HW119277   1.491   1.314  12.537  0.2712 -0.6416  0.1694
 2547SOL    HW219278   1.379   1.240  12.598  2.5262 -1.2113 -1.9799
 2548SOL     OW19279   2.727   1.223   3.813  0.1165 -0.0303 -0.4058
 2548SOL    HW119280   2.796   1.156   3.820  2.4399  2.3357 -0.7787
 2548SOL    HW219281   2.685   1.203   3.729  0.3163  1.7254 -0.9190
 2549SOL     OW19282   0.953   2.664   1.142 -0.3647  0.1332  0.0246
 2549SOL    HW119283   0.917   2.752   1.150 -0.4748  0.3560 -3.0029
 2549SOL    HW219284   0.898   2.627   1.073  1.1401  2.4658 -2.4013
 2550SOL     OW19285   4.531   0.742   3.502  0.2991 -0.4758 -0.2992
 2550SOL    HW119286   4.462   0.770   3.443 -0.2854  0.5069  0.8476
 2550SOL    HW219287   4.596   0.709   3.440 -0.8808 -0.5378 -1.5025
 2551SOL     OW19288   4.229   3.958   2.729 -0.4631 -0.1472 -0.3383
 2551SOL    HW119289   4.313   4.000   2.749 -2.0172  1.5196  2.5711
 2551SOL    HW219290   4.185   4.028   2.680 -0.2969  0.5556  0.5279
 2552SOL     OW19291   1.763   3.324   7.959 -0.6359  0.0168  0.0225
 2552SOL    HW119292   1.842   3.353   8.004 -1.2376  0.0593  1.0493
 2552SOL    HW219293   1.738   3.408   7.920 -0.9069 -0.2486 -0.3800
 2553SOL     OW19294   3.717   1.341   0.191 -0.3606  0.5216 -0.2515
 2553SOL    HW119295   3.645   1.389   0.233 -1.2201 -0.5355 -0.5112
 2553SOL    HW219296   3.666   1.261   0.175  1.4589 -1.0672  1.9840
 2554SOL     OW19297   1.500   1.396   4.482 -0.4273  0.7110 -0.0619
 2554SOL    HW119298   1.539   1.343   4.552 -1.9269  1.8799  1.6510
 2554SOL    HW219299   1.567   1.392   4.414 -1.1918 -0.3661 -0.7619
 2555SOL     OW19300   4.735   3.599   4.713 -0.6693 -0.0330 -0.6592
 2555SOL    HW119301   0.073   3.566   4.760 -0.1139  1.6583 -0.3764
 2555SOL    HW219302   4.692   3.517   4.688 -1.4892 -0.2723  1.5636
 2556SOL     OW19303   3.513   1.350   2.386  0.2678 -0.2703 -0.6540
 2556SOL    HW119304   3.596   1.354   2.338 -0.0805  1.3803 -1.1207
 2556SOL    HW219305   3.526   1.419   2.452 -0.5598 -1.1897  0.4692
 2557SOL     OW19306   1.578   3.292   3.645  0.5068  0.0167 -0.0706
 2557SOL    HW119307   1.664   3.311   3.683  1.2283  0.8892 -2.1516
 2557SOL    HW219308   1.569   3.373   3.595  2.8531  1.8128  2.4363
 2558SOL     OW19309   0.799   4.473   6.429  0.4097 -0.0962  0.1513
 2558SOL    HW119310   0.776   4.548   6.484  1.7514  0.7250 -0.4055
 2558SOL    HW219311   0.718   4.426   6.411 -0.5461  1.5299  0.1755
 2559SOL     OW19312   0.756   4.648   5.753 -0.6027  0.1937  0.2547
 2559SOL    HW119313   0.746   4.708   5.679 -0.3222  0.6236  0.5733
 2559SOL    HW219314   0.730   4.564   5.714  2.3864 -0.6637  0.0716
 2560SOL     OW19315   3.698   4.266   4.500  0.7325  0.2513  0.4690
 2560SOL    HW119316   3.623   4.306   4.543  0.5861  1.0351 -0.4937
 2560SOL    HW219317   3.747   4.243   4.578 -1.0959 -2.0816  0.9115
 2561SOL     OW19318   3.617   3.806  10.948 -0.1856 -0.0104  0.1087
 2561SOL    HW119319   3.538   3.845  10.912  1.6077 -0.2043 -3.9400
 2561SOL    HW219320   3.670   3.879  10.981 -0.0638  0.0834 -0.2987
 2562SOL     OW19321   1.484   3.911   1.090  0.1153 -0.1694 -0.3106
 2562SOL    HW119322   1.544   3.904   1.016 -1.0433 -1.7341 -1.0970
 2562SOL    HW219323   1.418   3.843   1.079 -1.3163  1.4800 -1.8038
 2563SOL     OW19324   1.523   0.436   7.759  0.1785 -0.1448  0.5518
 2563SOL    HW119325   1.617   0.448   7.745  0.3420 -0.7708  1.1271
 2563SOL    HW219326   1.489   0.366   7.704  0.2153  0.9154 -0.8304
 2564SOL     OW19327   2.800   2.189   7.736 -0.3500 -0.8792 -0.0153
 2564SOL    HW119328   2.759   2.270   7.705  0.9324 -0.6277 -1.0665
 2564SOL    HW219329   2.820   2.203   7.829 -0.0041  0.1645 -0.2491
 2565SOL     OW19330   3.345   1.459   6.956  0.3660 -0.0905 -0.3660
 2565SOL    HW119331   3.347   1.473   6.861  0.1321  1.5841 -0.1283
 2565SOL    HW219332   3.286   1.385   6.969 -1.4481  1.0985 -1.9176
 2566SOL     OW19333   0.736   1.235   4.617  0.1981 -0.1933  0.6727
 2566SOL    HW119334   0.789   1.307   4.649 -3.0289  2.0426  0.9449
 2566SOL    HW219335   0.778   1.217   4.533 -2.4078  0.6979 -0.8196
 2567SOL     OW19336   1.090   0.168   5.673  0.3080  0.1675 -0.2215
 2567SOL    HW119337   1.128   0.098   5.618 -0.6661  0.0019 -0.6892
 2567SOL    HW219338   1.060   0.232   5.609  1.1837  0.6272 -0.1709
 2568SOL     OW19339   3.526   1.927   1.367 -0.1419 -0.1853  0.0727
 2568SOL    HW119340   3.577   2.007   1.380 -0.7306  0.7650 -3.4934
 2568SOL    HW219341   3.593   1.859   1.359 -0.3456 -0.6783  2.6225
 2569SOL     OW19342   0.238   0.539   4.057 -0.2803  0.8707 -0.1786
 2569SOL    HW119343   0.226   0.502   3.970  0.4351 -2.5575  1.1698
 2569SOL    HW219344   0.332   0.556   4.050  0.7329 -4.6938  0.1426
 2570SOL     OW19345   2.988   1.254  12.326  0.1622 -0.1684 -0.5323
 2570SOL    HW119346   3.055   1.211  12.274 -0.0980 -1.2525  0.0308
 2570SOL    HW219347   3.038   1.275  12.405 -0.0626 -0.8876 -0.2031
 2571SOL     OW19348   4.568   1.954   3.742 -0.5136  1.0770  0.2433
 2571SOL    HW119349   4.508   1.940   3.815  0.9060 -0.8074  1.0588
 2571SOL    HW219350   4.506   1.956   3.670 -0.3072 -0.5938  0.0223
 2572SOL     OW19351   3.209   1.858   2.026 -0.4406 -0.3505 -0.3998
 2572SOL    HW119352   3.254   1.908   2.094 -0.4694 -0.2264 -0.4716
 2572SOL    HW219353   3.255   1.774   2.027  0.5891  0.1924 -1.9475
 2573SOL     OW19354   1.589   2.977   0.812  0.0228 -0.0679 -0.6120
 2573SOL    HW119355   1.668   2.963   0.759 -0.7678 -0.0579 -1.7890
 2573SOL    HW219356   1.634   3.016   0.887  2.6314  0.5712 -2.5021
 2574SOL     OW19357   2.546   3.738  16.134  0.0776 -0.6967 -0.6888
 2574SOL    HW119358   2.494   3.688  16.198  0.8229 -0.6206 -0.0288
 2574SOL    HW219359   2.610   3.778  16.193 -0.1200  0.1611 -1.0590
 2575SOL     OW19360   0.445   3.274   9.582 -0.5402 -0.0424  0.5285
 2575SOL    HW119361   0.438   3.232   9.496 -0.9210  0.2149  0.4300
 2575SOL    HW219362   0.355   3.304   9.595 -0.0483  1.0528  1.3990
 2576SOL     OW19363   0.685   2.701   7.973  0.0722 -0.2631  0.4926
 2576SOL    HW119364   0.682   2.646   8.051  2.3855 -0.5853  0.3327
 2576SOL    HW219365   0.768   2.746   7.986  0.1126  0.1756 -1.3720
 2577SOL     OW19366   1.698   2.387  15.054 -0.3589  0.3326 -0.0364
 2577SOL    HW119367   1.658   2.432  14.979 -1.6518  1.1045  1.1263
 2577SOL    HW219368   1.778   2.356  15.010 -1.6111 -0.3518 -1.8278
 2578SOL     OW19369   1.211   0.385   2.585 -0.0702  0.0082  0.1376
 2578SOL    HW119370   1.233   0.292   2.582 -2.4004 -0.4506 -2.6586
 2578SOL    HW219371   1.226   0.399   2.678 -0.8259 -2.0094  0.5552
 2579SOL     OW19372   4.235   3.976  10.816 -0.2607  0.5150 -0.9362
 2579SOL    HW119373   4.283   3.914  10.762  0.5872 -1.7143  2.3823
 2579SOL    HW219374   4.158   3.931  10.851  1.6330 -2.5383 -0.7186
 2580SOL     OW19375   2.974   3.772  11.277  0.3461 -0.0744  0.1989
 2580SOL    HW119376   3.069   3.776  11.261  0.8294 -1.7160  2.6363
 2580SOL    HW219377   2.968   3.845  11.338  2.0708 -0.9104  1.3737
 2581SOL     OW19378   2.321   2.097  10.153  0.5367 -0.1818 -0.0901
 2581SOL    HW119379   2.250   2.137  10.102  0.7453  1.0437  0.5753
 2581SOL    HW219380   2.324   2.170  10.215 -1.7414 -1.7027  1.7880
 2582SOL     OW19381   2.419   1.440   4.434  0.3586  0.2488 -0.0333
 2582SOL    HW119382   2.458   1.516   4.390  0.4665  0.9326  1.2473
 2582SOL    HW219383   2.398   1.377   4.365 -0.0797  0.4751 -0.1077
 2583SOL     OW19384   0.498   0.540   3.944 -0.0263 -0.3237  0.0907
 2583SOL    HW119385   0.565   0.553   4.010 -0.5556 -0.6185  0.6823
 2583SOL    HW219386   0.529   0.455   3.914 -0.7895 -0.9587  1.1204
 2584SOL     OW19387   0.079   0.224   2.057  0.3700 -0.1656  0.0476
 2584SOL    HW119388   0.003   0.257   2.010  0.3787  0.1685  0.2675
 2584SOL    HW219389   0.036   0.197   2.138  0.6920 -0.6212  0.0691
 2585SOL     OW19390   2.004   3.897   7.306  0.4708  0.1620 -0.8182
 2585SOL    HW119391   1.930   3.867   7.359  0.7877  0.3426 -0.2669
 2585SOL    HW219392   2.040   3.967   7.362 -1.9986  0.6314  0.1902
 2586SOL     OW19393   0.336   0.425   9.400 -0.2409  0.4532 -0.4196
 2586SOL    HW119394   0.393   0.475   9.459  2.4740 -0.2664 -2.4215
 2586SOL    HW219395   0.324   0.351   9.459 -0.8053 -0.5620 -1.8039
 2587SOL     OW19396   3.647   1.972   6.763  0.1504 -0.3559  0.0500
 2587SOL    HW119397   3.686   2.047   6.807 -1.5589  0.2466  0.5268
 2587SOL    HW219398   3.722   1.913   6.755  0.2865 -0.2368  0.4651
 2588SOL     OW19399   2.686   0.774  11.114 -0.2236  0.1035 -0.2033
 2588SOL    HW119400   2.780   0.769  11.097 -0.0639 -0.9525  0.9761
 2588SOL    HW219401   2.674   0.727  11.196 -2.1591  1.6202  0.3690
 2589SOL     OW19402   1.006   0.903   8.557  0.6960 -0.3775 -0.0138
 2589SOL    HW119403   1.036   0.815   8.537 -2.6105 -1.1785 -1.5196
 2589SOL    HW219404   1.055   0.952   8.490  0.9464 -2.4459 -1.3245
 2590SOL     OW19405   2.593   4.406   6.604  0.0357  0.3011  0.5823
 2590SOL    HW119406   2.683   4.377   6.611 -0.9728 -2.6419  1.4681
 2590SOL    HW219407   2.603   4.455   6.522 -1.2860 -0.6549 -0.1581
 2591SOL     OW19408   2.183   1.457  12.210 -0.7893  0.2167 -0.6522
 2591SOL    HW119409   2.173   1.551  12.193 -0.2439  1.0474  3.6509
 2591SOL    HW219410   2.134   1.425  12.134  0.1151  3.2533 -2.5412
 2592SOL     OW19411   3.846   2.586   7.506  0.5187 -0.3035 -0.0967
 2592SOL    HW119412   3.813   2.671   7.537  1.0598  0.4051 -1.4547
 2592SOL    HW219413   3.854   2.598   7.412  0.6393  0.7628  0.0472
 2593SOL     OW19414   3.271   0.204  12.505 -0.1046 -0.3669 -0.4316
 2593SOL    HW119415   3.176   0.208  12.490  0.1434 -1.0700 -2.2262
 2593SOL    HW219416   3.276   0.215  12.600 -0.7845  2.0320 -0.6655
 2594SOL     OW19417   2.938   0.189  11.379  0.3062  0.7041 -0.1450
 2594SOL    HW119418   2.868   0.253  11.370 -1.1235 -0.8611  0.0013
 2594SOL    HW219419   2.905   0.129  11.446  1.5432 -0.5716 -0.6849
 2595SOL     OW19420   1.602   3.762   3.165 -0.0432 -0.6393 -0.4871
 2595SOL    HW119421   1.630   3.750   3.256 -1.5264  0.9123  0.1824
 2595SOL    HW219422   1.671   3.817   3.127 -2.5550  0.6993 -3.0856
 2596SOL     OW19423   1.735   3.473  15.234 -0.0531 -0.1492 -0.2693
 2596SOL    HW119424   1.744   3.567  15.220 -1.4142 -0.1162 -0.9260
 2596SOL    HW219425   1.793   3.442  15.163 -0.7700  0.7936 -1.2723
 2597SOL     OW19426   0.397   0.493   5.915  0.2244  0.3868  0.7573
 2597SOL    HW119427   0.372   0.586   5.910  1.1650  0.6696  1.3013
 2597SOL    HW219428   0.480   0.507   5.869 -1.4228 -1.1924 -2.6845
 2598SOL     OW19429   3.040   4.213   2.808 -0.1992 -0.2851 -0.2980
 2598SOL    HW119430   2.981   4.143   2.779 -0.6020 -0.8405  1.9199
 2598SOL    HW219431   3.122   4.186   2.767 -1.0054 -2.0220 -0.7604
 2599SOL     OW19432   0.825   0.136  11.979 -0.1614  0.3552  0.5584
 2599SOL    HW119433   0.746   0.190  11.966 -0.0475  0.3237 -0.2589
 2599SOL    HW219434   0.885   0.206  12.003 -0.5714  0.6922  0.6171
 2600SOL     OW19435   4.165   0.282  12.033  0.8786 -0.5390 -0.9598
 2600SOL    HW119436   4.188   0.325  11.950 -3.2005  1.1140 -1.2803
 2600SOL    HW219437   4.081   0.238  12.021 -0.2852  0.8325  2.0959
 2601SOL     OW19438   3.567   3.986  17.594  0.5855 -0.3540 -0.1508
 2601SOL    HW119439   3.499   3.945  17.541 -0.6451 -0.4220  1.4580
 2601SOL    HW219440   3.643   3.960  17.542 -0.8423 -2.2354 -1.2744
 2602SOL     OW19441   0.196   3.173  17.517  0.6075 -0.1627  0.0103
 2602SOL    HW119442   0.120   3.120  17.540  0.2366  0.9145  1.2848
 2602SOL    HW219443   0.155   3.250  17.477 -0.5879 -1.2037 -0.7497
 2603SOL     OW19444   2.274   0.981   9.876  0.1325 -0.2010  0.3455
 2603SOL    HW119445   2.314   1.009   9.959  1.1192  0.2627 -0.2914
 2603SOL    HW219446   2.205   0.925   9.911 -0.3386  0.9019  1.1855
 2604SOL     OW19447   3.495   1.915  16.024  0.0509  0.1339 -0.1061
 2604SOL    HW119448   3.473   1.825  15.999  0.3813  0.0911 -0.2444
 2604SOL    HW219449   3.457   1.908  16.111  1.4847 -1.2333  0.4122
 2605SOL     OW19450   3.799   1.407   2.729 -0.7016  0.4203  0.3436
 2605SOL    HW119451   3.886   1.432   2.697  1.6426 -1.9764  4.7588
 2605SOL    HW219452   3.813   1.312   2.730 -1.4492  0.2876 -1.5914
 2606SOL     OW19453   1.831   2.580   7.793 -0.3624  0.1538  0.0058
 2606SOL    HW119454   1.865   2.669   7.791  1.2146 -0.4202  1.0493
 2606SOL    HW219455   1.864   2.543   7.712 -2.7368 -0.5554 -0.6505
 2607SOL     OW19456   3.927   2.761  17.638 -0.5280 -0.2576 -0.1732
 2607SOL    HW119457   4.000   2.821  17.624  2.2954 -3.1856  2.0412
 2607SOL    HW219458   3.855   2.821  17.618 -1.8710 -2.0716 -0.7987
 2608SOL     OW19459   4.130   1.927   4.117 -0.2391  0.0577 -0.1735
 2608SOL    HW119460   4.047   1.976   4.115 -0.6995 -0.7327 -0.3315
 2608SOL    HW219461   4.141   1.920   4.212  0.1492 -1.2238 -0.3142
 2609SOL     OW19462   1.664   0.395  16.642  0.4150  0.1223 -0.4437
 2609SOL    HW119463   1.715   0.433  16.570 -0.1803  0.8086 -0.5058
 2609SOL    HW219464   1.586   0.361  16.598 -0.2014 -0.3013  0.9783
 2610SOL     OW19465   1.626   1.958   1.440  0.1523  0.0660  0.6583
 2610SOL    HW119466   1.547   1.991   1.481 -0.6633 -1.4934  0.3457
 2610SOL    HW219467   1.627   2.019   1.366 -1.5444 -1.8477 -0.9733
 2611SOL     OW19468   2.223   1.409   1.214 -0.1057 -0.1634 -0.1673
 2611SOL    HW119469   2.300   1.428   1.161 -0.6945 -0.8306 -1.2535
 2611SOL    HW219470   2.151   1.418   1.151 -1.1741 -0.5053  0.9928
 2612SOL     OW19471   2.569   1.637   8.675 -0.0672 -0.1032 -0.4802
 2612SOL    HW119472   2.613   1.600   8.599 -1.4282  0.8145 -1.7016
 2612SOL    HW219473   2.639   1.701   8.688 -0.1206 -0.2915  0.7863
 2613SOL     OW19474   1.107   3.121   5.122  0.2716 -0.1550 -0.1160
 2613SOL    HW119475   1.036   3.159   5.071 -0.1162 -2.1887 -1.0842
 2613SOL    HW219476   1.063   3.074   5.193  2.5819 -0.7099  0.9775
 2614SOL     OW19477   3.788   1.894   9.482  0.4380  0.4023 -0.9915
 2614SOL    HW119478   3.840   1.882   9.561 -1.1784 -0.7078 -0.1129
 2614SOL    HW219479   3.719   1.951   9.514 -0.5783 -0.0136 -2.4394
 2615SOL     OW19480   1.149   2.280  10.142 -0.0845  0.6641  0.2071
 2615SOL    HW119481   1.121   2.190  10.127 -1.1967  0.9776  0.3942
 2615SOL    HW219482   1.164   2.304  10.051 -2.5409 -0.0095 -0.3580
 2616SOL     OW19483   2.810   0.695   4.060 -0.1104  0.3484  0.2537
 2616SOL    HW119484   2.753   0.740   4.123  1.2243 -1.6375  2.8644
 2616SOL    HW219485   2.750   0.646   4.003  0.6149 -0.2795  0.0336
 2617SOL     OW19486   0.471   0.453   1.998 -0.2946  0.0117  0.0937
 2617SOL    HW119487   0.393   0.447   2.053  1.0995 -0.4234  2.0188
 2617SOL    HW219488   0.504   0.541   2.017 -0.6945 -0.2284  1.8302
 2618SOL     OW19489   3.141   0.331  14.363  0.2894  0.0298  0.4031
 2618SOL    HW119490   3.229   0.303  14.389 -0.1704  0.2765  2.2372
 2618SOL    HW219491   3.113   0.259  14.308  1.7106  0.4393 -0.8697
 2619SOL     OW19492   2.021   0.063   8.600  0.0478 -0.9153 -0.6324
 2619SOL    HW119493   1.926   0.067   8.590  0.0670  1.9698  0.3127
 2619SOL    HW219494   2.032   0.105   8.685 -2.2833 -3.2969  0.8462
 2620SOL     OW19495   4.505   4.449   8.274 -0.2685  0.3762 -0.1604
 2620SOL    HW119496   4.523   4.365   8.315  0.3260 -0.8804 -2.9631
 2620SOL    HW219497   4.421   4.433   8.231  0.4069 -0.4851 -1.1870
 2621SOL     OW19498   0.812   3.526   0.770  0.1855 -0.4813 -0.3970
 2621SOL    HW119499   0.783   3.557   0.685 -0.7289 -1.0828 -0.3045
 2621SOL    HW219500   0.834   3.435   0.749 -0.3721 -1.2062  2.1129
 2622SOL     OW19501   0.029   4.119   2.273  0.8400  0.3550 -0.1266
 2622SOL    HW119502   0.041   4.147   2.364 -1.2286  0.2855  0.1727
 2622SOL    HW219503   4.708   4.048   2.298 -0.7656  0.7157 -2.8741
 2623SOL     OW19504   3.749   3.971  13.197  0.4561 -0.7863 -0.5088
 2623SOL    HW119505   3.778   3.883  13.222 -1.4517 -0.8617  1.4867
 2623SOL    HW219506   3.693   3.983  13.273  0.2777 -3.2539 -0.2411
 2624SOL     OW19507   2.286   1.774   4.252 -0.2890 -0.0204 -0.8763
 2624SOL    HW119508   2.305   1.850   4.308  0.1843  0.1222 -1.2268
 2624SOL    HW219509   2.359   1.713   4.262  0.6239  0.8966 -1.9451
 2625SOL     OW19510   4.332   1.499  11.579 -0.7746 -0.8743 -0.0080
 2625SOL    HW119511   4.356   1.539  11.496 -2.3013 -0.8043 -0.4036
 2625SOL    HW219512   4.362   1.559  11.648  0.3419 -0.0594 -1.1946
 2626SOL     OW19513   4.542   2.765   2.688  0.2604 -0.6850 -0.1405
 2626SOL    HW119514   4.612   2.749   2.751  1.6438  0.6937 -1.3431
 2626SOL    HW219515   4.590   2.780   2.607 -0.9965  0.8787 -0.5997
 2627SOL     OW19516   1.777   2.474  12.930 -0.2883 -1.1690 -0.8329
 2627SOL    HW119517   1.828   2.554  12.915  0.4005 -1.8067 -1.9301
 2627SOL    HW219518   1.769   2.425  12.848 -3.1802 -0.3015 -1.0560
 2628SOL     OW19519   2.914   1.903   5.305 -0.0869  0.1035 -0.0464
 2628SOL    HW119520   2.934   1.828   5.249 -0.5989  0.1951 -0.3542
 2628SOL    HW219521   2.934   1.976   5.246  2.4302 -0.2764  0.3655
 2629SOL     OW19522   1.659   2.870   5.958 -0.1637 -0.3638 -0.1111
 2629SOL    HW119523   1.701   2.956   5.958 -0.7215 -0.0868  0.0234
 2629SOL    HW219524   1.696   2.833   5.877  0.1244  1.3660 -0.7703
 2630SOL     OW19525   1.890   2.133   2.617 -0.2012 -0.0808  0.1873
 2630SOL    HW119526   1.911   2.226   2.627  0.2608 -0.2520  0.8390
 2630SOL    HW219527   1.981   2.104   2.620  0.5400  2.1319 -0.8265
 2631SOL     OW19528   3.052   3.407   4.599 -0.3920  0.1427 -0.3831
 2631SOL    HW119529   3.031   3.349   4.672  0.0161 -0.0021 -0.3789
 2631SOL    HW219530   3.035   3.492   4.639 -0.6060 -0.3036  0.4644
 2632SOL     OW19531   3.039   3.482   5.440  0.6317 -0.1362 -0.2739
 2632SOL    HW119532   3.132   3.467   5.455  0.1633 -1.7652  1.0518
 2632SOL    HW219533   3.026   3.565   5.485 -3.6292 -0.3586 -1.0946
 2633SOL     OW19534   1.120   4.489   4.802  0.5359 -0.2867 -0.3336
 2633SOL    HW119535   1.189   4.423   4.802 -0.7969 -1.6944  0.1268
 2633SOL    HW219536   1.061   4.459   4.871  0.2438 -2.0518 -1.3383
 2634SOL     OW19537   0.429   0.240   3.786  0.2143 -0.6792 -0.2030
 2634SOL    HW119538   0.406   0.162   3.736  1.1889 -0.5368 -0.8575
 2634SOL    HW219539   0.520   0.250   3.759  0.2525 -1.4190 -0.3420
 2635SOL     OW19540   1.200   3.701   7.229  0.1659 -0.5891 -0.0669
 2635SOL    HW119541   1.154   3.757   7.290  1.5838 -1.1918  1.5560
 2635SOL    HW219542   1.209   3.758   7.153 -0.5404  0.0512  0.3404
 2636SOL     OW19543   2.997   2.194   4.273  0.3088  0.1096 -0.0058
 2636SOL    HW119544   3.057   2.237   4.334  0.1046  1.2357 -0.5926
 2636SOL    HW219545   3.063   2.156   4.217 -1.2388 -0.9319 -1.1229
 2637SOL     OW19546   4.059   2.656  17.280 -0.4176 -0.0229  0.5198
 2637SOL    HW119547   3.993   2.724  17.266 -2.4162 -2.2538 -1.1226
 2637SOL    HW219548   4.007   2.594  17.332  2.4323 -0.8963  2.2794
 2638SOL     OW19549   1.333   1.750  11.487 -0.1873 -0.0399  0.3420
 2638SOL    HW119550   1.375   1.830  11.456  0.2703 -0.6927 -0.6924
 2638SOL    HW219551   1.313   1.784  11.575 -0.0544  0.3239  0.2312
 2639SOL     OW19552   4.228   3.645   2.933 -0.2254 -0.5397  0.0851
 2639SOL    HW119553   4.318   3.620   2.953  0.0205 -0.4890 -0.9332
 2639SOL    HW219554   4.201   3.558   2.903  0.3571 -1.0542  1.0470
 2640SOL     OW19555   1.614   3.795  16.153 -0.1757 -0.1333 -0.0969
 2640SOL    HW119556   1.600   3.791  16.248 -0.8229 -0.3559 -0.1994
 2640SOL    HW219557   1.521   3.801  16.131  0.6870 -1.2511 -4.0181
 2641SOL     OW19558   2.134   0.974   7.845 -0.1388  0.0469  0.3185
 2641SOL    HW119559   2.115   1.062   7.877 -0.7983  0.4929 -1.2736
 2641SOL    HW219560   2.116   0.985   7.752 -0.8867  0.5337  0.5276
 2642SOL     OW19561   2.399   4.463   5.590 -0.0923 -0.2804  0.1380
 2642SOL    HW119562   2.417   4.464   5.496  0.2095 -0.1242  0.1966
 2642SOL    HW219563   2.306   4.487   5.590  0.0736  0.2581 -3.8104
 2643SOL     OW19564   4.621   3.458  15.455  0.5526  0.2491 -0.2931
 2643SOL    HW119565   4.678   3.381  15.452  1.0272  0.6231 -0.9685
 2643SOL    HW219566   4.549   3.432  15.397 -0.1745  1.7173 -0.0424
 2644SOL     OW19567   4.478   3.384  13.191 -0.5409 -0.3330 -0.2082
 2644SOL    HW119568   4.437   3.417  13.271  1.4175  1.2386  0.1378
 2644SOL    HW219569   4.402   3.368  13.135 -0.3337  1.3922 -0.9612
 2645SOL     OW19570   2.403   3.415  15.519  0.3615  0.1451 -0.3140
 2645SOL    HW119571   2.390   3.324  15.493  1.4467 -0.6158  1.8535
 2645SOL    HW219572   2.408   3.442  15.427 -0.6770 -0.3826 -0.5233
 2646SOL     OW19573   4.590   0.800  16.745 -0.6344  0.0498  0.2484
 2646SOL    HW119574   4.539   0.720  16.734 -1.5832  0.5181  1.1782
 2646SOL    HW219575   4.638   0.778  16.825 -2.6864  0.3510  1.5718
 2647SOL     OW19576   0.257   0.752   9.041 -0.5838 -0.2386 -0.2635
 2647SOL    HW119577   0.194   0.697   8.994 -0.9478 -0.0219 -0.0291
 2647SOL    HW219578   0.272   0.698   9.118 -3.2422 -0.1987  0.2674
 2648SOL     OW19579   0.773   4.579   6.961  0.4460 -0.1079 -0.9649
 2648SOL    HW119580   0.852   4.611   7.005 -1.2067  1.7391  0.6631
 2648SOL    HW219581   0.712   4.594   7.033  0.4091  1.9250 -1.4329
 2649SOL     OW19582   2.945   3.315   1.432  0.4113 -0.3656 -0.6979
 2649SOL    HW119583   2.862   3.311   1.385 -1.1598 -0.2287  2.0701
 2649SOL    HW219584   2.984   3.228   1.434 -0.5943 -0.7703  1.0277
 2650SOL     OW19585   1.465   4.583   4.779 -0.0133 -0.4879 -0.7582
 2650SOL    HW119586   1.546   4.599   4.730 -0.3843  0.8287 -0.9574
 2650SOL    HW219587   1.478   4.638   4.856 -0.4852 -0.4808 -0.6863
 2651SOL     OW19588   3.376   1.142  14.941  0.0928 -0.1849  0.3836
 2651SOL    HW119589   3.363   1.113  14.850  2.2003  1.2202 -0.3672
 2651SOL    HW219590   3.439   1.080  14.977  0.8989  0.1237 -0.4870
 2652SOL     OW19591   2.617   2.566   2.172  0.3429 -0.4192 -0.1477
 2652SOL    HW119592   2.567   2.487   2.154  0.1351 -0.8817  2.4019
 2652SOL    HW219593   2.621   2.574   2.268 -0.7981 -0.8901 -0.0618
 2653SOL     OW19594   2.486   3.355  12.170 -0.5788 -0.1951  0.1878
 2653SOL    HW119595   2.556   3.307  12.214 -0.0132 -1.6282 -2.2394
 2653SOL    HW219596   2.426   3.371  12.242 -0.9850  1.8276 -0.6102
 2654SOL     OW19597   2.420   1.202   2.076  0.5366  0.1094 -0.2871
 2654SOL    HW119598   2.369   1.276   2.108  1.3151 -1.0494  3.6653
 2654SOL    HW219599   2.478   1.232   2.006 -0.9275  1.5392 -0.8796
 2655SOL     OW19600   1.092   1.066   5.884 -0.4140 -0.9361  0.8665
 2655SOL    HW119601   1.072   1.015   5.963  0.7350 -0.8200  1.2320
 2655SOL    HW219602   1.020   1.048   5.824 -0.6075 -1.3895  1.2322
 2656SOL     OW19603   1.360   1.808   2.164 -0.0551 -0.9346  0.7241
 2656SOL    HW119604   1.393   1.898   2.173 -2.2682 -0.1983  1.5294
 2656SOL    HW219605   1.418   1.758   2.222  1.4054 -0.0774  0.0139
 2657SOL     OW19606   2.680   4.007   6.312 -0.6965 -0.2589 -0.2579
 2657SOL    HW119607   2.612   3.997   6.378 -1.0967 -0.3843 -0.6896
 2657SOL    HW219608   2.640   3.957   6.240  1.7069  0.1329 -1.8822
 2658SOL     OW19609   2.207   1.519  15.369  0.0270 -0.9244 -0.4249
 2658SOL    HW119610   2.123   1.524  15.416  1.1854 -1.0179  1.6662
 2658SOL    HW219611   2.187   1.546  15.280  1.4180 -0.0306 -0.4686
 2659SOL     OW19612   0.005   2.994  17.588  0.1714  0.4513 -0.6021
 2659SOL    HW119613   4.701   3.037  17.662 -1.1395 -1.1888 -0.3860
 2659SOL    HW219614   4.676   2.936  17.553  1.7064 -2.4316  1.2163
 2660SOL     OW19615   0.920   2.198  14.053  0.1293  0.0381 -0.4610
 2660SOL    HW119616   0.844   2.140  14.045  0.7123 -0.8385  0.2607
 2660SOL    HW219617   0.983   2.142  14.100 -1.2392 -0.1110  1.2038
 2661SOL     OW19618   0.647   2.888  11.175  0.2573  0.3388 -0.2274
 2661SOL    HW119619   0.656   2.877  11.080 -0.6237 -0.6864 -0.1826
 2661SOL    HW219620   0.619   2.979  11.187 -2.1834 -0.2587 -1.3806
 2662SOL     OW19621   0.959   0.427   8.097  0.3378  0.7764  0.0604
 2662SOL    HW119622   0.985   0.446   8.007  0.5419 -0.3663 -0.1202
 2662SOL    HW219623   0.900   0.499   8.120 -0.1538  0.1831  0.6732
 2663SOL     OW19624   3.127   2.523  10.743 -0.5832  0.3065 -0.1053
 2663SOL    HW119625   3.160   2.596  10.796  1.8704 -0.4084 -0.6471
 2663SOL    HW219626   3.055   2.566  10.696 -0.7264 -1.1495 -1.2029
 2664SOL     OW19627   1.109   0.151  15.783  0.2546 -0.4060  0.1172
 2664SOL    HW119628   1.031   0.099  15.803  0.4008 -0.3337  0.8827
 2664SOL    HW219629   1.118   0.135  15.689 -0.0230 -2.0065  0.3586
 2665SOL     OW19630   2.340   4.427  12.769  0.4254 -0.2098 -0.3050
 2665SOL    HW119631   2.434   4.412  12.758  0.1923 -1.3642 -0.6529
 2665SOL    HW219632   2.338   4.521  12.789 -0.4828  0.0099 -1.4761
 2666SOL     OW19633   0.726   2.135   3.046  0.6172  0.5160 -0.7261
 2666SOL    HW119634   0.734   2.054   3.097 -0.4434  0.7638 -0.1584
 2666SOL    HW219635   0.807   2.166   3.085 -0.2484  1.9271 -0.0369
 2667SOL     OW19636   3.863   4.197   6.944 -0.6261 -0.3063 -0.0108
 2667SOL    HW119637   3.952   4.218   6.916  0.1371 -3.0913  0.3534
 2667SOL    HW219638   3.882   4.132   7.012  3.1094  0.3515 -0.4351
 2668SOL     OW19639   0.405   0.510   2.605 -0.1178 -0.2259  0.4990
 2668SOL    HW119640   0.401   0.460   2.523  0.4323  0.1674  0.2336
 2668SOL    HW219641   0.398   0.429   2.655 -1.2822 -0.9907 -0.8697
 2669SOL     OW19642   4.272   1.956   3.262 -0.0593 -0.2529 -0.4041
 2669SOL    HW119643   4.308   2.042   3.241  0.9287 -0.5098  0.2317
 2669SOL    HW219644   4.340   1.891   3.280  0.5154  0.5864  0.4103
 2670SOL     OW19645   1.089   4.133   2.861 -0.0681 -0.1229 -0.3455
 2670SOL    HW119646   1.014   4.160   2.808 -1.2300 -0.8677  0.9356
 2670SOL    HW219647   1.061   4.186   2.935 -0.0200  0.1975 -0.5531
 2671SOL     OW19648   2.010   3.574   2.957  0.4141  0.5123  0.2440
 2671SOL    HW119649   1.966   3.648   2.914 -0.8882  0.0517  0.7735
 2671SOL    HW219650   1.983   3.578   3.048  3.5303 -3.1595  1.3086
 2672SOL     OW19651   4.172   0.552  13.679  0.2463  0.7673  0.5228
 2672SOL    HW119652   4.261   0.579  13.704  1.9219 -2.2618 -2.0921
 2672SOL    HW219653   4.160   0.592  13.593  0.5005  0.0442  0.1523
 2673SOL     OW19654   0.380   4.091  14.638 -0.2158 -0.0906 -0.0802
 2673SOL    HW119655   0.414   4.113  14.551  0.7921 -0.0550  0.3295
 2673SOL    HW219656   0.310   4.154  14.649  1.5961  1.4529  2.5668
 2674SOL     OW19657   3.608   2.704  15.019  0.6694  0.0946 -0.0869
 2674SOL    HW119658   3.702   2.705  15.037  0.6814  1.4775 -0.2059
 2674SOL    HW219659   3.611   2.741  14.931  2.4863  0.0663 -0.0274
 2675SOL     OW19660   3.856   0.118  15.148  0.3885 -1.1019  0.1487
 2675SOL    HW119661   3.919   0.136  15.218 -1.3863 -1.1409  1.7338
 2675SOL    HW219662   3.772   0.145  15.184  2.2322  2.9508  1.3506
 2676SOL     OW19663   2.924   0.997  16.060  0.3931  0.4165 -0.5059
 2676SOL    HW119664   2.920   1.092  16.052 -1.2449  0.3218 -0.7362
 2676SOL    HW219665   2.941   0.989  16.154 -0.4346 -1.0332 -0.4828
 2677SOL     OW19666   3.175   2.600   8.577  0.3770  0.1330 -0.5203
 2677SOL    HW119667   3.172   2.685   8.533 -3.2591  0.6857  0.8405
 2677SOL    HW219668   3.157   2.620   8.668 -2.0580  2.0913 -1.4302
 2678SOL     OW19669   3.069   0.060   7.932 -0.1461  0.0561  0.2349
 2678SOL    HW119670   3.016   0.017   7.999  0.3241  0.8691  1.1160
 2678SOL    HW219671   3.052   0.008   7.853 -1.4591  1.9298 -0.7107
 2679SOL     OW19672   4.014   2.895  11.923 -0.0307  0.3795  0.1442
 2679SOL    HW119673   3.960   2.935  11.992  0.2037  1.3853 -0.2501
 2679SOL    HW219674   4.080   2.965  11.921 -0.6450  0.9598  0.1344
 2680SOL     OW19675   0.638   2.021   7.026 -0.1229 -0.0940 -0.0377
 2680SOL    HW119676   0.642   2.011   7.121 -0.7870  0.2988  0.0318
 2680SOL    HW219677   0.545   2.018   7.002 -0.3230 -0.0222  0.7572
 2681SOL     OW19678   0.454   4.220   7.386  0.6161 -0.5957  0.7546
 2681SOL    HW119679   0.538   4.240   7.346 -1.7725  2.7171 -2.5812
 2681SOL    HW219680   0.469   4.228   7.481  1.2810 -2.1490  0.7900
 2682SOL     OW19681   1.758   4.520   3.218  0.6232 -0.0326 -0.2100
 2682SOL    HW119682   1.745   4.598   3.271  1.4268 -2.3075  3.3158
 2682SOL    HW219683   1.667   4.491   3.209  0.8667 -0.8939  0.1050
 2683SOL     OW19684   2.651   2.935  16.902 -0.1854  0.5916 -0.0119
 2683SOL    HW119685   2.597   3.014  16.894 -2.2341 -0.8564 -0.6606
 2683SOL    HW219686   2.737   2.972  16.918  0.9937 -1.8171 -0.7973
 2684SOL     OW19687   1.803   1.218   2.076 -0.3717 -0.1289  0.4741
 2684SOL    HW119688   1.753   1.161   2.135 -0.7350  1.0419  1.3053
 2684SOL    HW219689   1.860   1.265   2.138 -0.2759  2.3589 -1.5179
 2685SOL     OW19690   1.309   1.693   6.133 -0.4562  0.1141  0.3443
 2685SOL    HW119691   1.328   1.646   6.052  1.0605  1.7508 -0.2553
 2685SOL    HW219692   1.397   1.720   6.161 -0.4312 -1.0453  1.4185
 2686SOL     OW19693   2.004   0.125  10.298 -0.2604 -0.8943 -0.0549
 2686SOL    HW119694   1.955   0.136  10.380  0.7470  0.3563  0.3705
 2686SOL    HW219695   2.088   0.155  10.333  0.1227 -1.3183 -0.6187
 2687SOL     OW19696   3.202   4.504   8.997 -0.2669 -0.1358  0.0794
 2687SOL    HW119697   3.245   4.433   8.948  0.6079  0.8176 -0.5359
 2687SOL    HW219698   3.113   4.489   8.966  0.2384 -0.5737 -1.1585
 2688SOL     OW19699   0.450   0.375   2.369  0.8789 -0.2305  0.4770
 2688SOL    HW119700   0.517   0.317   2.335  0.6115 -0.1349 -0.2114
 2688SOL    HW219701   0.381   0.382   2.303 -0.1523  0.7954  1.6506
 2689SOL     OW19702   2.644   0.233   5.004 -0.0880  0.2774  0.4448
 2689SOL    HW119703   2.616   0.301   4.943 -3.8435 -0.8274  0.9408
 2689SOL    HW219704   2.634   0.276   5.089 -1.6881  1.6456 -0.4421
 2690SOL     OW19705   0.337   3.374  17.655 -0.1312 -0.5142  0.2138
 2690SOL    HW119706   0.292   3.292  17.636  0.5347 -0.6243 -0.8881
 2690SOL    HW219707   0.275   3.446  17.647 -0.5624 -0.5198  3.6002
 2691SOL     OW19708   2.683   2.359   5.202  0.2924  0.0893  0.8507
 2691SOL    HW119709   2.633   2.300   5.258 -1.7078 -0.0687 -1.0795
 2691SOL    HW219710   2.656   2.447   5.229 -2.0594 -0.3316 -0.0685
 2692SOL     OW19711   3.956   1.569  11.848  0.1414 -0.1503  0.4718
 2692SOL    HW119712   3.934   1.661  11.833  0.9917 -0.3586 -2.0707
 2692SOL    HW219713   3.880   1.549  11.902  0.3638  1.0861  1.2489
 2693SOL     OW19714   1.725   3.963   9.570  0.4846 -0.4739 -0.1728
 2693SOL    HW119715   1.770   3.960   9.486  2.3977  1.3930  0.7677
 2693SOL    HW219716   1.636   3.982   9.540  0.0658 -2.0989  0.0563
 2694SOL     OW19717   0.100   3.890   5.604  0.2150 -0.1527  0.1344
 2694SOL    HW119718   0.058   3.975   5.619 -0.2411 -0.4758  0.7091
 2694SOL    HW219719   0.171   3.900   5.667  0.7818  0.5446 -0.6200
 2695SOL     OW19720   1.039   1.782  10.580  0.3661 -0.4285  0.4164
 2695SOL    HW119721   1.094   1.704  10.570  0.9598 -0.0371  0.6471
 2695SOL    HW219722   1.043   1.818  10.491 -0.4241  0.0927  0.5928
 2696SOL     OW19723   0.783   2.401   3.554 -0.7312  0.3305 -0.5977
 2696SOL    HW119724   0.770   2.400   3.649  0.5734  1.3631 -0.4106
 2696SOL    HW219725   0.850   2.468   3.544  0.5923 -0.4445  2.9529
 2697SOL     OW19726   3.379   4.139   8.914  0.2940 -0.4288 -0.7185
 2697SOL    HW119727   3.454   4.089   8.883  0.6424  0.6754 -1.6776
 2697SOL    HW219728   3.332   4.087   8.979  2.7446 -1.8323 -0.0634
 2698SOL     OW19729   0.096   0.868   5.113  0.3885  0.1986  0.2625
 2698SOL    HW119730   0.116   0.872   5.020 -0.7487  1.3227  0.0630
 2698SOL    HW219731   0.182   0.843   5.147  0.6677 -1.4914 -1.7441
 2699SOL     OW19732   4.036   3.295   9.154  0.0269 -0.1203 -0.2974
 2699SOL    HW119733   4.016   3.326   9.065 -3.5187  0.4454  0.7159
 2699SOL    HW219734   4.122   3.337   9.163 -0.2828 -0.7017  5.1746
 2700SOL     OW19735   2.151   3.947   6.725 -0.3601  0.5220 -0.6379
 2700SOL    HW119736   2.231   3.994   6.702  0.0419 -0.2635 -0.8295
 2700SOL    HW219737   2.134   3.893   6.648  0.5272  2.5395 -2.2509
 2701SOL     OW19738   1.491   4.423  14.068  0.2583  0.4285  0.3814
 2701SOL    HW119739   1.482   4.328  14.068 -0.4829  0.4931  1.5430
 2701SOL    HW219740   1.463   4.434  14.159 -0.4779 -1.3609  0.3704
 2702SOL     OW19741   0.392   0.542   5.051  0.5481 -0.1924 -0.2171
 2702SOL    HW119742   0.310   0.504   5.083  0.2031  0.7081 -0.0250
 2702SOL    HW219743   0.398   0.497   4.967 -1.3362 -1.9617  0.5763
 2703SOL     OW19744   3.874   2.429   0.583  0.6959 -0.4648 -0.2917
 2703SOL    HW119745   3.888   2.457   0.493 -0.6510  2.4246  0.3856
 2703SOL    HW219746   3.946   2.369   0.600  0.6515 -0.6091 -0.6085
 2704SOL     OW19747   0.818   0.043  14.039  0.2216 -0.3251  0.0210
 2704SOL    HW119748   0.899   0.028  14.087 -0.0608  0.4813  0.7402
 2704SOL    HW219749   0.824   4.711  13.974 -2.6939  0.1172 -0.7582
 2705SOL     OW19750   4.128   3.922   7.248 -0.6822 -0.0953  0.2965
 2705SOL    HW119751   4.183   3.888   7.179 -2.4202 -0.2809 -0.9923
 2705SOL    HW219752   4.139   4.017   7.244  2.7741 -0.4911  0.7354
 2706SOL     OW19753   0.865   0.222  11.277 -0.3532 -0.0615  0.0871
 2706SOL    HW119754   0.805   0.296  11.283  0.0844  0.2513  0.5339
 2706SOL    HW219755   0.922   0.220  11.354 -0.4214 -0.0715  0.1371
 2707SOL     OW19756   3.571   4.562   6.191  0.3555  0.6422 -0.0418
 2707SOL    HW119757   3.658   4.523   6.182  1.0257  2.0203  0.3865
 2707SOL    HW219758   3.560   4.556   6.286 -0.6287 -1.4938 -0.2912
 2708SOL     OW19759   2.656   0.425  16.359 -0.5748  0.4162  0.3807
 2708SOL    HW119760   2.577   0.477  16.375 -0.3435  0.7481  0.4200
 2708SOL    HW219761   2.711   0.486  16.311 -0.3283 -0.5360 -0.5647
 2709SOL     OW19762   3.321   3.330   5.990  0.4536  0.2123  0.2068
 2709SOL    HW119763   3.283   3.244   6.011  1.2226  0.0656  1.0192
 2709SOL    HW219764   3.242   3.384   5.991  0.0485 -0.3700 -0.4194
 2710SOL     OW19765   1.259   1.828   3.601  1.0877  0.2086 -0.7393
 2710SOL    HW119766   1.319   1.849   3.530 -1.5704  2.2505 -2.4284
 2710SOL    HW219767   1.274   1.734   3.596 -1.2045 -0.2696  1.2537
 2711SOL     OW19768   3.038   2.784  11.735  0.1058  0.1880  0.0548
 2711SOL    HW119769   3.041   2.712  11.798 -1.4628 -1.0663 -1.3145
 2711SOL    HW219770   2.957   2.829  11.758 -0.3363 -0.1269 -0.8994
 2712SOL     OW19771   1.022   2.810   8.750  0.3834 -0.0788 -0.1144
 2712SOL    HW119772   1.041   2.811   8.656 -1.4140  0.8177 -0.4662
 2712SOL    HW219773   1.107   2.831   8.790  0.9868  1.1418 -2.0247
 2713SOL     OW19774   2.336   1.820   6.509  0.1766  0.4526  0.1900
 2713SOL    HW119775   2.328   1.745   6.569 -1.4110  0.9141  0.5525
 2713SOL    HW219776   2.429   1.823   6.489 -0.0703 -0.4204 -1.0437
 2714SOL     OW19777   1.496   2.396   5.304  0.6237  0.1010 -0.3978
 2714SOL    HW119778   1.426   2.455   5.332 -0.6271 -1.6976  0.2565
 2714SOL    HW219779   1.448   2.352   5.235  1.1107  0.1713 -0.7833
 2715SOL     OW19780   3.304   0.796   3.785 -0.4776 -0.4028 -0.7244
 2715SOL    HW119781   3.312   0.765   3.875 -1.6611  0.3775 -0.3395
 2715SOL    HW219782   3.261   0.880   3.802  3.5419  1.4416  0.3959
 2716SOL     OW19783   3.396   4.347   3.369  0.0039  0.0382  0.0489
 2716SOL    HW119784   3.340   4.403   3.423  1.0143  0.3733  0.7521
 2716SOL    HW219785   3.475   4.348   3.424 -1.7005 -0.4345  2.4900
 2717SOL     OW19786   2.202   1.162   8.573 -0.2048  0.6384 -0.4413
 2717SOL    HW119787   2.119   1.209   8.576 -0.3941  0.3625 -1.1630
 2717SOL    HW219788   2.221   1.160   8.479  1.7161  0.0257 -0.0517
 2718SOL     OW19789   1.309   2.251   5.153 -0.2785  0.6397 -0.4721
 2718SOL    HW119790   1.236   2.241   5.092 -0.9017 -1.7896  0.6790
 2718SOL    HW219791   1.260   2.229   5.233  1.3599  0.8164  0.5729
 2719SOL     OW19792   0.578   4.297   5.708  0.1401  0.0662  0.1918
 2719SOL    HW119793   0.569   4.329   5.797  1.2035 -0.9717  0.6572
 2719SOL    HW219794   0.507   4.235   5.690 -0.9206  1.5005 -0.5431
 2720SOL     OW19795   1.036   3.650   4.169 -0.0356  0.1851  0.1763
 2720SOL    HW119796   0.967   3.614   4.113  1.5095 -1.7043 -0.5149
 2720SOL    HW219797   1.096   3.678   4.100 -0.1655  2.1845  0.8945
 2721SOL     OW19798   0.905   4.525   8.940 -0.0958 -0.3494  0.2254
 2721SOL    HW119799   0.939   4.560   8.858 -1.1095  1.3616  0.5345
 2721SOL    HW219800   0.842   4.456   8.918 -3.4032  2.7297  0.0716
 2722SOL     OW19801   4.451   4.710  15.151 -0.4141 -0.3646 -0.1448
 2722SOL    HW119802   4.374   0.029  15.149  0.4963  0.8575  0.9690
 2722SOL    HW219803   4.436   4.662  15.069 -1.1750  0.5666 -0.5603
 2723SOL     OW19804   0.993   3.329   2.080 -0.1767  0.3421  0.4285
 2723SOL    HW119805   0.976   3.328   1.986 -0.2944 -1.3493  0.4661
 2723SOL    HW219806   0.926   3.387   2.117 -0.1673  0.2749  0.5489
 2724SOL     OW19807   2.280   2.357   4.601 -0.3436  0.1489  0.5486
 2724SOL    HW119808   2.364   2.340   4.645  0.4152  1.1919 -0.4941
 2724SOL    HW219809   2.308   2.403   4.522 -0.9400 -0.4992 -0.0378
 2725SOL     OW19810   2.029   0.633  15.316 -0.0538  0.6026  0.0852
 2725SOL    HW119811   2.091   0.650  15.387  0.3408  1.7203 -0.5158
 2725SOL    HW219812   2.026   0.538  15.323 -2.3856  0.6793 -0.0045
 2726SOL     OW19813   4.672   2.657   7.529  0.4269 -0.0369 -0.2292
 2726SOL    HW119814   4.633   2.723   7.472  0.9009  0.4816  0.0508
 2726SOL    HW219815   0.008   2.705   7.564  0.1175  0.7035 -0.5975
 2727SOL     OW19816   4.282   3.356  13.001  0.0369 -0.0939 -0.3210
 2727SOL    HW119817   4.331   3.302  12.940 -1.1869 -0.4233 -1.0178
 2727SOL    HW219818   4.197   3.357  12.957  0.6121  1.8438 -1.4070
 2728SOL     OW19819   4.487   1.785   6.307 -0.3936 -0.2690  0.4401
 2728SOL    HW119820   4.430   1.806   6.233 -0.2825 -0.6151  0.2532
 2728SOL    HW219821   4.555   1.727   6.271  0.3975  0.1319  1.2976
 2729SOL     OW19822   3.800   0.851  15.414 -0.1375  0.6173  0.0613
 2729SOL    HW119823   3.723   0.810  15.375 -0.1767 -0.2170  0.9918
 2729SOL    HW219824   3.867   0.841  15.346 -2.7095 -0.3288 -2.3162
 2730SOL     OW19825   2.319   0.600  13.007  0.8952  0.3923  0.6785
 2730SOL    HW119826   2.245   0.546  12.979  1.6389  0.0083 -0.5473
 2730SOL    HW219827   2.363   0.611  12.923 -0.0636 -1.3311 -0.0534
 2731SOL     OW19828   1.032   3.290   5.372  0.1901  0.2551 -0.0013
 2731SOL    HW119829   1.081   3.215   5.406 -1.2761 -0.8433 -0.2992
 2731SOL    HW219830   0.997   3.329   5.452  2.0445 -0.4159  1.1400
 2732SOL     OW19831   0.471   4.711   5.505  0.1170  0.2492 -0.2773
 2732SOL    HW119832   0.519   4.640   5.547  0.2637  2.0095  2.4446
 2732SOL    HW219833   0.424   4.662   5.437 -0.1120 -0.3146  0.2860
 2733SOL     OW19834   0.175   3.581   2.690 -0.8154 -0.7470  0.4453
 2733SOL    HW119835   0.101   3.529   2.723 -1.8235 -1.1168 -2.3682
 2733SOL    HW219836   0.226   3.510   2.652  0.1202 -0.2502  0.7629
 2734SOL     OW19837   1.730   3.097   9.001  0.0624  0.1518  1.1954
 2734SOL    HW119838   1.757   3.023   9.056  3.2743  1.3980  1.3221
 2734SOL    HW219839   1.781   3.169   9.039  0.3305  1.8886 -2.4513
 2735SOL     OW19840   1.104   2.874   1.644  0.5270  0.7837 -0.2078
 2735SOL    HW119841   1.175   2.871   1.709  0.2671 -1.1343  0.0072
 2735SOL    HW219842   1.125   2.948   1.586  1.4271 -0.2021 -1.1643
 2736SOL     OW19843   4.181   2.279   8.058  0.1591  0.1748  0.2139
 2736SOL    HW119844   4.249   2.309   8.119 -0.2798 -1.3916  1.4843
 2736SOL    HW219845   4.199   2.340   7.986  0.0373 -1.9712 -1.6181
 2737SOL     OW19846   0.806   1.107   8.777  0.3052 -0.5700 -0.0460
 2737SOL    HW119847   0.797   1.113   8.682 -0.8403 -0.7467  0.0576
 2737SOL    HW219848   0.803   1.199   8.804  0.4365 -0.0828 -1.7150
 2738SOL     OW19849   2.886   1.826   9.104  0.6801  0.0164  0.0166
 2738SOL    HW119850   2.812   1.848   9.161  3.3004 -2.3923  4.4060
 2738SOL    HW219851   2.908   1.910   9.065 -1.3494  0.2977 -0.4906
 2739SOL     OW19852   3.839   2.092   3.797  0.2825  0.1940  0.1520
 2739SOL    HW119853   3.788   2.156   3.748  0.5592 -0.5009 -1.0332
 2739SOL    HW219854   3.860   2.149   3.871 -1.1288  2.7131 -1.3687
 2740SOL     OW19855   2.888   0.176   7.652  0.1349  0.4989  0.0368
 2740SOL    HW119856   2.916   0.091   7.685  2.1972  0.9656 -0.5252
 2740SOL    HW219857   2.965   0.226   7.678  1.7032 -2.8840  1.7626
 2741SOL     OW19858   2.613   1.785   5.115  0.6084  0.2941  0.1530
 2741SOL    HW119859   2.597   1.798   5.021  0.9956  1.9556  0.3243
 2741SOL    HW219860   2.707   1.802   5.116  0.2306  2.2449  1.8870
 2742SOL     OW19861   0.767   1.627   8.481  0.2068  0.1258 -0.2374
 2742SOL    HW119862   0.758   1.590   8.569 -0.3996  0.0804 -0.3169
 2742SOL    HW219863   0.680   1.609   8.445 -0.0912  1.8595 -0.4012
 2743SOL     OW19864   2.778   1.784   6.994 -0.0093  0.8624  0.4874
 2743SOL    HW119865   2.758   1.720   7.062 -2.8043  0.1603 -0.9974
 2743SOL    HW219866   2.810   1.855   7.051  0.8488  0.7121  0.1841
 2744SOL     OW19867   1.881   1.469  13.644 -0.2392  0.1420 -0.1614
 2744SOL    HW119868   1.821   1.535  13.680  0.2795  0.8026 -0.5189
 2744SOL    HW219869   1.887   1.408  13.717 -0.9026 -1.7367 -1.6956
 2745SOL     OW19870   4.223   0.803   4.362 -0.4550  0.0476 -0.4374
 2745SOL    HW119871   4.208   0.897   4.371 -1.9179 -0.2011 -0.4148
 2745SOL    HW219872   4.154   0.783   4.299 -1.4505 -3.6535  1.8789
 2746SOL     OW19873   2.622   2.032  13.028  0.0786 -0.3812 -0.1113
 2746SOL    HW119874   2.700   2.063  12.981  0.5510 -0.7757  0.4102
 2746SOL    HW219875   2.604   2.113  13.075  0.1995 -0.5952  0.3050
 2747SOL     OW19876   4.141   1.732   0.477  0.0469 -0.1195  0.5333
 2747SOL    HW119877   4.121   1.664   0.541 -2.8482  0.9583  0.7744
 2747SOL    HW219878   4.074   1.717   0.409 -0.5707  0.7168  0.9568
 2748SOL     OW19879   3.967   4.558   8.303 -0.3769  0.5378 -0.8928
 2748SOL    HW119880   3.929   4.621   8.365  0.4385  1.5637 -1.4442
 2748SOL    HW219881   4.031   4.604   8.250  1.2792 -1.5221 -0.6722
 2749SOL     OW19882   3.700   4.323  17.392 -0.8986  0.3554  0.1726
 2749SOL    HW119883   3.687   4.416  17.373 -0.1027  0.7152  1.3622
 2749SOL    HW219884   3.771   4.325  17.456 -0.1395  1.0063 -0.6916
 2750SOL     OW19885   0.229   3.158   0.143  0.2625  0.4606  0.4579
 2750SOL    HW119886   0.292   3.087   0.128  1.0408  1.1959  0.2754
 2750SOL    HW219887   0.168   3.113   0.202 -0.2054  0.8089  0.2410
 2751SOL     OW19888   1.622   3.071  10.566 -0.3572 -0.4568  0.2531
 2751SOL    HW119889   1.600   3.163  10.557 -0.5964 -0.5387  0.0160
 2751SOL    HW219890   1.717   3.086  10.565 -0.7601  1.9958  0.1962
 2752SOL     OW19891   3.731   3.073   2.434 -0.1297  0.1714  0.1578
 2752SOL    HW119892   3.713   3.160   2.398 -0.5787  0.6094  1.4215
 2752SOL    HW219893   3.803   3.041   2.380  0.9420 -0.6620  2.0861
 2753SOL     OW19894   0.982   2.914  15.737 -0.3525 -0.4594  0.3629
 2753SOL    HW119895   0.940   2.965  15.806  1.1847 -1.1431  1.8156
 2753SOL    HW219896   0.978   2.968  15.658  0.8526  0.8630  1.1950
 2754SOL     OW19897   2.874   3.552  10.951  0.1823 -0.2271  0.2276
 2754SOL    HW119898   2.962   3.559  10.914  0.0512  1.3303  0.2290
 2754SOL    HW219899   2.815   3.608  10.901 -0.4066 -0.7663  0.3255
 2755SOL     OW19900   0.988   1.371   8.601  0.3988  0.6497 -0.1082
 2755SOL    HW119901   0.938   1.340   8.676  0.0240  1.7711  0.1107
 2755SOL    HW219902   1.066   1.408   8.642  0.7030 -0.7064  0.5555
 2756SOL     OW19903   0.224   3.390  15.518  0.4791  0.2883  0.3854
 2756SOL    HW119904   0.243   3.408  15.610  1.9757  0.4287  0.0615
 2756SOL    HW219905   0.182   3.472  15.493  0.5861 -0.2345 -1.5244
 2757SOL     OW19906   0.246   3.326   5.462  0.2225 -0.1088 -0.7023
 2757SOL    HW119907   0.286   3.398   5.413 -0.9942  2.0154  1.4290
 2757SOL    HW219908   0.316   3.263   5.480  1.7087  1.7418 -0.0570
 2758SOL     OW19909   1.510   1.482   5.372  0.0373  0.4102 -0.4218
 2758SOL    HW119910   1.440   1.418   5.371  2.0809 -1.8598  0.5631
 2758SOL    HW219911   1.572   1.427   5.325 -0.6619 -0.2120 -0.5986
 2759SOL     OW19912   2.041   2.816   5.861 -0.4523 -0.0118 -0.0579
 2759SOL    HW119913   1.967   2.857   5.816 -0.3348 -0.9492 -1.1013
 2759SOL    HW219914   1.991   2.780   5.934  0.3414  2.5808  1.7903
 2760SOL     OW19915   3.852   2.712   1.726 -0.1290 -0.2424 -0.0959
 2760SOL    HW119916   3.942   2.681   1.718  0.0154  0.3216 -0.5647
 2760SOL    HW219917   3.806   2.629   1.739 -2.2241  0.9661  0.2233
 2761SOL     OW19918   4.065   2.656   5.045 -0.2221 -0.2633  0.6056
 2761SOL    HW119919   4.148   2.669   5.092 -0.8161  0.0576  1.5566
 2761SOL    HW219920   4.094   2.710   4.971  0.5901 -1.7684 -0.1910
 2762SOL     OW19921   0.133   4.079   6.311  0.1354  0.2565 -0.0860
 2762SOL    HW119922   0.059   4.066   6.370  0.8004 -0.5570  0.5785
 2762SOL    HW219923   0.094   4.114   6.231  0.7272 -1.2423 -1.0332
 2763SOL     OW19924   0.043   1.781   9.444 -0.3134 -0.1972 -0.0548
 2763SOL    HW119925   4.688   1.776   9.465 -0.7244 -0.5454 -1.8802
 2763SOL    HW219926   0.082   1.746   9.524 -1.8188  0.5077  0.9865
 2764SOL     OW19927   0.414   3.221   3.405 -0.5809 -0.3591  0.6357
 2764SOL    HW119928   0.337   3.205   3.459  0.8275 -0.2600  2.6751
 2764SOL    HW219929   0.376   3.296   3.360 -2.9828 -4.0304 -3.4599
 2765SOL     OW19930   3.580   2.947   4.558 -0.0183  0.3148  0.7366
 2765SOL    HW119931   3.581   3.038   4.586 -0.0500  0.4209  0.3901
 2765SOL    HW219932   3.510   2.944   4.492 -0.9037 -0.1250  1.6949
 2766SOL     OW19933   3.917   1.903   1.469  0.6895 -0.5023  0.0619
 2766SOL    HW119934   3.865   1.863   1.399 -1.3542  1.1715  0.6239
 2766SOL    HW219935   3.929   1.991   1.432  1.3422 -1.0209 -0.9713
 2767SOL     OW19936   2.119   2.339   4.828  0.2794 -0.5699 -0.2262
 2767SOL    HW119937   2.169   2.328   4.747  0.8135  2.6246 -0.3428
 2767SOL    HW219938   2.058   2.406   4.799 -1.3684 -1.2611  1.6193
 2768SOL     OW19939   2.585   1.843  11.590 -0.2512  0.4302  0.7956
 2768SOL    HW119940   2.599   1.895  11.511  0.0431  0.5010  0.8954
 2768SOL    HW219941   2.591   1.912  11.656 -4.5755 -0.7934  2.4856
 2769SOL     OW19942   3.000   2.459   2.283 -0.9383 -0.4156  0.8562
 2769SOL    HW119943   2.961   2.386   2.329 -0.7588 -1.2368 -0.2935
 2769SOL    HW219944   3.073   2.478   2.342 -1.3560 -1.2559  1.6333
 2770SOL     OW19945   2.122   1.557   2.581  0.3980  0.5343 -0.4109
 2770SOL    HW119946   2.054   1.617   2.549 -0.9179  0.1669  1.7124
 2770SOL    HW219947   2.081   1.471   2.588 -0.0385  0.4775 -3.6059
 2771SOL     OW19948   0.295   2.325   4.916 -0.1431 -0.4385  0.2315
 2771SOL    HW119949   0.240   2.271   4.860 -0.3871 -1.4573  1.4393
 2771SOL    HW219950   0.274   2.412   4.884 -1.8839 -0.7284  0.5924
 2772SOL     OW19951   1.762   2.830   7.597 -0.0937  0.2730  0.0699
 2772SOL    HW119952   1.806   2.767   7.541 -0.8009 -1.8362  1.8864
 2772SOL    HW219953   1.674   2.793   7.598 -0.0717  0.2528  1.1695
 2773SOL     OW19954   4.573   0.556  12.746  0.3131  0.7331  0.6323
 2773SOL    HW119955   4.528   0.502  12.812 -0.2258  0.4576  0.0375
 2773SOL    HW219956   4.494   0.595  12.710  0.7868  3.2866  2.3838
 2774SOL     OW19957   0.676   3.901   2.098  0.2810  0.1440 -0.0127
 2774SOL    HW119958   0.717   3.987   2.089 -0.7291  0.6282  0.0016
 2774SOL    HW219959   0.644   3.911   2.188  1.7732  0.3841  0.5003
 2775SOL     OW19960   0.514   0.412   0.620 -0.4896 -0.4967  0.3852
 2775SOL    HW119961   0.483   0.502   0.612 -4.4751 -1.8298  0.8556
 2775SOL    HW219962   0.551   0.404   0.531 -0.8935  2.1809 -0.0255
 2776SOL     OW19963   1.239   2.093   7.203 -0.4986 -0.1399 -0.4217
 2776SOL    HW119964   1.240   2.188   7.215 -0.7080 -0.2230  0.2129
 2776SOL    HW219965   1.154   2.070   7.241 -1.3389  0.0178 -2.2055
 2777SOL     OW19966   2.204   3.437   8.163 -0.0444  0.0915  0.2662
 2777SOL    HW119967   2.275   3.373   8.153  1.1432  1.2420  1.4659
 2777SOL    HW219968   2.255   3.511   8.194 -0.2314  0.9755 -1.5196
 2778SOL     OW19969   1.073   1.812  11.707 -0.0939  0.3591 -0.1052
 2778SOL    HW119970   1.147   1.873  11.707  1.6725 -1.8225  1.4823
 2778SOL    HW219971   1.028   1.854  11.633  0.4254 -0.7202 -1.0404
 2779SOL     OW19972   3.711   3.731   2.334 -0.1092  0.1733 -0.1024
 2779SOL    HW119973   3.747   3.795   2.395  2.6775 -0.8251 -0.6942
 2779SOL    HW219974   3.789   3.723   2.279 -0.3025  3.1737 -0.7923
 2780SOL     OW19975   0.067   2.228   6.450 -0.0756 -0.1638 -0.5484
 2780SOL    HW119976   4.726   2.271   6.418  1.1654  1.5863 -1.3082
 2780SOL    HW219977   0.130   2.290   6.486 -1.4646  0.3208  1.0721
 2781SOL     OW19978   1.598   1.519   2.916  0.2772 -0.3222 -0.6868
 2781SOL    HW119979   1.661   1.478   2.975  0.3023 -0.1960 -0.6274
 2781SOL    HW219980   1.513   1.495   2.952 -0.2198  0.6785 -1.2203
 2782SOL     OW19981   3.641   0.882  11.518  0.6268  0.4113 -0.3577
 2782SOL    HW119982   3.700   0.925  11.579 -0.1638  2.5177 -1.0814
 2782SOL    HW219983   3.695   0.821  11.467 -0.7049 -2.5611  1.7973
 2783SOL     OW19984   2.316   3.767  17.732  0.5795 -0.2045  0.1311
 2783SOL    HW119985   2.301   3.710   0.054 -0.0064  1.6139  1.4082
 2783SOL    HW219986   2.249   3.746  17.668  0.6434 -0.8045  0.2660
 2784SOL     OW19987   3.601   0.417   6.418 -0.6838 -0.0174 -0.2306
 2784SOL    HW119988   3.511   0.431   6.448 -0.6136  1.3000 -0.6126
 2784SOL    HW219989   3.595   0.337   6.366 -2.5208 -0.0433  0.0018
 2785SOL     OW19990   1.465   2.037   4.812  0.0024 -0.0065  0.5448
 2785SOL    HW119991   1.452   2.106   4.747 -0.3243  0.4754  1.1249
 2785SOL    HW219992   1.413   1.959   4.795  1.0327 -0.2739 -1.3498
 2786SOL     OW19993   1.344   4.095   0.637  0.2251 -0.3708  0.4236
 2786SOL    HW119994   1.349   4.159   0.566  0.4227 -1.1189 -0.2370
 2786SOL    HW219995   1.322   4.150   0.712  1.4375  1.5278 -0.6153
 2787SOL     OW19996   3.256   3.936  15.505 -0.1710 -0.2294 -0.5572
 2787SOL    HW119997   3.282   3.931  15.413 -0.7518 -1.7345 -0.6287
 2787SOL    HW219998   3.328   3.993  15.533  1.1461 -2.6331  0.9240
 2788SOL     OW19999   2.432   0.053  12.436 -0.2236  0.3303  0.2347
 2788SOL    HW120000   2.425   0.148  12.424  2.1470  0.3531 -0.9248
 2788SOL    HW220001   2.364   0.044  12.503  0.6841  1.8137  1.3425
 2789SOL     OW20002   2.151   1.530   4.463  0.0683 -0.0907 -0.2224
 2789SOL    HW120003   2.243   1.511   4.444 -0.2935  0.0571 -2.1380
 2789SOL    HW220004   2.128   1.460   4.524  1.1187 -1.8224 -1.7923
 2790SOL     OW20005   2.048   0.637   6.147  0.0538 -0.3149 -0.0028
 2790SOL    HW120006   2.030   0.651   6.240  2.2655  0.5840  0.2781
 2790SOL    HW220007   2.093   0.717   6.118 -0.0076 -0.8316 -1.5429
 2791SOL     OW20008   2.278   4.449   5.162 -0.0276  0.3145 -0.3868
 2791SOL    HW120009   2.354   4.426   5.216 -0.3852 -0.4637 -0.2083
 2791SOL    HW220010   2.320   4.496   5.090 -0.8070 -0.7352 -1.5232
 2792SOL     OW20011   3.329   2.466  11.399  0.6362 -0.3793  0.1698
 2792SOL    HW120012   3.236   2.487  11.404  0.4812 -0.6806 -1.3152
 2792SOL    HW220013   3.350   2.503  11.485  1.8072  0.4166 -0.4617
 2793SOL     OW20014   1.987   3.616   5.952 -0.2062  0.0274  0.2103
 2793SOL    HW120015   1.975   3.635   5.859 -0.5153 -1.7020 -0.0890
 2793SOL    HW220016   1.902   3.645   5.985 -0.6291 -0.8134 -0.1401
 2794SOL     OW20017   2.861   2.777   2.156 -0.3211  0.2939 -0.4275
 2794SOL    HW120018   2.773   2.744   2.136 -0.9116  2.1535 -0.8537
 2794SOL    HW220019   2.848   2.796   2.249  0.4733  0.2726 -0.3133
 2795SOL     OW20020   2.385   3.189  17.428 -0.0836 -0.0143  0.1018
 2795SOL    HW120021   2.330   3.179  17.506 -1.7918  1.7697 -0.8729
 2795SOL    HW220022   2.356   3.104  17.393  0.4560 -0.6588  1.2086
 2796SOL     OW20023   3.572   4.576   2.298  0.4415  0.1357  0.0765
 2796SOL    HW120024   3.635   4.534   2.239 -0.2575  0.3704 -0.8397
 2796SOL    HW220025   3.496   4.538   2.254  0.6163 -0.5000  0.3175
 2797SOL     OW20026   4.000   0.089   9.085  1.1126 -0.6073  0.6318
 2797SOL    HW120027   4.054   0.163   9.058  1.0262 -0.8761 -0.2879
 2797SOL    HW220028   3.968   0.119   9.169  0.0513 -1.5076  0.5554
 2798SOL     OW20029   2.034   1.942   6.866  0.0937  0.2853 -0.4726
 2798SOL    HW120030   1.942   1.948   6.842 -0.1245 -1.1137  0.0184
 2798SOL    HW220031   2.066   2.032   6.869 -2.0054  0.9501  1.4314
 2799SOL     OW20032   1.641   1.570  17.588 -0.1463  0.6255  0.7523
 2799SOL    HW120033   1.706   1.640  17.598 -0.3968  0.8036  1.1174
 2799SOL    HW220034   1.559   1.619  17.579  1.0847  2.8267  1.3570
 2800SOL     OW20035   4.544   0.329   4.536  0.1598  0.1508  0.0696
 2800SOL    HW120036   4.522   0.339   4.443 -1.2247 -2.0709  0.1774
 2800SOL    HW220037   4.483   0.261   4.563 -0.0585  0.0399 -0.6889
 2801SOL     OW20038   0.181   3.106   6.188 -0.0025 -0.3542  0.1204
 2801SOL    HW120039   0.117   3.126   6.120 -0.6161  2.0731  1.4217
 2801SOL    HW220040   0.155   3.015   6.203 -0.2645 -0.1617  0.8621
 2802SOL     OW20041   1.189   3.656   4.990  0.6360 -0.1252  0.1448
 2802SOL    HW120042   1.128   3.708   4.938 -0.3840 -0.4375  1.0228
 2802SOL    HW220043   1.130   3.610   5.050 -0.4125  0.2952 -0.5562
 2803SOL     OW20044   0.374   1.524   5.596 -0.3830 -0.1894 -0.6855
 2803SOL    HW120045   0.355   1.444   5.546 -2.6086 -0.4634  0.5802
 2803SOL    HW220046   0.423   1.573   5.531 -0.2975  1.8687  0.9522
 2804SOL     OW20047   1.810   1.886   8.755  0.4643 -0.3199 -0.5708
 2804SOL    HW120048   1.874   1.891   8.826 -0.8543  0.0663  0.5908
 2804SOL    HW220049   1.850   1.954   8.700 -1.5764  1.2037 -0.1793
 2805SOL     OW20050   2.168   2.582  16.614  0.3269 -0.3004 -0.1020
 2805SOL    HW120051   2.208   2.643  16.552  1.6989 -0.4700  0.6156
 2805SOL    HW220052   2.078   2.581  16.583 -0.6638  3.0356  2.6911
 2806SOL     OW20053   1.621   2.060   6.107 -0.0178  0.3207  0.0579
 2806SOL    HW120054   1.650   2.143   6.070  1.9163  0.8752  2.8063
 2806SOL    HW220055   1.617   2.092   6.197  0.0639 -0.1607  0.2338
 2807SOL     OW20056   0.236   2.524   1.387 -0.4784  0.0391  0.4950
 2807SOL    HW120057   0.292   2.589   1.429 -0.2458 -1.2939  2.2567
 2807SOL    HW220058   0.193   2.496   1.468 -0.6284 -2.5680 -0.5032
 2808SOL     OW20059   4.432   3.251  12.772  0.3387  0.3892  0.5614
 2808SOL    HW120060   4.402   3.203  12.695  1.0655 -1.5129  1.4836
 2808SOL    HW220061   4.516   3.209  12.786  0.1078 -1.5544 -4.0203
 2809SOL     OW20062   2.130   3.888   1.176 -0.0815  0.0464 -0.7058
 2809SOL    HW120063   2.105   3.831   1.103 -2.1006 -1.3955  1.0801
 2809SOL    HW220064   2.220   3.857   1.183 -0.2903 -0.1355  1.2731
 2810SOL     OW20065   0.619   0.862   7.420 -0.0456  0.1352  0.3475
 2810SOL    HW120066   0.554   0.859   7.350 -2.1295  0.0529  2.2741
 2810SOL    HW220067   0.654   0.773   7.414  1.9991  1.0723 -1.2774
 2811SOL     OW20068   2.517   1.266   3.112 -0.0870  0.2783  0.2057
 2811SOL    HW120069   2.443   1.248   3.053 -1.0340 -0.5000  1.6346
 2811SOL    HW220070   2.506   1.361   3.106  1.3949  0.4470  0.0643
 2812SOL     OW20071   2.409   2.575  16.455 -0.1219 -0.0552  0.1962
 2812SOL    HW120072   2.417   2.596  16.362  0.9521 -0.8668  0.0976
 2812SOL    HW220073   2.361   2.493  16.446  0.3436 -0.1936 -1.1707
 2813SOL     OW20074   2.452   0.616   8.486  0.1063 -0.3521  0.6349
 2813SOL    HW120075   2.498   0.577   8.560  1.3292 -3.2194 -1.6600
 2813SOL    HW220076   2.418   0.696   8.527  2.6405 -0.3592  2.7411
 2814SOL     OW20077   0.389   1.226   2.182 -0.2134  0.3589 -0.0813
 2814SOL    HW120078   0.390   1.195   2.091 -0.3396  0.0201  0.0331
 2814SOL    HW220079   0.295   1.238   2.193 -0.4224 -1.5116  0.1663
 2815SOL     OW20080   1.700   2.483  17.362 -0.0990  0.5557 -0.2259
 2815SOL    HW120081   1.711   2.427  17.285 -0.6538 -0.5732  0.5341
 2815SOL    HW220082   1.752   2.559  17.335  1.2792 -1.2763 -2.8059
 2816SOL     OW20083   3.792   0.828   8.417  0.4473  0.2926  0.0851
 2816SOL    HW120084   3.747   0.751   8.384 -1.5899  0.8625  1.5145
 2816SOL    HW220085   3.815   0.863   8.331  1.3503  1.0617  0.6387
 2817SOL     OW20086   3.632   2.574   9.521  0.1353 -0.0092  0.0360
 2817SOL    HW120087   3.707   2.583   9.580 -1.5430 -0.9317  2.2596
 2817SOL    HW220088   3.667   2.521   9.449 -2.8085 -1.4313 -0.3312
 2818SOL     OW20089   3.897   4.157  13.076  0.2219 -0.4556  0.6612
 2818SOL    HW120090   3.855   4.085  13.123 -0.3597 -0.5528 -0.0183
 2818SOL    HW220091   3.890   4.119  12.989 -0.2970 -0.5710  0.7584
 2819SOL     OW20092   1.464   3.008   7.834 -0.1989  0.2081  0.0744
 2819SOL    HW120093   1.450   3.035   7.924  1.1043  3.2089 -0.6440
 2819SOL    HW220094   1.514   3.076   7.789 -2.0340  1.9632  0.6944
 2820SOL     OW20095   0.518   3.288  12.287  0.0993 -0.7841 -0.2100
 2820SOL    HW120096   0.560   3.202  12.288  0.1824 -0.7474 -1.3434
 2820SOL    HW220097   0.586   3.346  12.255  1.5043 -2.3083 -0.0009
 2821SOL     OW20098   2.452   4.010   7.921  0.2374 -0.3494 -0.1933
 2821SOL    HW120099   2.420   4.035   8.007 -1.7307  0.9801 -1.3278
 2821SOL    HW220100   2.499   3.934   7.956 -0.1541 -0.7311 -0.5027
 2822SOL     OW20101   0.748   0.325   0.720  0.0691 -0.1153  0.0150
 2822SOL    HW120102   0.740   0.231   0.706 -0.6751  0.2113 -1.6979
 2822SOL    HW220103   0.664   0.360   0.690  1.2272  1.8826 -0.8705
 2823SOL     OW20104   1.721   1.219  12.784 -0.1839  0.0505 -0.6356
 2823SOL    HW120105   1.630   1.218  12.814  0.0640 -2.2227  0.0031
 2823SOL    HW220106   1.765   1.171  12.854  0.1628  0.4594 -0.5726
 2824SOL     OW20107   2.066   2.949   2.920  0.3819  0.2402 -0.5119
 2824SOL    HW120108   2.010   2.871   2.916  0.7056 -0.1548  2.3642
 2824SOL    HW220109   2.127   2.928   2.991 -1.3362  0.3151  1.0142
 2825SOL     OW20110   3.356   1.680  16.069  0.7519  0.0091 -0.0390
 2825SOL    HW120111   3.407   1.621  16.014  1.5457  0.6143  0.0540
 2825SOL    HW220112   3.402   1.666  16.151 -0.7409 -0.2160  0.7681
 2826SOL     OW20113   1.284   0.131   1.873 -0.3390 -0.5685 -0.1558
 2826SOL    HW120114   1.259   0.084   1.953 -3.3399  0.3433 -0.5604
 2826SOL    HW220115   1.215   0.094   1.818 -2.1548  1.9479  0.4073
 2827SOL     OW20116   1.943   1.593   2.078  0.5476 -0.3649 -0.0907
 2827SOL    HW120117   1.953   1.510   2.125  0.2828  1.0577  2.5250
 2827SOL    HW220118   2.028   1.636   2.088  0.5397  0.2429 -2.7266
 2828SOL     OW20119   1.924   0.796  15.137  0.0871  0.4416 -0.3676
 2828SOL    HW120120   1.953   0.742  15.210  2.2147 -0.5740 -1.9725
 2828SOL    HW220121   1.988   0.770  15.071 -0.3850  1.3231 -1.1739
 2829SOL     OW20122   0.274   4.243   3.893 -0.1768 -0.0439 -0.0414
 2829SOL    HW120123   0.179   4.252   3.896 -0.3374 -1.3643 -1.2703
 2829SOL    HW220124   0.284   4.148   3.886  0.4562  0.2583 -3.1734
 2830SOL     OW20125   2.853   4.460   7.736  0.1073  0.3594 -0.1667
 2830SOL    HW120126   2.757   4.457   7.731  0.1179 -3.9727  2.3398
 2830SOL    HW220127   2.889   4.374   7.713 -1.7419 -0.6392  0.6403
 2831SOL     OW20128   3.210   4.098  17.420 -0.0202  0.0575 -0.1101
 2831SOL    HW120129   3.212   4.046  17.501 -1.8938 -1.1960 -0.8521
 2831SOL    HW220130   3.290   4.150  17.426  0.2950 -0.4182 -0.2122
 2832SOL     OW20131   4.145   2.680  15.720 -0.0592  0.2144 -0.4348
 2832SOL    HW120132   4.090   2.722  15.787  1.4211  1.5325 -0.0372
 2832SOL    HW220133   4.231   2.708  15.750 -0.7379  1.8787  0.0138
 2833SOL     OW20134   1.655   1.311   2.397  0.6242  0.1333  0.8712
 2833SOL    HW120135   1.729   1.370   2.411  1.2923 -0.3493 -0.5675
 2833SOL    HW220136   1.696   1.234   2.356  2.0398  1.7963 -0.8658
 2834SOL     OW20137   0.790   4.058  10.852 -0.6538  0.3189 -0.2213
 2834SOL    HW120138   0.706   4.064  10.807 -0.6278 -0.7831 -0.4199
 2834SOL    HW220139   0.778   4.126  10.919  0.7604  1.0310 -0.6881
 2835SOL     OW20140   1.328   1.670   6.774  0.3292  0.4476 -0.0330
 2835SOL    HW120141   1.260   1.706   6.831  0.5526 -3.2638  2.6010
 2835SOL    HW220142   1.367   1.742   6.725  0.5320 -0.0431 -0.5967
 2836SOL     OW20143   1.173   3.186   9.216  0.1665 -0.2125 -0.4618
 2836SOL    HW120144   1.266   3.167   9.230  0.1280  0.1653  0.3135
 2836SOL    HW220145   1.175   3.203   9.122 -3.7778  3.6395  0.1826
 2837SOL     OW20146   1.536   1.431   5.665  0.1577 -0.2720  0.3540
 2837SOL    HW120147   1.444   1.447   5.685 -0.0197 -1.1137  0.1936
 2837SOL    HW220148   1.543   1.450   5.572 -0.9674  0.7867  0.4898
 2838SOL     OW20149   0.535   3.373   6.514  0.2193  0.1204  0.0225
 2838SOL    HW120150   0.503   3.348   6.600  1.1404 -1.7108 -0.1658
 2838SOL    HW220151   0.476   3.326   6.455  0.5157 -1.4791  0.9987
 2839SOL     OW20152   0.325   2.654   8.870 -0.4978 -0.4854 -0.4171
 2839SOL    HW120153   0.320   2.639   8.965 -2.2912  2.8535  0.0062
 2839SOL    HW220154   0.341   2.748   8.870  1.6340 -0.8527  0.5217
 2840SOL     OW20155   3.409   0.141  15.637  0.0227  0.5766  0.3032
 2840SOL    HW120156   3.393   0.178  15.550 -0.7171 -0.3446  0.0431
 2840SOL    HW220157   3.319   0.160  15.662 -0.9409 -3.0125 -0.3579
 2841SOL     OW20158   2.156   3.357  15.842  0.2260  0.9617 -0.0145
 2841SOL    HW120159   2.101   3.431  15.815  0.0714  0.7504 -0.2737
 2841SOL    HW220160   2.222   3.363  15.773  1.3343 -0.4846  0.9354
 2842SOL     OW20161   2.039   1.114   5.808  0.0223 -0.0148  0.5701
 2842SOL    HW120162   1.973   1.053   5.840  1.4327 -0.4979  2.5734
 2842SOL    HW220163   1.987   1.162   5.743 -1.8860 -1.8372  0.7461
 2843SOL     OW20164   4.341   1.832   6.090 -0.4831 -0.0500 -0.2589
 2843SOL    HW120165   4.361   1.799   6.003  2.6259  0.2033  0.3574
 2843SOL    HW220166   4.314   1.924   6.081 -0.7733 -0.1989 -0.8607
 2844SOL     OW20167   1.497   0.692   4.534  0.0794  0.2352 -0.1313
 2844SOL    HW120168   1.567   0.636   4.499 -0.7141 -0.6488 -0.2871
 2844SOL    HW220169   1.423   0.654   4.487 -1.9816 -0.9891  4.0693
 2845SOL     OW20170   1.817   2.154   4.271 -0.3877 -0.2035 -0.0372
 2845SOL    HW120171   1.741   2.112   4.231  0.5056 -1.2670 -0.5997
 2845SOL    HW220172   1.868   2.085   4.313 -0.0841 -0.5475 -0.9740
 2846SOL     OW20173   0.389   0.999   3.167  0.1030 -0.2196 -0.3311
 2846SOL    HW120174   0.451   1.072   3.163  0.0139 -0.1722 -0.8310
 2846SOL    HW220175   0.307   1.049   3.169 -0.2246 -0.7646 -0.2152
 2847SOL     OW20176   2.405   4.626   7.072 -0.0357 -0.3079 -0.3759
 2847SOL    HW120177   2.458   4.591   7.000  0.8344 -0.3356  0.2744
 2847SOL    HW220178   2.336   4.560   7.083  1.0411 -1.0491  2.0054
 2848SOL     OW20179   1.010   2.399   4.719  0.2877 -0.3119 -0.1852
 2848SOL    HW120180   1.066   2.328   4.748  1.1020  0.8560  1.1330
 2848SOL    HW220181   0.921   2.378   4.747  0.1454  1.0298  0.3631
 2849SOL     OW20182   4.008   0.414   6.934  0.5016  0.1068 -0.2330
 2849SOL    HW120183   4.079   0.432   6.995  0.8633 -0.4512 -0.4910
 2849SOL    HW220184   3.939   0.468   6.973  0.2866 -1.5606  1.6683
 2850SOL     OW20185   3.071   4.459   4.412  0.0810  0.3718 -0.3515
 2850SOL    HW120186   3.129   4.488   4.483 -0.5642  0.0637  0.2913
 2850SOL    HW220187   3.130   4.396   4.370  0.1882  0.0159  0.3397
 2851SOL     OW20188   0.706   3.692   5.694  0.0069  0.7650  0.4114
 2851SOL    HW120189   0.775   3.746   5.656  0.4423 -0.1239 -0.0658
 2851SOL    HW220190   0.688   3.748   5.770 -3.7260  0.5231 -0.2914
 2852SOL     OW20191   3.085   4.455  15.069 -0.0883 -0.1394  0.6826
 2852SOL    HW120192   3.011   4.394  15.074  0.7609 -1.0124  2.4476
 2852SOL    HW220193   3.049   4.533  15.112 -1.7771 -0.6839  0.2709
 2853SOL     OW20194   3.523   4.579  16.576 -0.0629 -0.3809  0.4766
 2853SOL    HW120195   3.545   4.669  16.552  0.7673 -0.3431  1.3925
 2853SOL    HW220196   3.606   4.534  16.555 -0.1157 -0.9523  1.5019
 2854SOL     OW20197   1.029   1.397   4.988  0.3816 -0.0307 -0.0616
 2854SOL    HW120198   0.937   1.415   4.968  0.3556 -1.4148 -1.1721
 2854SOL    HW220199   1.074   1.367   4.909  0.5088  1.3250 -0.5124
 2855SOL     OW20200   0.006   2.054   8.012 -0.1113  0.1037  0.8569
 2855SOL    HW120201   4.657   2.087   8.029  0.3132  0.1266  3.1013
 2855SOL    HW220202   4.723   1.965   7.986 -0.8068  0.6356 -0.3744
 2856SOL     OW20203   2.228   2.569   8.888  0.0950  0.2141 -0.3134
 2856SOL    HW120204   2.246   2.651   8.842  1.3503  0.3919  0.4885
 2856SOL    HW220205   2.253   2.589   8.979 -3.9008 -2.2341  1.3313
 2857SOL     OW20206   4.550   3.980   8.485  0.0171 -0.4087  0.0947
 2857SOL    HW120207   4.617   4.003   8.549  0.2789 -0.6850 -0.0762
 2857SOL    HW220208   4.582   3.897   8.450 -1.7419 -1.1812  0.3281
 2858SOL     OW20209   4.523   1.361   1.172  0.4722 -0.5138  0.2603
 2858SOL    HW120210   4.517   1.429   1.239  2.1431  0.0196 -0.1092
 2858SOL    HW220211   4.472   1.398   1.100 -0.8177 -0.1676  1.3519
 2859SOL     OW20212   3.295   2.313   3.839 -0.3182 -0.3250 -0.0555
 2859SOL    HW120213   3.369   2.323   3.778  0.9096 -1.1301  1.3096
 2859SOL    HW220214   3.255   2.240   3.792  0.7735 -0.6724 -0.4378
 2860SOL     OW20215   0.389   1.440   9.356  0.0802 -0.2256 -0.4078
 2860SOL    HW120216   0.369   1.356   9.314 -0.2060  1.1188 -2.9760
 2860SOL    HW220217   0.305   1.484   9.345 -0.7207 -2.0419 -1.6978
 2861SOL     OW20218   2.157   2.155   4.387 -0.1496  0.4063  0.4270
 2861SOL    HW120219   2.109   2.214   4.445  2.4533  0.8730  2.1160
 2861SOL    HW220220   2.086   2.124   4.331  0.0817  0.9159 -0.1385
 2862SOL     OW20221   3.077   1.510  10.694 -0.5279  0.0559  0.2899
 2862SOL    HW120222   2.990   1.546  10.680 -1.0430 -0.8845  1.0341
 2862SOL    HW220223   3.090   1.552  10.779 -1.4577  0.4463  0.2345
 2863SOL     OW20224   4.574   0.562   8.413 -0.0684  0.8599  0.2619
 2863SOL    HW120225   4.500   0.620   8.397 -0.8732 -0.7322 -1.8329
 2863SOL    HW220226   4.529   0.481   8.387  0.4430 -1.1252  5.3748
 2864SOL     OW20227   3.270   3.930   9.091 -0.7565 -0.3737  0.2033
 2864SOL    HW120228   3.177   3.913   9.077 -1.1181  0.5618  1.5097
 2864SOL    HW220229   3.276   3.901   9.182 -2.0917 -1.4230 -0.0347
 2865SOL     OW20230   2.933   4.265   0.932  0.0783 -0.3578  0.2674
 2865SOL    HW120231   2.847   4.271   0.892  0.7007  0.6794 -0.9092
 2865SOL    HW220232   2.915   4.186   0.983  2.6641 -0.9905  0.2330
 2866SOL     OW20233   0.025   4.131   5.626  0.8647  0.6031  0.0577
 2866SOL    HW120234   4.679   4.141   5.581  0.7283  2.7646  0.7980
 2866SOL    HW220235   0.046   4.222   5.646 -1.1326  1.0518  0.1202
 2867SOL     OW20236   0.194   4.613   3.961 -0.0792 -0.6550 -0.5178
 2867SOL    HW120237   0.163   4.651   3.879 -2.6762  0.9455  1.2217
 2867SOL    HW220238   0.117   4.571   3.999  0.1118 -0.7744 -0.2613
 2868SOL     OW20239   2.662   4.323   7.016  0.0811  0.2184  0.1741
 2868SOL    HW120240   2.588   4.263   7.021  1.1899 -1.2936 -1.8144
 2868SOL    HW220241   2.617   4.394   6.970 -2.1425 -1.5125 -0.2873
 2869SOL     OW20242   4.009   2.960   0.897  0.0566 -0.4596  0.5117
 2869SOL    HW120243   3.930   2.990   0.942 -0.8427 -2.7083  0.4163
 2869SOL    HW220244   3.992   2.963   0.803 -0.7377  0.4663  0.6919
 2870SOL     OW20245   4.086   2.693   7.244  0.0656  0.1347 -0.0554
 2870SOL    HW120246   4.101   2.667   7.335  3.7616  0.1973 -0.6172
 2870SOL    HW220247   4.001   2.657   7.218 -0.1883 -0.9244  2.2596
 2871SOL     OW20248   1.823   3.069   6.459 -0.1764 -0.5797 -0.0443
 2871SOL    HW120249   1.871   3.082   6.377 -0.8365  0.7166 -0.2368
 2871SOL    HW220250   1.755   3.134   6.438  1.1175  0.0053 -2.3812
 2872SOL     OW20251   0.289   1.021   2.612  0.2692  0.1318 -0.6200
 2872SOL    HW120252   0.336   0.955   2.563  0.0754  1.8355 -3.0724
 2872SOL    HW220253   0.267   0.963   2.685  1.2292 -2.4427 -2.3936
 2873SOL     OW20254   2.226   3.231   6.157 -0.4206  0.9631 -0.6163
 2873SOL    HW120255   2.207   3.310   6.207  2.4076  2.6269 -2.1515
 2873SOL    HW220256   2.318   3.209   6.175 -0.8560  1.2185  1.8333
 2874SOL     OW20257   0.397   2.109   6.797  0.1401 -0.2723 -0.6230
 2874SOL    HW120258   0.443   2.170   6.740 -0.7146  0.9390 -0.0203
 2874SOL    HW220259   0.346   2.170   6.850 -0.5487 -1.9445  0.6242
 2875SOL     OW20260   1.318   3.193   8.035 -0.1445 -0.2791 -0.7889
 2875SOL    HW120261   1.324   3.262   7.969  0.6128  0.9065  0.5004
 2875SOL    HW220262   1.290   3.239   8.115 -0.5915 -1.0958 -0.4764
 2876SOL     OW20263   0.838   2.717  11.848 -0.6066  0.7224  0.1208
 2876SOL    HW120264   0.796   2.726  11.762  2.4297 -3.2480 -1.8174
 2876SOL    HW220265   0.896   2.794  11.853 -1.9481  1.7305  0.2231
 2877SOL     OW20266   2.589   1.867   3.404  0.2790 -0.9015 -0.2712
 2877SOL    HW120267   2.626   1.954   3.420  1.4670 -1.2642 -1.0649
 2877SOL    HW220268   2.625   1.830   3.484  1.7086 -0.3654 -0.6720
 2878SOL     OW20269   2.736   2.765   4.426  0.1481  0.5865  0.4274
 2878SOL    HW120270   2.720   2.672   4.409 -0.1423  0.5570  0.8516
 2878SOL    HW220271   2.795   2.756   4.500  1.5844  0.7568 -0.6857
 2879SOL     OW20272   4.220   2.877   4.656  0.3186  0.0142  0.1899
 2879SOL    HW120273   4.274   2.947   4.691  2.5103 -2.0396  0.9648
 2879SOL    HW220274   4.211   2.903   4.564 -0.5020  0.0771  0.2908
 2880SOL     OW20275   1.443   2.365   9.391  0.1178  0.0805 -0.3787
 2880SOL    HW120276   1.438   2.459   9.407 -0.0085 -0.3244  1.8820
 2880SOL    HW220277   1.377   2.362   9.322  2.3080  0.2340 -2.4971
 2881SOL     OW20278   2.479   0.745   4.623 -0.0028 -0.0661  0.1152
 2881SOL    HW120279   2.445   0.823   4.580 -1.4604  0.4769  2.3035
 2881SOL    HW220280   2.531   0.709   4.550 -2.0847 -3.5740  0.3340
 2882SOL     OW20281   1.208   1.421   6.499  0.0254  0.4453  0.2168
 2882SOL    HW120282   1.205   1.380   6.585 -1.0105 -0.0504 -0.0494
 2882SOL    HW220283   1.187   1.511   6.522  0.9897  0.7741 -0.1690
 2883SOL     OW20284   0.555   4.488   1.873 -0.3705  0.0415 -0.1948
 2883SOL    HW120285   0.581   4.431   1.801  0.9826  1.5746 -0.9164
 2883SOL    HW220286   0.602   4.569   1.854  0.2910 -0.0910  0.8515
 2884SOL     OW20287   3.313   1.123   6.739 -0.1163  0.0665  0.2656
 2884SOL    HW120288   3.270   1.204   6.763 -2.2090 -0.4549 -1.6878
 2884SOL    HW220289   3.360   1.155   6.662 -1.8472  0.5419 -0.5911
 2885SOL     OW20290   0.812   4.375   5.006 -0.1396 -0.3908  0.2402
 2885SOL    HW120291   0.736   4.416   5.047  0.5411 -1.4204  2.5274
 2885SOL    HW220292   0.883   4.403   5.065  2.0969 -0.9375 -2.1768
 2886SOL     OW20293   2.002   0.310   6.303 -0.9847  0.1052 -0.0011
 2886SOL    HW120294   1.962   0.226   6.324  0.8583 -1.0506 -1.1091
 2886SOL    HW220295   1.965   0.360   6.376 -2.5385 -0.2356 -0.5735
 2887SOL     OW20296   4.534   0.175   5.169  0.2683 -0.0998 -0.2525
 2887SOL    HW120297   4.536   0.132   5.084 -1.2177  1.1983 -0.9386
 2887SOL    HW220298   4.607   0.235   5.156  0.3624  0.0133  0.7818
 2888SOL     OW20299   1.965   4.468   1.039 -0.0693  0.0567 -0.3044
 2888SOL    HW120300   1.874   4.444   1.024 -0.1723  0.2047  0.0812
 2888SOL    HW220301   1.979   4.475   1.134 -1.0144 -0.4874 -0.1319
 2889SOL     OW20302   3.574   0.076   2.195  0.0282  0.3694 -0.2686
 2889SOL    HW120303   3.642   0.036   2.141  0.2914  0.3948  0.0435
 2889SOL    HW220304   3.542   0.004   2.249  2.8137  0.7939  1.9124
 2890SOL     OW20305   1.382   0.102   1.418 -0.1860 -0.7833  0.5522
 2890SOL    HW120306   1.457   0.147   1.380 -0.0001 -1.6944 -0.1847
 2890SOL    HW220307   1.420   0.024   1.458 -0.2869 -0.4863  1.2247
 2891SOL     OW20308   3.149   3.138   7.213  0.3007  0.0652  0.0341
 2891SOL    HW120309   3.226   3.088   7.188 -0.7478 -1.5456  0.0087
 2891SOL    HW220310   3.083   3.072   7.192  0.3126  0.3334 -0.8279
 2892SOL     OW20311   2.799   2.104   5.525 -0.3115 -0.3105 -0.4139
 2892SOL    HW120312   2.835   2.192   5.536 -0.1645 -0.4938  0.5303
 2892SOL    HW220313   2.883   2.062   5.543 -1.1514 -0.8537  2.1382
 2893SOL     OW20314   1.249   0.005  17.726  0.2488 -0.1937 -0.7116
 2893SOL    HW120315   1.174   0.062  17.746  0.0589 -0.1979 -1.4026
 2893SOL    HW220316   1.267   4.735  17.632  0.6226  1.0365 -0.7582
 2894SOL     OW20317   0.496   2.388   2.860  0.1531 -0.1280 -0.2964
 2894SOL    HW120318   0.474   2.418   2.948  1.5380 -1.3378  0.4478
 2894SOL    HW220319   0.587   2.417   2.857  0.2625 -0.3701  0.6094
 2895SOL     OW20320   2.107   1.678  17.080  0.5021 -0.2441  0.3450
 2895SOL    HW120321   2.050   1.711  17.149  0.6886  0.1943  0.2913
 2895SOL    HW220322   2.191   1.674  17.127  1.2872 -1.9901 -1.1683
 2896SOL     OW20323   4.015   3.885   1.692  0.4638  0.3126  0.6013
 2896SOL    HW120324   3.954   3.878   1.766  0.5376  4.9549  1.0923
 2896SOL    HW220325   3.962   3.845   1.622  0.4554  1.1505  0.1286
 2897SOL     OW20326   1.942   1.238   8.960 -0.7601  0.2988 -0.3498
 2897SOL    HW120327   1.945   1.327   8.925 -0.5747  0.8547  1.1230
 2897SOL    HW220328   2.034   1.213   8.957 -1.0057 -0.7023  0.3286
 2898SOL     OW20329   4.359   2.171  12.292 -0.1025  0.4029 -0.1306
 2898SOL    HW120330   4.307   2.149  12.215  0.4454 -0.0180 -0.3807
 2898SOL    HW220331   4.298   2.146  12.363 -0.7602 -0.6449 -1.0576
 2899SOL     OW20332   2.211   3.298   2.083  0.2812  0.2502 -0.5082
 2899SOL    HW120333   2.302   3.304   2.056  0.4578  0.8469  0.2032
 2899SOL    HW220334   2.193   3.214   2.042 -0.3743  1.1156 -1.9851
 2900SOL     OW20335   3.580   4.448   6.830  0.7076  0.6664 -0.3682
 2900SOL    HW120336   3.552   4.537   6.851  0.9878  0.7071 -0.1695
 2900SOL    HW220337   3.631   4.419   6.905 -1.4018 -4.9257 -1.0771
 2901SOL     OW20338   1.340   4.691   7.044  0.5084 -0.4029 -0.0557
 2901SOL    HW120339   1.298   4.697   6.958  0.9977  0.3406 -0.2486
 2901SOL    HW220340   1.426   4.662   7.014 -0.0462 -3.2318  1.0901
 2902SOL     OW20341   1.852   2.477   1.275 -0.6614 -0.3091  0.2467
 2902SOL    HW120342   1.911   2.550   1.292 -0.4709 -0.3491 -0.2617
 2902SOL    HW220343   1.793   2.517   1.211 -0.4541  0.0838  0.3035
 2903SOL     OW20344   3.838   3.299  17.386 -0.4823 -0.5426  0.5485
 2903SOL    HW120345   3.871   3.328  17.471 -1.3454  1.6472  0.1601
 2903SOL    HW220346   3.853   3.379  17.334 -0.7524 -1.2985 -0.6850
 2904SOL     OW20347   2.014   0.644   6.403  0.2508 -0.1872  0.4505
 2904SOL    HW120348   1.979   0.697   6.474 -0.1284  0.7219 -0.4131
 2904SOL    HW220349   2.024   0.567   6.459  1.1310 -0.4342 -0.0493
 2905SOL     OW20350   4.253   1.061  16.888 -0.2433  0.2160  0.0530
 2905SOL    HW120351   4.212   1.065  16.802  1.1141  2.0965 -0.5031
 2905SOL    HW220352   4.182   1.090  16.946  0.1359 -0.6593  0.9538
 2906SOL     OW20353   3.773   2.873  14.249  0.4995  0.4444 -0.0371
 2906SOL    HW120354   3.854   2.887  14.200  1.8284  0.5372  2.2376
 2906SOL    HW220355   3.757   2.784  14.217  0.9731  0.4578 -0.3162
 2907SOL     OW20356   2.207   2.250   5.471  0.4610  0.0722  0.1244
 2907SOL    HW120357   2.114   2.236   5.455  0.0701  1.3000  1.2904
 2907SOL    HW220358   2.201   2.300   5.552 -0.2612  0.8630 -0.4188
 2908SOL     OW20359   2.304   3.313  10.171  0.3421 -0.3209  0.3939
 2908SOL    HW120360   2.257   3.261  10.235  0.2220 -4.6425 -3.2538
 2908SOL    HW220361   2.365   3.350  10.235  0.2827 -1.3185  1.0205
 2909SOL     OW20362   2.101   0.789   5.740 -0.1583  0.2781 -0.2039
 2909SOL    HW120363   2.022   0.836   5.765  2.3345  3.0531  2.5406
 2909SOL    HW220364   2.145   0.792   5.826 -1.3792 -0.8501  0.4551
 2910SOL     OW20365   1.682   3.776   3.436  0.4872 -0.0796  0.0744
 2910SOL    HW120366   1.606   3.800   3.490 -0.9639  0.9180 -2.4182
 2910SOL    HW220367   1.692   3.686   3.467  4.2369 -0.0686 -1.0526
 2911SOL     OW20368   1.468   2.662   5.699 -0.1921 -0.1461  0.2897
 2911SOL    HW120369   1.544   2.632   5.649  1.0425  0.1279  2.0052
 2911SOL    HW220370   1.459   2.592   5.764  0.2491  1.2090  1.8276
 2912SOL     OW20371   4.383   2.713  16.754 -0.0348 -0.2498  0.4625
 2912SOL    HW120372   4.457   2.749  16.704  0.3698 -2.0189 -0.2102
 2912SOL    HW220373   4.385   2.762  16.836 -2.5664 -2.1459  1.6293
 2913SOL     OW20374   3.744   0.475  13.892  0.1484 -0.1719  0.0179
 2913SOL    HW120375   3.828   0.434  13.873  0.2668  0.8360 -1.6638
 2913SOL    HW220376   3.754   0.505  13.982 -2.3073  2.5784 -0.6193
 2914SOL     OW20377   0.143   0.225   3.940  0.5479 -0.1018 -0.0588
 2914SOL    HW120378   0.182   0.296   3.889  0.2471  0.0043 -0.1387
 2914SOL    HW220379   0.173   0.148   3.890  1.5871  0.1589  0.1598
 2915SOL     OW20380   2.922   0.632   5.303 -0.3015  0.1068 -0.4566
 2915SOL    HW120381   2.832   0.662   5.290  0.1543  1.2619 -0.8695
 2915SOL    HW220382   2.968   0.689   5.364  0.8352  0.4476 -1.6457
 2916SOL     OW20383   3.951   0.504  15.264 -0.4999  0.7799 -0.4202
 2916SOL    HW120384   3.963   0.597  15.249  1.3383  0.4485 -0.9356
 2916SOL    HW220385   3.860   0.490  15.290 -0.5038 -1.8075 -1.8406
 2917SOL     OW20386   1.840   0.305  10.559  0.0131 -0.4353 -0.4676
 2917SOL    HW120387   1.892   0.385  10.554 -0.0887 -0.2629  1.3345
 2917SOL    HW220388   1.773   0.315  10.491 -0.5997  0.4267  0.2700
 2918SOL     OW20389   2.046   4.528  12.544  0.2982 -0.0902 -0.5548
 2918SOL    HW120390   2.063   4.440  12.577 -1.6926 -0.2296  0.0929
 2918SOL    HW220391   2.065   4.496  12.456 -1.1401 -1.0871 -0.4849
 2919SOL     OW20392   1.272   3.008  15.554 -0.0147 -0.1941 -0.2290
 2919SOL    HW120393   1.189   3.046  15.526  0.3120 -0.3851 -1.4768
 2919SOL    HW220394   1.322   3.074  15.504  0.4765 -0.9528 -0.7503
 2920SOL     OW20395   0.806   3.613   2.772  0.2941 -0.1665  0.0533
 2920SOL    HW120396   0.772   3.695   2.807  1.1938 -0.0063  0.5478
 2920SOL    HW220397   0.816   3.632   2.679 -1.2214  1.5534  0.2507
 2921SOL     OW20398   1.884   4.221   7.054  0.0291  0.1612 -0.8579
 2921SOL    HW120399   1.825   4.293   7.032 -0.0474 -0.4789 -2.7185
 2921SOL    HW220400   1.935   4.265   7.122 -0.5907 -0.3259 -0.0706
 2922SOL     OW20401   2.970   2.332  10.538 -0.0238  0.5094 -0.6052
 2922SOL    HW120402   3.019   2.391  10.595  0.0595  1.7803 -2.0063
 2922SOL    HW220403   2.909   2.392  10.497 -0.5437 -1.1653 -2.2748
 2923SOL     OW20404   1.612   0.441   9.324  0.5380 -0.3136  0.3630
 2923SOL    HW120405   1.518   0.458   9.314  0.1962 -0.9544  2.6400
 2923SOL    HW220406   1.646   0.522   9.286 -1.6007  0.3797 -0.0854
 2924SOL     OW20407   0.407   1.078   7.467 -0.5577 -0.2452 -0.0572
 2924SOL    HW120408   0.416   1.007   7.403 -0.5308 -2.5319  2.4417
 2924SOL    HW220409   0.366   1.031   7.541  0.9673 -2.0506 -0.3547
 2925SOL     OW20410   3.750   3.334  15.493 -0.1668  0.1645 -0.3897
 2925SOL    HW120411   3.660   3.302  15.487 -1.3172  2.5595  3.6345
 2925SOL    HW220412   3.740   3.352  15.587  0.8903 -1.0780 -0.0388
 2926SOL     OW20413   1.269   3.251  15.764  0.5049  0.1283  0.5345
 2926SOL    HW120414   1.286   3.169  15.809  1.9586  0.1259 -0.0430
 2926SOL    HW220415   1.214   3.223  15.691  1.2754  0.2108 -0.0731
 2927SOL     OW20416   3.746   0.047   5.823  0.5422 -0.8386 -0.2221
 2927SOL    HW120417   3.736   0.098   5.903  1.9294  0.3494 -0.8191
 2927SOL    HW220418   3.660   0.059   5.781  0.8377  0.2808 -0.4980
 2928SOL     OW20419   2.757   2.491  10.926 -0.1885  0.6939 -0.6307
 2928SOL    HW120420   2.677   2.526  10.966  0.3663  0.3222  0.8344
 2928SOL    HW220421   2.753   2.548  10.850 -2.2595  0.6788 -0.5144
 2929SOL     OW20422   1.328   2.281  10.504  0.5418  0.2631 -0.0412
 2929SOL    HW120423   1.284   2.345  10.449  0.5153  1.6321  1.5888
 2929SOL    HW220424   1.353   2.228  10.428 -1.2416 -0.0869 -0.3722
 2930SOL     OW20425   3.054   1.692  16.634  0.4702  0.1725 -0.0663
 2930SOL    HW120426   3.028   1.679  16.543  0.1773  0.8254 -0.0766
 2930SOL    HW220427   3.040   1.783  16.658  0.9440  0.7145 -1.8798
 2931SOL     OW20428   2.359   1.818   4.678 -0.1294 -0.1505 -0.0807
 2931SOL    HW120429   2.271   1.791   4.649 -1.0813  1.6321  1.1125
 2931SOL    HW220430   2.334   1.872   4.753  0.3307 -0.7963  0.5402
 2932SOL     OW20431   3.550   3.291   0.039 -0.3558 -0.1399  0.0653
 2932SOL    HW120432   3.478   3.228   0.045 -1.2806  0.8160 -0.9409
 2932SOL    HW220433   3.511   3.378   0.026 -1.5269 -0.8719 -1.3297
 2933SOL     OW20434   1.786   0.549   1.953 -0.2462  0.3949  0.0382
 2933SOL    HW120435   1.727   0.602   1.900 -0.1402  0.2154 -0.2595
 2933SOL    HW220436   1.818   0.481   1.893 -1.8181  0.1312 -0.4891
 2934SOL     OW20437   1.591   4.145   7.342  0.2289  0.3347  0.2866
 2934SOL    HW120438   1.621   4.199   7.269  0.4576 -0.1997 -0.0225
 2934SOL    HW220439   1.615   4.199   7.417  1.3620 -1.3269  1.1403
 2935SOL     OW20440   0.152   3.684  16.885 -0.2127  0.2342  0.6153
 2935SOL    HW120441   0.205   3.672  16.807  1.1831 -1.4508  1.8263
 2935SOL    HW220442   0.170   3.604  16.934  0.1967 -0.8122 -1.2497
 2936SOL     OW20443   3.166   0.702  15.258  0.1576 -0.1094 -0.0205
 2936SOL    HW120444   3.072   0.718  15.269 -0.2533 -1.2964 -1.9082
 2936SOL    HW220445   3.198   0.789  15.282 -1.3358  0.7766 -1.1547
 2937SOL     OW20446   2.958   1.392   4.677 -0.3403 -0.2449  1.2367
 2937SOL    HW120447   2.886   1.369   4.735 -1.5530 -1.8320 -0.9259
 2937SOL    HW220448   2.916   1.465   4.631  0.8045 -1.5434 -1.8408
 2938SOL     OW20449   3.764   3.411  17.129 -0.4989 -0.3007  0.0571
 2938SOL    HW120450   3.843   3.373  17.089  1.0582  0.3717  2.4843
 2938SOL    HW220451   3.694   3.396  17.066  0.3956 -1.4499 -0.6639
 2939SOL     OW20452   0.389   4.045   8.585  0.1782 -0.3012 -0.4603
 2939SOL    HW120453   0.351   3.995   8.657  0.0264 -0.2516 -0.5052
 2939SOL    HW220454   0.338   4.001   8.517  2.6273 -1.6329 -1.4041
 2940SOL     OW20455   0.210   0.600   7.699  0.2601  0.1899 -0.3134
 2940SOL    HW120456   0.154   0.666   7.740 -0.8313 -0.9181 -0.0169
 2940SOL    HW220457   0.199   0.616   7.605 -2.3712  1.6551  0.2456
 2941SOL     OW20458   0.918   3.846   9.540 -0.2671 -0.0756  0.0560
 2941SOL    HW120459   0.839   3.807   9.575 -1.7837  1.3940 -1.7163
 2941SOL    HW220460   0.887   3.894   9.463  0.3185  2.7080  1.5531
 2942SOL     OW20461   3.810   4.322   4.272  0.1991  0.1338  0.2095
 2942SOL    HW120462   3.825   4.409   4.309 -0.0481  0.1330  0.3119
 2942SOL    HW220463   3.759   4.288   4.346  2.3042 -1.2723  1.0166
 2943SOL     OW20464   2.357   2.097   3.536 -0.2008 -0.4879 -0.1234
 2943SOL    HW120465   2.430   2.152   3.566 -2.1961  1.3785  1.3008
 2943SOL    HW220466   2.358   2.030   3.604  0.8663  0.6795  1.0108
 2944SOL     OW20467   0.491   3.031   8.318 -0.1637  0.7810 -0.5294
 2944SOL    HW120468   0.405   3.073   8.317 -0.6101 -0.1427 -1.2345
 2944SOL    HW220469   0.535   3.097   8.265 -2.0306  1.2731 -1.4472
 2945SOL     OW20470   0.033   4.392   2.037 -0.4650  0.1884 -0.4075
 2945SOL    HW120471   4.689   4.426   2.070 -0.4090  0.6764 -0.7744
 2945SOL    HW220472   0.095   4.424   2.103 -0.5052  0.1051 -0.3294
 2946SOL     OW20473   4.479   0.102  12.352  0.0795 -0.1177  0.0547
 2946SOL    HW120474   4.391   0.113  12.389  0.2472  2.0964 -0.2092
 2946SOL    HW220475   4.478   0.169  12.284  0.5797  3.1466  3.2356
 2947SOL     OW20476   0.787   1.561   7.437  0.2615 -0.0536 -1.0491
 2947SOL    HW120477   0.834   1.525   7.513  2.7962  2.7216 -1.3243
 2947SOL    HW220478   0.707   1.604   7.468  0.9092  1.1834 -1.1213
 2948SOL     OW20479   2.230   3.286   2.592  0.4482 -0.4359  0.4694
 2948SOL    HW120480   2.221   3.233   2.672 -0.4651  1.9702  1.9628
 2948SOL    HW220481   2.169   3.352   2.624  2.2791  1.9999 -1.0493
 2949SOL     OW20482   2.782   1.794   7.995 -0.3317  0.5934  0.0910
 2949SOL    HW120483   2.783   1.889   8.008  0.1698  0.7208 -0.8765
 2949SOL    HW220484   2.749   1.757   8.077  2.2931 -0.2424  0.7863
 2950SOL     OW20485   4.657   0.047  10.162  0.5141  0.1341 -0.1709
 2950SOL    HW120486   4.691   4.726  10.094  3.1794 -0.1546  1.3996
 2950SOL    HW220487   4.737   0.079  10.203 -0.1044  0.5836  0.6930
 2951SOL     OW20488   3.747   2.453   9.305  0.1438  0.6998 -0.1483
 2951SOL    HW120489   3.831   2.428   9.267 -0.2190 -0.2980 -0.2872
 2951SOL    HW220490   3.688   2.383   9.278  0.8804  0.0063  0.0440
 2952SOL     OW20491   0.857   1.581   2.372  0.2054 -0.0241 -0.2231
 2952SOL    HW120492   0.811   1.570   2.455 -1.6505  1.0451 -1.1105
 2952SOL    HW220493   0.940   1.535   2.385  2.0098  3.1313 -0.5679
 2953SOL     OW20494   1.967   0.574  15.714 -0.1870 -0.2454  0.1015
 2953SOL    HW120495   1.971   0.666  15.687  3.0686 -0.6932 -0.9012
 2953SOL    HW220496   1.967   0.585  15.809  1.9221 -1.6409  0.2693
 2954SOL     OW20497   2.986   0.652  11.984  0.6947 -0.0920 -0.1566
 2954SOL    HW120498   2.945   0.732  11.953  0.7618  0.0334  0.0823
 2954SOL    HW220499   2.915   0.588  11.974 -1.2783  1.9092  1.1722
 2955SOL     OW20500   2.784   4.519   3.279  0.1288  0.3853 -0.1731
 2955SOL    HW120501   2.879   4.527   3.273  0.3764 -0.3594  3.0641
 2955SOL    HW220502   2.778   4.490   3.370 -4.1023 -0.3770 -0.6726
 2956SOL     OW20503   2.374   4.378  17.165 -0.0654  0.0344  0.3488
 2956SOL    HW120504   2.339   4.313  17.104 -1.3954  0.3024  0.8242
 2956SOL    HW220505   2.297   4.423  17.199 -0.3597 -0.1101 -0.1304
 2957SOL     OW20506   2.212   3.260  10.494 -0.3979 -0.2347 -0.4694
 2957SOL    HW120507   2.229   3.184  10.549  1.3711  1.4285  1.2484
 2957SOL    HW220508   2.296   3.304  10.503  0.7216 -2.7962  1.3875
 2958SOL     OW20509   4.320   4.285   4.819  0.0164 -0.1279 -0.5339
 2958SOL    HW120510   4.231   4.321   4.818 -0.3715 -1.1319 -1.4012
 2958SOL    HW220511   4.371   4.364   4.800  0.9072 -0.4919  0.2880
 2959SOL     OW20512   2.167   1.825   1.138 -0.3705 -0.4699  0.6107
 2959SOL    HW120513   2.194   1.912   1.168 -3.3547 -0.1080  2.2299
 2959SOL    HW220514   2.176   1.782   1.223 -0.1133 -0.5681  0.5373
 2960SOL     OW20515   0.290   2.320   4.579 -0.7613 -0.0671  0.2096
 2960SOL    HW120516   0.383   2.319   4.557 -0.8055  1.8003 -0.0704
 2960SOL    HW220517   0.258   2.361   4.499  0.6838 -0.6536 -0.6606
 2961SOL     OW20518   2.796   1.540  16.626 -0.1591 -0.2201  0.0696
 2961SOL    HW120519   2.805   1.458  16.674  1.0308 -0.0496  0.1393
 2961SOL    HW220520   2.848   1.606  16.674 -0.2533 -0.1095  0.0203
 2962SOL     OW20521   2.251   0.487   2.599 -0.7662 -0.1326  0.0051
 2962SOL    HW120522   2.173   0.462   2.549  0.0142 -2.0254 -0.2608
 2962SOL    HW220523   2.308   0.411   2.592  1.1512  1.3452 -0.7170
 2963SOL     OW20524   1.725   2.302   6.200 -0.0583  0.3002 -0.5930
 2963SOL    HW120525   1.708   2.338   6.112  0.7794 -0.8259 -1.2008
 2963SOL    HW220526   1.805   2.255   6.179 -0.4572 -0.8249  0.3967
 2964SOL     OW20527   4.105   1.976   4.394 -0.1277  0.4221  0.9338
 2964SOL    HW120528   4.030   1.926   4.426 -1.5444  1.3456 -0.9426
 2964SOL    HW220529   4.063   2.062   4.406 -1.5239 -0.2932  1.1315
 2965SOL     OW20530   3.447   0.811   7.966 -0.3859  0.0230 -0.5817
 2965SOL    HW120531   3.460   0.900   7.933  1.4218 -0.5287 -1.4202
 2965SOL    HW220532   3.364   0.803   7.919 -0.8303  1.0667  0.0196
 2966SOL     OW20533   4.123   1.856  12.231 -0.6122  0.3716 -0.2209
 2966SOL    HW120534   4.165   1.772  12.252 -0.7347  0.6754  1.2435
 2966SOL    HW220535   4.081   1.875  12.315 -1.5743 -1.5676 -0.2594
 2967SOL     OW20536   3.661   3.257   3.686 -0.4413 -0.3339 -0.1855
 2967SOL    HW120537   3.585   3.312   3.707  0.1998  0.6572 -0.4445
 2967SOL    HW220538   3.667   3.185   3.748 -0.7798  0.0475  0.2939
 2968SOL     OW20539   3.208   3.509   2.890 -0.6438 -0.3179 -0.2880
 2968SOL    HW120540   3.214   3.494   2.984  1.6199  1.1409 -0.1832
 2968SOL    HW220541   3.122   3.472   2.874 -0.2620 -1.7556  0.9642
 2969SOL     OW20542   1.067   1.984  10.390  0.0878 -0.0032  0.3333
 2969SOL    HW120543   1.067   2.017  10.300  0.9514  1.5570  0.8949
 2969SOL    HW220544   1.028   2.056  10.440 -1.2949  0.4382 -1.3708
 2970SOL     OW20545   3.309   3.201   0.265 -0.6355 -0.2005 -0.3523
 2970SOL    HW120546   3.260   3.141   0.321  0.0157 -0.5658 -0.1756
 2970SOL    HW220547   3.391   3.216   0.312  0.4100 -2.3654 -1.4845
 2971SOL     OW20548   0.960   2.908   5.266 -0.3935 -0.1273  0.7481
 2971SOL    HW120549   0.876   2.873   5.238 -1.0581  0.3565  2.1807
 2971SOL    HW220550   0.962   2.905   5.361  0.8313  1.8652  0.7934
 2972SOL     OW20551   2.230   4.418   7.106  1.2708 -0.4251  0.0052
 2972SOL    HW120552   2.162   4.395   7.170  1.8840 -0.2527  0.7203
 2972SOL    HW220553   2.217   4.343   7.048 -0.1245 -1.7192  2.0122
 2973SOL     OW20554   2.795   1.104  11.140  0.3745  0.0137  0.2066
 2973SOL    HW120555   2.774   1.133  11.229  0.8325  0.6197  0.1205
 2973SOL    HW220556   2.864   1.041  11.160  1.2890  1.1217  0.5293
 2974SOL     OW20557   2.321   2.585   8.493 -0.0541  0.2574  0.0967
 2974SOL    HW120558   2.289   2.601   8.404  1.0196 -0.3353 -0.4015
 2974SOL    HW220559   2.248   2.624   8.542 -0.8229 -0.5922 -0.3630
 2975SOL     OW20560   1.030   0.328  12.357  0.5103  0.4658 -0.4646
 2975SOL    HW120561   1.027   0.313  12.452  1.1284  0.1939 -0.4827
 2975SOL    HW220562   1.077   0.246  12.339  0.1659  0.5215 -1.6292
 2976SOL     OW20563   0.804   1.412   3.143 -0.2984 -0.1347  1.0170
 2976SOL    HW120564   0.838   1.329   3.110 -1.4813 -0.6787  1.1257
 2976SOL    HW220565   0.876   1.474   3.133  0.7247 -1.0013  2.9920
 2977SOL     OW20566   4.474   1.258   7.933  0.3480  0.2903 -0.3826
 2977SOL    HW120567   4.570   1.262   7.929  0.2843  0.9601 -1.2721
 2977SOL    HW220568   4.459   1.166   7.913  0.7321  0.2612 -0.5502
 2978SOL     OW20569   1.322   2.617   9.460 -0.4009 -0.2442 -0.1096
 2978SOL    HW120570   1.313   2.664   9.542 -1.4009 -0.2790 -0.1913
 2978SOL    HW220571   1.386   2.672   9.415 -0.0316 -1.0766 -0.6197
 2979SOL     OW20572   0.434   0.484   0.076 -0.1238 -0.1948  0.4618
 2979SOL    HW120573   0.362   0.474   0.138  0.2035 -1.5897  0.6278
 2979SOL    HW220574   0.483   0.550   0.124 -0.6018 -0.0369  0.7354
 2980SOL     OW20575   2.356   0.712   0.373  0.0146 -0.1622  0.2948
 2980SOL    HW120576   2.274   0.749   0.340  0.8166 -0.7556 -2.3458
 2980SOL    HW220577   2.333   0.713   0.466 -2.3955  0.8617 -0.3154
 2981SOL     OW20578   0.442   2.242   3.983 -0.3465 -0.3239 -0.5539
 2981SOL    HW120579   0.497   2.315   4.011 -1.0311 -0.1475  0.3004
 2981SOL    HW220580   0.411   2.206   4.065  0.2937  0.7481  0.1580
 2982SOL     OW20581   0.872   4.224   9.950  0.3160 -0.4957 -0.0170
 2982SOL    HW120582   0.899   4.133   9.944  1.0160 -0.2053 -1.1998
 2982SOL    HW220583   0.878   4.253   9.859  0.4813 -0.3076  0.0522
 2983SOL     OW20584   3.058   0.447   5.173 -0.0724 -0.4279 -0.8892
 2983SOL    HW120585   2.990   0.381   5.189  1.4260 -1.9248 -0.6516
 2983SOL    HW220586   3.012   0.521   5.211 -1.0405 -0.9824 -0.9759
 2984SOL     OW20587   4.452   2.174   3.197  0.2506 -0.4780  0.4338
 2984SOL    HW120588   4.539   2.134   3.203 -0.3646 -2.1030 -1.6909
 2984SOL    HW220589   4.469   2.252   3.250  3.2251 -0.4772 -0.4986
 2985SOL     OW20590   3.404   4.591   8.187  0.7321  0.0039  0.0597
 2985SOL    HW120591   3.436   4.504   8.165  0.2768 -0.3775  0.9256
 2985SOL    HW220592   3.319   4.580   8.229  1.1022 -0.7396  0.6177
 2986SOL     OW20593   0.011   2.513   9.176 -0.3259  0.1817 -0.1306
 2986SOL    HW120594   0.073   2.586   9.178  1.3415 -1.1900 -1.4755
 2986SOL    HW220595   0.078   2.445   9.164  0.0245  0.0995  2.4492
 2987SOL     OW20596   1.735   3.574  11.706 -0.0161  0.2401 -0.3148
 2987SOL    HW120597   1.821   3.562  11.747 -0.5443  0.6258  0.8957
 2987SOL    HW220598   1.758   3.626  11.629 -1.1076 -2.2690 -2.3435
 2988SOL     OW20599   0.002   3.195   4.140 -0.3214 -0.0184  0.2709
 2988SOL    HW120600   4.716   3.286   4.155  0.5254  0.3956 -0.8597
 2988SOL    HW220601   4.666   3.169   4.086  1.3699  0.1580 -2.1519
 2989SOL     OW20602   2.269   3.138   5.814  1.0784  0.7742  0.2636
 2989SOL    HW120603   2.357   3.105   5.794  0.3745  0.0473 -1.5534
 2989SOL    HW220604   2.284   3.233   5.818  0.2377  0.7895  3.3871
 2990SOL     OW20605   2.461   4.283   9.854  0.2162 -0.0533  0.2382
 2990SOL    HW120606   2.401   4.351   9.886 -1.4790 -1.6292  0.4219
 2990SOL    HW220607   2.480   4.328   9.772 -1.2770  0.8354  0.3770
 2991SOL     OW20608   2.701   0.424   4.653  0.5906  0.5395  0.2875
 2991SOL    HW120609   2.702   0.519   4.644 -1.1411  0.3153 -2.0988
 2991SOL    HW220610   2.639   0.410   4.726  0.1352  1.9239  0.1789
 2992SOL     OW20611   4.707   3.943   3.752  0.1519  0.7562  0.2876
 2992SOL    HW120612   4.681   3.870   3.696  0.6892 -0.1049  1.1796
 2992SOL    HW220613   4.657   4.010   3.704 -1.6769 -0.9671 -0.2045
 2993SOL     OW20614   4.677   1.173   9.783 -0.3530  0.1202 -0.2946
 2993SOL    HW120615   4.599   1.227   9.799 -0.3319  0.1905 -0.4288
 2993SOL    HW220616   4.738   1.213   9.845  1.9171  0.1362 -2.5690
 2994SOL     OW20617   4.000   2.107  14.316 -0.0884  0.0275  0.0513
 2994SOL    HW120618   4.052   2.165  14.372 -1.1600  0.0797  1.0122
 2994SOL    HW220619   3.933   2.166  14.283 -0.2060  0.7417  1.5280
 2995SOL     OW20620   3.418   1.946   0.011 -0.3421 -0.6053  0.1654
 2995SOL    HW120621   3.430   1.870   0.068  0.4615 -1.3209 -0.9523
 2995SOL    HW220622   3.469   2.006   0.065 -0.1495 -0.0222 -0.6613
 2996SOL     OW20623   3.305   2.070  14.830 -0.4954  0.5551 -0.0601
 2996SOL    HW120624   3.228   2.077  14.773  0.8873  1.0771 -1.8598
 2996SOL    HW220625   3.354   2.146  14.798  0.2053  0.5159  0.9293
 2997SOL     OW20626   1.171   1.941   6.618  0.3403  0.1768 -0.2526
 2997SOL    HW120627   1.100   1.948   6.553  0.6304  3.1417 -0.2284
 2997SOL    HW220628   1.197   2.032   6.622  0.3183  0.1886 -0.3760
 2998SOL     OW20629   3.452   4.118  15.579  0.2508  0.3892  0.2485
 2998SOL    HW120630   3.524   4.103  15.641  0.3629  0.9961  0.2690
 2998SOL    HW220631   3.482   4.194  15.530  1.5352 -0.6953 -0.6408
 2999SOL     OW20632   1.682   4.386   7.020  0.6715 -0.4025 -0.2397
 2999SOL    HW120633   1.634   4.415   7.098  0.8220  3.3948 -1.5801
 2999SOL    HW220634   1.688   4.472   6.980 -0.0258 -0.8049 -1.2242
 3000SOL     OW20635   4.107   1.167   9.819  0.3036  0.2512 -0.7093
 3000SOL    HW120636   4.023   1.206   9.796  0.2656  1.7011  1.9905
 3000SOL    HW220637   4.110   1.082   9.775  2.7531  0.8262 -1.7009
 3001SOL     OW20638   3.194   1.972  11.565  0.0282  0.3528  0.4544
 3001SOL    HW120639   3.191   1.880  11.590  0.3028  0.1064 -0.4008
 3001SOL    HW220640   3.284   1.993  11.590  0.2661 -0.3594  0.2017
 3002SOL     OW20641   3.325   3.446   1.064 -0.4371 -0.1918  0.4748
 3002SOL    HW120642   3.395   3.396   1.107  1.0460 -0.7880 -2.6779
 3002SOL    HW220643   3.250   3.420   1.118 -0.6501 -0.0753  0.2361
 3003SOL     OW20644   3.226   4.634   9.214  0.2617  0.5580  0.3455
 3003SOL    HW120645   3.222   4.571   9.142 -1.4154 -1.7295  2.4444
 3003SOL    HW220646   3.169   4.597   9.281  1.1302  1.3061  1.5143
 3004SOL     OW20647   2.863   2.802   5.560 -0.6260  0.1418  0.1988
 3004SOL    HW120648   2.777   2.769   5.587 -2.0418  2.0834 -1.9707
 3004SOL    HW220649   2.827   2.890   5.550  0.4041  0.4063 -1.3072
 3005SOL     OW20650   1.696   3.974   0.458  0.2993 -0.0248  0.6270
 3005SOL    HW120651   1.751   3.955   0.533  0.4388  1.4416  0.8962
 3005SOL    HW220652   1.676   4.067   0.464  2.8875  0.7485 -2.6889
 3006SOL     OW20653   1.726   2.835   8.173 -0.2309 -0.1496 -0.6942
 3006SOL    HW120654   1.726   2.923   8.135 -1.5407  0.5245  0.8556
 3006SOL    HW220655   1.739   2.853   8.266 -2.1015  0.3979 -0.5425
 3007SOL     OW20656   3.069   2.122   0.525 -0.0043  0.3291 -0.1054
 3007SOL    HW120657   3.120   2.197   0.554 -0.5332  0.1076  1.3797
 3007SOL    HW220658   3.113   2.102   0.442 -1.7216  0.4096 -1.0566
 3008SOL     OW20659   3.636   1.733   6.137  0.4119 -0.0488 -0.3354
 3008SOL    HW120660   3.548   1.761   6.112 -0.1189 -0.3722  1.2064
 3008SOL    HW220661   3.663   1.807   6.193  2.0443 -0.8812 -0.0053
 3009SOL     OW20662   3.121   0.771   9.621 -0.0247 -0.5739  0.3445
 3009SOL    HW120663   3.121   0.751   9.527 -2.6611 -0.9913  0.4451
 3009SOL    HW220664   3.144   0.684   9.654  1.0389 -0.1100  0.8291
 3010SOL     OW20665   3.686   0.277  11.739  0.2675 -0.5907 -0.0178
 3010SOL    HW120666   3.667   0.371  11.738 -1.0150 -0.8162  2.1919
 3010SOL    HW220667   3.780   0.268  11.754 -0.5376 -1.3692  4.6271
 3011SOL     OW20668   3.087   0.583   1.709  0.0074 -0.0293 -0.3552
 3011SOL    HW120669   3.015   0.545   1.659  1.1869  0.1396 -2.1521
 3011SOL    HW220670   3.125   0.633   1.637 -1.5700  0.8612 -0.5515
 3012SOL     OW20671   3.900   2.270   3.982 -0.5446  0.0364 -0.4617
 3012SOL    HW120672   3.984   2.303   3.950 -0.4933  1.4581  1.1492
 3012SOL    HW220673   3.838   2.341   3.994 -2.4794 -1.8028  0.4711
 3013SOL     OW20674   0.010   0.407   6.319 -0.2546 -0.5125 -0.0601
 3013SOL    HW120675   4.684   0.400   6.249 -1.4420  1.4110  0.8245
 3013SOL    HW220676   0.093   0.404   6.272  0.2253 -2.5249  0.9120
 3014SOL     OW20677   0.957   0.323   2.790  0.1936  0.1750 -0.6271
 3014SOL    HW120678   1.043   0.363   2.799 -0.2599  1.1703 -0.6693
 3014SOL    HW220679   0.970   0.232   2.762 -1.5983 -0.6038  1.0414
 3015SOL     OW20680   3.737   3.465   5.219  0.1902  0.3287 -0.3029
 3015SOL    HW120681   3.768   3.378   5.193 -0.6956  0.1018 -0.6198
 3015SOL    HW220682   3.704   3.454   5.308 -0.8228  1.8379 -0.4771
 3016SOL     OW20683   3.921   2.732   6.834 -0.0846  0.2145  0.6003
 3016SOL    HW120684   3.928   2.721   6.739  0.6941  0.8053  0.5889
 3016SOL    HW220685   3.950   2.648   6.872  0.4163  0.6846  1.2566
 3017SOL     OW20686   3.293   1.997   2.721  0.0428 -0.4820  0.4953
 3017SOL    HW120687   3.287   2.070   2.659  0.5112  0.1094  1.1523
 3017SOL    HW220688   3.385   1.976   2.710 -0.4195 -0.0890 -4.0912
 3018SOL     OW20689   3.218   0.129   7.400 -0.1519  0.5176  0.2045
 3018SOL    HW120690   3.132   0.147   7.362  0.2102  0.5089 -0.6155
 3018SOL    HW220691   3.248   0.218   7.418 -0.1229  0.8089 -1.3045
 3019SOL     OW20692   3.559   1.359   8.315 -0.3930 -0.6176  0.3538
 3019SOL    HW120693   3.490   1.339   8.378 -0.0262 -0.5069  0.8005
 3019SOL    HW220694   3.531   1.434   8.263  0.5182 -0.1897  0.4635
 3020SOL     OW20695   1.689   0.999   9.495 -0.0579 -0.0375  0.4709
 3020SOL    HW120696   1.660   1.084   9.464 -0.9715  0.0882  1.6483
 3020SOL    HW220697   1.613   0.963   9.542 -1.8820  1.9845 -0.9537
 3021SOL     OW20698   1.495   0.706   7.350  0.4429  0.5737 -0.0336
 3021SOL    HW120699   1.514   0.766   7.423  0.7286  0.8955 -0.3747
 3021SOL    HW220700   1.400   0.714   7.348  0.3772 -0.5109 -0.9409
 3022SOL     OW20701   2.742   3.986  12.762  0.3289 -0.1493  0.3745
 3022SOL    HW120702   2.792   4.038  12.699 -0.4134 -0.2419 -0.2950
 3022SOL    HW220703   2.810   3.980  12.829 -0.9180  1.4429  1.7873
 3023SOL     OW20704   0.811   3.034   4.013 -0.6285  0.6141  0.1394
 3023SOL    HW120705   0.864   3.073   4.083 -2.1768  1.0458  1.0556
 3023SOL    HW220706   0.733   3.009   4.063  0.7235  1.8689  2.8684
 3024SOL     OW20707   3.912   2.656   7.773 -0.0114  0.0419  0.4604
 3024SOL    HW120708   3.972   2.720   7.735 -0.1016  0.4140  0.9330
 3024SOL    HW220709   3.927   2.580   7.718  1.1742  0.3576  0.3352
 3025SOL     OW20710   3.327   4.626  13.535 -0.3608  0.4313  0.0274
 3025SOL    HW120711   3.312   4.715  13.503 -1.9928 -0.3398 -1.3543
 3025SOL    HW220712   3.284   4.572  13.469  1.2882 -2.7365  1.5562
 3026SOL     OW20713   1.506   0.283   0.901 -0.0665 -0.0740  0.0471
 3026SOL    HW120714   1.458   0.314   0.977 -1.8200  2.0950 -1.9432
 3026SOL    HW220715   1.442   0.317   0.838  1.6749 -0.1348 -1.7567
 3027SOL     OW20716   2.931   0.857   0.881 -0.9382  0.1163 -0.1894
 3027SOL    HW120717   2.912   0.764   0.882  0.6247 -0.2151 -0.9223
 3027SOL    HW220718   2.939   0.873   0.787  1.9928  1.5941  0.3064
 3028SOL     OW20719   1.112   1.326   1.067  0.2395  0.2927 -0.1347
 3028SOL    HW120720   1.142   1.310   0.977 -3.6688  0.7551 -1.5075
 3028SOL    HW220721   1.135   1.237   1.093  1.0113  0.0325 -1.6499
 3029SOL     OW20722   1.300   4.604   5.113 -0.3317  0.6627  0.1129
 3029SOL    HW120723   1.350   4.645   5.042  2.0747 -0.3778  1.2249
 3029SOL    HW220724   1.358   4.532   5.136 -1.0821  0.0215  0.0075
 3030SOL     OW20725   2.843   4.206   5.412 -0.0995  0.7264 -0.0652
 3030SOL    HW120726   2.885   4.261   5.477  1.3439 -0.8355  0.3471
 3030SOL    HW220727   2.860   4.119   5.448  1.5646  1.1666  0.2063
 3031SOL     OW20728   0.380   0.373   7.967 -0.2888  0.0377  0.2163
 3031SOL    HW120729   0.451   0.371   8.031 -1.9100  1.6274  2.0516
 3031SOL    HW220730   0.323   0.306   8.003  2.8800 -0.3147  4.5921
 3032SOL     OW20731   1.625   4.135   3.674  0.8897  0.5867 -0.2919
 3032SOL    HW120732   1.690   4.096   3.616 -0.0107 -2.3733  0.7090
 3032SOL    HW220733   1.616   4.082   3.753  1.7115  0.8117 -0.0444
 3033SOL     OW20734   4.271   2.169   4.242 -0.4962 -0.3364  0.4762
 3033SOL    HW120735   4.220   2.245   4.270 -0.6109 -1.6145  3.7097
 3033SOL    HW220736   4.251   2.113   4.318 -0.0891 -0.3726  0.5586
 3034SOL     OW20737   1.357   1.828   7.919 -0.3107  0.0515 -0.5782
 3034SOL    HW120738   1.318   1.796   7.838  0.7013 -0.7728 -0.7387
 3034SOL    HW220739   1.424   1.763   7.939  0.7811  1.0062 -1.1128
 3035SOL     OW20740   2.770   0.138   8.173  0.0223  0.3291  0.3486
 3035SOL    HW120741   2.751   0.071   8.107 -0.9361  0.1883  0.7628
 3035SOL    HW220742   2.846   0.092   8.209 -0.2360  0.0246  0.5053
 3036SOL     OW20743   3.315   2.980   2.310 -0.2244  0.3125 -0.2446
 3036SOL    HW120744   3.322   3.038   2.234  0.0174  1.0975  0.3744
 3036SOL    HW220745   3.325   2.892   2.273 -1.2789  0.1631 -0.1642
 3037SOL     OW20746   1.758   3.623   8.372 -0.4655  0.0029 -0.1747
 3037SOL    HW120747   1.666   3.618   8.396 -0.2958  1.0933  0.7255
 3037SOL    HW220748   1.746   3.671   8.290  1.5531 -1.0896 -1.1067
 3038SOL     OW20749   2.860   3.505   1.884 -0.3584 -0.0758 -0.4447
 3038SOL    HW120750   2.850   3.505   1.789  0.3614  1.4792 -0.5069
 3038SOL    HW220751   2.839   3.411   1.891  0.0694 -0.1872 -0.6396
 3039SOL     OW20752   3.110   1.039  17.373 -0.3445  0.1440  0.0116
 3039SOL    HW120753   3.140   0.967  17.318  0.5692 -1.2186  2.2996
 3039SOL    HW220754   3.082   1.107  17.312 -1.1320 -0.2893 -0.1148
 3040SOL     OW20755   2.188   0.865   6.011  0.0387 -0.1119  0.4155
 3040SOL    HW120756   2.250   0.840   6.080  0.3849  0.9659  0.4984
 3040SOL    HW220757   2.201   0.959   6.019 -1.0348  0.1058 -0.4427
 3041SOL     OW20758   4.378   2.732   1.972 -0.5894  0.5284  0.5026
 3041SOL    HW120759   4.295   2.689   1.990 -0.6330 -0.3448 -1.8759
 3041SOL    HW220760   4.422   2.731   2.057 -1.0166 -1.0942  0.6982
 3042SOL     OW20761   1.483   0.912   7.541 -0.2643  0.1754  0.3943
 3042SOL    HW120762   1.407   0.969   7.533 -0.2289 -0.0777 -1.7788
 3042SOL    HW220763   1.451   0.849   7.606 -0.8725  1.9178  1.7790
 3043SOL     OW20764   2.962   3.557   0.514 -0.1633  0.1873 -0.2112
 3043SOL    HW120765   2.942   3.465   0.500 -0.3037  0.4701 -1.7945
 3043SOL    HW220766   2.989   3.588   0.428 -1.3167 -3.2223 -1.7849
 3044SOL     OW20767   3.443   3.531  15.059  0.0675  0.0265  0.1199
 3044SOL    HW120768   3.526   3.482  15.059 -0.5565 -1.0452  0.8065
 3044SOL    HW220769   3.434   3.530  14.964  1.9488  2.0987 -0.0885
 3045SOL     OW20770   0.091   3.948  14.053 -0.2642  0.4473  0.0425
 3045SOL    HW120771   0.099   3.853  14.045  0.8322  0.3885  1.8054
 3045SOL    HW220772   4.736   3.967  14.049 -0.2464  0.6518  0.6454
 3046SOL     OW20773   2.720   3.560  13.337 -0.5904  0.5640  0.3275
 3046SOL    HW120774   2.793   3.499  13.346 -0.1013  1.2417  1.0187
 3046SOL    HW220775   2.719   3.577  13.242  0.8082 -1.2606 -0.0092
 3047SOL     OW20776   1.567   3.676   6.702 -0.3668 -0.2023 -0.5450
 3047SOL    HW120777   1.659   3.653   6.692 -0.3967 -0.9828  1.0255
 3047SOL    HW220778   1.555   3.658   6.795 -1.3930 -3.7945 -1.3509
 3048SOL     OW20779   3.044   0.779   7.002  0.0336 -0.2966 -0.1012
 3048SOL    HW120780   3.112   0.846   6.994  0.3804 -0.4065  1.8746
 3048SOL    HW220781   3.034   0.770   7.096 -0.8568 -1.7997 -0.3474
 3049SOL     OW20782   4.675   4.301   7.931  0.0225  0.1289 -0.4124
 3049SOL    HW120783   4.673   4.264   8.020 -0.2020 -0.2306 -0.5655
 3049SOL    HW220784   4.642   4.386   7.959  1.3453  0.8764 -1.1068
 3050SOL     OW20785   3.963   3.725   4.313  0.0796  0.2442 -0.2999
 3050SOL    HW120786   3.989   3.670   4.239  2.4955  2.7159 -1.3180
 3050SOL    HW220787   3.890   3.674   4.349  0.1203  0.7267  0.4527
 3051SOL     OW20788   2.013   3.326   5.937  0.3899 -0.0430  0.1071
 3051SOL    HW120789   1.999   3.420   5.946  0.0506  0.0373 -1.3242
 3051SOL    HW220790   2.106   3.328   5.918  0.0382  0.5833 -1.5247
 3052SOL     OW20791   0.560   3.422  13.335 -0.7313  0.3270  0.2516
 3052SOL    HW120792   0.533   3.345  13.284  2.0527 -0.1800 -0.4308
 3052SOL    HW220793   0.471   3.437  13.369 -0.2508 -0.1856  1.7152
 3053SOL     OW20794   2.551   0.887  16.092  0.0185 -0.3861 -0.1301
 3053SOL    HW120795   2.557   0.980  16.069 -0.5644  0.0948  1.6532
 3053SOL    HW220796   2.488   0.843  16.035 -2.0067  2.0900  0.1213
 3054SOL     OW20797   2.661   1.860  11.337 -0.1639  0.4305 -0.4796
 3054SOL    HW120798   2.707   1.880  11.255  0.8062 -1.8087 -0.4727
 3054SOL    HW220799   2.605   1.787  11.311 -0.0234  0.6400 -1.3681
 3055SOL     OW20800   3.211   2.590   5.098 -0.0021  0.5467  0.3561
 3055SOL    HW120801   3.267   2.617   5.171 -1.9046 -0.3394  2.1587
 3055SOL    HW220802   3.143   2.658   5.091 -0.6580  0.0162  1.6138
 3056SOL     OW20803   2.000   1.359   2.243  0.0342  0.7008  0.3965
 3056SOL    HW120804   1.991   1.340   2.336  0.1663  1.9601  0.6586
 3056SOL    HW220805   2.084   1.402   2.234  0.4457  0.2231  2.0273
 3057SOL     OW20806   4.052   3.463   6.653  0.7019  0.6097 -0.3894
 3057SOL    HW120807   4.049   3.370   6.629 -0.0121  0.0385  1.9521
 3057SOL    HW220808   4.135   3.494   6.616  1.3158 -1.7516 -0.9892
 3058SOL     OW20809   3.925   1.384  10.455  0.0714 -0.4980 -0.3524
 3058SOL    HW120810   3.845   1.383  10.508  1.2032 -3.1048  1.3326
 3058SOL    HW220811   3.965   1.298  10.470  0.3657 -0.2505  0.2789
 3059SOL     OW20812   2.136   0.534   1.982  0.2763 -0.3765  1.2109
 3059SOL    HW120813   2.152   0.550   1.889  1.2457 -1.8059  1.1343
 3059SOL    HW220814   2.041   0.527   1.977  0.1464  0.9680  1.6454
 3060SOL     OW20815   1.231   3.421   3.013 -0.1438  0.5821  0.0161
 3060SOL    HW120816   1.298   3.489   3.012 -1.0099  1.3657 -3.1619
 3060SOL    HW220817   1.154   3.474   2.991 -0.1328  0.8659  0.6579
 3061SOL     OW20818   4.353   2.352   5.461 -0.0732 -0.6382  0.2835
 3061SOL    HW120819   4.394   2.437   5.473  1.3342 -1.4219  1.0529
 3061SOL    HW220820   4.269   2.368   5.503  0.0495  0.4606  0.1020
 3062SOL     OW20821   1.982   3.037   6.986  0.0202 -0.8393 -0.5503
 3062SOL    HW120822   1.968   3.132   6.995  0.3095 -0.6735 -1.7307
 3062SOL    HW220823   1.963   3.030   6.892  0.0124  2.2121 -0.8019
 3063SOL     OW20824   3.911   2.371   1.578 -0.3969  0.4024  0.2745
 3063SOL    HW120825   3.851   2.315   1.627  0.2156 -2.1315 -1.8631
 3063SOL    HW220826   3.976   2.408   1.638 -0.8198 -1.9271  2.1819
 3064SOL     OW20827   1.758   4.343   9.532  0.5057 -0.5802  0.1979
 3064SOL    HW120828   1.812   4.418   9.554 -0.9900  0.5015  0.2251
 3064SOL    HW220829   1.817   4.295   9.474 -0.9978 -1.0814 -0.9462
 3065SOL     OW20830   2.193   3.702   8.278 -0.0159 -0.3139 -0.1279
 3065SOL    HW120831   2.153   3.786   8.302  3.5615  1.5227 -0.5397
 3065SOL    HW220832   2.236   3.712   8.193 -0.6796  2.2471 -0.1637
 3066SOL     OW20833   3.790   0.798  14.354 -0.0019  0.0827  0.1219
 3066SOL    HW120834   3.849   0.777  14.426  1.2024  1.2243 -0.5287
 3066SOL    HW220835   3.705   0.793  14.398  0.8575 -0.3353  1.7353
 3067SOL     OW20836   3.775   3.654   7.521 -0.4102 -0.0930  0.0334
 3067SOL    HW120837   3.697   3.709   7.512 -0.2903  0.0192 -0.2992
 3067SOL    HW220838   3.826   3.725   7.559 -0.1252 -0.7411  0.8647
 3068SOL     OW20839   0.998   0.574   3.611 -0.1818 -1.0577 -0.3840
 3068SOL    HW120840   1.040   0.650   3.651 -1.1356  0.3340 -2.0628
 3068SOL    HW220841   0.968   0.527   3.690 -2.5999  0.7669 -0.2309
 3069SOL     OW20842   3.198   0.134   1.971 -0.1903 -0.0274 -0.2089
 3069SOL    HW120843   3.146   0.212   1.953 -2.9850 -1.3477  2.0212
 3069SOL    HW220844   3.197   0.108   1.879  1.1157  1.0032 -0.5032
 3070SOL     OW20845   1.093   2.476  15.668  0.2049  0.4287  0.0115
 3070SOL    HW120846   1.182   2.509  15.668  0.4922 -0.3377  1.1761
 3070SOL    HW220847   1.041   2.556  15.676 -0.0214  0.2334  0.4852
 3071SOL     OW20848   0.003   0.580  15.884 -0.3430  0.5655 -0.0732
 3071SOL    HW120849   0.089   0.580  15.926  0.6752 -2.1393 -2.1529
 3071SOL    HW220850   4.710   0.490  15.901 -0.1744 -0.0769 -3.2788
 3072SOL     OW20851   0.874   3.571   8.659 -0.4005 -0.2047 -0.0597
 3072SOL    HW120852   0.801   3.625   8.628 -0.4068 -0.1687  0.0184
 3072SOL    HW220853   0.844   3.553   8.748  1.9811 -1.9524  0.3829
 3073SOL     OW20854   3.751   0.902   4.304  0.2971  0.0263 -0.3885
 3073SOL    HW120855   3.758   0.906   4.208  0.8925 -0.3574 -0.3588
 3073SOL    HW220856   3.830   0.949   4.329  0.8568 -0.3833 -1.3625
 3074SOL     OW20857   3.461   1.188   3.934 -0.2831 -0.9608 -0.0918
 3074SOL    HW120858   3.436   1.228   4.017 -0.3819 -0.2747 -0.4574
 3074SOL    HW220859   3.474   1.266   3.881 -0.8824  0.0594  1.2603
 3075SOL     OW20860   2.109   4.158  12.367 -0.4497  0.2133 -0.5673
 3075SOL    HW120861   2.137   4.240  12.409 -0.0025  0.1518 -0.7409
 3075SOL    HW220862   2.024   4.189  12.336 -1.2187  1.0051  2.3225
 3076SOL     OW20863   1.030   0.395   5.030  0.4575  0.4807 -0.2591
 3076SOL    HW120864   0.955   0.335   5.028 -0.7563  1.9142  1.8299
 3076SOL    HW220865   0.980   0.466   5.071  1.6824  1.8089 -1.0929
 3077SOL     OW20866   2.760   0.779  15.980 -0.4644 -0.2446 -0.0401
 3077SOL    HW120867   2.695   0.824  16.035 -0.1012 -2.5653  2.2959
 3077SOL    HW220868   2.842   0.823  16.004 -0.4271 -0.6718  0.6062
 3078SOL     OW20869   3.126   1.180   9.001  0.5142  0.1322 -0.5252
 3078SOL    HW120870   3.186   1.211   9.069 -0.1221  0.2724 -0.0360
 3078SOL    HW220871   3.145   1.245   8.933 -0.0936  1.9255  1.0262
 3079SOL     OW20872   1.027   0.918   2.638 -0.3173 -0.0567  0.4355
 3079SOL    HW120873   1.060   0.828   2.636  1.6585  0.6266  2.5102
 3079SOL    HW220874   1.027   0.937   2.545  1.6011  1.7996  0.8295
 3080SOL     OW20875   3.687   2.508   5.524 -0.2152  0.2281  0.0623
 3080SOL    HW120876   3.673   2.538   5.614  3.3354  0.8601  0.4019
 3080SOL    HW220877   3.710   2.418   5.548 -1.3858 -1.6293 -5.6803
 3081SOL     OW20878   2.277   3.412  14.604 -1.1288  0.0990 -0.3975
 3081SOL    HW120879   2.327   3.419  14.685 -2.5874 -0.8097  0.5969
 3081SOL    HW220880   2.252   3.504  14.594  1.0553  0.8744  1.4832
 3082SOL     OW20881   0.311   1.966  12.287 -0.4178 -0.1310  0.4950
 3082SOL    HW120882   0.259   1.973  12.367 -1.3064  0.0582 -0.0980
 3082SOL    HW220883   0.244   2.001  12.228 -0.5358  1.6967  1.7164
 3083SOL     OW20884   0.333   4.277   3.573  0.0505 -0.3324  0.5070
 3083SOL    HW120885   0.249   4.321   3.584  0.0647 -0.2460  0.2625
 3083SOL    HW220886   0.302   4.189   3.550  0.9670 -1.2034  2.5606
 3084SOL     OW20887   2.988   0.820  10.826 -0.2851  0.3576  0.0143
 3084SOL    HW120888   3.055   0.774  10.776  1.2060  1.9037  0.5946
 3084SOL    HW220889   2.927   0.851  10.759  0.9608  0.6804 -0.9547
 3085SOL     OW20890   4.072   1.516   9.165 -0.0684  0.2477 -0.4862
 3085SOL    HW120891   4.161   1.516   9.132 -0.3502  1.5693 -1.2405
 3085SOL    HW220892   4.023   1.486   9.088 -0.5845  1.6675 -0.7035
 3086SOL     OW20893   1.757   0.337   6.637  1.0909  0.4790 -0.4263
 3086SOL    HW120894   1.755   0.262   6.578  2.6000  1.7159 -2.0200
 3086SOL    HW220895   1.683   0.392   6.613 -0.9337 -2.4028 -0.8115
 3087SOL     OW20896   1.729   2.871   2.392 -0.1521  0.3325  0.0298
 3087SOL    HW120897   1.709   2.960   2.361  0.8037  0.8078  0.7629
 3087SOL    HW220898   1.674   2.826   2.328  1.0289 -0.2532 -0.5871
 3088SOL     OW20899   1.733   4.462   7.821 -0.0316 -0.0277 -0.3847
 3088SOL    HW120900   1.649   4.442   7.864 -0.7777 -1.1082 -2.3394
 3088SOL    HW220901   1.800   4.426   7.879 -0.9703 -0.5953  0.3444
 3089SOL     OW20902   2.792   3.080   6.349  0.5990 -0.6227  0.1912
 3089SOL    HW120903   2.817   3.023   6.421  1.8715  1.0380  1.0606
 3089SOL    HW220904   2.700   3.103   6.367  1.3287  1.6661  0.9873
 3090SOL     OW20905   3.938   2.007   8.940 -0.2617 -0.0208  0.0704
 3090SOL    HW120906   3.962   1.937   8.879  0.2271  0.7360 -0.6138
 3090SOL    HW220907   3.870   1.961   8.988 -0.7727  1.4929  0.7991
 3091SOL     OW20908   0.837   4.478   2.210  0.0564  0.0762  0.4147
 3091SOL    HW120909   0.850   4.564   2.249  0.8200  0.5819 -0.9269
 3091SOL    HW220910   0.853   4.417   2.281 -0.5454  0.1848  0.6384
 3092SOL     OW20911   3.042   0.491  13.346 -0.2604 -0.1766  0.0738
 3092SOL    HW120912   2.984   0.455  13.414 -0.7754  0.2198 -0.1551
 3092SOL    HW220913   3.048   0.582  13.375  0.3404 -0.1696 -0.0820
 3093SOL     OW20914   2.529   3.887   3.871  0.0339 -0.2791 -0.6806
 3093SOL    HW120915   2.596   3.938   3.918 -1.7752 -0.8363  2.5281
 3093SOL    HW220916   2.470   3.951   3.831  2.1927  0.9459 -1.9457
 3094SOL     OW20917   0.672   0.133   8.468  0.1669 -0.0551 -0.9766
 3094SOL    HW120918   0.614   0.058   8.470 -1.0412  0.8879 -0.8282
 3094SOL    HW220919   0.712   0.124   8.381  0.7411 -2.3776 -0.4681
 3095SOL     OW20920   3.576   3.255   7.636  0.2134 -0.0746 -0.2039
 3095SOL    HW120921   3.480   3.262   7.635  0.1697 -0.6196  0.0432
 3095SOL    HW220922   3.592   3.297   7.721  0.8452  0.1538 -0.4353
 3096SOL     OW20923   2.622   4.194  12.602  0.1242 -0.1732  0.0671
 3096SOL    HW120924   2.590   4.104  12.607 -0.1190 -0.2813 -3.3298
 3096SOL    HW220925   2.709   4.186  12.563 -0.1313  3.2161 -1.1635
 3097SOL     OW20926   4.701   2.507   1.276 -0.1363 -0.0082 -0.3804
 3097SOL    HW120927   4.715   2.484   1.368 -0.9822 -0.4663 -0.3758
 3097SOL    HW220928   4.733   2.429   1.230  2.9848  0.9827  0.0826
 3098SOL     OW20929   2.881   2.046   8.420  0.1480  0.2965 -0.4444
 3098SOL    HW120930   2.851   2.115   8.479  3.0753 -0.4819  1.9549
 3098SOL    HW220931   2.959   2.084   8.380  0.2351 -0.4458 -0.9794
 3099SOL     OW20932   1.249   0.979  11.561  0.1141  0.5438  0.2563
 3099SOL    HW120933   1.334   0.938  11.576 -0.3626 -1.1000 -1.6472
 3099SOL    HW220934   1.286   1.067  11.556  0.4396  0.3945  0.0617
 3100SOL     OW20935   2.102   3.532   4.356 -0.4802  0.4388  0.2948
 3100SOL    HW120936   2.179   3.487   4.322 -1.2625 -0.5195 -0.1905
 3100SOL    HW220937   2.083   3.592   4.284  0.7509  0.5283  0.0450
 3101SOL     OW20938   0.292   2.941   9.800  0.0074  0.5548 -0.1166
 3101SOL    HW120939   0.266   2.980   9.884 -1.1612  0.8320 -0.6217
 3101SOL    HW220940   0.388   2.945   9.808  0.1520  1.2896 -2.1349
 3102SOL     OW20941   1.582   3.303   2.879  0.7979 -0.1568 -0.8355
 3102SOL    HW120942   1.511   3.365   2.896 -1.9566 -2.7267 -2.9862
 3102SOL    HW220943   1.650   3.356   2.837 -0.1990  1.6130 -0.1935
 3103SOL     OW20944   0.504   1.025   6.069  0.5347  0.0276 -1.0371
 3103SOL    HW120945   0.578   1.059   6.119 -0.8521  1.5517 -0.0353
 3103SOL    HW220946   0.510   0.944   6.120  0.8637  0.8162  0.1775
 3104SOL     OW20947   3.621   2.148  16.059  0.0141  0.1716  0.2300
 3104SOL    HW120948   3.573   2.065  16.051  1.3955 -0.3475 -2.8685
 3104SOL    HW220949   3.709   2.116  16.038 -0.2090 -0.1990 -0.1524
 3105SOL     OW20950   1.787   2.970  13.269 -0.1572 -0.1740  0.2934
 3105SOL    HW120951   1.703   2.934  13.240  0.4432 -1.5165  0.1828
 3105SOL    HW220952   1.772   3.062  13.249 -1.3582  0.3488  3.4905
 3106SOL     OW20953   2.858   3.526  12.140 -0.0271  0.2958 -0.2974
 3106SOL    HW120954   2.790   3.577  12.097  0.9559  2.7698  1.0588
 3106SOL    HW220955   2.827   3.546  12.228  2.4477  0.4797  0.5453
 3107SOL     OW20956   2.004   0.836   9.174 -0.5496 -0.3122  0.3055
 3107SOL    HW120957   1.926   0.883   9.146  0.1782  0.4848 -0.4115
 3107SOL    HW220958   2.014   0.873   9.262 -1.4837  0.7163 -0.0225
 3108SOL     OW20959   2.894   1.387   4.296  0.1757 -0.3052 -0.2743
 3108SOL    HW120960   2.898   1.458   4.360  3.3953 -0.2858 -0.4787
 3108SOL    HW220961   2.801   1.379   4.273  0.4591 -2.0658 -0.7926
 3109SOL     OW20962   3.549   3.081   3.907  0.7371  0.0724 -0.0444
 3109SOL    HW120963   3.500   3.050   3.983 -0.5266 -0.8060 -1.2261
 3109SOL    HW220964   3.479   3.089   3.842  0.3536  0.4059  0.4080
 3110SOL     OW20965   1.077   3.502   1.729  0.0283  0.2093 -0.7422
 3110SOL    HW120966   1.060   3.576   1.671 -0.0172 -0.3046 -1.3827
 3110SOL    HW220967   1.145   3.532   1.790 -0.1791  0.2819 -0.5438
 3111SOL     OW20968   0.726   2.863   5.775 -0.3231  0.1164  0.3248
 3111SOL    HW120969   0.645   2.907   5.748 -0.0460 -0.0600 -0.8138
 3111SOL    HW220970   0.712   2.862   5.869 -0.5595  2.4430  0.3297
 3112SOL     OW20971   3.160   3.659   4.092  0.0650 -0.0872 -0.2578
 3112SOL    HW120972   3.233   3.679   4.033 -0.7190  0.6698 -0.9757
 3112SOL    HW220973   3.082   3.693   4.048 -0.5640 -2.5116 -0.9976
 3113SOL     OW20974   2.163   3.694   5.053 -0.0011  0.7810  0.2334
 3113SOL    HW120975   2.152   3.763   4.987  1.0262  1.2049  0.5013
 3113SOL    HW220976   2.233   3.646   5.009  0.3024  2.8755 -1.6163
 3114SOL     OW20977   3.971   1.014   4.577  0.1211  0.3592  0.9391
 3114SOL    HW120978   4.026   1.091   4.594  0.3993  0.2883  0.3740
 3114SOL    HW220979   3.890   1.045   4.617 -1.1693 -0.8802 -0.7152
 3115SOL     OW20980   2.573   3.317   6.520  0.5284  0.0035 -0.1802
 3115SOL    HW120981   2.607   3.280   6.601  0.5446  1.7977  0.6441
 3115SOL    HW220982   2.564   3.409   6.545 -0.2836  0.0571 -0.6482
 3116SOL     OW20983   4.446   2.334   0.091 -0.3631 -0.6591 -0.1574
 3116SOL    HW120984   4.377   2.329   0.024 -0.9842 -0.6608  0.4875
 3116SOL    HW220985   4.397   2.306   0.168  0.2654 -0.2440  0.3846
 3117SOL     OW20986   3.437   2.721  16.642 -0.1761 -0.3802 -0.3599
 3117SOL    HW120987   3.446   2.776  16.720  1.3679 -1.0392 -0.0719
 3117SOL    HW220988   3.529   2.701  16.625  0.1638 -0.5400  1.6603
 3118SOL     OW20989   0.432   1.036  12.933 -0.2809  0.2228 -0.1935
 3118SOL    HW120990   0.361   0.977  12.959  0.0217 -0.5285 -1.0594
 3118SOL    HW220991   0.502   1.028  12.998  0.0676 -1.4693 -0.7723
 3119SOL     OW20992   2.869   1.492   6.581  0.0692  0.1387 -0.2268
 3119SOL    HW120993   2.946   1.453   6.540 -0.2570 -3.8713  3.0777
 3119SOL    HW220994   2.854   1.565   6.521 -1.5850  0.1113  0.1470
 3120SOL     OW20995   0.729   2.603   7.359  0.3254  0.2059  0.1825
 3120SOL    HW120996   0.653   2.661   7.347  0.4492  0.6277  1.4373
 3120SOL    HW220997   0.750   2.564   7.274  0.7503  2.6013 -0.8142
 3121SOL     OW20998   2.445   3.985   2.491  0.4523  0.3428  0.1195
 3121SOL    HW120999   2.421   3.896   2.467  0.4959 -0.0972  1.6837
 3121SOL    HW221000   2.403   3.994   2.577 -1.3987  3.6903 -1.1204
 3122SOL     OW21001   2.521   2.187   8.424 -0.3025  0.2048  0.0894
 3122SOL    HW121002   2.609   2.224   8.419  1.0766 -3.0745  0.3398
 3122SOL    HW221003   2.482   2.253   8.481  0.3225  0.7617 -0.1338
 3123SOL     OW21004   3.707   3.626  14.774 -0.2073 -0.0792 -1.1188
 3123SOL    HW121005   3.620   3.589  14.791  0.9580 -1.6342  1.3827
 3123SOL    HW221006   3.684   3.677  14.696  0.4175 -2.1719 -2.6808
 3124SOL     OW21007   0.403   3.171   2.252  0.1840  0.3554  0.1270
 3124SOL    HW121008   0.423   3.176   2.158 -0.6819  0.3168 -0.0567
 3124SOL    HW221009   0.450   3.095   2.285 -2.2202 -1.1243  0.1253
 3125SOL     OW21010   0.840   2.090   6.054 -0.3700  0.0959  0.4269
 3125SOL    HW121011   0.850   1.996   6.040 -1.1428  0.3997 -2.0926
 3125SOL    HW221012   0.898   2.129   5.988 -1.5827  0.4835 -0.3965
 3126SOL     OW21013   2.866   0.450   8.634 -0.2365  0.1558  0.0107
 3126SOL    HW121014   2.830   0.537   8.649 -0.2247  0.3923 -1.3574
 3126SOL    HW221015   2.833   0.403   8.711  1.6064 -1.0901  0.0384
 3127SOL     OW21016   0.629   4.004   6.729  0.7372  0.1096 -0.4400
 3127SOL    HW121017   0.635   4.100   6.726 -1.4931  0.3168  1.8023
 3127SOL    HW221018   0.696   3.983   6.794  1.6839 -1.2484 -1.8679
 3128SOL     OW21019   3.149   2.629   0.808 -0.3025 -0.3798 -0.3437
 3128SOL    HW121020   3.182   2.683   0.737  3.9076 -0.0483  1.8761
 3128SOL    HW221021   3.158   2.542   0.769 -1.4263 -0.2949 -0.7891
 3129SOL     OW21022   3.248   4.428  12.362 -0.0250 -0.4319 -0.0457
 3129SOL    HW121023   3.172   4.415  12.419  0.2724  0.1427  0.4720
 3129SOL    HW221024   3.212   4.483  12.292  0.8092  0.5012  0.2830
 3130SOL     OW21025   4.526   4.018   5.493 -0.5073  0.4271  0.4060
 3130SOL    HW121026   4.494   3.961   5.423  0.3621  1.6909 -1.0133
 3130SOL    HW221027   4.445   4.068   5.493 -0.3458  0.6910  0.4869
 3131SOL     OW21028   4.090   3.916   6.861 -0.0860  0.2729 -0.3452
 3131SOL    HW121029   4.028   3.887   6.928  1.7484 -1.1558  0.7751
 3131SOL    HW221030   4.093   3.849   6.792 -0.8661  1.5529 -1.6023
 3132SOL     OW21031   1.403   4.105   6.719 -0.0321  0.3011 -0.4236
 3132SOL    HW121032   1.375   4.173   6.781 -2.5148 -1.4003  0.3383
 3132SOL    HW221033   1.344   4.131   6.648  0.4707  0.5490 -0.7428
 3133SOL     OW21034   3.658   0.690   6.387  0.1862 -0.0261  0.3545
 3133SOL    HW121035   3.676   0.685   6.293  2.8503 -0.1939  0.8963
 3133SOL    HW221036   3.665   0.600   6.417  1.8820 -0.1595 -0.4552
 3134SOL     OW21037   2.768   1.345   2.211 -0.5372 -0.1076  0.8625
 3134SOL    HW121038   2.816   1.313   2.287 -1.2572 -0.4377  1.1747
 3134SOL    HW221039   2.694   1.286   2.223  0.8494 -1.7166  1.6312
 3135SOL     OW21040   0.879   4.269  11.369 -0.0894  0.2729 -0.5303
 3135SOL    HW121041   0.942   4.197  11.375  2.0852  2.3478  1.6016
 3135SOL    HW221042   0.882   4.317  11.452  2.0596  0.0199 -0.4811
 3136SOL     OW21043   0.803   3.895  10.015 -0.3709  0.3210  0.3426
 3136SOL    HW121044   0.787   3.803  10.040  0.8377  0.5189  1.8422
 3136SOL    HW221045   0.763   3.945  10.087 -1.1023  0.7179 -0.3394
 3137SOL     OW21046   4.540   2.543   9.325  0.1949  0.3881  0.0159
 3137SOL    HW121047   4.501   2.456   9.319 -2.4076  1.6493 -1.3975
 3137SOL    HW221048   4.616   2.532   9.267 -0.2624  1.3419 -0.7562
 3138SOL     OW21049   1.875   3.814   2.541 -0.1825  0.0123 -0.0886
 3138SOL    HW121050   1.879   3.740   2.480  1.8999 -0.0820  0.1644
 3138SOL    HW221051   1.932   3.878   2.499 -1.7108 -0.3931 -2.7828
 3139SOL     OW21052   2.220   0.553   2.255 -0.4730 -0.4510 -0.7169
 3139SOL    HW121053   2.313   0.560   2.235  0.2944 -1.2654  2.5022
 3139SOL    HW221054   2.182   0.558   2.167  1.3133  1.3290 -1.3808
 3140SOL     OW21055   3.918   2.299   0.927  0.1239 -0.2298 -0.2606
 3140SOL    HW121056   3.967   2.262   0.854  0.3025  0.4174 -0.4672
 3140SOL    HW221057   3.834   2.265   0.896  0.1653 -1.2579  0.7607
 3141SOL     OW21058   3.096   4.381   1.795  0.2847 -0.1263  0.0743
 3141SOL    HW121059   3.059   4.384   1.883  0.4946  0.4798  0.1455
 3141SOL    HW221060   3.055   4.308   1.750  0.9769  0.4682 -1.5297
 3142SOL     OW21061   3.124   3.865   9.513 -0.4907 -0.5554 -0.5528
 3142SOL    HW121062   3.133   3.776   9.549  1.6174  0.1191  0.5467
 3142SOL    HW221063   3.184   3.869   9.440 -1.2317  0.6112 -1.0836
 3143SOL     OW21064   0.705   0.303   9.443  0.4197 -0.0477 -0.1165
 3143SOL    HW121065   0.662   0.387   9.461  1.5861 -0.0813  2.7753
 3143SOL    HW221066   0.700   0.297   9.347  1.3342 -1.6975 -0.0617
 3144SOL     OW21067   3.499   2.295  13.798 -0.2110  0.9026  0.6087
 3144SOL    HW121068   3.437   2.296  13.870 -0.0381  0.7086  0.7572
 3144SOL    HW221069   3.583   2.273  13.838  1.0101 -0.2737 -2.6199
 3145SOL     OW21070   0.533   1.420   9.731 -0.3704  0.0888 -0.4538
 3145SOL    HW121071   0.594   1.351   9.707 -1.2960 -0.4560 -1.2457
 3145SOL    HW221072   0.553   1.487   9.665  0.3185  0.3558  0.0305
 3146SOL     OW21073   4.683   0.196   8.025 -0.1147  0.4122 -0.4100
 3146SOL    HW121074   4.699   0.279   7.979 -0.0759  0.0871 -0.9913
 3146SOL    HW221075   4.615   0.161   7.967 -0.7993 -0.7511  1.1170
 3147SOL     OW21076   1.428   4.383   2.980 -0.4213 -0.8097  1.2322
 3147SOL    HW121077   1.522   4.366   2.969 -0.6042 -0.4440 -1.0278
 3147SOL    HW221078   1.423   4.378   3.075 -1.3177  0.1578  1.2343
 3148SOL     OW21079   1.079   2.013   7.768  0.1532 -0.4215  0.4644
 3148SOL    HW121080   0.990   1.996   7.738  1.0600 -0.2981 -2.3403
 3148SOL    HW221081   1.084   1.960   7.848  0.3913 -0.2103  0.5884
 3149SOL     OW21082   0.999   1.784   2.107  0.1116 -0.0686  0.3608
 3149SOL    HW121083   0.974   1.706   2.057  0.7444 -0.8357  1.2361
 3149SOL    HW221084   0.960   1.771   2.193  2.0403  1.1434  1.4251
 3150SOL     OW21085   0.984   1.940   7.028 -0.4092 -0.5611  0.0093
 3150SOL    HW121086   1.076   1.918   7.009 -0.8438 -3.9840  1.9710
 3150SOL    HW221087   0.940   1.873   6.977  0.5982 -2.0620  1.0935
 3151SOL     OW21088   1.218   2.635   6.480  0.5654  0.4183 -0.3381
 3151SOL    HW121089   1.310   2.612   6.492  0.9456  1.7166 -0.7055
 3151SOL    HW221090   1.233   2.729   6.489  1.9646  0.0338  1.3526
 3152SOL     OW21091   2.316   1.817   1.792 -0.1659 -0.1751 -0.0315
 3152SOL    HW121092   2.308   1.905   1.828 -0.5846  0.2404 -1.1378
 3152SOL    HW221093   2.248   1.819   1.725 -1.2190  2.2557  1.1126
 3153SOL     OW21094   2.561   2.501   8.334 -0.3683  0.1191 -0.2987
 3153SOL    HW121095   2.519   2.502   8.249  0.5727 -0.1637 -0.7695
 3153SOL    HW221096   2.483   2.525   8.383  1.7895  1.5205  2.4803
 3154SOL     OW21097   1.837   1.596  16.242 -0.0284  0.8522  0.2110
 3154SOL    HW121098   1.831   1.676  16.294  1.3425  1.1370 -0.0695
 3154SOL    HW221099   1.756   1.599  16.192 -0.9352 -0.6444  1.5599
 3155SOL     OW21100   4.702   0.803   9.206  0.4586  0.5501 -0.2486
 3155SOL    HW121101   4.694   0.715   9.170  0.7955  1.0314 -1.4735
 3155SOL    HW221102   0.057   0.815   9.190  0.6305  0.5507  0.7409
 3156SOL     OW21103   4.536   1.060   5.386  0.4718 -0.0866 -0.1410
 3156SOL    HW121104   4.540   1.064   5.482  1.0471 -0.1225 -0.1670
 3156SOL    HW221105   4.448   1.087   5.360  0.4066  0.0879  0.2552
 3157SOL     OW21106   4.371   0.018   8.365  0.4237  0.5122 -0.1533
 3157SOL    HW121107   4.362   4.685   8.428  2.3703  2.5288  2.3905
 3157SOL    HW221108   4.460   0.006   8.333 -0.6580 -0.4892 -2.7224
 3158SOL     OW21109   2.750   4.309   7.995  0.1702 -0.2479 -0.0925
 3158SOL    HW121110   2.817   4.377   8.006 -0.3923  0.6723 -2.1376
 3158SOL    HW221111   2.693   4.343   7.925  1.5157  0.0451 -1.0355
 3159SOL     OW21112   1.792   3.281   5.072  0.3844 -0.1759 -0.6648
 3159SOL    HW121113   1.874   3.238   5.093  0.5929  1.0713  1.0700
 3159SOL    HW221114   1.779   3.259   4.980 -2.6102  0.1446 -0.3349
 3160SOL     OW21115   2.700   4.460   8.614 -0.0145  0.5629 -0.2957
 3160SOL    HW121116   2.717   4.472   8.521 -1.4805  0.9232 -0.5171
 3160SOL    HW221117   2.689   4.365   8.621  0.3041  0.5964  0.7323
 3161SOL     OW21118   2.586   1.342  10.656 -0.1951 -0.0116 -0.1845
 3161SOL    HW121119   2.597   1.294  10.738  1.0298  0.5599 -0.0153
 3161SOL    HW221120   2.490   1.344  10.650 -0.1139 -0.5445 -1.8843
 3162SOL     OW21121   2.344   0.696  12.742 -0.3909  0.0813  0.1647
 3162SOL    HW121122   2.343   0.792  12.740  1.2172  0.0999  0.2733
 3162SOL    HW221123   2.351   0.662  12.652 -2.0622 -2.6964  1.0832
 3163SOL     OW21124   4.502   1.055  11.091  0.6174 -0.1556  0.6833
 3163SOL    HW121125   4.526   1.032  11.181 -0.0302 -1.6455  0.4766
 3163SOL    HW221126   4.532   0.973  11.050  2.2471  0.7490  0.0593
 3164SOL     OW21127   2.026   1.601   3.995 -0.7284  0.1187  0.2274
 3164SOL    HW121128   2.100   1.542   4.010  1.4819  2.6485 -0.8511
 3164SOL    HW221129   2.038   1.653   4.074  1.4835  0.1385 -0.1425
 3165SOL     OW21130   4.175   2.729  16.515 -0.1438 -0.2304 -0.5769
 3165SOL    HW121131   4.249   2.766  16.564 -1.1955  1.3228 -0.1287
 3165SOL    HW221132   4.190   2.747  16.422 -1.4617  1.4394 -0.4748
 3166SOL     OW21133   0.506   2.513   7.504  0.5141  0.3086 -0.2006
 3166SOL    HW121134   0.521   2.598   7.545 -1.2201  0.4263  0.1766
 3166SOL    HW221135   0.596   2.497   7.474  1.3362  2.6733  0.9692
 3167SOL     OW21136   3.249   1.025   3.929 -0.2936 -0.0879 -0.1868
 3167SOL    HW121137   3.241   1.027   4.024 -1.8865 -1.3270 -0.2804
 3167SOL    HW221138   3.320   1.087   3.912 -1.4822  1.0052 -1.1472
 3168SOL     OW21139   3.772   1.365   5.720 -0.0988  0.5828  0.6448
 3168SOL    HW121140   3.743   1.352   5.629  1.0460 -1.3592  0.5557
 3168SOL    HW221141   3.691   1.346   5.768  0.0205 -0.2059  0.5352
 3169SOL     OW21142   1.215   4.682   2.056  0.2428 -0.0138 -0.2479
 3169SOL    HW121143   1.256   4.599   2.036 -0.7613 -0.7391  0.7116
 3169SOL    HW221144   1.232   4.690   2.150  1.0581 -1.4091 -0.2860
 3170SOL     OW21145   1.082   3.036   8.289 -0.8078  0.0865  0.5000
 3170SOL    HW121146   1.084   3.002   8.199 -0.0402  0.6452  0.3006
 3170SOL    HW221147   1.002   2.990   8.311 -0.5974  0.3403  1.7752
 3171SOL     OW21148   0.989   1.701   4.480  0.2213  0.2721  0.3027
 3171SOL    HW121149   1.074   1.733   4.508  0.2400 -0.2974  0.8867
 3171SOL    HW221150   0.995   1.724   4.388 -0.9909 -0.4305  0.0348
 3172SOL     OW21151   2.049   4.035  12.774  0.3865  0.7142  0.1922
 3172SOL    HW121152   1.972   3.999  12.731  0.8245 -2.6684  2.1925
 3172SOL    HW221153   2.125   4.012  12.719  0.2666 -2.1487  1.2212
 3173SOL     OW21154   2.163   4.544  14.635 -0.0674 -0.6488 -0.7059
 3173SOL    HW121155   2.085   4.579  14.592 -0.5199  0.2719  0.8779
 3173SOL    HW221156   2.128   4.527  14.722 -2.1995  0.5854 -1.3085
 3174SOL     OW21157   1.580   3.103   2.273  0.2840 -0.5013 -0.0935
 3174SOL    HW121158   1.527   3.171   2.314  2.6904  0.1593  1.9695
 3174SOL    HW221159   1.565   3.109   2.178  2.5430 -1.0072 -0.4906
 3175SOL     OW21160   0.626   1.565  13.874 -0.0449 -0.1246 -0.0537
 3175SOL    HW121161   0.657   1.541  13.786 -0.8077 -3.4030  0.5768
 3175SOL    HW221162   0.566   1.639  13.864  1.5217  1.1152 -0.1165
 3176SOL     OW21163   0.252   2.924   4.245  0.0104 -0.4484 -0.2205
 3176SOL    HW121164   0.300   3.005   4.230 -2.4064  1.0159  0.0323
 3176SOL    HW221165   0.215   2.946   4.330 -3.3902 -1.1129 -1.5140
 3177SOL     OW21166   2.874   0.049  11.621 -0.2020 -0.0171 -0.2915
 3177SOL    HW121167   2.805   0.106  11.655 -1.5191 -2.6008  1.3880
 3177SOL    HW221168   2.942   0.095  11.672  0.2396 -1.5316  0.4910
 3178SOL     OW21169   4.397   1.635   7.816 -0.1969 -0.0487  0.1562
 3178SOL    HW121170   4.407   1.599   7.904  1.1517 -0.0775 -0.0114
 3178SOL    HW221171   4.303   1.652   7.818  0.2544  2.2409  1.8127
 3179SOL     OW21172   0.765   4.056  12.405  0.2358  0.0949 -0.2382
 3179SOL    HW121173   0.796   4.024  12.320  0.3367 -1.4583  0.3813
 3179SOL    HW221174   0.688   4.005  12.430  0.2430  0.7301  1.1229
 3180SOL     OW21175   2.233   2.314   3.793 -0.0904 -0.4823  0.0086
 3180SOL    HW121176   2.262   2.322   3.702  1.5439 -2.4971  0.3488
 3180SOL    HW221177   2.313   2.328   3.844 -0.1523  0.2619 -0.0975
 3181SOL     OW21178   0.948   4.261   6.303 -0.5244  0.0844  0.3037
 3181SOL    HW121179   0.901   4.332   6.348 -0.0484  0.0880  0.7971
 3181SOL    HW221180   0.953   4.294   6.213 -0.6637  2.0831  1.0128
 3182SOL     OW21181   3.948   2.376  12.864 -0.0665 -0.0334  0.1725
 3182SOL    HW121182   3.942   2.418  12.779 -0.7789  0.7469  0.6090
 3182SOL    HW221183   3.969   2.450  12.920 -0.3465 -1.2497  1.8875
 3183SOL     OW21184   0.238   1.736   9.876 -0.6422  0.2019 -0.1803
 3183SOL    HW121185   0.155   1.731   9.829 -1.7151  0.7478  1.6536
 3183SOL    HW221186   0.236   1.810   9.936  0.9969  0.2479 -0.1855
 3184SOL     OW21187   1.813   4.026   1.234 -0.1476 -0.3096  0.3249
 3184SOL    HW121188   1.879   4.077   1.282 -1.6558  0.4937  1.5411
 3184SOL    HW221189   1.739   4.073   1.272  0.3097  0.5677  0.1516
 3185SOL     OW21190   4.427   4.216  12.576  0.7185  0.6959  0.1290
 3185SOL    HW121191   4.333   4.195  12.571  1.1313 -1.1323 -0.1885
 3185SOL    HW221192   4.455   4.154  12.643  0.2733 -0.7694 -1.0393
 3186SOL     OW21193   0.835   1.769  16.490  0.0126 -0.6153 -0.4708
 3186SOL    HW121194   0.748   1.806  16.475 -0.2676 -1.7051 -1.4751
 3186SOL    HW221195   0.838   1.742  16.582 -0.5103  0.8948 -0.0054
 3187SOL     OW21196   2.201   3.538   5.624  0.5188 -0.2381 -0.4818
 3187SOL    HW121197   2.108   3.518   5.639  0.5890  0.0476  0.3547
 3187SOL    HW221198   2.207   3.590   5.544  1.4203 -1.1512 -1.0004
 3188SOL     OW21199   1.491   2.478   4.746 -0.1283  0.2156 -0.5073
 3188SOL    HW121200   1.495   2.453   4.839 -1.6608  2.7945  0.2658
 3188SOL    HW221201   1.539   2.561   4.750  1.1842 -0.5064 -1.4406
 3189SOL     OW21202   0.467   2.398   1.239  0.3727 -0.1428 -0.1024
 3189SOL    HW121203   0.484   2.424   1.330 -0.1064 -0.4414  0.0687
 3189SOL    HW221204   0.390   2.449   1.213  0.8232  0.1656 -0.8564
 3190SOL     OW21205   3.920   4.414   7.347 -0.2031 -0.5163 -0.6607
 3190SOL    HW121206   3.825   4.418   7.360 -0.3410 -1.1078 -1.4665
 3190SOL    HW221207   3.949   4.453   7.430 -1.8632  0.6223 -0.6169
 3191SOL     OW21208   0.114   2.800   2.270 -0.0584 -0.3904 -0.4770
 3191SOL    HW121209   0.208   2.781   2.263  0.0051 -0.5515  0.7428
 3191SOL    HW221210   0.083   2.818   2.181  2.1557  2.0766 -0.7629
 3192SOL     OW21211   3.683   3.889   3.645  0.2424 -0.2773  0.2878
 3192SOL    HW121212   3.744   3.947   3.691  0.8643  0.3828 -1.3488
 3192SOL    HW221213   3.627   3.860   3.716 -0.9016 -1.4265 -1.0792
 3193SOL     OW21214   0.839   1.723   6.323  0.0449 -0.0737 -0.1242
 3193SOL    HW121215   0.823   1.809   6.363  0.5708 -0.5549  1.1338
 3193SOL    HW221216   0.926   1.742   6.289 -0.3400 -0.9446 -1.5817
 3194SOL     OW21217   0.934   1.048  17.675 -0.7181 -0.1205 -0.4954
 3194SOL    HW121218   1.011   1.091  17.638 -0.8603 -0.4196 -1.1490
 3194SOL    HW221219   0.884   1.122  17.710 -1.9527 -1.1370 -0.1237
 3195SOL     OW21220   3.403   0.754  12.420  0.6200 -0.3616 -0.1111
 3195SOL    HW121221   3.369   0.684  12.364 -0.3856 -1.6551  2.1295
 3195SOL    HW221222   3.399   0.824  12.354 -0.6114  2.4256  2.8956
 3196SOL     OW21223   1.378   2.178   6.876  0.0416 -0.5067 -0.6963
 3196SOL    HW121224   1.428   2.236   6.934 -1.4281  0.4818 -0.4016
 3196SOL    HW221225   1.385   2.224   6.792 -0.8204  0.0902 -0.4470
 3197SOL     OW21226   1.413   3.863   0.774  0.7971  0.2477  0.4443
 3197SOL    HW121227   1.426   3.911   0.692 -0.5411 -0.6076 -0.2784
 3197SOL    HW221228   1.501   3.856   0.811  0.5266 -0.2245  1.0099
 3198SOL     OW21229   1.921   4.001   3.974  0.0042 -0.3409  0.1170
 3198SOL    HW121230   1.860   4.068   4.006 -1.0987  0.2961 -3.3051
 3198SOL    HW221231   1.989   4.001   4.041  0.0663 -2.6593  0.0325
 3199SOL     OW21232   3.626   4.548   5.431 -0.6966 -0.1315  0.0456
 3199SOL    HW121233   3.689   4.602   5.478 -1.9148  0.1433  1.3500
 3199SOL    HW221234   3.589   4.496   5.502 -0.2868  1.4687  1.4343
 3200SOL     OW21235   1.131   1.937   1.917 -0.4260  0.0560  0.2901
 3200SOL    HW121236   1.130   2.021   1.963  3.3567  0.0278  0.4346
 3200SOL    HW221237   1.090   1.879   1.981  0.5480  0.6374  1.4519
 3201SOL     OW21238   2.100   4.496  14.948  0.3789  0.7192  0.5648
 3201SOL    HW121239   2.010   4.487  14.980 -0.1449  1.2262 -0.7445
 3201SOL    HW221240   2.125   4.408  14.918 -1.0659  0.9344 -1.3354
 3202SOL     OW21241   1.838   1.729  14.724  0.1212  0.1958 -1.0702
 3202SOL    HW121242   1.805   1.807  14.769  2.0643 -1.3787  3.0343
 3202SOL    HW221243   1.763   1.670  14.730 -0.7176  1.3298 -0.3384
 3203SOL     OW21244   0.692   3.529   3.659  0.0635 -0.1612  0.4422
 3203SOL    HW121245   0.597   3.521   3.670  0.0482 -1.3168 -0.5811
 3203SOL    HW221246   0.699   3.530   3.564 -0.6228  0.3166  0.3934
 3204SOL     OW21247   1.557   2.389   1.506  0.5915  0.0631  0.2866
 3204SOL    HW121248   1.621   2.321   1.487  1.2088  0.7422 -0.0718
 3204SOL    HW221249   1.522   2.401   1.418  0.5613  1.6489  0.5235
 3205SOL     OW21250   2.933   2.920   8.712 -0.0235  0.0511  0.2331
 3205SOL    HW121251   2.960   2.986   8.647  0.4518  2.1232  2.5330
 3205SOL    HW221252   2.880   2.974   8.771  1.5697  0.0013  1.7151
 3206SOL     OW21253   1.708   3.367   8.769  0.2569 -0.1498  0.2672
 3206SOL    HW121254   1.803   3.354   8.770  0.2885  0.1474  0.8154
 3206SOL    HW221255   1.698   3.423   8.845  1.0062 -1.3813  1.2643
 3207SOL     OW21256   2.168   1.120   4.354 -0.1158 -0.0099 -0.0778
 3207SOL    HW121257   2.169   1.037   4.401 -0.5041 -1.4857 -2.7206
 3207SOL    HW221258   2.076   1.134   4.333 -0.3830  0.8337  1.6745
 3208SOL     OW21259   3.783   3.144   7.484  0.0497  0.6617 -0.3457
 3208SOL    HW121260   3.718   3.210   7.508 -1.1883 -0.3562 -0.8599
 3208SOL    HW221261   3.759   3.130   7.392  1.4439  0.1710 -0.6345
 3209SOL     OW21262   0.928   3.447   6.662 -0.5426  0.2583  0.7434
 3209SOL    HW121263   0.985   3.401   6.600 -0.7425  1.2698 -0.1917
 3209SOL    HW221264   0.881   3.512   6.610  2.4343  1.1692 -0.8718
 3210SOL     OW21265   1.205   3.654   2.569  0.4140  0.7086  0.5223
 3210SOL    HW121266   1.136   3.710   2.603  1.8084  1.6599  1.8038
 3210SOL    HW221267   1.202   3.692   2.482  1.3114  0.4521  0.3780
 3211SOL     OW21268   0.268   2.427   6.209  0.6824 -1.0670  0.0550
 3211SOL    HW121269   0.173   2.441   6.203  0.5617 -1.9000  0.0375
 3211SOL    HW221270   0.282   2.402   6.301  1.8614 -0.2955  0.0770
 3212SOL     OW21271   2.221   1.087   2.284 -0.0652  0.3117 -0.0039
 3212SOL    HW121272   2.215   1.178   2.313 -0.7930  0.5018 -0.7550
 3212SOL    HW221273   2.158   1.034   2.333  0.0154  2.1668  2.1187
 3213SOL     OW21274   3.552   1.292   7.167  0.0430 -0.5081 -0.0479
 3213SOL    HW121275   3.636   1.261   7.201 -0.4281 -0.6717  0.9528
 3213SOL    HW221276   3.505   1.209   7.180  0.5839 -0.7687  0.2316
 3214SOL     OW21277   0.280   0.909   4.909 -0.8650  0.3208  0.5294
 3214SOL    HW121278   0.281   0.954   4.825  0.5554 -2.7498 -1.1298
 3214SOL    HW221279   0.362   0.933   4.952 -0.3904  0.3971 -0.4201
 3215SOL     OW21280   3.062   2.688   5.976  0.3647 -0.2856  0.1187
 3215SOL    HW121281   3.016   2.614   5.936 -0.3061 -0.3003  0.9159
 3215SOL    HW221282   3.099   2.732   5.899  0.1198  1.3440  0.9487
 3216SOL     OW21283   1.554   4.294   2.078  0.5129  0.1200 -0.1058
 3216SOL    HW121284   1.552   4.378   2.033 -0.5114 -0.9519 -2.0621
 3216SOL    HW221285   1.464   4.261   2.073 -0.3110  2.3035  0.3739
 3217SOL     OW21286   1.611   2.483   3.289 -0.1687 -0.5457 -0.0019
 3217SOL    HW121287   1.545   2.443   3.346 -0.2072 -0.3332  0.1024
 3217SOL    HW221288   1.661   2.415   3.244  0.6509 -0.4549  0.7729
 3218SOL     OW21289   4.409   2.114  16.416  0.0487  0.1781  0.1930
 3218SOL    HW121290   4.354   2.086  16.489 -1.7578  0.3140 -1.1077
 3218SOL    HW221291   4.390   2.056  16.343  0.3411 -0.2846  0.4887
 3219SOL     OW21292   0.984   3.163  15.952 -0.3970 -0.2033  0.7802
 3219SOL    HW121293   0.968   3.247  15.995  0.0488 -0.6840  1.8692
 3219SOL    HW221294   1.049   3.188  15.887  0.6134 -2.7017  0.8425
 3220SOL     OW21295   1.579   1.461  11.155  0.0902  0.0116  0.3199
 3220SOL    HW121296   1.525   1.495  11.227 -0.7184 -1.5552  0.4573
 3220SOL    HW221297   1.630   1.538  11.131  0.9005 -0.2590  1.1643
 3221SOL     OW21298   0.970   2.953   9.032 -0.6111 -0.5691 -0.2961
 3221SOL    HW121299   1.063   2.964   9.009 -0.9275 -0.4412 -1.5145
 3221SOL    HW221300   0.930   2.946   8.945 -3.1741  0.9082  0.7911
 3222SOL     OW21301   0.726   3.538   4.795  0.5872  0.4108  0.3721
 3222SOL    HW121302   0.692   3.449   4.795  1.4813  0.0757  0.4957
 3222SOL    HW221303   0.659   3.577   4.739 -0.7110 -0.7163  1.1463
 3223SOL     OW21304   2.883   2.458  12.273 -0.0426 -0.6244 -0.0565
 3223SOL    HW121305   2.948   2.418  12.214 -0.2862 -2.6661  1.0419
 3223SOL    HW221306   2.860   2.385  12.331  1.3276 -1.1618 -0.1679
 3224SOL     OW21307   0.194   3.133  15.385 -0.3127 -0.2811  0.1236
 3224SOL    HW121308   0.163   3.182  15.462 -2.8796  1.1161 -1.7818
 3224SOL    HW221309   0.263   3.193  15.357  0.2475 -0.1692  1.7530
 3225SOL     OW21310   4.696   1.592   4.525 -0.3269  0.6716 -0.0723
 3225SOL    HW121311   0.026   1.620   4.587  0.6648 -1.5129 -0.2081
 3225SOL    HW221312   4.645   1.673   4.525 -1.2723  0.0508 -1.4356
 3226SOL     OW21313   4.561   2.897   7.376  0.1856 -0.0280  0.1426
 3226SOL    HW121314   4.496   2.922   7.442 -0.5524  0.8178 -0.8872
 3226SOL    HW221315   4.578   2.977   7.326  0.1554 -0.6303 -0.8318
 3227SOL     OW21316   0.215   4.147   4.387  0.0186  0.4119 -0.1811
 3227SOL    HW121317   0.133   4.170   4.343  0.5023  1.2008 -0.6603
 3227SOL    HW221318   0.275   4.118   4.319 -0.5949 -0.3740 -0.3771
 3228SOL     OW21319   2.807   2.727  12.070 -0.0414  0.3012 -0.1823
 3228SOL    HW121320   2.718   2.720  12.034 -0.8011 -0.1704  1.8013
 3228SOL    HW221321   2.838   2.637  12.077 -1.1645 -0.2597 -2.4429
 3229SOL     OW21322   3.724   2.281   3.382  0.1541  0.3507 -0.3778
 3229SOL    HW121323   3.813   2.282   3.346 -0.1882 -3.7564 -1.2997
 3229SOL    HW221324   3.701   2.190   3.365 -1.0661  0.3507  1.2895
 3230SOL     OW21325   0.082   4.661   8.517  0.1908  0.5344 -0.2680
 3230SOL    HW121326   0.024   4.721   8.564 -2.0860 -1.7140 -0.2270
 3230SOL    HW221327   0.016   4.600   8.485 -0.3765 -0.6098  3.1334
 3231SOL     OW21328   0.830   3.321  17.047  0.2640 -0.2720  0.6568
 3231SOL    HW121329   0.801   3.245  16.997  0.9024 -0.8431  1.1515
 3231SOL    HW221330   0.745   3.345  17.084  0.8028  0.3631  1.4874
 3232SOL     OW21331   4.449   4.065  13.759 -0.0559  0.5711  0.2786
 3232SOL    HW121332   4.406   4.024  13.683 -1.1738  0.7142  0.8299
 3232SOL    HW221333   4.503   3.992  13.789 -3.5359 -1.3222  1.9304
 3233SOL     OW21334   0.741   0.078   8.217 -0.0073  0.6177 -0.1371
 3233SOL    HW121335   0.814   0.084   8.156 -0.3379  1.0514 -0.4951
 3233SOL    HW221336   0.761   4.730   8.252 -2.6526 -0.8967 -2.3439
 3234SOL     OW21337   3.054   3.947   2.476 -0.2989 -0.0887  0.2860
 3234SOL    HW121338   3.011   3.947   2.390 -1.1170  0.4120  0.6976
 3234SOL    HW221339   3.139   3.984   2.452 -0.2857 -0.9613 -1.0582
 3235SOL     OW21340   4.381   3.297   4.700 -0.0623  0.0970  0.6978
 3235SOL    HW121341   4.341   3.287   4.613 -2.9983  0.3930  2.0201
 3235SOL    HW221342   4.376   3.205   4.724  1.4559  0.2289  1.5221
 3236SOL     OW21343   1.181   0.682   2.052  0.4660 -0.0940  0.2567
 3236SOL    HW121344   1.270   0.650   2.038  0.9862  1.1040  0.8317
 3236SOL    HW221345   1.146   0.607   2.101 -0.2494  1.2551  1.7865
 3237SOL     OW21346   1.913   3.961   6.381 -0.1759  0.1444  0.6541
 3237SOL    HW121347   1.872   3.880   6.351  0.0873  0.9794 -1.8747
 3237SOL    HW221348   1.855   3.992   6.452 -0.2224  0.8455  0.3079
 3238SOL     OW21349   0.124   0.773   3.963 -0.6852 -0.0118  0.1112
 3238SOL    HW121350   0.185   0.731   4.024 -1.3360  2.2571  2.3356
 3238SOL    HW221351   0.047   0.718   3.976  1.2152 -2.6120  0.4872
 3239SOL     OW21352   0.860   2.179   4.390  0.6583 -0.0671  0.4625
 3239SOL    HW121353   0.903   2.131   4.319 -1.7803 -1.2860 -0.1778
 3239SOL    HW221354   0.874   2.114   4.460 -2.2632 -0.6773  0.4935
 3240SOL     OW21355   3.930   1.020  14.791 -0.0627  0.0393 -0.9993
 3240SOL    HW121356   3.976   0.983  14.866 -0.7279  0.2251 -0.5049
 3240SOL    HW221357   3.849   0.969  14.791  0.1708 -0.3486 -1.9011
 3241SOL     OW21358   4.345   4.640   3.282  0.2431  0.6536  0.1479
 3241SOL    HW121359   4.280   4.668   3.217 -0.2030  1.7730  1.0884
 3241SOL    HW221360   4.423   4.686   3.251 -0.0215  0.3263 -1.0140
 3242SOL     OW21361   3.623   4.124   3.902 -0.4331 -0.1728  0.4812
 3242SOL    HW121362   3.602   4.159   3.816 -0.0528  1.6085  1.1144
 3242SOL    HW221363   3.712   4.092   3.887 -0.2275  0.3610  0.5640
 3243SOL     OW21364   3.581   1.281   4.715  0.1077  0.3864  0.0736
 3243SOL    HW121365   3.633   1.357   4.739  0.6838 -0.4404  1.4522
 3243SOL    HW221366   3.558   1.301   4.624  0.9153 -2.4597 -0.7810
 3244SOL     OW21367   2.694   0.103  17.189 -0.7503  0.3343  0.3030
 3244SOL    HW121368   2.731   0.082  17.104 -2.6432 -0.4657 -0.3253
 3244SOL    HW221369   2.768   0.152  17.227  0.7310 -1.7503  0.1201
 3245SOL     OW21370   0.681   4.484   4.237  0.8104 -0.2641  0.3111
 3245SOL    HW121371   0.710   4.415   4.177 -0.6455 -0.4780 -0.1560
 3245SOL    HW221372   0.604   4.510   4.186  0.8308 -0.8128 -0.0013
 3246SOL     OW21373   2.317   2.738   5.848 -0.4245 -0.0877 -0.0275
 3246SOL    HW121374   2.240   2.782   5.814 -0.8681 -0.3071  0.6778
 3246SOL    HW221375   2.384   2.807   5.840 -0.5738  0.2804  1.8577
 3247SOL     OW21376   1.371   0.985  11.844  0.1158 -0.3470 -0.4837
 3247SOL    HW121377   1.298   0.981  11.906  1.3871  0.3434  1.0761
 3247SOL    HW221378   1.386   1.079  11.835  1.6871 -0.5898 -0.3258
 3248SOL     OW21379   4.687   3.294  10.957 -0.0889  0.4049  0.4837
 3248SOL    HW121380   4.713   3.258  10.872 -0.6135  1.2622 -0.0283
 3248SOL    HW221381   4.646   3.219  11.001  1.3060 -0.5644  0.1652
 3249SOL     OW21382   2.956   1.018   3.872  0.0588 -0.3042 -0.3474
 3249SOL    HW121383   3.042   1.013   3.829  1.0338 -2.7591  1.9048
 3249SOL    HW221384   2.978   1.065   3.952  0.1541 -0.0541 -0.5198
 3250SOL     OW21385   2.248   0.560   5.035  0.0623  0.0790  0.1428
 3250SOL    HW121386   2.202   0.477   5.050 -1.1223  0.3511 -1.9447
 3250SOL    HW221387   2.227   0.582   4.944  0.7960  0.9047  0.1737
 3251SOL     OW21388   4.727   3.281  12.561 -0.1020 -0.1880  0.8408
 3251SOL    HW121389   4.726   3.276  12.657  2.3034 -1.1985  0.8152
 3251SOL    HW221390   0.072   3.237  12.549 -0.7182 -0.5879 -1.9679
 3252SOL     OW21391   0.649   0.091   4.837 -0.8032  0.3649 -0.1034
 3252SOL    HW121392   0.701   0.011   4.837 -1.1877  0.1152 -0.2901
 3252SOL    HW221393   0.622   0.095   4.746  1.5237 -1.9586 -0.8883
 3253SOL     OW21394   3.012   3.837   7.607 -0.4569 -0.0284  0.6838
 3253SOL    HW121395   3.108   3.830   7.599 -0.4542  1.2853 -0.3701
 3253SOL    HW221396   3.003   3.780   7.683 -0.0966 -0.4286  0.4296
 3254SOL     OW21397   2.821   2.645   1.825 -0.2097  0.4466  0.3174
 3254SOL    HW121398   2.729   2.644   1.802  0.6078  0.4273 -2.9391
 3254SOL    HW221399   2.828   2.556   1.862  0.4138  1.1074  1.7836
 3255SOL     OW21400   2.150   0.894   7.088  0.2614 -0.1085 -0.2072
 3255SOL    HW121401   2.091   0.951   7.038 -0.7983 -0.0501  1.0921
 3255SOL    HW221402   2.226   0.905   7.031  0.6909 -0.8130  0.2325
 3256SOL     OW21403   3.886   0.670   9.349  0.2271 -0.1229  0.2145
 3256SOL    HW121404   3.872   0.667   9.444 -2.1769 -1.5398 -0.1642
 3256SOL    HW221405   3.835   0.746   9.321 -0.0115  0.6648  2.7441
 3257SOL     OW21406   0.711   2.002   2.391  0.0725 -0.0432 -0.2827
 3257SOL    HW121407   0.791   1.950   2.391  0.0745 -0.0374  0.0524
 3257SOL    HW221408   0.752   2.083   2.422 -0.5185  0.5017 -0.9227
 3258SOL     OW21409   1.552   4.515   9.725  0.5981 -0.1792 -0.0524
 3258SOL    HW121410   1.553   4.580   9.795 -0.5311 -2.1164  1.7661
 3258SOL    HW221411   1.623   4.552   9.672  0.2480  1.2460  0.4727
 3259SOL     OW21412   2.044   2.987   8.635  0.3025 -0.3071 -0.1483
 3259SOL    HW121413   2.062   3.050   8.565  2.4984 -1.3854 -0.5537
 3259SOL    HW221414   1.953   3.015   8.642  0.2436 -0.5122 -0.0828
 3260SOL     OW21415   3.883   0.920   9.927  0.4108 -0.7297 -0.0234
 3260SOL    HW121416   3.839   1.003   9.911  0.9978 -0.0985  1.6537
 3260SOL    HW221417   3.952   0.950   9.986  0.4979  1.5543 -1.3089
 3261SOL     OW21418   1.972   1.103   3.740 -0.3386  0.4357 -0.0392
 3261SOL    HW121419   2.064   1.122   3.754  0.4931 -2.1718 -1.9461
 3261SOL    HW221420   1.978   1.052   3.659  2.9760  0.4943  0.1660
 3262SOL     OW21421   2.482   2.649   7.264  0.1570 -0.4127 -0.0222
 3262SOL    HW121422   2.476   2.559   7.297  1.6491  0.0056  1.4075
 3262SOL    HW221423   2.388   2.658   7.253 -0.0989  0.2972  2.7901
 3263SOL     OW21424   1.447   1.869   6.621  0.2933  0.0038  0.4957
 3263SOL    HW121425   1.369   1.918   6.595  2.4369  1.4692 -3.1031
 3263SOL    HW221426   1.511   1.901   6.558  1.2459 -0.8992  1.0174
 3264SOL     OW21427   1.183   0.238   1.261  0.0708  0.3551 -0.0159
 3264SOL    HW121428   1.219   0.158   1.300  0.9696  0.4785 -0.6032
 3264SOL    HW221429   1.100   0.213   1.221 -0.2385  0.6800  0.4239
 3265SOL     OW21430   0.878   0.546  12.799 -0.0004 -0.0787  0.9140
 3265SOL    HW121431   0.785   0.562  12.813  0.2288  2.3608 -0.3205
 3265SOL    HW221432   0.916   0.627  12.765 -1.9931  0.5365  0.1664
 3266SOL     OW21433   1.607   0.200   4.669  0.2022  0.6305 -0.0853
 3266SOL    HW121434   1.519   0.191   4.633  0.4914 -0.2479 -0.5780
 3266SOL    HW221435   1.586   0.241   4.753  0.0212  1.1457 -0.3795
 3267SOL     OW21436   0.170   2.005   3.348  0.6432 -0.4596 -0.3236
 3267SOL    HW121437   0.163   1.937   3.414  0.7472  1.1566  1.3561
 3267SOL    HW221438   0.245   2.060   3.371  0.7547 -2.4245  3.8746
 3268SOL     OW21439   2.291   1.752   3.922  0.6021  0.2557 -0.1507
 3268SOL    HW121440   2.320   1.663   3.901  2.7075  0.3231  2.4643
 3268SOL    HW221441   2.347   1.776   3.996 -1.3132 -2.5727  2.2538
 3269SOL     OW21442   4.231   0.672   9.759  0.0175 -0.1739  0.3815
 3269SOL    HW121443   4.156   0.613   9.751 -0.1301  0.0105  0.4163
 3269SOL    HW221444   4.268   0.626   9.834 -0.6120 -1.1284  0.1093
 3270SOL     OW21445   0.695   3.243   4.828 -0.8330 -0.2521 -0.1147
 3270SOL    HW121446   0.625   3.183   4.803 -0.8872 -0.2393  0.0086
 3270SOL    HW221447   0.716   3.206   4.913  1.6481 -0.3512 -0.7804
 3271SOL     OW21448   4.654   0.703   9.464  0.3230  0.1912 -0.7459
 3271SOL    HW121449   4.578   0.729   9.515  0.5768 -2.2376  0.8873
 3271SOL    HW221450   4.637   0.745   9.380 -1.0719  1.5438  0.2162
 3272SOL     OW21451   1.991   3.313   7.035  0.2566 -0.4305  0.8336
 3272SOL    HW121452   2.021   3.354   7.116 -3.0055  0.4940  1.5765
 3272SOL    HW221453   1.897   3.331   7.042  0.3421  0.1135  0.5904
 3273SOL     OW21454   4.559   1.199   6.980  0.6475 -0.2106  0.0408
 3273SOL    HW121455   4.502   1.275   6.972 -1.6021 -2.2857 -3.5694
 3273SOL    HW221456   4.637   1.233   6.936  0.2993  0.9484  0.3229
 3274SOL     OW21457   1.898   3.834   1.989 -0.7268 -0.1166  0.0342
 3274SOL    HW121458   1.815   3.879   2.002 -1.1555 -1.4857  2.0153
 3274SOL    HW221459   1.904   3.797   2.077  0.4612  1.5788  0.6572
 3275SOL     OW21460   1.813   1.464   4.099 -0.2667 -0.1701 -0.0599
 3275SOL    HW121461   1.889   1.505   4.057 -0.6697  0.2008 -0.4314
 3275SOL    HW221462   1.776   1.410   4.029 -1.8852 -1.1136  1.5186
 3276SOL     OW21463   4.237   1.389   6.799  0.0556  0.1077  0.1142
 3276SOL    HW121464   4.231   1.373   6.705 -1.6607 -0.1208  0.2742
 3276SOL    HW221465   4.232   1.307   6.849  0.4782 -0.8840 -1.4726
 3277SOL     OW21466   3.578   1.384   6.613  0.0907 -0.1645 -0.7577
 3277SOL    HW121467   3.542   1.464   6.575  1.4766  1.7323  1.9452
 3277SOL    HW221468   3.671   1.404   6.611 -0.2748  1.1975 -3.7318
 3278SOL     OW21469   3.705   2.407   7.979 -0.6319  0.0674  0.0074
 3278SOL    HW121470   3.719   2.388   7.886  1.6462 -1.2793  0.6503
 3278SOL    HW221471   3.787   2.450   8.004 -1.1500  1.1430 -0.1213
 3279SOL     OW21472   4.070   2.665   0.950 -0.4693  0.2235 -0.0381
 3279SOL    HW121473   4.099   2.752   0.976 -1.7866  0.9324 -0.9385
 3279SOL    HW221474   3.993   2.679   0.894 -0.3435  0.5859 -0.1205
 3280SOL     OW21475   2.991   0.406   1.511  0.1697  0.5675 -0.1025
 3280SOL    HW121476   2.947   0.322   1.492  2.0147 -0.5601  0.6244
 3280SOL    HW221477   2.994   0.447   1.425  0.9719  1.7875  0.5165
 3281SOL     OW21478   3.668   0.478  15.235 -0.5170 -0.2504 -0.3005
 3281SOL    HW121479   3.651   0.385  15.246 -0.0534 -0.0375  2.1500
 3281SOL    HW221480   3.586   0.521  15.260 -0.8223 -0.8100 -0.3359
 3282SOL     OW21481   2.137   4.217   1.886 -0.1086  0.4147 -0.2338
 3282SOL    HW121482   2.092   4.163   1.952 -0.0641  0.9320  0.2178
 3282SOL    HW221483   2.216   4.235   1.936  0.7398 -1.1944 -1.0016
 3283SOL     OW21484   4.678   0.927   8.010 -0.6020  0.2521  0.3027
 3283SOL    HW121485   4.684   0.835   7.987 -3.9144 -0.2855  1.6059
 3283SOL    HW221486   0.029   0.961   8.006  0.3375 -1.9538  2.9305
 3284SOL     OW21487   2.588   1.300   1.882 -0.1734  0.2128  0.4428
 3284SOL    HW121488   2.650   1.372   1.872 -1.8216  1.0986 -3.3607
 3284SOL    HW221489   2.543   1.295   1.798  0.7056 -2.3468  0.1222
 3285SOL     OW21490   1.316   3.620  14.028  0.6084 -0.1619 -0.2713
 3285SOL    HW121491   1.279   3.688  14.084  1.6164  0.3077 -0.1732
 3285SOL    HW221492   1.242   3.570  13.994 -0.2975  0.4940  0.7374
 3286SOL     OW21493   3.337   4.490   2.162 -0.1972 -0.3612  0.1479
 3286SOL    HW121494   3.339   4.541   2.081  0.2078  1.5291  1.3359
 3286SOL    HW221495   3.245   4.465   2.157 -0.9805  2.1722  1.7329
 3287SOL     OW21496   0.741   3.097  12.371  0.4312 -0.2478  0.3835
 3287SOL    HW121497   0.807   3.030  12.353  1.6775  0.3592  2.7292
 3287SOL    HW221498   0.788   3.180  12.372 -0.0898  0.0564 -0.3664
 3288SOL     OW21499   3.040   0.353   1.957  0.1415  0.0904  0.1548
 3288SOL    HW121500   3.088   0.430   1.927  1.0352 -0.2012  0.8677
 3288SOL    HW221501   2.964   0.364   1.899 -0.2575  1.8759  1.0288
 3289SOL     OW21502   2.748   0.147  15.351  0.2802  0.4577  0.1425
 3289SOL    HW121503   2.717   0.063  15.385 -1.4827  0.5427 -1.2722
 3289SOL    HW221504   2.837   0.149  15.388  0.2550  2.1113  0.1136
 3290SOL     OW21505   2.054   1.710  10.771  0.1948  0.1242  0.7669
 3290SOL    HW121506   2.111   1.636  10.789  1.7429  1.6480  2.0883
 3290SOL    HW221507   2.093   1.780  10.823  1.2002  1.3619 -1.6530
 3291SOL     OW21508   0.053   1.926   3.124  0.5291 -0.2708  0.1224
 3291SOL    HW121509   0.082   1.958   3.209 -1.2318  2.1732 -0.1704
 3291SOL    HW221510   0.058   1.835   3.152  1.8314 -0.1912  0.1412
 3292SOL     OW21511   2.685   3.033   6.072 -0.0086 -0.2844  0.1088
 3292SOL    HW121512   2.638   2.995   6.146 -0.1617  0.2143  0.2621
 3292SOL    HW221513   2.661   3.125   6.082 -0.7988 -0.4440 -0.2832
 3293SOL     OW21514   2.210   0.540  16.048  0.1968 -0.5192  0.1859
 3293SOL    HW121515   2.117   0.561  16.057  0.5185  1.8756 -1.9670
 3293SOL    HW221516   2.242   0.552  16.137 -0.6813  1.2211  0.2764
 3294SOL     OW21517   3.026   3.607   2.365  0.4769  0.4984  0.9193
 3294SOL    HW121518   3.073   3.670   2.309  1.4573  0.6915  1.9450
 3294SOL    HW221519   2.939   3.608   2.327  1.1024 -1.2175 -0.5705
 3295SOL     OW21520   4.019   0.578   3.898 -0.2559  0.5006  0.3242
 3295SOL    HW121521   4.043   0.488   3.880  1.5973  0.7448  1.5511
 3295SOL    HW221522   4.108   0.614   3.900 -0.1408  0.2277  0.0284
 3296SOL     OW21523   1.485   4.479  11.678 -0.5363  0.4674 -0.8502
 3296SOL    HW121524   1.514   4.541  11.611 -0.2153  2.1751  0.8735
 3296SOL    HW221525   1.449   4.540  11.742 -0.8835 -1.9541  1.2675
 3297SOL     OW21526   1.942   2.858   6.175 -0.2540 -0.5110  0.7655
 3297SOL    HW121527   1.953   2.949   6.201  1.2641 -0.9598  1.7178
 3297SOL    HW221528   2.017   2.849   6.116  0.5323  3.0282  1.2170
 3298SOL     OW21529   1.633   4.405   1.306  0.0874  0.1128 -0.1024
 3298SOL    HW121530   1.607   4.314   1.293  0.7659 -0.2781  1.2539
 3298SOL    HW221531   1.710   4.413   1.249 -2.1898 -1.2339 -3.3394
 3299SOL     OW21532   2.511   0.505  11.995  0.3338 -0.4005  0.4633
 3299SOL    HW121533   2.510   0.514  12.090 -0.6651  0.0737  0.4166
 3299SOL    HW221534   2.460   0.425  11.985  1.1866 -1.1617  2.1780
 3300SOL     OW21535   1.687   3.490   5.234 -0.3543  0.0761 -0.0666
 3300SOL    HW121536   1.714   3.572   5.193  0.7235  0.6575  1.7830
 3300SOL    HW221537   1.734   3.429   5.177  0.1636 -1.5118  2.0339
 3301SOL     OW21538   0.733   2.594  16.307 -0.0359  0.2082  0.2172
 3301SOL    HW121539   0.713   2.640  16.226 -0.0852 -0.3410 -0.0787
 3301SOL    HW221540   0.663   2.634  16.359 -0.3986 -0.8901  0.5852
 3302SOL     OW21541   4.034   4.368   2.756  0.1136  0.0466  1.0782
 3302SOL    HW121542   4.096   4.440   2.743 -0.2970  0.3405  0.7417
 3302SOL    HW221543   3.968   4.406   2.814 -1.4575 -1.9534  0.6363
 3303SOL     OW21544   2.502   0.662   3.693  1.0749 -0.1518  0.3298
 3303SOL    HW121545   2.482   0.598   3.762 -1.0665  0.0161 -0.1258
 3303SOL    HW221546   2.486   0.612   3.613 -0.5714 -0.2743  0.7206
 3304SOL     OW21547   4.123   4.472  16.905 -0.1023 -0.0838 -0.2098
 3304SOL    HW121548   4.149   4.394  16.953  3.1548  1.6021  0.7123
 3304SOL    HW221549   4.213   4.499  16.887  0.2700 -1.0061  0.2992
 3305SOL     OW21550   2.875   4.374   6.541  0.2231  0.1220 -0.6875
 3305SOL    HW121551   2.942   4.331   6.594 -1.2596  0.2455  1.2775
 3305SOL    HW221552   2.851   4.304   6.480 -2.3273  0.3231  0.0788
 3306SOL     OW21553   2.912   2.787   4.647 -0.1813 -0.4317  0.0557
 3306SOL    HW121554   2.994   2.811   4.603 -0.3318  0.5127  0.2956
 3306SOL    HW221555   2.941   2.722   4.711  0.9778 -4.7926 -4.8858
 3307SOL     OW21556   3.234   1.481  17.562 -0.1775 -0.4061 -0.0050
 3307SOL    HW121557   3.295   1.407  17.553 -0.4372 -0.7881  1.5071
 3307SOL    HW221558   3.286   1.521  17.631 -0.4478 -1.8801  1.0618
 3308SOL     OW21559   0.678   3.059   5.062 -0.5284  0.1487 -0.1418
 3308SOL    HW121560   0.762   3.101   5.081 -1.1422  2.5608 -2.7221
 3308SOL    HW221561   0.673   3.010   5.144  0.4347  0.5761  0.1625
 3309SOL     OW21562   4.468   3.273   5.997  0.4425 -0.7147  0.1007
 3309SOL    HW121563   4.462   3.328   6.076 -1.5425  0.6752 -1.0203
 3309SOL    HW221564   4.491   3.346   5.940  0.8168 -0.0239  1.1191
 3310SOL     OW21565   2.922   1.834   2.280 -0.2906  0.3404  0.0628
 3310SOL    HW121566   2.990   1.788   2.330 -1.6967  1.7733  3.2908
 3310SOL    HW221567   2.948   1.811   2.190 -1.1561 -2.7396  0.6117
 3311SOL     OW21568   1.189   1.173   9.775  0.0790 -0.1389 -0.0853
 3311SOL    HW121569   1.237   1.171   9.693 -0.3955  1.5413 -0.4144
 3311SOL    HW221570   1.150   1.261   9.776  0.6257  0.1131 -1.9232
 3312SOL     OW21571   3.204   0.685   8.503 -0.6010 -0.0009  0.1047
 3312SOL    HW121572   3.226   0.778   8.497  0.3946 -0.0680  2.8165
 3312SOL    HW221573   3.273   0.653   8.444 -0.8645  1.4018 -0.9791
 3313SOL     OW21574   4.131   0.380   9.427  0.3449 -0.4614  0.1848
 3313SOL    HW121575   4.129   0.285   9.415 -1.6326 -0.6645  2.0648
 3313SOL    HW221576   4.223   0.399   9.443 -0.2000  0.6969  1.9960
 3314SOL     OW21577   3.789   1.361   3.776 -0.3278  0.4274 -0.2389
 3314SOL    HW121578   3.778   1.321   3.689  0.7863 -1.8612  0.6836
 3314SOL    HW221579   3.712   1.417   3.765 -1.8552 -1.7173 -0.5691
 3315SOL     OW21580   2.357   3.698   8.061 -0.2801  0.1914  0.2155
 3315SOL    HW121581   2.401   3.783   8.071 -1.3940  1.0140 -1.7568
 3315SOL    HW221582   2.402   3.673   7.981  0.4353 -3.0843  1.6413
 3316SOL     OW21583   3.777   3.018   2.682  0.6687 -0.4640  0.6883
 3316SOL    HW121584   3.759   3.047   2.593 -0.7225 -2.3469  0.3415
 3316SOL    HW221585   3.744   2.928   2.676 -0.8513  0.0241  1.6563
 3317SOL     OW21586   3.506   3.756   9.590 -0.3440  0.0446  0.0341
 3317SOL    HW121587   3.489   3.664   9.570 -1.9793  0.3747 -0.0944
 3317SOL    HW221588   3.567   3.769   9.518 -0.5426  0.2140 -0.1049
 3318SOL     OW21589   1.707   2.114   3.547  0.4584 -0.9167 -0.2259
 3318SOL    HW121590   1.639   2.177   3.569  1.1899 -0.1070 -0.2736
 3318SOL    HW221591   1.721   2.078   3.635  1.6986 -1.6019 -0.6986
 3319SOL     OW21592   1.295   0.346   6.682 -0.1416  0.5782  0.4345
 3319SOL    HW121593   1.326   0.260   6.655 -1.6970 -0.4307  1.8919
 3319SOL    HW221594   1.351   0.348   6.760 -1.2211  0.7167  1.2079
 3320SOL     OW21595   1.264   2.857   6.734 -0.4009  0.1284 -0.0554
 3320SOL    HW121596   1.174   2.888   6.723  1.1769  5.0202  1.0429
 3320SOL    HW221597   1.300   2.868   6.646 -0.4153 -2.7875 -0.4530
 3321SOL     OW21598   1.772   4.695  14.841 -0.2678  0.4667 -0.1493
 3321SOL    HW121599   1.731   4.668  14.924 -1.7341  1.7184 -0.4554
 3321SOL    HW221600   1.753   4.624  14.781 -1.8617  0.2049  0.6594
 3322SOL     OW21601   2.918   1.667   4.213 -0.1532  0.2762 -0.2809
 3322SOL    HW121602   2.842   1.695   4.264 -0.7283  2.0530 -2.1595
 3322SOL    HW221603   2.900   1.574   4.196  1.1716 -0.2478  1.1454
 3323SOL     OW21604   4.037   0.115   4.609 -0.2979  0.1304 -0.0918
 3323SOL    HW121605   4.090   0.116   4.688 -0.3835  0.6572 -0.0363
 3323SOL    HW221606   3.999   0.028   4.622  0.4986 -0.1632  0.2394
 3324SOL     OW21607   2.539   3.817  15.616  0.8467 -0.0711  0.0205
 3324SOL    HW121608   2.447   3.844  15.613  0.7246 -0.4770  0.1956
 3324SOL    HW221609   2.581   3.863  15.688  0.4536  0.1839  0.0873
 3325SOL     OW21610   0.901   2.359   8.732  0.4884 -0.4021  0.1867
 3325SOL    HW121611   0.949   2.425   8.782  1.5013  0.9248 -2.5440
 3325SOL    HW221612   0.900   2.287   8.796 -0.4214  0.7259  1.4508
 3326SOL     OW21613   0.659   0.603  10.090  0.1994 -0.4196  0.5994
 3326SOL    HW121614   0.601   0.533  10.122 -1.2472 -0.7231 -2.7564
 3326SOL    HW221615   0.735   0.600  10.148 -1.1256 -0.3728  2.3585
 3327SOL     OW21616   3.371   0.731   5.087  0.4351  0.2441 -0.1298
 3327SOL    HW121617   3.429   0.655   5.077  0.9457  0.6037  0.0926
 3327SOL    HW221618   3.406   0.790   5.019  0.3401 -0.4873 -0.8141
 3328SOL     OW21619   2.627   4.421   2.007 -0.0272  0.0467  0.1816
 3328SOL    HW121620   2.707   4.410   2.059  0.8822 -3.5322 -1.9905
 3328SOL    HW221621   2.671   4.437   1.923 -1.5435  0.1403 -0.5899
 3329SOL     OW21622   4.095   1.401   2.674  0.2085 -0.1978  0.4050
 3329SOL    HW121623   4.118   1.485   2.634  1.8400 -1.1474 -0.6615
 3329SOL    HW221624   4.122   1.415   2.765 -0.7746  1.2334  0.4802
 3330SOL     OW21625   3.349   1.890   3.317  0.7295  0.2858  0.0014
 3330SOL    HW121626   3.267   1.922   3.278  1.4152  0.5585 -1.2063
 3330SOL    HW221627   3.313   1.863   3.401 -0.2296  1.3147 -0.0748
 3331SOL     OW21628   0.446   4.324   6.125 -0.2047 -0.0488 -0.5278
 3331SOL    HW121629   0.360   4.291   6.100 -0.8528 -0.3234  2.0978
 3331SOL    HW221630   0.459   4.269   6.202 -0.5799  3.0930  1.7837
 3332SOL     OW21631   2.830   3.541  11.647  0.5356  0.3690  0.3919
 3332SOL    HW121632   2.790   3.495  11.721  2.3959 -2.0063 -0.0808
 3332SOL    HW221633   2.768   3.514  11.579 -0.6811 -0.3305  1.7694
 3333SOL     OW21634   4.509   1.047  16.766 -0.3078  0.0156 -0.5203
 3333SOL    HW121635   4.530   0.954  16.764 -0.3149 -0.0783  2.9416
 3333SOL    HW221636   4.442   1.054  16.835 -0.2860 -1.5936 -0.3444
 3334SOL     OW21637   1.969   3.598  10.598  0.1796  0.8682  0.5169
 3334SOL    HW121638   2.021   3.664  10.553 -0.7063 -0.0279 -1.8065
 3334SOL    HW221639   1.983   3.523  10.540  0.0139 -0.5705  2.3073
 3335SOL     OW21640   1.895   2.966   9.396 -0.1548  0.6307  0.1464
 3335SOL    HW121641   1.950   2.969   9.475 -0.8338 -0.3115  0.6546
 3335SOL    HW221642   1.902   3.056   9.367  1.2638  0.1160 -1.0948
 3336SOL     OW21643   2.494   4.191  14.858  0.2495  0.1964 -0.2574
 3336SOL    HW121644   2.431   4.164  14.791 -0.7878  2.2726 -0.1194
 3336SOL    HW221645   2.512   4.281  14.833 -2.3102  0.1957 -2.0467
 3337SOL     OW21646   1.210   1.524   3.937 -0.0876  0.1897 -0.2202
 3337SOL    HW121647   1.255   1.564   3.862 -2.0085  0.7336 -1.1056
 3337SOL    HW221648   1.133   1.490   3.891 -1.3519 -0.5927  2.4780
 3338SOL     OW21649   3.497   0.813   4.503  0.5950 -0.4857  0.1224
 3338SOL    HW121650   3.570   0.851   4.454 -1.3153 -0.0951 -2.4283
 3338SOL    HW221651   3.496   0.865   4.584  1.1113  2.1530 -1.5464
 3339SOL     OW21652   1.216   1.550   4.696 -0.9944 -0.1369 -0.3041
 3339SOL    HW121653   1.179   1.603   4.766  1.4096  0.1915  0.7170
 3339SOL    HW221654   1.281   1.615   4.668 -1.0127  0.3945  0.8833
 3340SOL     OW21655   0.640   0.287   0.085  0.1293 -0.3538 -0.3294
 3340SOL    HW121656   0.632   0.238   0.167 -1.4495 -0.3433 -0.4781
 3340SOL    HW221657   0.548   0.313   0.080  0.1354 -0.5440 -1.4124
 3341SOL     OW21658   1.720   0.341  17.218 -0.4149 -0.5593  0.4975
 3341SOL    HW121659   1.690   0.254  17.193 -0.0648 -0.4138 -0.4040
 3341SOL    HW221660   1.809   0.328  17.252  0.2731 -2.4002 -2.0507
 3342SOL     OW21661   2.715   1.700   3.056 -0.1169 -0.6305 -0.4053
 3342SOL    HW121662   2.710   1.651   3.137  1.0049  1.4427  0.9157
 3342SOL    HW221663   2.638   1.755   3.072  1.5568  1.7166 -0.4690
 3343SOL     OW21664   0.839   3.419   4.449 -0.0199  0.5132  0.6333
 3343SOL    HW121665   0.888   3.477   4.508 -2.2591  2.9227  0.1171
 3343SOL    HW221666   0.897   3.410   4.374 -0.6470 -0.3563  0.2615
 3344SOL     OW21667   0.549   0.018   8.736 -0.2896  0.2894 -0.3451
 3344SOL    HW121668   0.530   0.057   8.821 -0.4517  3.4448 -1.8389
 3344SOL    HW221669   0.462   0.043   8.704  0.0549 -0.9369 -2.2828
 3345SOL     OW21670   2.792   0.626  16.221  0.4641  0.3755  0.8608
 3345SOL    HW121671   2.782   0.664  16.134  3.2513 -1.0494 -0.1108
 3345SOL    HW221672   2.879   0.654  16.251  0.5602 -0.4842  1.3858
 3346SOL     OW21673   2.421   4.191   7.001 -0.5601 -0.4510 -0.3200
 3346SOL    HW121674   2.358   4.225   6.937 -1.9346 -1.1159  0.6760
 3346SOL    HW221675   2.364   4.139   7.059  2.0614 -2.9931 -0.0432
 3347SOL     OW21676   2.149   1.779   2.074 -0.3354 -0.3132  0.5088
 3347SOL    HW121677   2.131   1.863   2.116  0.3525 -0.2467  0.6701
 3347SOL    HW221678   2.234   1.753   2.109  0.6286  0.8143 -1.0148
 3348SOL     OW21679   1.506   4.131   7.832  0.7964  0.3285  0.2493
 3348SOL    HW121680   1.538   4.136   7.922  0.8968  1.8645  0.1249
 3348SOL    HW221681   1.524   4.038   7.817 -0.6964  0.0028  0.4286
 3349SOL     OW21682   1.607   3.236   7.745  0.0062 -0.3294  0.2077
 3349SOL    HW121683   1.682   3.256   7.801 -0.6449  0.8631  0.6456
 3349SOL    HW221684   1.660   3.214   7.669 -0.0448 -0.5196  0.2261
 3350SOL     OW21685   4.007   0.903   1.557 -0.2813  0.2227 -0.1594
 3350SOL    HW121686   4.017   0.809   1.569 -1.6031  0.4057  2.5014
 3350SOL    HW221687   4.075   0.942   1.612  0.5640 -2.4114  0.6418
 3351SOL     OW21688   2.066   2.484   1.744  0.2612 -0.0054 -0.2362
 3351SOL    HW121689   2.021   2.565   1.718 -0.9556 -0.4980  0.3599
 3351SOL    HW221690   2.083   2.437   1.662  0.2992  1.1595 -0.9062
 3352SOL     OW21691   2.737   0.916   4.521  0.1637  0.0950 -1.0164
 3352SOL    HW121692   2.644   0.923   4.544  0.3805 -2.5022  0.6151
 3352SOL    HW221693   2.727   0.891   4.429 -0.4316 -5.2381  0.4862
 3353SOL     OW21694   4.196   4.502   4.528  0.1593 -0.7796  0.1537
 3353SOL    HW121695   4.207   4.490   4.434 -0.8800 -1.7975  0.1576
 3353SOL    HW221696   4.267   4.565   4.540 -1.7418  1.2965  0.3619
 3354SOL     OW21697   4.538   4.580  14.052  0.2113 -0.0895  0.0560
 3354SOL    HW121698   4.443   4.588  14.056  0.1975 -0.0296 -0.3612
 3354SOL    HW221699   4.561   4.672  14.065  0.1074 -0.2387  1.2585
 3355SOL     OW21700   0.174   0.080  10.291 -0.2444  1.0325  0.2594
 3355SOL    HW121701   0.233   0.133  10.344  1.5581 -2.5350  1.8512
 3355SOL    HW221702   0.163   0.002  10.345 -4.4925 -0.0709 -2.2369
 3356SOL     OW21703   2.375   2.101   3.255  0.1370 -0.2450  0.3000
 3356SOL    HW121704   2.369   2.086   3.349  1.3355 -0.8861  0.2709
 3356SOL    HW221705   2.284   2.081   3.235  0.5253  0.9841 -2.7732
 3357SOL     OW21706   1.876   4.278   5.134 -0.6196 -0.0866 -0.1778
 3357SOL    HW121707   1.933   4.327   5.193 -0.6651  1.3904 -1.3372
 3357SOL    HW221708   1.800   4.273   5.191 -0.3510  1.4274  0.3273
 3358SOL     OW21709   2.141   1.246   7.966  0.1447  0.3344  0.1205
 3358SOL    HW121710   2.110   1.333   7.942 -2.5387 -0.4458  0.6867
 3358SOL    HW221711   2.218   1.261   8.020  1.1810 -1.3952 -0.8773
 3359SOL     OW21712   2.836   2.761   4.000 -0.0207  0.0082 -0.0589
 3359SOL    HW121713   2.820   2.821   4.073 -0.9168 -0.5868  0.2265
 3359SOL    HW221714   2.843   2.822   3.926  2.2079 -0.7877 -0.4981
 3360SOL     OW21715   1.292   0.423   1.464  0.4593 -0.4518 -0.4125
 3360SOL    HW121716   1.252   0.369   1.396  1.9129 -0.4150 -1.2940
 3360SOL    HW221717   1.338   0.366   1.526 -0.6726 -2.2451 -1.2222
 3361SOL     OW21718   1.844   1.989   0.497 -0.1640 -0.1583  0.1669
 3361SOL    HW121719   1.776   2.036   0.545 -0.2915 -2.1583  1.9481
 3361SOL    HW221720   1.874   2.059   0.439 -0.2263  0.8591  1.3615
 3362SOL     OW21721   3.433   3.674  15.578  0.1325 -0.3741 -0.7291
 3362SOL    HW121722   3.355   3.683  15.632  1.0603 -1.2080  0.7269
 3362SOL    HW221723   3.413   3.739  15.511  0.9505  0.5975 -0.0237
 3363SOL     OW21724   3.247   2.699   3.073  0.2616  0.0467  0.2045
 3363SOL    HW121725   3.248   2.605   3.092 -2.2229  0.3479  1.8870
 3363SOL    HW221726   3.262   2.695   2.979  2.8494 -0.0438  0.6340
 3364SOL     OW21727   4.300   2.196   8.515  0.5474  0.4031  0.7254
 3364SOL    HW121728   4.231   2.130   8.522 -0.2910  1.1137 -0.8088
 3364SOL    HW221729   4.298   2.236   8.602 -1.4529 -2.1591  1.8674
 3365SOL     OW21730   4.038   3.683   5.259  0.1191 -0.1252 -0.0822
 3365SOL    HW121731   4.007   3.621   5.325 -0.7170  0.7417  0.3523
 3365SOL    HW221732   3.965   3.745   5.251  0.3925  0.1110 -0.7460
 3366SOL     OW21733   4.287   4.271   7.443  0.0533 -0.3904  0.0493
 3366SOL    HW121734   4.290   4.350   7.388 -0.4004 -0.1921  0.3120
 3366SOL    HW221735   4.368   4.229   7.414 -0.1524 -2.1511  2.0252
 3367SOL     OW21736   1.172   4.338  11.045 -0.2646  0.5192 -0.4280
 3367SOL    HW121737   1.234   4.325  11.116 -1.9637 -0.6014  0.8602
 3367SOL    HW221738   1.100   4.376  11.096  0.9250 -0.6959  2.1344
 3368SOL     OW21739   4.200   2.210   9.711 -0.2607 -0.7643 -0.0523
 3368SOL    HW121740   4.175   2.298   9.683  1.2963 -0.3032  0.0059
 3368SOL    HW221741   4.193   2.219   9.806 -1.3162  0.7392 -0.2828
 3369SOL     OW21742   0.620   4.214  12.882  0.3938 -0.2546 -0.2554
 3369SOL    HW121743   0.663   4.286  12.929  0.5154 -0.4382 -0.0858
 3369SOL    HW221744   0.649   4.134  12.925 -0.1532  0.8127  2.0942
 3370SOL     OW21745   4.584   0.285   1.921  0.1112 -0.1163  0.1287
 3370SOL    HW121746   4.505   0.274   1.870  1.1618  2.2882 -2.0105
 3370SOL    HW221747   4.626   0.349   1.863 -0.5354 -1.7582 -2.1489
 3371SOL     OW21748   3.090   3.272   2.608 -0.2337  0.3657 -0.0610
 3371SOL    HW121749   3.076   3.287   2.701 -0.7777 -2.1529  0.2776
 3371SOL    HW221750   3.143   3.349   2.587  0.0650  0.4693  1.0996
 3372SOL     OW21751   0.956   0.047   0.182  0.3499  0.3472 -0.3616
 3372SOL    HW121752   0.892   4.714   0.184  0.7900 -0.1217 -2.8042
 3372SOL    HW221753   0.935   0.091   0.264  1.4294  0.4646 -0.1577
 3373SOL     OW21754   2.279   2.564   6.913 -0.0555  0.3396  0.1185
 3373SOL    HW121755   2.373   2.551   6.903 -0.5243 -0.8594 -2.6906
 3373SOL    HW221756   2.263   2.544   7.006  1.1021 -0.7574  0.0768
 3374SOL     OW21757   1.912   2.736   1.794  0.0790 -0.3643  0.1762
 3374SOL    HW121758   1.854   2.767   1.725 -0.8299  0.3438  1.2554
 3374SOL    HW221759   1.840   2.681   1.826  1.4343 -1.6920  0.9242
 3375SOL     OW21760   2.236   1.182   3.727  0.5757 -0.3201  0.3523
 3375SOL    HW121761   2.295   1.184   3.802  2.0307 -0.5287 -0.8037
 3375SOL    HW221762   2.288   1.183   3.647  0.8641  1.1004  0.5518
 3376SOL     OW21763   1.764   3.787   5.987  0.9653  0.0974  0.7100
 3376SOL    HW121764   1.785   3.880   5.986  1.7440 -0.0635  1.8191
 3376SOL    HW221765   1.799   3.760   5.902 -0.4981  1.4945 -0.3360
 3377SOL     OW21766   4.256   2.583  12.413 -0.1756 -0.1442  0.3954
 3377SOL    HW121767   4.218   2.533  12.341 -1.8052  3.4102 -1.1959
 3377SOL    HW221768   4.199   2.657  12.433  0.6155  0.7348 -0.5718
 3378SOL     OW21769   3.325   2.589   4.158  0.2047  0.2007 -0.5346
 3378SOL    HW121770   3.399   2.552   4.206  1.5047  0.4022 -2.3848
 3378SOL    HW221771   3.365   2.592   4.071 -0.3401 -1.5125 -0.8324
 3379SOL     OW21772   1.047   4.045  11.357  0.3940  0.3438  0.6029
 3379SOL    HW121773   1.142   4.052  11.353  0.2249  2.2668 -0.1686
 3379SOL    HW221774   1.034   3.993  11.436  0.0234 -2.3431 -1.2092
 3380SOL     OW21775   3.240   3.489  13.070  0.1856  0.2923  0.0051
 3380SOL    HW121776   3.216   3.528  13.154 -1.4484 -1.4837  0.3754
 3380SOL    HW221777   3.253   3.570  13.021  0.6014 -0.2498 -0.7708
 3381SOL     OW21778   2.703   3.358  16.427 -0.4719  0.1796 -0.5331
 3381SOL    HW121779   2.782   3.411  16.432  0.3888 -1.0998 -0.7289
 3381SOL    HW221780   2.699   3.315  16.342 -1.9945 -1.1966  0.2327
 3382SOL     OW21781   3.551   1.026   9.489 -0.3743  0.4777  0.2456
 3382SOL    HW121782   3.540   1.036   9.583  0.5755 -1.1479  0.5359
 3382SOL    HW221783   3.554   1.114   9.452  0.6763  0.6709  0.7947
 3383SOL     OW21784   0.204   0.450   3.788 -0.2840 -0.3298  0.9600
 3383SOL    HW121785   0.288   0.412   3.766  0.2839  1.1469  0.5691
 3383SOL    HW221786   0.206   0.515   3.718 -0.6736 -2.3483 -0.9169
 3384SOL     OW21787   4.554   4.071   9.319 -0.2191  0.2090  0.0515
 3384SOL    HW121788   4.496   3.999   9.298  0.2931  0.0950 -0.9826
 3384SOL    HW221789   4.515   4.142   9.269  3.3983  1.0453 -1.5905
 3385SOL     OW21790   1.174   0.828  13.524  0.4485  0.1516 -0.0047
 3385SOL    HW121791   1.196   0.919  13.540 -2.2836  0.8825 -0.3620
 3385SOL    HW221792   1.235   0.800  13.456 -0.7484 -0.5346 -0.7991
 3386SOL     OW21793   2.727   2.983  12.324 -0.3890 -0.1920  0.0731
 3386SOL    HW121794   2.686   3.024  12.248  0.5575 -0.1942 -0.4370
 3386SOL    HW221795   2.739   3.057  12.384  0.6187  0.1006 -0.4890
 3387SOL     OW21796   1.868   4.180   5.616 -0.4760  0.3053  1.1091
 3387SOL    HW121797   1.880   4.119   5.543 -0.4918 -0.1227  1.4670
 3387SOL    HW221798   1.779   4.162   5.646 -0.2212 -1.4673  0.8124
 3388SOL     OW21799   4.697   2.188   9.579  0.1137 -0.0875 -0.3473
 3388SOL    HW121800   4.694   2.104   9.624  1.1854  0.2713  0.4043
 3388SOL    HW221801   4.635   2.241   9.629 -0.0013 -0.4356 -0.1180
 3389SOL     OW21802   2.491   0.303  17.106  0.4572  0.1478  0.2467
 3389SOL    HW121803   2.547   0.240  17.153 -2.0400 -0.3163  2.5906
 3389SOL    HW221804   2.502   0.390  17.145 -1.3854 -0.2322  1.6047
 3390SOL     OW21805   3.753   1.740   5.750 -0.1519  0.3405  0.5169
 3390SOL    HW121806   3.694   1.669   5.775  0.9233 -0.0176  2.0125
 3390SOL    HW221807   3.842   1.708   5.755 -0.7209 -1.2987 -0.0929
 3391SOL     OW21808   2.887   4.131  16.025  0.7309  0.2627  0.4796
 3391SOL    HW121809   2.933   4.139  15.941  0.5501  1.5728  0.5051
 3391SOL    HW221810   2.798   4.111  15.997  0.8852  0.5205 -0.1972
 3392SOL     OW21811   0.016   2.989   4.722 -0.1212  0.3184  0.1928
 3392SOL    HW121812   0.062   2.954   4.799  1.2027 -0.9517 -1.1779
 3392SOL    HW221813   0.035   3.082   4.730  3.0935 -0.2165 -1.3177
 3393SOL     OW21814   2.410   0.413   3.807 -0.5104  0.3540 -0.2091
 3393SOL    HW121815   2.327   0.367   3.795  0.5453 -1.9305  1.3337
 3393SOL    HW221816   2.437   0.415   3.716 -1.7082 -1.9711 -0.6243
 3394SOL     OW21817   1.549   2.976  14.452 -0.6483  0.3960  0.2444
 3394SOL    HW121818   1.588   2.957  14.367 -1.8446  0.7620 -0.3958
 3394SOL    HW221819   1.631   2.996  14.497  0.5956 -4.5902  0.1938
 3395SOL     OW21820   4.086   2.735  12.785 -0.1720 -0.3383  1.0959
 3395SOL    HW121821   3.995   2.705  12.785 -1.0746  2.4763 -1.6370
 3395SOL    HW221822   4.115   2.682  12.859 -0.3286  1.4128  2.4055
 3396SOL     OW21823   2.353   1.809   9.795 -0.2890  0.3136  0.3154
 3396SOL    HW121824   2.422   1.759   9.753  0.0149  0.7011  0.3572
 3396SOL    HW221825   2.381   1.799   9.886  3.0811  0.9438 -0.6455
 3397SOL     OW21826   2.383   1.638   2.232  0.5927  0.1537 -0.1391
 3397SOL    HW121827   2.395   1.629   2.327  0.5585  1.5069 -0.0022
 3397SOL    HW221828   2.470   1.637   2.194  0.5132  0.0813 -0.3175
 3398SOL     OW21829   0.209   2.036   6.297  0.0421  0.0264  0.1156
 3398SOL    HW121830   0.136   1.988   6.258  1.0370 -2.1260  0.8830
 3398SOL    HW221831   0.154   2.098   6.345 -0.5752 -0.1979 -0.3030
 3399SOL     OW21832   3.829   3.769  10.498 -0.2660 -0.0791 -0.5274
 3399SOL    HW121833   3.775   3.827  10.553  1.9749  1.8192 -0.3208
 3399SOL    HW221834   3.887   3.823  10.444  0.2080  1.9214  1.9424
 3400SOL     OW21835   2.394   1.836  16.468 -0.7384  0.1361  0.3368
 3400SOL    HW121836   2.346   1.772  16.416 -0.3886  0.5258 -0.4778
 3400SOL    HW221837   2.440   1.783  16.534 -0.4712 -0.6927 -0.5169
 3401SOL     OW21838   0.639   2.329   8.600  0.0785  0.4465  0.1336
 3401SOL    HW121839   0.730   2.350   8.622  1.5237 -2.8818 -2.5447
 3401SOL    HW221840   0.602   2.379   8.673  0.1208 -0.2552  0.6307
 3402SOL     OW21841   4.507   2.670  13.549 -0.5526 -0.0734  0.0537
 3402SOL    HW121842   4.511   2.651  13.643  0.2314 -0.5556 -0.0758
 3402SOL    HW221843   4.442   2.740  13.545  0.0243  0.3964 -1.0904
 3403SOL     OW21844   1.599   3.823   9.055 -0.4675  0.0312  0.2887
 3403SOL    HW121845   1.517   3.871   9.040 -0.2232  0.8533  1.6276
 3403SOL    HW221846   1.575   3.730   9.060  0.7631 -0.3294 -0.6454
 3404SOL     OW21847   2.922   4.468   5.061  0.2299  0.6376  0.0547
 3404SOL    HW121848   2.996   4.409   5.049  0.4314  0.7574  0.6755
 3404SOL    HW221849   2.920   4.511   4.976 -0.3688  0.0907 -0.2060
 3405SOL     OW21850   3.760   3.958  14.907 -0.3075 -0.4467 -0.6668
 3405SOL    HW121851   3.699   3.900  14.952 -0.1757  2.1423  2.8385
 3405SOL    HW221852   3.747   4.035  14.962  1.8139 -0.7407  0.2531
 3406SOL     OW21853   0.523   0.029  16.417  0.0212 -0.3615 -0.4027
 3406SOL    HW121854   0.553   0.040  16.327 -0.5139 -3.5213 -0.9736
 3406SOL    HW221855   0.528   0.123  16.434  3.0717 -0.3669 -1.2287
 3407SOL     OW21856   2.986   0.093   8.597  0.0457  0.0642 -0.2781
 3407SOL    HW121857   2.911   0.132   8.644  0.2759 -0.4211  0.4807
 3407SOL    HW221858   2.975   4.737   8.600 -3.3424  0.4558 -0.0382
 3408SOL     OW21859   3.729   3.557   3.769  0.5222 -0.6920  0.4151
 3408SOL    HW121860   3.637   3.576   3.747  0.3090 -3.4734 -1.1417
 3408SOL    HW221861   3.716   3.465   3.792  2.0601 -0.7932  0.8726
 3409SOL     OW21862   0.992   1.700   9.684 -0.3186  0.5718  0.0626
 3409SOL    HW121863   1.051   1.701   9.610 -1.4136 -0.8902 -0.8399
 3409SOL    HW221864   0.904   1.688   9.648 -1.1899  1.0563  2.0081
 3410SOL     OW21865   1.482   1.792   3.147  0.1342 -0.0025  0.2583
 3410SOL    HW121866   1.511   1.702   3.162  0.0938 -0.4474 -2.3250
 3410SOL    HW221867   1.504   1.838   3.228  1.1285 -2.7737  1.5789
 3411SOL     OW21868   0.865   0.452  14.842 -0.1021 -0.0904  0.3815
 3411SOL    HW121869   0.777   0.481  14.818  0.4819  2.8463  1.8308
 3411SOL    HW221870   0.842   0.435  14.934 -1.5078 -0.1086  0.0278
 3412SOL     OW21871   3.457   1.985  14.312 -0.1536  0.0262  0.0213
 3412SOL    HW121872   3.524   1.931  14.353  0.3037  1.6940  1.4363
 3412SOL    HW221873   3.496   2.014  14.229  1.1615  3.4664  1.8570
 3413SOL     OW21874   4.645   0.060   2.223 -0.0503  0.2154 -0.1705
 3413SOL    HW121875   4.567   0.028   2.268 -0.1466 -0.6525 -0.9508
 3413SOL    HW221876   4.654   4.730   2.157  1.5665 -0.8669  1.1719
 3414SOL     OW21877   0.234   3.288   7.855 -0.5977  0.7152 -0.0895
 3414SOL    HW121878   0.285   3.244   7.787 -1.4752  2.1907 -1.7174
 3414SOL    HW221879   0.224   3.216   7.916 -1.1426  2.6318  2.0763
 3415SOL     OW21880   1.689   1.203   8.860 -0.0423 -0.3276  0.0163
 3415SOL    HW121881   1.646   1.279   8.899  1.2425  0.5171 -0.2001
 3415SOL    HW221882   1.778   1.214   8.892 -0.5386 -0.4156  1.4041
 3416SOL     OW21883   3.097   1.138   8.474  0.4802 -0.0928  0.4374
 3416SOL    HW121884   3.036   1.211   8.481  1.5721  1.2033 -3.4023
 3416SOL    HW221885   3.058   1.091   8.400 -0.5849  0.4747  0.6426
 3417SOL     OW21886   4.397   3.350   7.883 -0.0727 -0.7047  0.2822
 3417SOL    HW121887   4.489   3.374   7.894 -0.1417 -0.3349  0.0489
 3417SOL    HW221888   4.407   3.256   7.869  2.4099 -0.4030 -0.0195
 3418SOL     OW21889   1.093   0.386   4.312 -0.6826  0.1217  0.0956
 3418SOL    HW121890   1.040   0.335   4.373  1.4102 -1.9281  0.1931
 3418SOL    HW221891   1.101   0.329   4.236 -1.3119 -1.9533  1.5978
 3419SOL     OW21892   2.722   1.718   3.590  0.1636  0.2336  0.1243
 3419SOL    HW121893   2.732   1.786   3.657  1.6616 -0.0664  0.1945
 3419SOL    HW221894   2.796   1.741   3.533 -0.2948 -0.3385 -0.6984
 3420SOL     OW21895   3.705   4.239   7.573  0.1644  0.0627  0.1926
 3420SOL    HW121896   3.687   4.313   7.516  0.6499 -0.2333 -0.3347
 3420SOL    HW221897   3.720   4.282   7.658 -0.8749 -0.2143  0.5217
 3421SOL     OW21898   4.355   3.463   4.932 -0.1268 -0.0125  0.4439
 3421SOL    HW121899   4.342   3.383   4.983  2.3083 -0.7792 -0.1334
 3421SOL    HW221900   4.338   3.428   4.844 -2.3362  2.4069 -0.0999
 3422SOL     OW21901   0.735   0.113   3.205  0.3554  0.1700 -0.8070
 3422SOL    HW121902   0.689   0.163   3.138 -0.3074  0.2141 -0.3141
 3422SOL    HW221903   0.745   0.179   3.274 -0.3949 -0.9018  0.3061
 3423SOL     OW21904   4.240   4.137   8.158  0.1432  0.3482  0.5156
 3423SOL    HW121905   4.263   4.064   8.216  1.2793  0.0096 -0.3781
 3423SOL    HW221906   4.330   4.163   8.140 -1.1415  1.8669 -3.7551
 3424SOL     OW21907   3.177   4.595  17.110 -0.4334  0.2741  0.1785
 3424SOL    HW121908   3.164   4.627  17.021 -3.4960 -0.6100  0.3082
 3424SOL    HW221909   3.090   4.570  17.141 -1.2450  1.9770 -0.7521
 3425SOL     OW21910   3.380   1.913   4.587 -0.3272  0.0526  0.3196
 3425SOL    HW121911   3.362   1.819   4.586 -0.2760  0.0389  0.7208
 3425SOL    HW221912   3.469   1.907   4.621  0.8276  1.1277 -2.4712
 3426SOL     OW21913   3.799   2.788  13.610 -0.2584  0.0802  0.9339
 3426SOL    HW121914   3.876   2.792  13.554 -0.3780 -3.1339  0.5319
 3426SOL    HW221915   3.741   2.798  13.535 -0.6895 -0.8476  1.1427
 3427SOL     OW21916   3.065   2.121  14.666 -0.4915 -0.4188  0.1094
 3427SOL    HW121917   2.981   2.080  14.646 -1.8832  1.6537  1.7198
 3427SOL    HW221918   3.101   2.127  14.578 -3.3201 -0.1828 -1.0101
 3428SOL     OW21919   3.496   2.946   7.472  0.6450  0.2672  0.0962
 3428SOL    HW121920   3.496   3.019   7.410 -1.6281 -0.5750 -0.8946
 3428SOL    HW221921   3.431   2.969   7.538  0.5789 -0.3776  0.2523
 3429SOL     OW21922   2.636   2.382   5.842  0.1538 -0.2668  0.9183
 3429SOL    HW121923   2.583   2.321   5.893  2.0479 -1.7775  1.0929
 3429SOL    HW221924   2.635   2.341   5.755  1.7995  1.2130  0.2211
 3430SOL     OW21925   2.805   3.803   8.431 -0.1556  0.0767 -0.1116
 3430SOL    HW121926   2.868   3.870   8.456  1.7612 -1.7301 -0.0906
 3430SOL    HW221927   2.857   3.733   8.391 -1.3871 -1.5514  1.1260
 3431SOL     OW21928   1.824   0.303   1.404 -0.0472  0.0337  0.1263
 3431SOL    HW121929   1.750   0.292   1.464 -0.7232  0.3325 -0.6393
 3431SOL    HW221930   1.787   0.237   1.345  0.3721 -0.1355  0.0553
 3432SOL     OW21931   2.768   0.573   9.313 -0.1978  1.1781  0.3343
 3432SOL    HW121932   2.823   0.618   9.248  0.0286 -1.5008 -1.2982
 3432SOL    HW221933   2.691   0.629   9.299 -0.6024  0.2900 -0.9885
 3433SOL     OW21934   0.430   1.620  13.117 -0.3638  0.2537 -0.0476
 3433SOL    HW121935   0.474   1.540  13.088 -2.8461 -0.7221 -1.1433
 3433SOL    HW221936   0.365   1.587  13.179  0.2723  1.3773  1.2321
 3434SOL     OW21937   2.430   2.536   6.539 -0.3069  0.2171  0.1426
 3434SOL    HW121938   2.352   2.484   6.522 -0.7415  1.8319 -2.7369
 3434SOL    HW221939   2.475   2.521   6.456 -2.1554  1.6387 -1.1063
 3435SOL     OW21940   0.594   4.184   0.446 -0.1309  0.0866  0.6195
 3435SOL    HW121941   0.548   4.238   0.510  1.6520  2.0272  0.2812
 3435SOL    HW221942   0.533   4.193   0.372 -0.5071 -1.0153  0.7999
 3436SOL     OW21943   0.256   2.576   1.115  0.5093 -0.5097  0.3751
 3436SOL    HW121944   0.222   2.560   1.203 -0.3070 -1.3910 -0.0866
 3436SOL    HW221945   0.305   2.656   1.131 -0.7247  0.2521  0.3920
 3437SOL     OW21946   2.944   1.812   6.767 -0.2195  0.0212 -0.0693
 3437SOL    HW121947   2.890   1.870   6.714 -1.6573 -1.5437 -0.3125
 3437SOL    HW221948   2.879   1.798   6.836  0.9652 -3.5177  0.3300
 3438SOL     OW21949   3.952   2.482   1.146  0.0481  0.0594  0.3326
 3438SOL    HW121950   4.026   2.504   1.089 -0.0838 -2.7137 -0.9149
 3438SOL    HW221951   3.897   2.428   1.089 -1.9034  0.0642  2.2205
 3439SOL     OW21952   1.185   0.808   7.360  0.1973 -0.2871 -0.8261
 3439SOL    HW121953   1.103   0.808   7.310 -0.5870  0.1422  0.4460
 3439SOL    HW221954   1.201   0.900   7.383 -2.4880  0.1931 -0.9122
 3440SOL     OW21955   2.300   0.086   4.516 -0.1777  0.0233  0.1855
 3440SOL    HW121956   2.363   0.083   4.444 -0.3139 -0.2430  0.0757
 3440SOL    HW221957   2.276   4.732   4.508 -0.0508 -0.0200  0.3136
 3441SOL     OW21958   0.518   3.722  12.207 -0.6192  0.1024 -0.2079
 3441SOL    HW121959   0.499   3.791  12.270 -2.1433 -0.1971 -0.3392
 3441SOL    HW221960   0.498   3.768  12.126 -0.7058 -1.6525 -1.1863
 3442SOL     OW21961   0.629   1.089  17.541 -0.4585  0.0332 -0.1474
 3442SOL    HW121962   0.705   1.051  17.585 -0.1781 -1.4075 -1.9127
 3442SOL    HW221963   0.560   1.072  17.605  1.5008 -3.1899  1.0704
 3443SOL     OW21964   0.198   4.543   8.882 -0.1431  0.0616 -0.1981
 3443SOL    HW121965   0.119   4.507   8.841  1.8270  0.5225 -4.3359
 3443SOL    HW221966   0.223   4.604   8.813 -0.0962 -1.6893 -1.7234
 3444SOL     OW21967   2.539   2.996   3.440  0.3362  0.2567  0.8863
 3444SOL    HW121968   2.473   3.064   3.458 -0.6755 -0.3317 -0.5895
 3444SOL    HW221969   2.493   2.915   3.419 -0.2527 -0.1548  3.7927
 3445SOL     OW21970   0.640   2.824  12.487 -0.1365  0.1470  0.3379
 3445SOL    HW121971   0.589   2.839  12.566 -0.8989  1.2593 -0.3618
 3445SOL    HW221972   0.662   2.916  12.471  2.1865 -0.7939 -1.9239
 3446SOL     OW21973   3.517   2.349   6.417  0.1148 -0.8661  0.3546
 3446SOL    HW121974   3.483   2.264   6.447 -1.5838 -0.1816  0.3523
 3446SOL    HW221975   3.466   2.408   6.471 -0.3286  0.1723 -1.1923
 3447SOL     OW21976   0.610   2.696   1.324 -0.2391 -0.5016  0.2554
 3447SOL    HW121977   0.589   2.613   1.367 -2.7153  0.5553  1.0694
 3447SOL    HW221978   0.668   2.728   1.394  1.0991 -1.2589 -0.5035
 3448SOL     OW21979   3.021   1.208   4.082  0.3685  0.3815  0.1582
 3448SOL    HW121980   3.082   1.272   4.046  2.4231 -1.7533 -0.1514
 3448SOL    HW221981   2.981   1.253   4.156  0.9852 -0.2758  0.8937
 3449SOL     OW21982   0.033   0.343  12.671 -0.1483 -0.5640 -0.3137
 3449SOL    HW121983   4.713   0.270  12.657 -0.4299 -0.0206 -1.9885
 3449SOL    HW221984   4.714   0.415  12.696  0.7920  0.6597 -1.6399
 3450SOL     OW21985   2.608   0.707  11.673  0.1005  0.1413 -0.6453
 3450SOL    HW121986   2.641   0.617  11.667  1.9695  0.8733 -1.1266
 3450SOL    HW221987   2.590   0.708  11.767  0.8110  0.8835 -0.5169
 3451SOL     OW21988   2.615   4.311   1.643 -0.9846 -0.0595  0.1576
 3451SOL    HW121989   2.661   4.275   1.568  0.7535  1.6176  0.4100
 3451SOL    HW221990   2.674   4.372   1.689  0.1977 -2.7549  2.2234
 3452SOL     OW21991   0.832   4.081   9.361 -0.6144  0.3145  0.3109
 3452SOL    HW121992   0.839   4.159   9.416  0.7574  0.8305 -0.5993
 3452SOL    HW221993   0.739   4.085   9.341 -0.7972 -2.2508  0.6698
 3453SOL     OW21994   3.475   0.175   7.593  0.5102 -0.4540 -0.0646
 3453SOL    HW121995   3.424   0.216   7.522  0.3569  1.3838  1.1138
 3453SOL    HW221996   3.562   0.201   7.563 -0.9461  0.0995 -3.7953
 3454SOL     OW21997   3.441   1.732   2.773  0.9567 -0.3181 -0.3189
 3454SOL    HW121998   3.486   1.782   2.704  0.8787  2.1290  1.4037
 3454SOL    HW221999   3.475   1.774   2.852 -1.1460  1.5857 -0.4359
 3455SOL     OW22000   0.345   4.437  17.186 -0.1757 -0.0968  0.9080
 3455SOL    HW122001   0.298   4.511  17.147  1.2269 -0.6469 -1.7900
 3455SOL    HW222002   0.339   4.466  17.277  1.3080  1.5172  0.4921
 3456SOL     OW22003   2.574   0.574   6.231 -0.3789  0.2270 -0.0309
 3456SOL    HW122004   2.588   0.501   6.172  1.4802  1.8889 -1.6393
 3456SOL    HW222005   2.529   0.527   6.302 -0.9847 -1.8723 -1.8185
 3457SOL     OW22006   0.084   3.556   1.345  0.4446  0.2810 -0.2845
 3457SOL    HW122007   0.024   3.607   1.400 -2.0844 -2.2341 -0.7120
 3457SOL    HW222008   0.114   3.490   1.408  1.1968 -1.9267 -2.9582
 3458SOL     OW22009   2.107   2.214   6.881  0.3053 -0.0881  0.2736
 3458SOL    HW122010   2.167   2.220   6.807  1.0361 -0.7240  0.8196
 3458SOL    HW222011   2.064   2.299   6.869 -0.3472 -0.3332  0.8602
 3459SOL     OW22012   4.302   4.121   9.044 -0.1092  0.3027 -0.5741
 3459SOL    HW122013   4.313   4.159   8.957  0.2136  4.2712  1.1932
 3459SOL    HW222014   4.351   4.184   9.096 -0.0808 -0.4020  0.2477
 3460SOL     OW22015   0.423   4.732   3.679  0.1504  0.3246  0.4707
 3460SOL    HW122016   0.328   4.722   3.682  0.0540  0.3186 -1.9548
 3460SOL    HW222017   0.463   4.646   3.686  0.0095  0.2714  0.6206
 3461SOL     OW22018   0.483   1.911  16.109 -0.0669  0.4570  0.2488
 3461SOL    HW122019   0.480   2.000  16.143 -0.4288  0.9470 -1.0815
 3461SOL    HW222020   0.508   1.935  16.020  1.1041 -0.1871  0.4045
 3462SOL     OW22021   2.520   1.804   8.463  0.4774 -0.1069 -0.2026
 3462SOL    HW122022   2.430   1.813   8.431  0.7890 -1.2008 -1.3879
 3462SOL    HW222023   2.505   1.811   8.557  1.2673 -0.4351 -0.0536
 3463SOL     OW22024   4.091   4.239   7.609  0.2174  0.4073  0.7786
 3463SOL    HW122025   4.165   4.264   7.554 -1.2231  1.0071 -0.8966
 3463SOL    HW222026   4.034   4.315   7.622 -1.3577 -0.6992  0.4038
 3464SOL     OW22027   1.343   0.109  13.496  0.0867 -0.2354 -0.0162
 3464SOL    HW122028   1.315   0.113  13.404 -0.1565 -2.2146 -0.0247
 3464SOL    HW222029   1.269   0.055  13.523 -0.3939  0.6133  0.3223
 3465SOL     OW22030   1.868   3.608   6.763 -0.2204 -0.5214  0.1083
 3465SOL    HW122031   1.882   3.513   6.764 -1.1607 -0.6601 -0.2776
 3465SOL    HW222032   1.916   3.628   6.843  0.4426  0.1192 -0.4498
 3466SOL     OW22033   0.987   0.488   2.441 -0.1804  0.0180  0.6676
 3466SOL    HW122034   0.904   0.535   2.448 -1.0120 -1.3307  0.0006
 3466SOL    HW222035   0.966   0.395   2.453  1.1129  0.0799  3.5105
 3467SOL     OW22036   0.813   1.832   3.808 -0.3440  0.0117 -0.1440
 3467SOL    HW122037   0.828   1.811   3.716 -0.1966  1.8068 -0.5206
 3467SOL    HW222038   0.807   1.745   3.848  0.0166  1.5897  3.3205
 3468SOL     OW22039   2.949   1.080  15.035 -0.0178  0.6477  0.1673
 3468SOL    HW122040   2.886   1.123  14.977 -0.9787 -0.2204  0.5706
 3468SOL    HW222041   2.930   0.987  15.031  1.4964  0.4532 -2.6699
 3469SOL     OW22042   0.637   0.260   1.952  0.6789  0.1076  0.1805
 3469SOL    HW122043   0.718   0.312   1.951  1.0450 -0.4924 -1.6470
 3469SOL    HW222044   0.575   0.330   1.966  1.7369  0.7767  1.5118
 3470SOL     OW22045   4.531   4.149   7.347 -0.3448  0.3893  0.1585
 3470SOL    HW122046   4.607   4.101   7.378  0.0962  0.2506 -1.1197
 3470SOL    HW222047   4.545   4.160   7.253 -1.4792  0.5850  0.0078
 3471SOL     OW22048   1.572   2.173   1.194 -0.1132 -0.5239  0.1345
 3471SOL    HW122049   1.489   2.129   1.212 -1.1318 -0.0646 -3.3753
 3471SOL    HW222050   1.547   2.265   1.199 -0.3026 -0.5681  0.0091
 3472SOL     OW22051   2.531   3.526   3.715  0.7802  0.1831  0.7912
 3472SOL    HW122052   2.589   3.588   3.670 -0.8872  0.9718 -0.2586
 3472SOL    HW222053   2.562   3.527   3.805 -0.4916  1.1559  1.2135
 3473SOL     OW22054   1.499   4.327  16.989  0.6451 -0.3501  0.0228
 3473SOL    HW122055   1.573   4.358  16.937 -2.0206  2.1167 -2.2236
 3473SOL    HW222056   1.452   4.284  16.918  1.2451  0.3726 -0.8081
 3474SOL     OW22057   2.691   2.349   0.263 -0.5542  0.7442 -0.0802
 3474SOL    HW122058   2.614   2.318   0.216 -2.7829  2.0317  2.6805
 3474SOL    HW222059   2.697   2.292   0.340 -1.1485 -1.2644 -1.5291
 3475SOL     OW22060   0.115   3.176  13.696  0.0367  0.6942 -0.0316
 3475SOL    HW122061   0.125   3.111  13.626 -1.5365 -1.1471  1.4441
 3475SOL    HW222062   0.181   3.150  13.761  0.3661 -0.1284 -0.6956
 3476SOL     OW22063   4.592   0.302   6.099  0.1429  0.1030  0.0382
 3476SOL    HW122064   4.571   0.359   6.025  0.7637  0.4583  0.1312
 3476SOL    HW222065   4.641   0.234   6.053 -0.1828 -0.0540 -0.0728
 3477SOL     OW22066   4.234   1.988  16.683 -0.6724 -0.3971  0.7445
 3477SOL    HW122067   4.153   1.978  16.734 -0.3324 -0.7866  1.1988
 3477SOL    HW222068   4.300   2.022  16.742 -1.3635  0.7069  0.8947
 3478SOL     OW22069   0.613   0.967   6.716 -0.0187  0.1354  0.2610
 3478SOL    HW122070   0.539   1.013   6.756  0.9313  0.3811  1.7219
 3478SOL    HW222071   0.692   0.988   6.766 -0.4086  0.6394  0.6658
 3479SOL     OW22072   2.279   0.288   8.262  0.1656  0.2332  0.6283
 3479SOL    HW122073   2.221   0.312   8.190 -0.7758  0.1954  1.3633
 3479SOL    HW222074   2.270   0.364   8.320 -0.4148  0.6286  0.0275
 3480SOL     OW22075   0.704   0.482   7.651  0.0721 -0.4071 -0.5686
 3480SOL    HW122076   0.722   0.414   7.716  1.5085  0.4862 -0.0240
 3480SOL    HW222077   0.609   0.486   7.660  0.0331 -1.3008 -0.6222
 3481SOL     OW22078   4.700   3.077   6.843  0.1449 -0.1769  1.0823
 3481SOL    HW122079   4.634   3.011   6.824 -0.2605  0.3054  0.8045
 3481SOL    HW222080   4.666   3.149   6.790 -0.9970 -1.1031  0.5752
 3482SOL     OW22081   2.738   3.334  10.143 -0.2528 -0.2623 -0.0205
 3482SOL    HW122082   2.706   3.322  10.054 -0.8793  0.3409  0.1210
 3482SOL    HW222083   2.665   3.302  10.195 -0.2008 -0.8044 -0.2904
 3483SOL     OW22084   2.953   4.640   8.184 -0.0798  0.2739  0.7596
 3483SOL    HW122085   2.977   4.575   8.118  0.1909  1.1253  0.0193
 3483SOL    HW222086   3.036   4.632   8.232  1.4024 -1.9179 -2.1890
 3484SOL     OW22087   0.043   4.238   6.081 -0.7808  0.0952  0.3154
 3484SOL    HW122088   0.039   4.331   6.102 -1.1766  0.0493  0.4513
 3484SOL    HW222089   4.700   4.218   6.035 -0.1543 -3.6133  0.7812
 3485SOL     OW22090   3.809   3.482   6.339  0.1225  0.4018 -0.2469
 3485SOL    HW122091   3.822   3.509   6.430 -2.0385  0.8124 -0.0712
 3485SOL    HW222092   3.728   3.531   6.327 -0.6254 -0.5655  0.9164
 3486SOL     OW22093   1.596   2.948  15.620  0.1117 -0.2839 -0.2481
 3486SOL    HW122094   1.666   2.886  15.642 -0.8336  0.4917  4.8045
 3486SOL    HW222095   1.584   2.915  15.530 -0.8773  0.2112 -0.2950
 3487SOL     OW22096   0.872   2.509   4.997  0.1473  0.5291  0.0667
 3487SOL    HW122097   0.787   2.481   4.961  0.8278 -1.9376  0.3659
 3487SOL    HW222098   0.918   2.425   5.003  1.1656  1.1625  1.1687
 3488SOL     OW22099   2.860   3.079   1.068  0.1517  0.0278  0.2932
 3488SOL    HW122100   2.936   3.127   1.100 -0.4702  0.3446  1.2726
 3488SOL    HW222101   2.898   2.993   1.049  0.3960 -0.4050  2.7890
 3489SOL     OW22102   2.701   1.682  17.119 -0.6591  0.3357  0.0553
 3489SOL    HW122103   2.689   1.771  17.152 -1.3515 -0.3514  1.6154
 3489SOL    HW222104   2.751   1.631  17.182 -0.6500  1.4015  0.9045
 3490SOL     OW22105   1.250   3.921   3.757 -0.2561  0.0186 -0.0694
 3490SOL    HW122106   1.215   3.900   3.671 -2.3608  1.1883  0.4768
 3490SOL    HW222107   1.305   3.997   3.740 -0.4647  0.7417  2.3449
 3491SOL     OW22108   3.986   2.287   3.333  0.0589 -0.1632 -0.3654
 3491SOL    HW122109   4.060   2.251   3.382  0.6500 -1.1547 -2.0054
 3491SOL    HW222110   4.036   2.277   3.252  0.3915  0.1869 -0.2044
 3492SOL     OW22111   3.398   4.033  11.529  0.0148 -0.0337 -0.3093
 3492SOL    HW122112   3.344   3.968  11.574 -1.4003  0.1987 -1.6733
 3492SOL    HW222113   3.486   3.995  11.522  0.8488  1.6912  0.7619
 3493SOL     OW22114   4.512   1.342  12.731  0.4590 -0.4792  0.3760
 3493SOL    HW122115   4.569   1.287  12.678 -0.9653 -2.7159  1.1075
 3493SOL    HW222116   4.519   1.424  12.683 -4.3941 -1.5385 -2.0969
 3494SOL     OW22117   1.456   3.693  11.408 -0.2693 -0.1595  0.7187
 3494SOL    HW122118   1.435   3.600  11.405 -0.9304  0.0428 -0.7972
 3494SOL    HW222119   1.551   3.694  11.404 -0.2267  1.4582  1.9197
 3495SOL     OW22120   4.526   0.155   5.764 -0.0494 -0.2992 -0.1579
 3495SOL    HW122121   4.585   0.223   5.794 -2.6735  0.9271  2.2503
 3495SOL    HW222122   4.442   0.184   5.800  1.1160  1.7125  0.9547
 3496SOL     OW22123   0.508   3.024   5.770 -0.3537  0.2388 -0.0288
 3496SOL    HW122124   0.417   3.045   5.786 -0.0612  0.9873  0.6464
 3496SOL    HW222125   0.551   3.062   5.847 -1.5346  1.1869  0.1593
 3497SOL     OW22126   0.411   1.431   0.347 -0.1980 -0.0522  0.1273
 3497SOL    HW122127   0.325   1.454   0.312  0.5423  0.8487 -1.0847
 3497SOL    HW222128   0.458   1.515   0.352  0.1159 -0.1534 -1.0529
 3498SOL     OW22129   4.425   0.978   8.145 -0.1448 -0.2335  0.5217
 3498SOL    HW122130   4.495   0.964   8.082 -2.2670 -1.4201 -1.5706
 3498SOL    HW222131   4.345   0.966   8.094 -0.9841  0.7733  1.5814
 3499SOL     OW22132   3.665   3.060   6.173 -0.6325  0.0103 -0.1850
 3499SOL    HW122133   3.643   3.152   6.163 -0.8222  0.3773  3.4356
 3499SOL    HW222134   3.587   3.035   6.223 -0.1465  0.2865  0.7269
 3500SOL     OW22135   3.791   3.006  10.359 -0.0709  0.3023 -0.2711
 3500SOL    HW122136   3.756   3.095  10.366 -3.5841 -0.9608 -1.8570
 3500SOL    HW222137   3.806   2.996  10.265 -0.1855 -0.2903 -0.2229
 3501SOL     OW22138   0.042   3.515   3.283  0.8667  0.3572  0.3955
 3501SOL    HW122139   4.711   3.555   3.334  0.1842  0.6776 -0.7981
 3501SOL    HW222140   4.733   3.453   3.228  0.8940  2.1916 -1.7105
 3502SOL     OW22141   3.184   3.253   0.027 -0.0847 -0.6584 -0.1187
 3502SOL    HW122142   3.245   3.239   0.098 -0.2865  2.7437  0.7545
 3502SOL    HW222143   3.147   3.165   0.022  1.1802 -1.2798  1.6596
 3503SOL     OW22144   2.726   2.941  14.365  0.0850  0.2067  0.3255
 3503SOL    HW122145   2.792   2.994  14.410 -0.8771  1.9824 -0.3706
 3503SOL    HW222146   2.681   3.012  14.319  0.0293  0.2360  0.4252
 3504SOL     OW22147   1.781   3.879   6.797 -0.0162 -0.0729  0.3025
 3504SOL    HW122148   1.822   3.884   6.884  0.1689 -0.6878  0.2489
 3504SOL    HW222149   1.805   3.791   6.768  2.1282  1.1744 -1.7898
 3505SOL     OW22150   2.851   0.149   0.051 -0.3221  0.5202 -0.5827
 3505SOL    HW122151   2.792   0.075   0.070  1.0658  0.0618  1.9594
 3505SOL    HW222152   2.780   0.211   0.068 -0.1247  0.9017 -1.1721
 3506SOL     OW22153   0.794   0.245   5.016 -0.2126  0.0513  0.3840
 3506SOL    HW122154   0.781   0.218   4.925 -0.4212 -2.7319  1.2425
 3506SOL    HW222155   0.704   0.240   5.048  0.0272  1.3207  1.2085
 3507SOL     OW22156   3.320   1.546  15.275 -0.0214 -0.0815  0.5469
 3507SOL    HW122157   3.281   1.633  15.283  2.4845  1.0781  0.2045
 3507SOL    HW222158   3.275   1.502  15.203 -0.1994 -0.3638  0.8300
 3508SOL     OW22159   2.767   2.359   3.300  0.0463 -0.0074 -0.6573
 3508SOL    HW122160   2.828   2.320   3.362  0.7951  0.3182 -1.1847
 3508SOL    HW222161   2.822   2.430   3.266 -2.4068  1.9360 -0.5828
 3509SOL     OW22162   0.423   3.497   3.608  0.2436 -0.2746  0.3948
 3509SOL    HW122163   0.386   3.430   3.664 -0.0235  0.3015  0.9132
 3509SOL    HW222164   0.376   3.484   3.525  1.0585 -1.0630  0.0626
 3510SOL     OW22165   3.698   2.230  17.603  0.1879 -0.4570  0.3605
 3510SOL    HW122166   3.681   2.136  17.592 -1.4789 -0.1858  0.6004
 3510SOL    HW222167   3.786   2.233  17.641  0.5407 -0.0480 -0.4880
 3511SOL     OW22168   1.340   0.733   2.502  0.1604 -0.0775 -0.0225
 3511SOL    HW122169   1.392   0.685   2.437  4.7392  1.0669  2.7663
 3511SOL    HW222170   1.341   0.821   2.464  2.8819 -0.2950 -0.4731
 3512SOL     OW22171   3.060   0.967   6.749  0.5446  0.0699  0.3402
 3512SOL    HW122172   3.143   1.009   6.724 -0.6275  1.5644 -1.0111
 3512SOL    HW222173   3.078   0.875   6.764 -1.4759 -0.2628  0.6724
 3513SOL     OW22174   3.530   4.390  12.158  0.2116 -0.1183 -0.1073
 3513SOL    HW122175   3.576   4.356  12.081  2.4170  0.3924  0.9961
 3513SOL    HW222176   3.453   4.422  12.111  0.0930  0.5724  0.5508
 3514SOL     OW22177   2.247   2.998   1.192  0.0034 -0.3473  0.1844
 3514SOL    HW122178   2.267   2.905   1.202  0.5258 -0.2265  0.2740
 3514SOL    HW222179   2.301   3.020   1.116 -4.5887  0.1168 -2.9382
 3515SOL     OW22180   1.480   1.209   4.689  0.2569  0.8553  0.0011
 3515SOL    HW122181   1.546   1.142   4.673  1.1879  1.6071  0.6517
 3515SOL    HW222182   1.397   1.162   4.686  1.5235 -1.4703  1.2679
 3516SOL     OW22183   2.086   0.206   7.643  0.4780  0.3332  0.4434
 3516SOL    HW122184   2.151   0.216   7.712  0.7436 -1.4660  0.4530
 3516SOL    HW222185   2.040   0.139   7.693  0.4674 -0.8618 -1.1895
 3517SOL     OW22186   1.920   0.634   2.168  0.0683  0.5809  0.0206
 3517SOL    HW122187   1.879   0.608   2.086  1.1738  0.3730 -0.4685
 3517SOL    HW222188   1.955   0.722   2.156  2.0204 -0.0569  1.0126
 3518SOL     OW22189   3.540   0.351   5.827 -0.0585  0.1040 -0.0988
 3518SOL    HW122190   3.523   0.437   5.788 -1.2115 -1.0113 -2.0680
 3518SOL    HW222191   3.624   0.366   5.869 -0.1057 -0.7890  0.2941
 3519SOL     OW22192   1.990   2.745   6.700 -0.4599 -0.2854 -0.2953
 3519SOL    HW122193   1.948   2.699   6.773  0.4788 -1.7467 -0.6600
 3519SOL    HW222194   2.083   2.728   6.717 -0.1620  0.2293 -1.4005
 3520SOL     OW22195   0.022   2.429  11.616 -0.5942 -0.8884  0.4254
 3520SOL    HW122196   0.080   2.406  11.688  1.0052  1.6348 -0.0849
 3520SOL    HW222197   0.024   2.360  11.549 -0.3511  0.7385 -1.2471
 3521SOL     OW22198   0.190   3.174  14.392 -0.0731 -0.0352  0.9415
 3521SOL    HW122199   0.255   3.234  14.430 -0.3245  0.2955  0.8512
 3521SOL    HW222200   0.222   3.149  14.306  0.8101  0.2148  1.1973
 3522SOL     OW22201   2.018   2.373   7.318  0.0267  0.7280 -0.6037
 3522SOL    HW122202   2.102   2.384   7.275  0.4781  1.9629  0.6039
 3522SOL    HW222203   1.961   2.376   7.241  0.0853  0.9374 -0.6368
 3523SOL     OW22204   3.419   1.024   2.731  0.3537 -0.1885  0.5226
 3523SOL    HW122205   3.377   0.938   2.730  0.1100 -0.0740  2.2143
 3523SOL    HW222206   3.419   1.047   2.638 -0.5909 -1.6245  0.1680
 3524SOL     OW22207   4.326   0.533   2.261 -0.1095 -0.1740 -0.0800
 3524SOL    HW122208   4.236   0.506   2.242  0.4894 -0.5725 -2.3750
 3524SOL    HW222209   4.337   0.604   2.198 -1.2952  0.5793  0.5727
 3525SOL     OW22210   3.845   0.522   7.150 -0.0959 -0.1119 -0.1790
 3525SOL    HW122211   3.890   0.471   7.218  1.1237  0.3554 -0.6348
 3525SOL    HW222212   3.761   0.526   7.196  0.5449  0.6463  0.9099
 3526SOL     OW22213   3.500   3.111   5.509 -0.0987  0.1415 -0.4531
 3526SOL    HW122214   3.567   3.074   5.452 -0.3692 -1.5621  0.3398
 3526SOL    HW222215   3.553   3.145   5.581  1.4981  1.1148 -2.0752
 3527SOL     OW22216   0.717   4.037  10.218 -0.2805  0.0688  0.2877
 3527SOL    HW122217   0.800   4.084  10.226 -0.0509 -0.7809  2.8170
 3527SOL    HW222218   0.681   4.053  10.306  0.5082 -3.0825  1.1770
 3528SOL     OW22219   1.732   1.707  16.989  0.1175  0.1835 -0.0232
 3528SOL    HW122220   1.782   1.713  17.070 -0.8198  2.3481  0.3985
 3528SOL    HW222221   1.760   1.618  16.968 -0.0391  0.5973 -2.0071
 3529SOL     OW22222   1.832   3.629   4.975  0.2899 -0.2421  0.2601
 3529SOL    HW122223   1.766   3.635   4.906  1.2396  1.1922 -0.5214
 3529SOL    HW222224   1.911   3.666   4.936 -0.3541 -0.1098 -0.9166
 3530SOL     OW22225   4.594   0.909   9.842  0.6311  0.3034 -0.3135
 3530SOL    HW122226   4.605   0.998   9.808  0.5489 -0.2868 -1.8519
 3530SOL    HW222227   4.513   0.920   9.892  1.0441  0.0918  0.4115
 3531SOL     OW22228   4.609   1.065   9.538 -0.2639 -0.4695 -0.3763
 3531SOL    HW122229   4.517   1.080   9.559  0.0800  0.6924  0.2912
 3531SOL    HW222230   4.651   1.116   9.608 -0.9299 -0.5341  0.0655
 3532SOL     OW22231   1.381   3.861   6.596 -0.2202 -0.0116  0.2556
 3532SOL    HW122232   1.409   3.941   6.639  1.4048 -0.5610  0.2332
 3532SOL    HW222233   1.432   3.796   6.645  0.1575 -0.1826 -0.3526
 3533SOL     OW22234   2.899   1.948  16.427 -0.4451  0.0362  0.3871
 3533SOL    HW122235   2.816   1.900  16.436  0.1391 -0.9980  0.2976
 3533SOL    HW222236   2.872   2.039  16.435  2.7314  1.0439 -0.6969
 3534SOL     OW22237   0.993   0.142   6.791  0.0155  0.8597 -0.4074
 3534SOL    HW122238   0.973   0.235   6.799  0.0149  0.7031  1.3839
 3534SOL    HW222239   0.943   0.121   6.712  0.1430  0.0496 -0.2735
 3535SOL     OW22240   4.205   2.207   6.530  0.0768  0.5512 -0.4226
 3535SOL    HW122241   4.288   2.160   6.523 -0.5264 -0.4669 -0.8253
 3535SOL    HW222242   4.153   2.154   6.470 -0.1897  0.3543 -0.0135
 3536SOL     OW22243   3.240   2.308   4.398  0.0696  0.1367  0.3909
 3536SOL    HW122244   3.237   2.402   4.414  2.6452  0.3732 -0.5168
 3536SOL    HW222245   3.227   2.270   4.485  0.4679 -1.0209 -0.0642
 3537SOL     OW22246   1.370   3.444   2.662  0.7790  0.8410 -0.0298
 3537SOL    HW122247   1.302   3.506   2.633  0.1604 -0.3814 -1.2207
 3537SOL    HW222248   1.442   3.506   2.675  1.1283  0.0130  1.9547
 3538SOL     OW22249   3.805   4.009   6.659  0.4842  0.9988  0.3051
 3538SOL    HW122250   3.787   4.103   6.653  0.5650  1.1205  2.1227
 3538SOL    HW222251   3.761   3.988   6.741  1.4217  1.5603  0.9595
 3539SOL     OW22252   1.441   1.043   4.976  0.7911 -0.2036  0.0374
 3539SOL    HW122253   1.358   1.040   4.930  1.3986  1.5253 -1.1687
 3539SOL    HW222254   1.427   1.130   5.014  2.2488 -0.7051  1.7829
 3540SOL     OW22255   4.090   0.250   7.741 -0.6450  0.0024  0.0982
 3540SOL    HW122256   3.999   0.275   7.758 -1.4690  0.0285 -4.3779
 3540SOL    HW222257   4.082   0.155   7.746 -3.1809  0.0943 -1.8576
 3541SOL     OW22258   1.113   0.361   9.936 -0.6444  0.0158  0.2128
 3541SOL    HW122259   1.070   0.329   9.857  2.9910 -0.3731 -1.6230
 3541SOL    HW222260   1.071   0.448   9.938  2.2198  1.3999 -0.1161
 3542SOL     OW22261   4.638   2.554   8.026 -0.0758  0.4687  0.2376
 3542SOL    HW122262   4.578   2.550   7.951  1.2171  1.1080 -0.8372
 3542SOL    HW222263   4.570   2.555   8.093  1.8839  0.5912  2.2318
 3543SOL     OW22264   2.890   2.732  17.011 -0.6768  0.5410  0.0359
 3543SOL    HW122265   2.938   2.738  16.928  0.0604  1.2804  0.5241
 3543SOL    HW222266   2.897   2.638  17.031  2.8816  0.8606  0.1756
 3544SOL     OW22267   0.850   4.026   3.027  0.5899  0.1483 -0.1622
 3544SOL    HW122268   0.919   3.980   3.075  1.0851  0.9159 -0.1446
 3544SOL    HW222269   0.801   4.053   3.105 -0.3492  0.6102 -0.9162
 3545SOL     OW22270   4.629   3.385   4.559  0.3181 -0.2102  0.3380
 3545SOL    HW122271   4.557   3.390   4.623  0.4247  1.4307  0.3397
 3545SOL    HW222272   4.578   3.364   4.481  0.6785 -1.7105  0.5024
 3546SOL     OW22273   0.919   0.930   4.610  0.0653  0.2136  0.2377
 3546SOL    HW122274   0.827   0.944   4.586  0.3495  0.2794 -0.8105
 3546SOL    HW222275   0.931   0.993   4.681 -2.8538  0.0679  0.8716
 3547SOL     OW22276   2.772   3.267   2.613 -0.3512 -0.1580  0.5161
 3547SOL    HW122277   2.868   3.273   2.615 -0.4061  1.6447 -2.4720
 3547SOL    HW222278   2.753   3.359   2.595 -0.0404 -0.4689 -1.4046
 3548SOL     OW22279   2.900   2.982   6.580 -0.3357  0.5622  0.1385
 3548SOL    HW122280   2.885   3.068   6.620  0.6264  1.2442 -0.9887
 3548SOL    HW222281   2.949   2.944   6.653  0.2621 -2.2307 -1.7202
 3549SOL     OW22282   3.039   3.359   7.796  0.1307  0.5045  0.0232
 3549SOL    HW122283   3.099   3.293   7.831 -1.6116 -0.5544  1.0681
 3549SOL    HW222284   3.087   3.404   7.726  1.4577 -0.1901  0.4965
 3550SOL     OW22285   1.162   1.340   3.199  0.4567 -0.2448 -0.0056
 3550SOL    HW122286   1.093   1.287   3.239  1.3226 -2.0980 -0.9301
 3550SOL    HW222287   1.149   1.323   3.105  1.5381  1.8330 -0.5400
 3551SOL     OW22288   2.740   0.963   6.059  0.1511 -0.3502 -0.3118
 3551SOL    HW122289   2.720   0.945   6.150 -1.1920  1.9583 -0.1524
 3551SOL    HW222290   2.754   0.877   6.019 -0.9543 -0.1925 -1.0415
 3552SOL     OW22291   3.383   2.578  11.661  0.5803 -0.4047 -0.4018
 3552SOL    HW122292   3.412   2.614  11.745 -0.0623 -1.4759  0.2699
 3552SOL    HW222293   3.309   2.527  11.694  0.6031 -1.4433 -2.0060
 3553SOL     OW22294   2.593   0.662   4.393  0.6346 -0.0733  0.3447
 3553SOL    HW122295   2.605   0.703   4.307 -0.4447  0.4191  0.4303
 3553SOL    HW222296   2.597   0.569   4.375 -1.7673 -0.4059  1.5492
 3554SOL     OW22297   3.293   4.025   2.389  0.0612 -0.6133 -0.1031
 3554SOL    HW122298   3.311   4.060   2.302 -0.4596 -0.0262  0.0297
 3554SOL    HW222299   3.385   4.016   2.413  0.7645  1.1218 -2.0825
 3555SOL     OW22300   1.784   4.628   0.806 -0.6074 -0.2659 -0.1162
 3555SOL    HW122301   1.864   4.648   0.759  0.2196 -2.1950  0.4944
 3555SOL    HW222302   1.723   4.689   0.763 -0.6540  1.3231  2.1907
 3556SOL     OW22303   2.413   2.339  17.227  0.1480  0.8035 -0.0238
 3556SOL    HW122304   2.466   2.415  17.201  0.4192  0.4232 -0.5951
 3556SOL    HW222305   2.331   2.375  17.261 -0.9071 -1.8412  0.2831
 3557SOL     OW22306   1.089   1.596   2.774 -0.5278 -0.6888  0.3477
 3557SOL    HW122307   1.008   1.546   2.780  0.2949 -2.0468  0.2394
 3557SOL    HW222308   1.132   1.543   2.708 -0.2397  1.6908 -1.3695
 3558SOL     OW22309   1.709   2.555   1.860  0.1764 -0.1856 -0.0327
 3558SOL    HW122310   1.656   2.552   1.939  0.0106  0.6135 -0.1105
 3558SOL    HW222311   1.717   2.465   1.829 -0.7943 -0.4094  0.3758
 3559SOL     OW22312   2.297   3.335   1.778 -0.1342 -0.4318  0.4315
 3559SOL    HW122313   2.367   3.315   1.840 -0.1306  1.4855  1.0329
 3559SOL    HW222314   2.346   3.400   1.728 -1.3542  1.0047  1.1446
 3560SOL     OW22315   2.644   3.175   5.734 -0.4236 -0.1379 -0.4217
 3560SOL    HW122316   2.699   3.245   5.699  1.5987 -0.6410  1.7019
 3560SOL    HW222317   2.578   3.168   5.665  1.2405  0.5107 -2.0694
 3561SOL     OW22318   4.270   0.238   5.859  0.7617  0.5577  0.2991
 3561SOL    HW122319   4.248   0.329   5.878 -0.1820  0.2580  0.6180
 3561SOL    HW222320   4.179   0.210   5.854  1.3016 -1.3737  1.1168
 3562SOL     OW22321   2.728   1.631  10.885 -0.0991  0.0163 -0.4530
 3562SOL    HW122322   2.775   1.706  10.849  0.6423  0.5701  1.6593
 3562SOL    HW222323   2.727   1.648  10.979  0.8082 -0.8152 -0.2843
 3563SOL     OW22324   4.226   3.095   3.941 -0.4918 -0.1147 -0.0451
 3563SOL    HW122325   4.200   3.004   3.935  1.4156 -0.5205 -2.5860
 3563SOL    HW222326   4.231   3.101   4.036 -3.2361 -1.9210  0.2019
 3564SOL     OW22327   1.290   2.810   6.194  0.2631  0.3852  0.6547
 3564SOL    HW122328   1.282   2.734   6.136 -2.2317  0.5860  0.7599
 3564SOL    HW222329   1.385   2.819   6.184  0.4180 -4.7418 -2.3828
 3565SOL     OW22330   1.212   2.451  10.330 -0.2433 -0.0396 -0.2510
 3565SOL    HW122331   1.182   2.379  10.274  2.9837 -0.1713 -1.7961
 3565SOL    HW222332   1.141   2.508  10.300  0.0773  1.5820  2.0635
 3566SOL     OW22333   2.502   2.363   3.799  0.0833 -0.0673 -0.4495
 3566SOL    HW122334   2.586   2.401   3.822 -0.4524  0.8888 -0.0882
 3566SOL    HW222335   2.509   2.272   3.829 -0.7833  0.0400  0.0906
 3567SOL     OW22336   2.491   0.001   2.738  0.3929  0.4975  0.7263
 3567SOL    HW122337   2.561   0.004   2.672 -0.0710 -0.6476  0.1849
 3567SOL    HW222338   2.518   4.657   2.778  2.8673  1.5181  1.2024
 3568SOL     OW22339   1.457   2.509   7.982 -0.3690 -0.4559  0.1571
 3568SOL    HW122340   1.521   2.514   7.912 -2.0770 -0.5725 -1.4131
 3568SOL    HW222341   1.453   2.604   7.993  2.4680 -0.3041 -0.2283
 3569SOL     OW22342   0.732   2.971  10.336 -0.3258  0.5556 -0.1530
 3569SOL    HW122343   0.684   2.904  10.385  0.2619  2.2016  2.6386
 3569SOL    HW222344   0.813   2.967  10.388 -0.5499  0.5439  0.1955
 3570SOL     OW22345   3.661   0.747  13.812 -0.0554 -0.0292  0.1427
 3570SOL    HW122346   3.704   0.661  13.817  0.1571  0.2175  2.3884
 3570SOL    HW222347   3.727   0.795  13.762 -0.7188  0.3634 -0.3525
 3571SOL     OW22348   1.448   2.533   8.689 -0.2092 -0.2558  0.2010
 3571SOL    HW122349   1.505   2.607   8.709  0.7584 -0.6750 -0.9749
 3571SOL    HW222350   1.420   2.561   8.602  2.7493  2.2213  0.0362
 3572SOL     OW22351   3.131   1.781   5.626 -0.1092  0.3427  0.2293
 3572SOL    HW122352   3.065   1.796   5.693 -0.0234 -1.1890  0.6590
 3572SOL    HW222353   3.105   1.844   5.559 -3.3361 -1.3347 -0.0895
 3573SOL     OW22354   1.106   0.125   4.643 -0.3637 -0.0322  0.1618
 3573SOL    HW122355   1.015   0.134   4.613 -0.1895 -2.3428 -1.0145
 3573SOL    HW222356   1.138   0.067   4.575  1.2866  0.3141  0.6513
 3574SOL     OW22357   1.472   1.702   2.443 -0.1093 -0.5803 -0.1428
 3574SOL    HW122358   1.434   1.786   2.467 -0.6948 -0.8291 -0.1960
 3574SOL    HW222359   1.446   1.637   2.509  0.3463 -0.7916 -0.1692
 3575SOL     OW22360   0.874   2.123   8.047  0.0375  0.7077 -0.3189
 3575SOL    HW122361   0.872   2.156   8.137 -1.0442  1.5206 -0.6565
 3575SOL    HW222362   0.940   2.053   8.056 -0.0057  0.8797  1.2447
 3576SOL     OW22363   2.337   2.732  11.497  0.8408  0.3497 -0.3060
 3576SOL    HW122364   2.265   2.720  11.559  0.0726 -0.0212 -1.2635
 3576SOL    HW222365   2.416   2.725  11.551  1.1746  0.6887 -0.7547
 3577SOL     OW22366   3.550   2.680   8.613  0.2363  0.0268  0.3474
 3577SOL    HW122367   3.504   2.763   8.600  0.6232  0.3583  1.0996
 3577SOL    HW222368   3.635   2.702   8.651  0.1426  1.1255 -0.0601
 3578SOL     OW22369   2.144   2.338   8.792 -0.1524  0.3212  0.2714
 3578SOL    HW122370   2.210   2.336   8.723  0.7899  0.4630  1.1516
 3578SOL    HW222371   2.164   2.421   8.835 -1.0019  1.1700 -0.9954
 3579SOL     OW22372   1.922   2.119  12.530  0.0452 -0.0191  0.2471
 3579SOL    HW122373   1.895   2.143  12.619 -1.2665 -3.6221  0.7944
 3579SOL    HW222374   1.945   2.027  12.540  0.7985 -0.0797 -2.1504
 3580SOL     OW22375   1.685   4.247  13.070  0.4601  0.2504  0.2906
 3580SOL    HW122376   1.763   4.245  13.126  2.2246  2.4051 -2.1196
 3580SOL    HW222377   1.676   4.342  13.066 -3.4380 -0.1217  0.7276
 3581SOL     OW22378   3.972   0.783   6.204 -0.0651 -0.4613 -0.1243
 3581SOL    HW122379   3.989   0.867   6.162  0.2023 -1.3535 -1.7778
 3581SOL    HW222380   3.916   0.813   6.276  0.8958  0.8597  0.0738
 3582SOL     OW22381   3.419   0.755   2.255 -0.0445  0.1156  0.4122
 3582SOL    HW122382   3.485   0.696   2.292  1.2852  1.9665  1.0067
 3582SOL    HW222383   3.424   0.733   2.162 -2.2349  0.8751  0.1194
 3583SOL     OW22384   2.373   3.656  15.928  0.4537  0.2891  0.2860
 3583SOL    HW122385   2.426   3.596  15.876 -3.2814 -0.9776 -2.0535
 3583SOL    HW222386   2.390   3.630  16.019  1.2492 -1.2108 -0.2854
 3584SOL     OW22387   1.461   1.150   6.505 -0.3228  0.3534  0.4212
 3584SOL    HW122388   1.543   1.104   6.522 -0.7132 -0.7339 -0.5927
 3584SOL    HW222389   1.492   1.241   6.508 -0.0272  0.2424  0.7236
 3585SOL     OW22390   0.768   3.552   9.254  0.3224 -0.2107  0.0208
 3585SOL    HW122391   0.862   3.535   9.249  0.6409  2.2807 -2.2029
 3585SOL    HW222392   0.755   3.533   9.347  2.0782  2.1986  0.7311
 3586SOL     OW22393   3.762   0.653  14.111 -0.0011 -0.3689 -0.5461
 3586SOL    HW122394   3.791   0.716  14.177 -1.2048  1.1127 -1.4455
 3586SOL    HW222395   3.743   0.709  14.036  1.0199  0.5301 -0.1308
 3587SOL     OW22396   1.978   1.769   0.370 -0.3532  0.5527 -0.1645
 3587SOL    HW122397   1.918   1.839   0.396 -0.0148 -0.1758  2.6115
 3587SOL    HW222398   1.986   1.723   0.454 -1.0261 -0.0335 -0.4259
 3588SOL     OW22399   0.859   0.701   9.750 -0.0764 -0.3453 -0.2729
 3588SOL    HW122400   0.818   0.691   9.664 -0.5421  0.5689 -0.1520
 3588SOL    HW222401   0.891   0.790   9.735 -1.2903 -0.0787 -1.3178
 3589SOL     OW22402   0.845   2.341   7.912  0.4471 -0.3330  0.1886
 3589SOL    HW122403   0.853   2.324   7.819  0.1888  0.8324 -0.0484
 3589SOL    HW222404   0.839   2.252   7.948 -1.7778  0.2860  1.4057
 3590SOL     OW22405   2.192   2.894   4.906 -0.1234  0.1245  0.0545
 3590SOL    HW122406   2.246   2.856   4.837  1.7988  0.9609  1.0973
 3590SOL    HW222407   2.175   2.821   4.965  0.8861  0.7839  1.1714
 3591SOL     OW22408   4.055   3.074   2.758  0.5330  0.1809  0.1505
 3591SOL    HW122409   3.960   3.060   2.755  0.6359 -0.5475  0.2502
 3591SOL    HW222410   4.046   3.149   2.699  1.1062  2.3789  2.8581
 3592SOL     OW22411   1.609   3.667   2.580  0.9008  0.3629 -0.0262
 3592SOL    HW122412   1.614   3.732   2.510 -2.8844  0.8910  0.1736
 3592SOL    HW222413   1.690   3.618   2.568 -1.2513 -2.4850 -2.8365
 3593SOL     OW22414   1.371   2.381  17.239 -0.4805  0.0255  0.4817
 3593SOL    HW122415   1.303   2.316  17.223  0.7569 -1.4219  1.0222
 3593SOL    HW222416   1.339   2.441  17.172  2.4578 -0.3289 -1.2494
 3594SOL     OW22417   1.219   1.460  10.867  0.2707  0.0824  0.4826
 3594SOL    HW122418   1.138   1.436  10.822  0.2738  0.4261  0.2973
 3594SOL    HW222419   1.285   1.436  10.802  1.9125 -0.4059  2.3388
 3595SOL     OW22420   0.048   1.112   8.942 -0.0786  1.0402  0.9860
 3595SOL    HW122421   0.023   1.044   8.879 -0.5691  2.8394 -0.7442
 3595SOL    HW222422   0.128   1.071   8.977 -0.1407 -0.0895 -0.1805
 3596SOL     OW22423   3.121   2.743  16.863  0.0506  0.1804 -0.0277
 3596SOL    HW122424   3.188   2.793  16.909  1.0800 -0.7844 -0.4836
 3596SOL    HW222425   3.116   2.799  16.785  1.4893 -1.8202 -1.5828
 3597SOL     OW22426   0.346   1.668   4.089  0.2655 -0.7357 -0.2353
 3597SOL    HW122427   0.437   1.693   4.076 -0.5755  2.1081 -0.5670
 3597SOL    HW222428   0.320   1.721   4.165  0.2116 -2.0186  0.6494
 3598SOL     OW22429   4.424   2.754   0.905 -0.2303 -0.0850  0.1128
 3598SOL    HW122430   4.412   2.743   0.999 -0.9068 -1.1641 -0.0914
 3598SOL    HW222431   4.504   2.805   0.900  1.5027 -2.7164  1.0376
 3599SOL     OW22432   2.137   0.802  14.560  0.3378  0.0327 -0.0669
 3599SOL    HW122433   2.181   0.790  14.644 -0.5143 -2.5898  0.0049
 3599SOL    HW222434   2.180   0.733  14.510  0.4624  0.8891 -1.1478
 3600SOL     OW22435   2.981   1.678   1.834 -0.0071  0.0056  0.0411
 3600SOL    HW122436   3.021   1.725   1.907  0.3648 -1.2976  0.6791
 3600SOL    HW222437   3.052   1.648   1.778 -0.6994  0.8142 -1.2825
 3601SOL     OW22438   3.244   4.465   5.597 -0.3663 -0.0173  0.6876
 3601SOL    HW122439   3.210   4.395   5.653  0.1912 -0.8001  0.0421
 3601SOL    HW222440   3.320   4.493   5.648  0.6254  1.8396 -1.8417
 3602SOL     OW22441   1.029   0.272  11.497 -0.0894  0.3559  0.1270
 3602SOL    HW122442   1.003   0.355  11.457 -0.0734  0.9598  1.3937
 3602SOL    HW222443   1.040   0.298  11.588  1.6218 -1.1427  0.3542
 3603SOL     OW22444   2.292   0.469   7.312  0.6858  0.0039  0.1383
 3603SOL    HW122445   2.276   0.559   7.283  2.7598  0.2753 -0.1902
 3603SOL    HW222446   2.230   0.447   7.381  0.1657 -1.7460 -0.8843
 3604SOL     OW22447   3.073   2.756   0.101  0.3819  0.0266  0.0946
 3604SOL    HW122448   3.093   2.757   0.007  0.7043 -0.9431  0.1555
 3604SOL    HW222449   3.008   2.686   0.096  0.4595 -0.1169  1.0902
 3605SOL     OW22450   1.436   2.064   7.692  0.7250  0.3431 -0.0418
 3605SOL    HW122451   1.504   2.110   7.642 -0.3066  1.7888 -0.1200
 3605SOL    HW222452   1.472   1.978   7.670  0.2354  0.0880  0.1666
 3606SOL     OW22453   3.750   1.906   3.469  0.2786  0.0173 -0.0600
 3606SOL    HW122454   3.833   1.932   3.430 -0.5321  2.0007 -0.4708
 3606SOL    HW222455   3.765   1.922   3.562 -0.3128  0.0818  0.0272
 3607SOL     OW22456   3.065   2.881   6.809 -0.1475  0.2797  0.0851
 3607SOL    HW122457   3.119   2.961   6.808  0.9131 -0.4194  0.9351
 3607SOL    HW222458   3.018   2.898   6.890  0.2944  0.7133  0.2569
 3608SOL     OW22459   4.007   1.860   6.016 -0.0591 -0.2033  0.6042
 3608SOL    HW122460   3.980   1.784   5.965 -0.8482  1.8855 -2.0927
 3608SOL    HW222461   4.048   1.812   6.089  0.4950  1.3120  1.2887
 3609SOL     OW22462   0.172   4.254   2.618  0.0890 -0.3826  0.5258
 3609SOL    HW122463   0.242   4.315   2.643 -1.1950  1.0109  0.7267
 3609SOL    HW222464   0.106   4.316   2.586 -0.2106 -0.2744  1.3654
 3610SOL     OW22465   3.875   2.849   6.061 -0.2814  0.1894 -0.4984
 3610SOL    HW122466   3.802   2.910   6.071 -0.1797  0.0007  1.5492
 3610SOL    HW222467   3.892   2.860   5.968 -1.0215  1.3428 -0.5105
 3611SOL     OW22468   3.814   2.465  15.564  0.2419  0.4752 -0.0576
 3611SOL    HW122469   3.904   2.450  15.593 -0.2675 -0.3266  1.1469
 3611SOL    HW222470   3.781   2.510  15.642  1.6420 -1.8644  1.8785
 3612SOL     OW22471   2.307   3.117  17.735  0.2004 -0.6649 -0.2805
 3612SOL    HW122472   2.379   3.058   0.004  1.3916  1.8017  2.5247
 3612SOL    HW222473   2.237   3.053  17.748 -1.7225  1.3144 -0.9462
 3613SOL     OW22474   4.027   2.626  11.884 -0.4853 -0.4286  0.6310
 3613SOL    HW122475   4.050   2.714  11.913 -0.7776 -0.3024  0.4798
 3613SOL    HW222476   3.933   2.639  11.892 -0.2523  1.3960  0.4347
 3614SOL     OW22477   3.996   3.356   8.182 -0.0542 -0.2306 -0.4525
 3614SOL    HW122478   3.972   3.276   8.229 -0.6385  0.2246  0.0162
 3614SOL    HW222479   4.029   3.318   8.101  1.0618 -0.9651  0.3425
 3615SOL     OW22480   4.034   1.703   5.733  0.0907  0.1603  0.1002
 3615SOL    HW122481   4.035   1.680   5.640 -1.9267  3.1699 -0.6672
 3615SOL    HW222482   4.125   1.693   5.760 -0.8729  0.3974  3.3417
 3616SOL     OW22483   2.638   3.210  17.598  0.1803 -0.2599  0.4153
 3616SOL    HW122484   2.639   3.305  17.608 -1.7893 -0.4678  2.3385
 3616SOL    HW222485   2.566   3.192  17.536 -1.8952  1.8450  2.2423
 3617SOL     OW22486   4.515   2.300   6.734  0.2248 -0.2623  0.4895
 3617SOL    HW122487   4.492   2.380   6.686  0.9068  0.2905  1.0876
 3617SOL    HW222488   4.602   2.321   6.768  0.3442  2.0416 -1.2067
 3618SOL     OW22489   3.370   2.718  11.142  0.6653  0.3168 -0.7325
 3618SOL    HW122490   3.330   2.741  11.226 -1.7662 -1.9337 -1.2656
 3618SOL    HW222491   3.345   2.627  11.127  0.6660 -0.0024  1.2660
 3619SOL     OW22492   1.188   3.003   2.864 -0.2228  0.5830 -0.2963
 3619SOL    HW122493   1.273   3.017   2.907  1.7895 -0.9372 -3.7774
 3619SOL    HW222494   1.167   3.094   2.843  3.3347  1.7918  1.3662
 3620SOL     OW22495   3.666   2.840   2.285 -0.2166 -0.3428  0.3999
 3620SOL    HW122496   3.754   2.853   2.252 -0.4940  1.7299  0.4513
 3620SOL    HW222497   3.618   2.922   2.271 -0.5846 -0.3068  1.8909
 3621SOL     OW22498   0.989   0.995   7.472 -0.0517 -0.1231 -0.0092
 3621SOL    HW122499   0.975   0.952   7.388 -1.1097  3.5508 -1.7302
 3621SOL    HW222500   0.907   1.044   7.468 -0.1177 -0.0703  1.9972
 3622SOL     OW22501   4.088   3.659  11.363 -0.5513  0.2639 -0.1858
 3622SOL    HW122502   4.103   3.709  11.283  0.5364 -0.5062 -0.4690
 3622SOL    HW222503   4.056   3.726  11.423 -0.0690  0.8335 -0.5730
 3623SOL     OW22504   3.314   2.628   6.097  0.1389 -0.0793  0.8921
 3623SOL    HW122505   3.223   2.631   6.069  0.8334 -0.4541 -1.4065
 3623SOL    HW222506   3.325   2.714   6.136  0.6269 -0.3131  1.2764
 3624SOL     OW22507   2.118   2.955   5.629 -0.3301  0.2325  0.2187
 3624SOL    HW122508   2.152   3.014   5.697  0.8207  0.4230 -0.5173
 3624SOL    HW222509   2.089   2.880   5.680  0.5958 -0.7174 -0.6509
 3625SOL     OW22510   2.006   1.785   4.200 -0.6914 -0.8327  0.2037
 3625SOL    HW122511   1.964   1.840   4.266  0.5837 -1.1756  1.2912
 3625SOL    HW222512   2.097   1.794   4.228 -1.0271  3.5081 -0.0403
 3626SOL     OW22513   0.988   2.371   8.471 -0.0611  0.1939  0.1970
 3626SOL    HW122514   0.953   2.456   8.445 -0.6515 -0.7671 -2.1821
 3626SOL    HW222515   0.957   2.383   8.561  0.5790  0.7028  0.3488
 3627SOL     OW22516   3.723   1.430   9.066  0.2561 -0.0117  0.2521
 3627SOL    HW122517   3.770   1.360   9.112 -2.3992 -1.5335  0.6605
 3627SOL    HW222518   3.802   1.460   9.020 -0.6252 -1.4255 -2.1415
 3628SOL     OW22519   3.919   4.196  15.698 -0.2736  1.1388 -0.1680
 3628SOL    HW122520   3.881   4.283  15.685 -2.3525  0.1566 -0.7276
 3628SOL    HW222521   3.845   4.137  15.684 -0.2601  1.1229 -0.1721
 3629SOL     OW22522   4.553   1.196   9.036  0.4478 -0.4856 -0.4872
 3629SOL    HW122523   4.635   1.159   9.004  1.2640  0.1987  0.8344
 3629SOL    HW222524   4.591   1.260   9.096 -0.3069  0.3549 -0.8912
 3630SOL     OW22525   1.768   1.257  16.150 -0.6905 -0.0034 -0.3116
 3630SOL    HW122526   1.688   1.307  16.137 -0.6880  0.3443  1.0536
 3630SOL    HW222527   1.810   1.250  16.064  1.2433  0.0269  0.6310
 3631SOL     OW22528   1.022   2.868   2.682 -0.2505  0.0747  0.3125
 3631SOL    HW122529   1.081   2.873   2.758  0.3981  2.6539 -0.3770
 3631SOL    HW222530   1.027   2.959   2.655  4.3700 -0.1964  0.1997
 3632SOL     OW22531   1.138   0.332   6.232 -0.0307 -0.3182  0.5424
 3632SOL    HW122532   1.044   0.349   6.227 -0.0765 -0.5824  0.4636
 3632SOL    HW222533   1.170   0.406   6.284 -0.8151  0.7626 -0.5154
 3633SOL     OW22534   0.292   0.194   5.477 -0.2710  0.2754 -0.3780
 3633SOL    HW122535   0.231   0.129   5.511  0.6713  0.2748  1.3481
 3633SOL    HW222536   0.371   0.147   5.504  0.6179  1.2739 -1.2430
 3634SOL     OW22537   0.110   1.597   2.458 -0.1512  0.4323 -0.0162
 3634SOL    HW122538   0.102   1.591   2.553  1.1864  0.8777  0.1290
 3634SOL    HW222539   0.094   1.691   2.450  0.5558  0.3912 -1.7720
 3635SOL     OW22540   0.208   1.263   4.663  0.9868  0.1470 -0.4144
 3635SOL    HW122541   0.175   1.303   4.743 -0.5509  2.9544 -2.4438
 3635SOL    HW222542   0.301   1.286   4.670  0.8143  0.8044 -0.2720
 3636SOL     OW22543   1.432   1.968   5.936  0.1840 -0.0801  1.0992
 3636SOL    HW122544   1.510   1.964   5.990 -0.6346 -0.7270  2.2200
 3636SOL    HW222545   1.388   1.893   5.975  0.8861 -0.5424  1.0012
 3637SOL     OW22546   2.186   1.639   8.582  0.0987  0.8286  0.1722
 3637SOL    HW122547   2.141   1.644   8.498  3.3825 -0.6586 -1.6903
 3637SOL    HW222548   2.151   1.715   8.628  1.3067  2.1015 -0.9902
 3638SOL     OW22549   3.316   0.477   1.556  0.0760 -0.0833  0.6899
 3638SOL    HW122550   3.349   0.544   1.616  1.7774  1.6947 -2.1896
 3638SOL    HW222551   3.231   0.519   1.542  0.9040  1.2012 -0.5486
 3639SOL     OW22552   3.108   0.412   8.478  0.0602 -0.1480  0.9300
 3639SOL    HW122553   3.147   0.482   8.530  2.0585  0.7441 -1.7944
 3639SOL    HW222554   3.030   0.387   8.527 -1.0762  0.1588 -0.7101
 3640SOL     OW22555   1.861   2.380   5.667  0.0976  0.6483 -0.1290
 3640SOL    HW122556   1.954   2.402   5.675 -0.0760  0.7322  1.5983
 3640SOL    HW222557   1.865   2.290   5.698 -2.0213  1.0524  1.2890
 3641SOL     OW22558   2.725   3.227  12.151 -0.7318  0.3445  0.3175
 3641SOL    HW122559   2.798   3.193  12.099  0.6760  3.1517  0.4825
 3641SOL    HW222560   2.760   3.301  12.201 -0.6535 -0.1612  1.0118
 3642SOL     OW22561   0.232   3.693   6.768 -0.1481 -0.6077 -0.1707
 3642SOL    HW122562   0.249   3.639   6.691 -0.2052  0.4221 -0.9033
 3642SOL    HW222563   0.286   3.772   6.762 -0.4058 -0.3309  1.1293
 3643SOL     OW22564   3.740   1.348   7.806 -0.4279  0.0764 -0.6489
 3643SOL    HW122565   3.725   1.292   7.730 -1.2453 -0.3350 -0.1893
 3643SOL    HW222566   3.719   1.436   7.773 -0.7070 -0.3248 -1.5163
 3644SOL     OW22567   3.268   2.251   4.823  0.1616 -0.8278  0.1783
 3644SOL    HW122568   3.292   2.215   4.737  0.4290 -0.4751  0.1040
 3644SOL    HW222569   3.288   2.174   4.875  0.8939 -0.4756  0.4110
 3645SOL     OW22570   1.116   1.161  10.630 -0.6139 -0.2128 -0.0434
 3645SOL    HW122571   1.053   1.134  10.563 -3.2635  1.5168  1.7214
 3645SOL    HW222572   1.179   1.207  10.575 -0.8334 -0.7594 -0.7448
 3646SOL     OW22573   1.461   4.117  15.392 -0.2608  0.6443  0.3440
 3646SOL    HW122574   1.413   4.133  15.473  2.2204 -1.7433  2.2960
 3646SOL    HW222575   1.495   4.206  15.388  0.2943  0.4325  0.3585
 3647SOL     OW22576   3.884   3.166   8.345 -0.2952 -0.1193  0.3808
 3647SOL    HW122577   3.863   3.095   8.285  3.5876 -1.1729  0.2307
 3647SOL    HW222578   3.828   3.145   8.419 -1.1899  0.7634 -0.0514
 3648SOL     OW22579   3.210   0.564   2.045  0.3937 -0.2986 -0.4023
 3648SOL    HW122580   3.277   0.633   2.044 -3.3969  3.3353 -0.6101
 3648SOL    HW222581   3.242   0.518   1.967  0.4928  1.3788 -1.3568
 3649SOL     OW22582   1.893   4.286  14.955 -0.0030 -0.2888 -0.0469
 3649SOL    HW122583   1.960   4.259  14.892  0.8662  0.8464  0.3982
 3649SOL    HW222584   1.827   4.217  14.960 -0.1995 -0.1768 -1.2330
 3650SOL     OW22585   3.561   2.736   4.833 -0.2532 -0.5214  0.7600
 3650SOL    HW122586   3.514   2.653   4.837  2.0863 -1.8902 -0.3401
 3650SOL    HW222587   3.642   2.711   4.789 -0.9906  0.5414 -1.1842
 3651SOL     OW22588   3.719   3.510   1.653 -0.0731  0.1098 -0.3263
 3651SOL    HW122589   3.807   3.475   1.636  0.1884 -1.0513  3.4450
 3651SOL    HW222590   3.659   3.436   1.651 -0.2161  0.2485 -1.3269
 3652SOL     OW22591   1.523   3.530   4.152 -0.0871 -0.2737  0.1538
 3652SOL    HW122592   1.475   3.487   4.223 -1.3724  2.4022  0.8923
 3652SOL    HW222593   1.484   3.472   4.086 -1.9214  1.9164 -0.7132
 3653SOL     OW22594   3.838   2.876   9.364 -0.3017  0.1077 -1.1210
 3653SOL    HW122595   3.849   2.874   9.459  2.0496 -2.5618 -1.4420
 3653SOL    HW222596   3.895   2.952   9.351 -0.8432  0.1490 -3.2725
 3654SOL     OW22597   0.621   1.216  12.718 -0.1680  0.5655 -0.2877
 3654SOL    HW122598   0.608   1.307  12.693 -1.5337  0.7089  0.9578
 3654SOL    HW222599   0.648   1.226  12.810 -0.7996 -1.8607  0.1502
 3655SOL     OW22600   1.343   4.357   4.711 -0.2315 -0.2090  0.3777
 3655SOL    HW122601   1.385   4.442   4.730 -0.0553 -0.0176 -0.8930
 3655SOL    HW222602   1.375   4.300   4.781  2.3498  0.0837 -0.5472
 3656SOL     OW22603   0.307   0.319   7.102 -0.2983  0.0318  0.4913
 3656SOL    HW122604   0.214   0.334   7.084 -0.7984  0.2958  3.2690
 3656SOL    HW222605   0.335   0.310   7.011  1.1661  0.2083  0.9289
 3657SOL     OW22606   4.095   1.980  11.993  0.1687  0.0842 -0.3745
 3657SOL    HW122607   4.042   1.924  11.935  1.1721  1.5142 -2.6762
 3657SOL    HW222608   4.107   1.927  12.072 -1.0375  0.7031  0.2161
 3658SOL     OW22609   3.574   0.195   5.009 -0.5508 -0.9294  0.9325
 3658SOL    HW122610   3.644   0.151   5.057  2.6267  0.9347 -2.0621
 3658SOL    HW222611   3.586   0.284   5.040 -0.4589 -0.2221 -1.1578
 3659SOL     OW22612   3.365   1.752  12.913  0.7219 -0.4454 -0.1205
 3659SOL    HW122613   3.388   1.708  12.831 -1.4333 -0.0550 -0.9340
 3659SOL    HW222614   3.341   1.669  12.955  3.2603  0.4010  2.9916
 3660SOL     OW22615   4.516   0.318   8.332  0.2172  0.2953 -0.0071
 3660SOL    HW122616   4.490   0.271   8.412 -0.9708  2.1029  0.6827
 3660SOL    HW222617   4.533   0.241   8.280 -0.2366  0.4005 -0.3118
 3661SOL     OW22618   1.642   0.255   9.526  0.1915  0.0810 -0.8124
 3661SOL    HW122619   1.613   0.297   9.445  4.1619  0.6095 -1.9727
 3661SOL    HW222620   1.734   0.280   9.524 -0.1179  1.2844  0.2774
 3662SOL     OW22621   4.630   3.122  13.941  0.0477 -0.4014  0.0461
 3662SOL    HW122622   4.690   3.050  13.919 -0.3720 -0.2114 -1.6764
 3662SOL    HW222623   4.591   3.078  14.017  2.9597  0.5333  2.0888
 3663SOL     OW22624   1.367   0.662   0.588  0.5594  0.2490  0.1016
 3663SOL    HW122625   1.451   0.633   0.624  0.4562  1.4541  1.3251
 3663SOL    HW222626   1.366   0.613   0.506 -0.8933  0.8053 -0.2189
 3664SOL     OW22627   1.550   1.437   8.931  0.8063  0.3631 -0.1082
 3664SOL    HW122628   1.489   1.483   8.873  0.3722 -0.9052 -0.6686
 3664SOL    HW222629   1.617   1.504   8.943 -1.8034  3.2225 -1.2741
 3665SOL     OW22630   0.385   3.166   3.138 -0.1043  0.1380 -0.1609
 3665SOL    HW122631   0.311   3.221   3.114 -0.2988 -1.4213 -3.2191
 3665SOL    HW222632   0.357   3.122   3.218 -1.2530 -0.0222 -0.6470
 3666SOL     OW22633   2.130   4.101  11.607 -0.1268 -0.3695  0.1379
 3666SOL    HW122634   2.190   4.038  11.646  0.2878 -0.0621 -0.0088
 3666SOL    HW222635   2.048   4.072  11.649  0.8065 -3.2348  0.0033
 3667SOL     OW22636   0.987   0.070   5.126  0.2509 -0.5364 -0.0182
 3667SOL    HW122637   0.916   0.111   5.076  1.1367 -1.2919 -1.8847
 3667SOL    HW222638   1.047   0.066   5.051 -0.1705 -0.2404 -0.3774
 3668SOL     OW22639   2.080   1.450  10.448  0.0701  0.3603  0.0188
 3668SOL    HW122640   2.100   1.541  10.473 -0.5572  0.3874  0.4173
 3668SOL    HW222641   1.996   1.440  10.493 -0.6545 -1.1548 -1.7065
 3669SOL     OW22642   0.614   1.681   4.104  0.5532 -0.3065 -0.1034
 3669SOL    HW122643   0.610   1.764   4.055  2.1670 -1.1422 -1.6374
 3669SOL    HW222644   0.695   1.642   4.073 -0.0098 -0.6474 -1.1075
 3670SOL     OW22645   1.733   4.212   8.875 -0.1296 -0.0880 -0.0684
 3670SOL    HW122646   1.670   4.284   8.867 -5.1580 -4.6535 -1.0479
 3670SOL    HW222647   1.715   4.185   8.965  1.5239  0.2154  0.3613
 3671SOL     OW22648   0.835   2.872   6.679 -0.0451 -0.2139  0.7573
 3671SOL    HW122649   0.812   2.846   6.768  0.7714 -1.4548  0.6143
 3671SOL    HW222650   0.762   2.835   6.628  0.8127  2.8784 -2.7180
 3672SOL     OW22651   2.340   4.722   6.537  0.2577 -0.1211 -0.2309
 3672SOL    HW122652   2.320   4.710   6.630  2.1411  1.5037  0.3935
 3672SOL    HW222653   2.429   4.686   6.526  1.1145  2.1577 -0.6061
 3673SOL     OW22654   0.637   0.333   6.291 -0.8732  0.3866  0.2949
 3673SOL    HW122655   0.587   0.413   6.306 -1.2127  0.3896 -0.8072
 3673SOL    HW222656   0.696   0.336   6.366 -0.0503  3.5368 -0.4983
 3674SOL     OW22657   1.833   2.637   3.157 -0.2491  0.0830  0.4221
 3674SOL    HW122658   1.758   2.625   3.216 -0.2768 -0.6333  0.2415
 3674SOL    HW222659   1.782   2.652   3.078 -0.3724 -0.1701  0.4502
 3675SOL     OW22660   1.654   2.262   5.924  0.2842  0.0895 -0.4044
 3675SOL    HW122661   1.610   2.292   5.844 -1.2107 -1.4172 -0.1422
 3675SOL    HW222662   1.733   2.223   5.886  0.9535  0.6140  0.4695
 3676SOL     OW22663   3.847   0.761   2.483 -0.0150  0.3524 -0.5880
 3676SOL    HW122664   3.774   0.783   2.425 -0.8168 -0.1104  0.2679
 3676SOL    HW222665   3.839   0.827   2.552 -0.9308 -1.0091  0.5926
 3677SOL     OW22666   4.090   2.659   9.044 -0.9303 -0.3349  0.3523
 3677SOL    HW122667   4.174   2.623   9.015 -0.3801  0.6201  0.7355
 3677SOL    HW222668   4.048   2.674   8.960  0.5369 -1.1130 -0.5257
 3678SOL     OW22669   1.137   0.674   2.652  0.3582 -0.4808 -0.6030
 3678SOL    HW122670   1.107   0.586   2.629 -1.2794 -0.1470  0.2587
 3678SOL    HW222671   1.217   0.687   2.602  0.3208  1.9951  0.0080
 3679SOL     OW22672   4.258   1.545  10.346 -0.2648 -0.6912  0.3795
 3679SOL    HW122673   4.207   1.621  10.374  0.9101  0.8884 -1.7553
 3679SOL    HW222674   4.294   1.515  10.430 -1.8811 -2.1622  0.5571
 3680SOL     OW22675   0.064   2.583   5.608  0.0360  0.7821  0.1820
 3680SOL    HW122676   0.099   2.577   5.697 -2.4748 -2.1750  0.9720
 3680SOL    HW222677   4.718   2.542   5.630  0.5532 -0.1564  0.4149
 3681SOL     OW22678   1.971   2.391  12.517  0.6809  0.4751  0.2315
 3681SOL    HW122679   1.973   2.299  12.490  0.2034  0.5123  0.0666
 3681SOL    HW222680   2.044   2.423  12.464  0.1003  0.4977 -0.5637
 3682SOL     OW22681   4.720   4.015   2.525 -0.1484  0.0218  0.0308
 3682SOL    HW122682   0.043   4.077   2.563 -0.2567 -0.9388  1.7635
 3682SOL    HW222683   0.014   3.927   2.544 -0.2201  0.4185  1.9501
 3683SOL     OW22684   3.389   4.717   9.507 -0.8197 -0.4202 -0.5789
 3683SOL    HW122685   3.415   4.725   9.415 -1.2285  1.9606 -0.4843
 3683SOL    HW222686   3.360   0.068   9.523  0.9813  0.3278 -1.4169
 3684SOL     OW22687   3.276   1.388   9.602  0.3851 -0.3526  0.2349
 3684SOL    HW122688   3.284   1.448   9.677  0.8804  0.1476 -0.2127
 3684SOL    HW222689   3.186   1.387   9.570  0.4599  0.4230 -0.0139
 3685SOL     OW22690   4.196   2.029   2.680 -0.0847 -0.3278 -0.2400
 3685SOL    HW122691   4.211   1.937   2.657  1.7986  0.2213 -1.1870
 3685SOL    HW222692   4.110   2.042   2.640  0.0237  0.7163 -0.1263
 3686SOL     OW22693   3.665   3.084   2.094 -0.7249 -0.1063 -0.1556
 3686SOL    HW122694   3.749   3.125   2.115 -1.0201  0.9925 -1.1573
 3686SOL    HW222695   3.689   3.016   2.032  0.9092 -1.7327  2.2322
 3687SOL     OW22696   3.114   4.487  16.538 -0.3694  0.0553 -0.3941
 3687SOL    HW122697   3.189   4.430  16.556  0.3800  1.1701  0.0093
 3687SOL    HW222698   3.147   4.568  16.577  0.3949  0.0049 -0.9448
 3688SOL     OW22699   2.196   4.455  17.604 -0.5445 -0.1788  0.0176
 3688SOL    HW122700   2.266   4.392  17.587 -0.6976 -0.9089  2.2367
 3688SOL    HW222701   2.145   4.410  17.670 -1.1285  2.7729  1.6059
 3689SOL     OW22702   0.010   0.359   0.342 -0.0864  0.1482 -0.3081
 3689SOL    HW122703   4.738   0.324   0.431 -0.2247  2.1306  0.4560
 3689SOL    HW222704   0.025   0.451   0.364 -0.6973  0.3595 -0.7752
 3690SOL     OW22705   0.792   2.425   2.841  0.2249 -0.2151  0.1540
 3690SOL    HW122706   0.881   2.396   2.824  1.8217  3.4458  2.3425
 3690SOL    HW222707   0.792   2.510   2.797 -1.2907 -0.9142 -1.2427
 3691SOL     OW22708   0.143   2.195   8.552 -0.2904  0.4263  0.2157
 3691SOL    HW122709   0.111   2.133   8.485 -1.3658  0.3411  0.8028
 3691SOL    HW222710   0.181   2.139   8.619 -1.0138 -0.2487  0.0606
 3692SOL     OW22711   2.519   0.398   7.424  0.2233  0.5025  0.5651
 3692SOL    HW122712   2.440   0.415   7.373 -1.4908  1.0320  3.4185
 3692SOL    HW222713   2.489   0.367   7.510  0.1492 -1.5976 -0.2294
 3693SOL     OW22714   2.479   3.404  14.804 -1.2042 -0.0213 -0.2970
 3693SOL    HW122715   2.551   3.359  14.760  0.2716 -0.3964  2.5129
 3693SOL    HW222716   2.516   3.489  14.828  3.3494 -2.2529  0.5629
 3694SOL     OW22717   4.169   0.838   2.821  0.1614 -0.0959 -0.1044
 3694SOL    HW122718   4.165   0.749   2.786 -0.5043  0.1003 -0.5344
 3694SOL    HW222719   4.198   0.887   2.744 -1.9431  0.5389 -0.5218
 3695SOL     OW22720   0.212   2.378  12.315  0.1729  0.0770 -0.3024
 3695SOL    HW122721   0.301   2.391  12.349 -0.4693  2.7017  0.3514
 3695SOL    HW222722   0.170   2.383  12.401  0.2131 -1.7851 -0.1684
 3696SOL     OW22723   4.549   4.521   2.115  0.2389 -0.5149  0.1398
 3696SOL    HW122724   4.546   4.591   2.049  0.8067 -0.7135 -0.0956
 3696SOL    HW222725   4.464   4.481   2.099  1.2070 -1.7655 -1.9309
 3697SOL     OW22726   2.936   1.585   3.867 -0.0572 -0.5421 -0.0708
 3697SOL    HW122727   3.023   1.569   3.903 -0.9930 -3.6076  0.8611
 3697SOL    HW222728   2.949   1.553   3.778 -0.9297  1.4921 -0.9323
 3698SOL     OW22729   1.923   3.793  15.067 -0.0904  0.4879 -0.0240
 3698SOL    HW122730   1.969   3.750  15.139 -1.0916 -0.7011 -0.0981
 3698SOL    HW222731   1.977   3.786  14.988 -0.5178 -2.4283 -0.0832
 3699SOL     OW22732   1.243   2.032  12.634  0.2477 -0.4366 -0.3398
 3699SOL    HW122733   1.218   2.088  12.708 -0.2871 -2.2689  0.8546
 3699SOL    HW222734   1.207   2.080  12.559  0.5627 -0.7659 -0.7032
 3700SOL     OW22735   2.517   3.218   6.938  0.1430 -0.0917 -0.6528
 3700SOL    HW122736   2.436   3.259   6.970  0.7822 -1.7028  3.0824
 3700SOL    HW222737   2.491   3.126   6.930  1.2469 -0.2116 -2.7336
 3701SOL     OW22738   4.554   0.705   5.900  0.4672  0.4958  0.4155
 3701SOL    HW122739   4.495   0.745   5.836 -1.7016 -3.3731 -0.0177
 3701SOL    HW222740   4.514   0.729   5.983 -1.0275 -0.1522 -0.1183
 3702SOL     OW22741   2.091   3.906  12.492  0.1880  0.1734 -0.2327
 3702SOL    HW122742   2.129   3.989  12.464 -1.7327  0.4468 -1.9866
 3702SOL    HW222743   1.997   3.917  12.478 -0.0550 -2.4175 -0.6921
 3703SOL     OW22744   0.840   0.626   5.584  0.2083  0.1894 -0.1497
 3703SOL    HW122745   0.875   0.575   5.510 -0.1356  1.4625 -1.1994
 3703SOL    HW222746   0.770   0.677   5.544 -1.4771 -0.5422  1.9138
 3704SOL     OW22747   4.407   2.618  14.226 -0.9256  0.0871 -0.1762
 3704SOL    HW122748   4.388   2.709  14.249 -1.2087  0.4829 -1.9402
 3704SOL    HW222749   4.387   2.596  14.135 -2.2821 -1.3844  0.4832
 3705SOL     OW22750   0.001   4.451  17.125 -0.4760  0.0424  0.2960
 3705SOL    HW122751   0.081   4.493  17.093  0.3514 -0.6797  1.4166
 3705SOL    HW222752   0.034   4.361  17.125 -0.8598 -0.0978  1.5102
 3706SOL     OW22753   3.763   1.501   6.003  0.1388  0.0521  0.1860
 3706SOL    HW122754   3.856   1.518   6.016 -0.1907  1.6576  0.4083
 3706SOL    HW222755   3.721   1.586   6.017 -0.9805 -0.2239 -1.5002
 3707SOL     OW22756   4.623   2.957   8.610  0.0647  0.4179 -0.7031
 3707SOL    HW122757   4.617   2.990   8.700  1.4774  0.1941 -0.5298
 3707SOL    HW222758   4.537   2.984   8.577  1.3182  3.7304 -1.2088
 3708SOL     OW22759   4.509   0.254   9.999 -0.2840  0.2213 -0.2273
 3708SOL    HW122760   4.512   0.221  10.089  1.8047 -0.8267 -0.6880
 3708SOL    HW222761   4.507   0.177   9.942  1.4414 -1.2370  1.7092
 3709SOL     OW22762   3.294   0.379   4.833  0.1320  0.3713  0.2634
 3709SOL    HW122763   3.240   0.458   4.821 -0.7438 -0.5403 -1.7045
 3709SOL    HW222764   3.370   0.423   4.871  1.7353  0.1936 -2.7368
 3710SOL     OW22765   1.909   2.834   7.848  0.2912 -0.1274  0.2716
 3710SOL    HW122766   1.887   2.871   7.763 -1.0494  1.5558  1.3608
 3710SOL    HW222767   1.868   2.906   7.895 -1.1170  0.7712 -2.3670
 3711SOL     OW22768   1.408   4.736   3.416  0.5487 -0.3859  0.1021
 3711SOL    HW122769   1.393   4.732   3.322 -1.4473 -2.1231  0.4898
 3711SOL    HW222770   1.502   4.726   3.428  0.9751  1.7464 -1.4113
 3712SOL     OW22771   1.991   3.273   5.656 -0.0478 -0.5559  0.3356
 3712SOL    HW122772   2.004   3.291   5.750 -1.8371  0.4762  0.3835
 3712SOL    HW222773   2.075   3.232   5.635 -0.5011 -1.5181  0.3907
 3713SOL     OW22774   2.830   2.731   8.545  0.2371 -0.5749  0.2531
 3713SOL    HW122775   2.739   2.723   8.571  0.3242  2.8854  1.5209
 3713SOL    HW222776   2.861   2.793   8.611  1.0551  0.6820 -1.3042
 3714SOL     OW22777   4.100   4.106  15.408  0.0982  0.3400  0.6141
 3714SOL    HW122778   4.187   4.111  15.368  0.2559 -2.4571  0.5960
 3714SOL    HW222779   4.073   4.019  15.379 -0.1045 -0.2498  2.6124
 3715SOL     OW22780   3.670   3.557   2.547 -0.1160 -0.3636 -0.4006
 3715SOL    HW122781   3.605   3.556   2.617  1.8319  0.3376  1.4280
 3715SOL    HW222782   3.624   3.607   2.480  0.9805  1.4146  0.1965
 3716SOL     OW22783   1.866   3.958   9.348  0.2661 -0.4952  0.5710
 3716SOL    HW122784   1.908   4.043   9.363 -0.9213  0.1047  0.4566
 3716SOL    HW222785   1.826   3.968   9.261  1.4330 -0.0440  0.0822
 3717SOL     OW22786   2.400   0.284   2.105  0.5034  0.1718 -0.2488
 3717SOL    HW122787   2.368   0.261   2.192 -0.5266  1.5843 -0.2479
 3717SOL    HW222788   2.403   0.379   2.114  0.6066  0.1505 -0.0546
 3718SOL     OW22789   1.736   0.522   5.428  0.0715 -0.1324 -0.2090
 3718SOL    HW122790   1.695   0.476   5.354 -0.8404 -0.2382  0.3674
 3718SOL    HW222791   1.657   0.543   5.477 -0.3868  0.5270 -1.2272
 3719SOL     OW22792   1.684   2.130   0.655  0.4164  0.1538 -0.2123
 3719SOL    HW122793   1.661   2.068   0.723 -1.0546 -0.8602 -1.6461
 3719SOL    HW222794   1.767   2.166   0.686  1.3904 -1.4099 -1.0574
 3720SOL     OW22795   3.460   4.269   8.030  0.1493 -0.0948 -0.3737
 3720SOL    HW122796   3.484   4.300   8.118 -0.1848 -2.2636  0.4834
 3720SOL    HW222797   3.519   4.194   8.018  1.4643  0.9775 -0.6161
 3721SOL     OW22798   4.616   2.975   9.815  0.6536  0.1441 -0.5861
 3721SOL    HW122799   4.653   2.892   9.844  0.8194 -0.1052 -1.4988
 3721SOL    HW222800   4.527   2.950   9.790  0.1071  1.5422 -0.0155
 3722SOL     OW22801   3.447   3.918   4.212 -0.2051  0.3916 -0.0289
 3722SOL    HW122802   3.537   3.949   4.209 -0.5133  1.2172 -0.8775
 3722SOL    HW222803   3.445   3.864   4.290 -0.0430  0.3446 -0.0579
 3723SOL     OW22804   2.845   0.943  10.617 -0.4039  0.7831 -0.0063
 3723SOL    HW122805   2.752   0.922  10.611  0.1471 -1.8963  1.2666
 3723SOL    HW222806   2.840   1.038  10.607 -1.0175  1.0014  2.4333
 3724SOL     OW22807   3.797   3.433  11.372 -0.0246  0.3299 -0.2449
 3724SOL    HW122808   3.710   3.407  11.402 -0.4351  0.8795 -0.9713
 3724SOL    HW222809   3.843   3.349  11.381 -0.8741  0.1447  2.3423
 3725SOL     OW22810   2.707   3.573   4.766  0.6662 -0.2750  0.0617
 3725SOL    HW122811   2.655   3.503   4.727 -0.7466  1.0895 -0.5032
 3725SOL    HW222812   2.640   3.619   4.817  1.0490 -0.4863  0.7536
 3726SOL     OW22813   0.248   4.434   2.996  0.2653  0.4234 -0.0578
 3726SOL    HW122814   0.343   4.436   3.008  0.2931  1.8038 -0.5537
 3726SOL    HW222815   0.240   4.350   2.951 -3.1393  0.3262  0.7365
 3727SOL     OW22816   1.779   0.356   3.219  0.3464 -0.8203 -0.0197
 3727SOL    HW122817   1.818   0.397   3.142  0.4148 -1.0024 -0.0820
 3727SOL    HW222818   1.809   0.411   3.292 -0.4307  1.1524 -1.1677
 3728SOL     OW22819   2.170   2.258   3.005 -0.4389  0.4552  0.2558
 3728SOL    HW122820   2.148   2.337   2.956 -2.1956 -0.0383  0.2305
 3728SOL    HW222821   2.132   2.279   3.090 -2.4583  1.3923 -0.8673
 3729SOL     OW22822   1.106   2.909  11.605  0.1953  0.0111  0.0429
 3729SOL    HW122823   1.076   2.827  11.567  1.2576 -1.0874  1.5523
 3729SOL    HW222824   1.089   2.973  11.536 -1.1636  0.8691  1.1734
 3730SOL     OW22825   4.582   0.757  10.994 -0.3740  0.3761 -0.5919
 3730SOL    HW122826   4.658   0.720  11.039 -0.1543 -0.7824 -1.9416
 3730SOL    HW222827   4.631   0.791  10.919  0.3370 -1.5584 -0.9987
 3731SOL     OW22828   3.329   0.594   4.511  0.3884 -0.4994 -0.0421
 3731SOL    HW122829   3.290   0.658   4.570 -0.8409  0.5966 -2.0413
 3731SOL    HW222830   3.397   0.655   4.480 -0.8882  0.1800 -1.4779
 3732SOL     OW22831   1.603   0.185  13.430  0.0645 -0.1198  0.3684
 3732SOL    HW122832   1.608   0.251  13.500 -0.4257 -0.1618  0.4438
 3732SOL    HW222833   1.525   0.140  13.463  0.0100  0.5065  1.1058
 3733SOL     OW22834   3.727   4.392   7.051  0.7366 -0.1167  0.4091
 3733SOL    HW122835   3.776   4.323   7.006  2.4281  0.2679  1.6927
 3733SOL    HW222836   3.693   4.350   7.130  1.0362 -0.3838  0.3985
 3734SOL     OW22837   3.562   2.083  14.092 -0.3982  0.4111 -0.6504
 3734SOL    HW122838   3.628   2.141  14.129 -0.4697  0.4952 -0.6528
 3734SOL    HW222839   3.612   2.042  14.022  2.2915  0.6467  1.1548
 3735SOL     OW22840   2.514   1.676  11.231  0.4143 -0.3478 -0.4762
 3735SOL    HW122841   2.498   1.679  11.137 -0.4444 -2.8085 -0.4185
 3735SOL    HW222842   2.482   1.587  11.249 -0.4908 -0.3161 -1.9011
 3736SOL     OW22843   4.197   1.423   7.109 -0.3628  0.1547 -0.3594
 3736SOL    HW122844   4.196   1.517   7.128  1.1625  0.2438 -0.7081
 3736SOL    HW222845   4.126   1.413   7.046 -0.7491  0.7000 -0.0055
 3737SOL     OW22846   2.843   3.156   4.452 -0.3965 -0.7791 -0.3031
 3737SOL    HW122847   2.890   3.075   4.437 -0.1242 -0.6775 -0.0060
 3737SOL    HW222848   2.764   3.115   4.487  1.0266 -1.1301  2.5235
 3738SOL     OW22849   1.976   1.702   1.003 -0.5948 -0.3869  0.0906
 3738SOL    HW122850   2.045   1.745   1.053 -0.5660  1.5614 -1.5894
 3738SOL    HW222851   1.923   1.778   0.981  0.9732  1.1702  1.7371
 3739SOL     OW22852   2.070   2.273   3.259  0.2763  0.1464 -0.1271
 3739SOL    HW122853   2.011   2.281   3.334 -0.8154 -0.1576 -0.9470
 3739SOL    HW222854   2.058   2.180   3.238  0.2216  1.0648 -4.0691
 3740SOL     OW22855   1.802   3.792   8.875 -0.1094 -0.2682 -0.3130
 3740SOL    HW122856   1.849   3.868   8.908 -0.6734  0.2686 -0.7465
 3740SOL    HW222857   1.727   3.795   8.935  0.4953 -0.9775  0.4886
 3741SOL     OW22858   4.464   0.578   7.138  0.3272 -0.2355 -0.1683
 3741SOL    HW122859   4.526   0.558   7.068  1.0461 -1.2256  0.7492
 3741SOL    HW222860   4.508   0.564   7.222  1.6396  0.8715 -0.6804
 3742SOL     OW22861   1.448   4.559   4.371  0.2231  0.2465  0.5006
 3742SOL    HW122862   1.511   4.518   4.312 -0.9301  0.8010 -1.0962
 3742SOL    HW222863   1.388   4.485   4.376  0.6150 -0.1973 -1.5665
 3743SOL     OW22864   1.637   4.635   6.476 -0.0417 -0.2038  0.3581
 3743SOL    HW122865   1.561   4.620   6.419  0.3681 -0.3659 -0.1506
 3743SOL    HW222866   1.691   4.558   6.463  0.9555  0.8255 -1.6936
 3744SOL     OW22867   4.045   3.472   0.860 -0.2083 -0.2491 -0.1881
 3744SOL    HW122868   4.092   3.393   0.887 -1.6939 -1.4092 -1.0384
 3744SOL    HW222869   4.019   3.457   0.769 -1.2061  0.8757 -0.0779
 3745SOL     OW22870   0.835   3.202   7.763  0.1289 -0.2518 -0.5400
 3745SOL    HW122871   0.901   3.205   7.833  0.7054 -3.1229 -0.9541
 3745SOL    HW222872   0.814   3.294   7.772  3.7877  0.5753 -0.3109
 3746SOL     OW22873   0.881   0.435   7.314 -0.2287 -0.1140 -0.2036
 3746SOL    HW122874   0.839   0.353   7.339  1.0673 -0.4331  0.9375
 3746SOL    HW222875   0.832   0.509   7.350  2.0654  0.7869  1.0744
 3747SOL     OW22876   0.536   2.961   9.373 -0.3642 -0.6639 -0.7462
 3747SOL    HW122877   0.443   2.942   9.366 -0.3959 -0.4818 -0.8215
 3747SOL    HW222878   0.570   2.908   9.302 -1.5525  0.4115 -2.1068
 3748SOL     OW22879   0.681   0.983  12.996  0.0466 -0.5872 -0.2191
 3748SOL    HW122880   0.656   1.023  12.913 -2.8220  0.7948  1.3045
 3748SOL    HW222881   0.770   1.013  13.014 -1.2457  1.9324  2.0862
 3749SOL     OW22882   1.652   4.235   0.425  0.3924 -0.0853  0.5947
 3749SOL    HW122883   1.739   4.248   0.463  0.4737  0.4576  0.2379
 3749SOL    HW222884   1.614   4.322   0.438  1.0367  0.1711  0.7653
 3750SOL     OW22885   2.487   2.839   8.804  0.7159 -0.1008 -0.6123
 3750SOL    HW122886   2.532   2.805   8.726  1.0059  1.0714 -0.9482
 3750SOL    HW222887   2.503   2.932   8.792 -0.8895  0.6475  3.1658
 3751SOL     OW22888   3.366   4.433   6.661 -0.0320 -0.3380  0.0536
 3751SOL    HW122889   3.346   4.348   6.700 -0.9182 -0.6430 -1.0901
 3751SOL    HW222890   3.440   4.460   6.715  0.9800 -1.0028 -1.0232
 3752SOL     OW22891   3.868   2.988  10.101  1.2528  0.5302  0.3707
 3752SOL    HW122892   3.923   2.913  10.125 -0.5928 -1.6843 -2.3430
 3752SOL    HW222893   3.840   2.955  10.016 -1.4741  1.9393  0.7219
 3753SOL     OW22894   2.478   0.525   2.190 -0.1369 -0.3774  0.6037
 3753SOL    HW122895   2.527   0.503   2.269  1.3100 -1.0116 -0.4810
 3753SOL    HW222896   2.542   0.577   2.141 -1.2054 -1.8221 -2.3109
 3754SOL     OW22897   2.073   3.702   7.962 -0.1579  0.5971 -0.2269
 3754SOL    HW122898   2.052   3.745   7.879  0.7262  0.5154 -0.5013
 3754SOL    HW222899   2.158   3.663   7.938 -0.7531 -1.6966  1.3670
 3755SOL     OW22900   0.953   1.115  13.625 -0.2618 -0.3318 -0.1431
 3755SOL    HW122901   0.926   1.191  13.676 -1.4821 -1.0626  0.2872
 3755SOL    HW222902   0.925   1.044  13.683 -1.5263 -0.7245 -1.2329
 3756SOL     OW22903   2.970   2.822  15.632  0.5425  0.3154 -0.3372
 3756SOL    HW122904   3.019   2.834  15.713  2.5837 -1.2755 -1.3220
 3756SOL    HW222905   2.979   2.907  15.589  0.7110  2.6596  4.3773
 3757SOL     OW22906   1.365   0.101   6.623 -0.2071 -0.4880  0.0601
 3757SOL    HW122907   1.301   0.052   6.675  0.4975  1.3224  2.6526
 3757SOL    HW222908   1.325   0.089   6.537  1.1029 -2.3886 -0.2989
 3758SOL     OW22909   3.148   0.979   0.358 -0.0019  0.4970 -0.2644
 3758SOL    HW122910   3.178   0.906   0.413 -0.7224 -0.1266 -0.6945
 3758SOL    HW222911   3.205   0.979   0.282  0.1589 -0.4882 -0.1396
 3759SOL     OW22912   2.530   2.783   1.539 -0.0849  0.8123  0.3321
 3759SOL    HW122913   2.617   2.745   1.527 -0.6223 -0.1945 -0.3967
 3759SOL    HW222914   2.549   2.860   1.592 -0.3290  0.4120  1.0033
 3760SOL     OW22915   3.729   0.193   6.040 -0.1862  0.7314  0.2420
 3760SOL    HW122916   3.758   0.280   6.013  0.1607  0.1774 -1.1571
 3760SOL    HW222917   3.701   0.215   6.129 -1.3384  2.0338 -0.4361
 3761SOL     OW22918   0.226   1.450   4.051 -0.0207  0.1709  0.8187
 3761SOL    HW122919   0.208   1.422   4.140  0.3564 -0.5834  0.6503
 3761SOL    HW222920   0.280   1.528   4.063  0.6892  0.0443 -1.6024
 3762SOL     OW22921   2.747   3.331   3.329 -0.2300  0.2128 -0.1331
 3762SOL    HW122922   2.785   3.419   3.328  1.9629 -0.8016 -5.6692
 3762SOL    HW222923   2.705   3.347   3.413  1.5590  1.3862  0.5461
 3763SOL     OW22924   1.979   4.420   3.073 -0.4246 -0.4489 -0.1465
 3763SOL    HW122925   1.923   4.443   3.147  2.1663  0.5437  1.5117
 3763SOL    HW222926   1.974   4.324   3.076  2.6716 -0.5788  0.7626
 3764SOL     OW22927   3.244   4.603   2.387 -0.1679  0.2603  0.2571
 3764SOL    HW122928   3.290   4.572   2.309  2.0807  2.6746  0.6122
 3764SOL    HW222929   3.197   4.679   2.354 -2.5264 -1.0953  0.5124
 3765SOL     OW22930   1.343   3.008  16.090  0.1494 -0.0028  0.4033
 3765SOL    HW122931   1.348   2.914  16.072 -1.6253  0.0773 -0.6045
 3765SOL    HW222932   1.382   3.046  16.011 -1.4651 -0.5217 -0.6409
 3766SOL     OW22933   4.291   4.449   8.566  0.2453 -0.5120 -0.0582
 3766SOL    HW122934   4.221   4.454   8.631  1.1878 -0.3158  0.9273
 3766SOL    HW222935   4.252   4.378   8.514  1.1433 -1.2996  0.3358
 3767SOL     OW22936   2.322   2.724   3.814 -0.6284  0.1530  0.4605
 3767SOL    HW122937   2.365   2.684   3.738  1.0175  3.0631 -0.1307
 3767SOL    HW222938   2.229   2.709   3.796 -0.0567  1.2102 -3.2221
 3768SOL     OW22939   3.759   0.450   5.993 -0.4490  0.5984 -0.5914
 3768SOL    HW122940   3.682   0.502   6.011 -0.2195 -0.1106  2.6033
 3768SOL    HW222941   3.813   0.470   6.070 -1.3798  0.9201 -0.0281
 3769SOL     OW22942   2.189   0.997  13.021 -0.3262  0.1041 -0.6613
 3769SOL    HW122943   2.118   0.937  13.000  0.7624 -1.4417 -0.0045
 3769SOL    HW222944   2.169   1.066  12.959  2.1131  0.5536 -0.9339
 3770SOL     OW22945   2.675   3.129   7.691  0.2173 -0.5312 -0.0117
 3770SOL    HW122946   2.678   3.080   7.773  0.7405  0.8566  0.7848
 3770SOL    HW222947   2.589   3.167   7.706  1.5313  2.0841  0.7777
 3771SOL     OW22948   0.574   2.019   5.468 -0.1115 -0.3662 -0.2546
 3771SOL    HW122949   0.492   2.006   5.420 -1.2372 -0.5959  1.7246
 3771SOL    HW222950   0.623   2.089   5.425  3.4811 -2.2765  0.7001
 3772SOL     OW22951   1.723   0.042   5.315  0.2047  0.1750 -0.1387
 3772SOL    HW122952   1.668   0.120   5.309 -1.5288 -1.0434 -0.0794
 3772SOL    HW222953   1.748   0.026   5.224 -0.5199  3.3568 -0.9092
 3773SOL     OW22954   3.498   4.390   4.617  0.9608 -0.2265  0.0483
 3773SOL    HW122955   3.521   4.434   4.700 -0.9375  0.7502  0.0464
 3773SOL    HW222956   3.453   4.462   4.574  0.7978 -0.4841 -0.2094
 3774SOL     OW22957   0.945   3.903   7.625  0.5527 -0.1550 -0.5600
 3774SOL    HW122958   0.891   3.981   7.611 -1.2384 -1.5219 -1.2192
 3774SOL    HW222959   0.935   3.882   7.718 -1.7208 -2.2507 -1.2617
 3775SOL     OW22960   4.545   4.627   7.201 -0.5805 -0.2356  0.5310
 3775SOL    HW122961   4.598   4.619   7.121 -1.4435 -0.2008 -0.0427
 3775SOL    HW222962   4.614   4.605   7.265 -1.0667  1.5894  1.6686
 3776SOL     OW22963   0.265   4.448   4.415 -0.1491  0.5621 -0.7423
 3776SOL    HW122964   0.327   4.381   4.445 -1.2996  0.2174  0.8452
 3776SOL    HW222965   0.273   4.430   4.321  0.8396 -0.9260 -0.3864
 3777SOL     OW22966   2.271   2.697   1.490  0.3253 -0.2972  0.7908
 3777SOL    HW122967   2.298   2.612   1.454 -1.0327  0.0378 -1.0167
 3777SOL    HW222968   2.355   2.720   1.530  0.8034 -1.5429  0.5217
 3778SOL     OW22969   1.608   0.589   1.489  0.2046 -0.0761  0.0988
 3778SOL    HW122970   1.651   0.602   1.404  0.0074  1.2924  0.1984
 3778SOL    HW222971   1.547   0.663   1.488  0.9833  0.5652  0.1714
 3779SOL     OW22972   2.479   3.171  16.895 -0.2861 -0.8667  0.0300
 3779SOL    HW122973   2.490   3.204  16.805  1.7267  0.7093  0.8631
 3779SOL    HW222974   2.401   3.222  16.916  0.8900  2.4285 -3.4397
 3780SOL     OW22975   4.171   1.863   9.883  0.1072  0.0196 -0.6299
 3780SOL    HW122976   4.090   1.907   9.909  0.0829  0.5069 -1.5203
 3780SOL    HW222977   4.235   1.919   9.927  0.0190  1.3567 -2.1742
 3781SOL     OW22978   2.022   2.853   2.441  0.0298  0.5081 -0.5595
 3781SOL    HW122979   1.929   2.873   2.433  0.0042 -0.3101 -2.5657
 3781SOL    HW222980   2.062   2.939   2.433  0.8554  0.1906  0.0911
 3782SOL     OW22981   3.821   0.763   8.769  0.2521  0.3524  0.0068
 3782SOL    HW122982   3.915   0.770   8.751  0.3561  1.0267  0.8304
 3782SOL    HW222983   3.820   0.745   8.863 -2.8820  1.3148  0.1373
 3783SOL     OW22984   3.715   1.573   5.268 -0.1808  0.0690  0.3908
 3783SOL    HW122985   3.701   1.644   5.331  1.1937  0.7799 -0.0946
 3783SOL    HW222986   3.621   1.555   5.271 -0.2063  0.3734  1.3997
 3784SOL     OW22987   4.429   2.181   6.306 -0.4772  0.7590 -0.3164
 3784SOL    HW122988   4.349   2.209   6.262 -0.9989 -0.1925  0.0314
 3784SOL    HW222989   4.456   2.146   6.221  0.3888  0.7388 -0.0338
 3785SOL     OW22990   1.245   3.327   1.598 -0.4255  0.0984  0.3442
 3785SOL    HW122991   1.254   3.361   1.509  0.9997 -0.7020  0.1898
 3785SOL    HW222992   1.185   3.395   1.629 -0.0974  0.8226 -0.6208
 3786SOL     OW22993   0.223   2.848   8.413  0.1705 -0.2481 -0.2835
 3786SOL    HW122994   0.153   2.892   8.365 -1.2726 -0.2308  1.8145
 3786SOL    HW222995   0.266   2.800   8.342  2.3448  4.0783 -1.8666
 3787SOL     OW22996   2.644   1.303   9.369 -0.2366 -0.5531 -0.7047
 3787SOL    HW122997   2.722   1.296   9.423 -1.8039  1.7905  1.9011
 3787SOL    HW222998   2.598   1.234   9.416  1.9493 -1.1217  0.5397
 3788SOL     OW22999   0.832   0.335   3.362 -0.1518 -0.7290 -0.4254
 3788SOL    HW123000   0.769   0.389   3.411 -0.3184 -1.3421  0.0437
 3788SOL    HW223001   0.879   0.388   3.298  1.1778 -0.5652  0.6662
 3789SOL     OW23002   3.152   3.733   1.606  0.3934 -0.5296 -0.0249
 3789SOL    HW123003   3.062   3.747   1.576  0.1230 -0.6322  0.7585
 3789SOL    HW223004   3.145   3.680   1.685 -0.6262  0.3547  0.4809
 3790SOL     OW23005   1.505   2.736   9.312  0.0992  0.0201 -0.4965
 3790SOL    HW123006   1.543   2.822   9.333 -0.2402  0.1696 -0.4880
 3790SOL    HW223007   1.579   2.688   9.275 -0.2743 -0.2438 -0.9029
 3791SOL     OW23008   1.998   0.577   5.424  0.3663  0.4135 -0.2421
 3791SOL    HW123009   1.921   0.522   5.412 -0.1090  0.8755  0.7484
 3791SOL    HW223010   1.960   0.663   5.403 -0.2948  0.0784 -0.3927
 3792SOL     OW23011   0.565   1.709   7.510  0.0581 -0.2285  0.0962
 3792SOL    HW123012   0.517   1.785   7.541  2.0401  1.4471 -0.8805
 3792SOL    HW223013   0.525   1.646   7.570  0.0032 -0.4757 -0.1973
 3793SOL     OW23014   3.130   3.057   5.773 -0.0389 -0.5673 -0.1935
 3793SOL    HW123015   3.105   3.121   5.705 -0.0013 -0.3410  0.0077
 3793SOL    HW223016   3.046   3.046   5.819  0.5673  1.7111  1.4569
 3794SOL     OW23017   3.360   4.727   3.888  0.2293  0.0436  0.1857
 3794SOL    HW123018   3.423   4.659   3.912 -0.3083  0.5877  3.1255
 3794SOL    HW223019   3.334   4.691   3.803 -1.5463  0.4755  0.5529
 3795SOL     OW23020   1.183   0.963   7.685 -0.5313 -0.3813  0.0585
 3795SOL    HW123021   1.159   0.891   7.743 -1.0339  0.2023  0.5802
 3795SOL    HW223022   1.114   0.975   7.620 -0.0791 -0.4243 -0.4289
 3796SOL     OW23023   3.633   0.154   3.472 -0.2117 -0.3385  0.3079
 3796SOL    HW123024   3.640   0.228   3.412  1.1265 -0.3680  0.4255
 3796SOL    HW223025   3.692   0.173   3.545  0.1976  1.5124 -0.5114
 3797SOL     OW23026   2.198   2.976   6.058 -0.2092 -0.1972 -0.6508
 3797SOL    HW123027   2.208   3.012   5.970 -4.7826  0.9222 -0.7140
 3797SOL    HW223028   2.170   3.053   6.107  3.6445 -0.2496  1.6244
 3798SOL     OW23029   0.930   4.304   2.724 -0.3219  0.1073 -0.0405
 3798SOL    HW123030   0.942   4.368   2.794 -1.6356 -1.9240  2.0430
 3798SOL    HW223031   0.940   4.351   2.641 -2.0732  0.8285  0.1528
 3799SOL     OW23032   1.660   2.038   7.523  0.5072 -0.1176 -0.3422
 3799SOL    HW123033   1.606   2.030   7.444 -0.0190  3.7790 -0.3637
 3799SOL    HW223034   1.722   1.965   7.520  1.6251  0.8188  0.1897
 3800SOL     OW23035   2.449   0.649   2.477  0.1071  0.4140  0.1211
 3800SOL    HW123036   2.413   0.697   2.402  0.4737 -0.2586 -0.4804
 3800SOL    HW223037   2.372   0.593   2.488  1.0660 -1.1834 -1.3315
 3801SOL     OW23038   2.472   1.767  10.067  0.3257  0.1481  0.3373
 3801SOL    HW123039   2.524   1.711  10.124  1.4650  3.6255  2.7678
 3801SOL    HW223040   2.388   1.768  10.112  0.6029 -3.1504  0.8801
 3802SOL     OW23041   0.719   2.580   6.800  0.5567 -0.1202  0.1394
 3802SOL    HW123042   0.798   2.568   6.854 -1.5411  0.0628  3.2718
 3802SOL    HW223043   0.706   2.498   6.753 -1.8991  0.7655 -0.7317
 3803SOL     OW23044   2.857   1.222   6.093  0.0532 -0.5593  0.0135
 3803SOL    HW123045   2.822   1.133   6.091 -0.7330 -0.2347 -1.3029
 3803SOL    HW223046   2.948   1.207   6.069  0.0423  0.7637 -0.8483
 3804SOL     OW23047   3.883   4.127  14.344  0.2293  0.0744 -0.3590
 3804SOL    HW123048   3.937   4.060  14.386  0.0800  0.9041  1.1402
 3804SOL    HW223049   3.947   4.194  14.321  0.4712  1.1875  3.5578
 3805SOL     OW23050   4.368   3.136   1.989 -0.4210  0.1334 -0.6262
 3805SOL    HW123051   4.405   3.224   1.976  0.0123  0.1828  0.8698
 3805SOL    HW223052   4.423   3.120   2.066 -1.9679 -2.8729 -0.1795
 3806SOL     OW23053   1.458   2.640   4.342 -0.4762  0.2625  0.1833
 3806SOL    HW123054   1.496   2.714   4.389  2.9397 -1.1985 -0.3392
 3806SOL    HW223055   1.410   2.689   4.275  1.0528  0.6854 -0.5872
 3807SOL     OW23056   3.591   0.931   3.882  0.1664  0.0983 -0.3071
 3807SOL    HW123057   3.559   1.020   3.897 -0.6211 -0.1151 -0.6931
 3807SOL    HW223058   3.577   0.934   3.787  1.4351 -0.9457 -0.5262
 3808SOL     OW23059   0.467   4.341   4.590  0.4956 -0.1808 -0.6195
 3808SOL    HW123060   0.549   4.301   4.562  1.6189  1.5854  0.1710
 3808SOL    HW223061   0.492   4.388   4.669 -1.1676  0.3433 -0.4023
 3809SOL     OW23062   1.803   4.136   8.624 -0.0330  0.4931 -0.4973
 3809SOL    HW123063   1.836   4.213   8.577 -0.6140  0.6359 -0.6684
 3809SOL    HW223064   1.746   4.172   8.691 -0.5908 -0.3933 -0.4983
 3810SOL     OW23065   2.712   1.526   8.446 -0.1142 -0.4731 -0.5209
 3810SOL    HW123066   2.765   1.601   8.421  0.5785 -0.7493  0.1345
 3810SOL    HW223067   2.739   1.460   8.381  0.3343 -0.6494 -0.1549
 3811SOL     OW23068   3.968   0.318  14.737 -0.2254 -0.0386  0.0769
 3811SOL    HW123069   3.998   0.399  14.779  0.7885 -1.0092  1.2158
 3811SOL    HW223070   3.971   0.261  14.814  1.8102 -1.1285 -0.8296
 3812SOL     OW23071   0.978   3.162   6.440 -0.0881 -0.1939  0.2218
 3812SOL    HW123072   0.980   3.123   6.528 -0.9774 -2.5073 -0.8098
 3812SOL    HW223073   0.985   3.088   6.380  0.9371 -0.6343  0.8785
 3813SOL     OW23074   3.108   1.790  11.185 -0.3072  0.1680 -0.8362
 3813SOL    HW123075   3.063   1.847  11.247  1.6763  0.3999  0.3741
 3813SOL    HW223076   3.195   1.826  11.200  0.2343 -1.7178  0.5777
 3814SOL     OW23077   0.833   1.986   4.663 -0.1745 -0.0136 -0.6150
 3814SOL    HW123078   0.780   1.918   4.620  0.1764 -1.3634  1.0691
 3814SOL    HW223079   0.918   1.965   4.624 -0.8580 -2.8508 -0.5664
 3815SOL     OW23080   4.641   3.720   7.865  0.3776  0.3979  0.2979
 3815SOL    HW123081   4.615   3.749   7.778  0.1299 -0.5768  0.0508
 3815SOL    HW223082   4.719   3.669   7.843  0.1134 -0.4329  1.2701
 3816SOL     OW23083   1.490   0.960  13.548  0.1018 -0.5029 -0.1902
 3816SOL    HW123084   1.439   1.028  13.592  0.0236  0.0146 -1.0950
 3816SOL    HW223085   1.458   0.880  13.592 -1.6558 -0.3588 -1.2061
 3817SOL     OW23086   1.508   2.839   1.406 -0.1427 -0.0848  0.0022
 3817SOL    HW123087   1.482   2.916   1.458 -0.1418  0.7790 -1.2863
 3817SOL    HW223088   1.512   2.773   1.476  1.1153 -2.1627 -2.0311
 3818SOL     OW23089   1.139   3.281  12.618 -1.1728 -0.3512 -0.1251
 3818SOL    HW123090   1.049   3.260  12.642 -1.0035  1.4751  2.1023
 3818SOL    HW223091   1.153   3.218  12.548  0.4699  1.5642 -1.5373
 3819SOL     OW23092   1.849   0.487  11.381 -0.0921 -0.1883  0.1530
 3819SOL    HW123093   1.871   0.501  11.473  0.9121  0.0776 -0.1259
 3819SOL    HW223094   1.755   0.494  11.369 -0.2325 -1.2049  0.5996
 3820SOL     OW23095   3.096   4.341  14.698 -0.2998  0.0115 -0.3672
 3820SOL    HW123096   3.006   4.328  14.727 -0.3118  2.2068  0.6009
 3820SOL    HW223097   3.108   4.274  14.631 -0.6379  0.3614 -0.7728
 3821SOL     OW23098   1.402   4.468   1.726 -0.0824 -0.7189  0.1687
 3821SOL    HW123099   1.469   4.512   1.779 -1.3274  0.4535  0.7400
 3821SOL    HW223100   1.343   4.444   1.797  0.1493  0.2308  0.6686
 3822SOL     OW23101   4.500   2.678   5.502 -0.1979  0.2707  0.6420
 3822SOL    HW123102   4.410   2.709   5.489 -0.6596 -2.0865 -1.7436
 3822SOL    HW223103   4.498   2.648   5.592  0.3925  0.2437  0.6440
 3823SOL     OW23104   3.389   2.654   3.896  0.2282  0.2354  0.1729
 3823SOL    HW123105   3.396   2.607   3.812  0.8812 -1.3891  1.1383
 3823SOL    HW223106   3.299   2.683   3.884  0.8998  1.7735 -1.2176
 3824SOL     OW23107   2.497   1.909   2.850 -0.1599  0.4231  0.1045
 3824SOL    HW123108   2.533   1.913   2.939 -1.2720  2.0058  0.5016
 3824SOL    HW223109   2.411   1.952   2.857  1.4645  3.5312  1.1897
 3825SOL     OW23110   1.808   4.371   8.390 -0.7010 -0.1171  0.3576
 3825SOL    HW123111   1.754   4.446   8.367 -2.5606 -1.5046  0.1450
 3825SOL    HW223112   1.860   4.400   8.465  1.9069  1.1799 -1.9464
 3826SOL     OW23113   2.114   1.852   3.002 -0.1813  0.5422 -0.3280
 3826SOL    HW123114   2.103   1.792   2.928  2.7592  1.4251 -1.4895
 3826SOL    HW223115   2.175   1.914   2.963 -0.4610  1.0808  0.0880
 3827SOL     OW23116   3.506   4.148   4.826  0.1814 -0.4322 -0.5065
 3827SOL    HW123117   3.526   4.232   4.784 -0.2720 -0.0806 -0.0010
 3827SOL    HW223118   3.588   4.128   4.872  0.1892  1.2761  0.1923
 3828SOL     OW23119   4.312   4.422   8.963 -0.4313 -0.0430 -0.0265
 3828SOL    HW123120   4.259   4.501   8.946  3.3622  2.6268  0.5666
 3828SOL    HW223121   4.291   4.361   8.891  2.2613 -2.8990  1.6577
 3829SOL     OW23122   0.145   4.144  10.378  0.2896 -0.4234  0.3119
 3829SOL    HW123123   0.112   4.206  10.443 -1.1866  0.6099 -1.4313
 3829SOL    HW223124   0.077   4.077  10.370 -1.5147  1.3569  0.7991
 3830SOL     OW23125   2.495   0.282   6.938  0.0391  0.3368 -0.3676
 3830SOL    HW123126   2.578   0.233   6.940 -0.3074 -0.1283  2.3371
 3830SOL    HW223127   2.501   0.309   6.846 -0.6544 -0.3573 -0.6191
 3831SOL     OW23128   0.819   1.010   1.255 -0.3133  0.2761 -0.8234
 3831SOL    HW123129   0.885   0.941   1.263  0.7796  1.0748 -3.0842
 3831SOL    HW223130   0.810   1.022   1.161 -2.9952 -0.3287 -0.6353
 3832SOL     OW23131   2.198   3.708   5.385  0.4891 -0.5640  0.1202
 3832SOL    HW123132   2.293   3.716   5.382  0.6559 -1.7042  2.1199
 3832SOL    HW223133   2.182   3.646   5.314  2.6777  1.4743 -2.1169
 3833SOL     OW23134   1.434   3.372   8.751 -0.7732  0.2452 -0.3706
 3833SOL    HW123135   1.528   3.357   8.747 -0.5121  1.6911  0.4168
 3833SOL    HW223136   1.424   3.326   8.834 -1.1708  2.0189  0.5489
 3834SOL     OW23137   2.969   4.022   8.420  0.1580 -0.5036 -0.6831
 3834SOL    HW123138   2.913   4.099   8.410 -2.4391 -2.1560  1.0308
 3834SOL    HW223139   3.011   4.056   8.499 -0.5583  0.6157 -0.7642
 3835SOL     OW23140   3.072   2.753   8.057  0.2701 -0.3093  0.2649
 3835SOL    HW123141   3.150   2.717   8.100  0.0668 -0.6081  0.3901
 3835SOL    HW223142   3.093   2.749   7.964 -1.8784  0.9741 -0.2813
 3836SOL     OW23143   2.441   1.138   3.933 -0.3738 -0.1931 -0.2890
 3836SOL    HW123144   2.491   1.070   3.889 -0.7645  0.7299 -2.1568
 3836SOL    HW223145   2.508   1.204   3.951 -0.0378  0.3421 -3.5591
 3837SOL     OW23146   3.449   3.813  17.332 -0.0236 -0.1688 -0.3485
 3837SOL    HW123147   3.422   3.865  17.256  1.3368  1.8978  0.5662
 3837SOL    HW223148   3.535   3.779  17.309  0.3938  0.3003  0.4963
 3838SOL     OW23149   1.632   1.726   5.383  0.1222 -0.5233 -0.5969
 3838SOL    HW123150   1.583   1.644   5.393 -2.1283  0.8584 -0.3891
 3838SOL    HW223151   1.721   1.692   5.378 -0.4472 -1.5440 -3.3440
 3839SOL     OW23152   4.351   4.592   7.657 -0.0769  0.3662 -0.3748
 3839SOL    HW123153   4.363   4.499   7.634 -0.6851 -0.6625  3.4820
 3839SOL    HW223154   4.439   4.622   7.637 -0.8939  1.7417 -1.8511
 3840SOL     OW23155   4.324   3.131   2.639 -0.1522  0.1475  0.0052
 3840SOL    HW123156   4.255   3.089   2.691 -0.5739 -0.3342 -0.9433
 3840SOL    HW223157   4.290   3.108   2.553 -1.3729 -1.7615  1.0051
 3841SOL     OW23158   3.543   0.073  10.328  0.4919  0.0763 -0.2632
 3841SOL    HW123159   3.500   4.730  10.305  1.6578 -0.4388 -0.6097
 3841SOL    HW223160   3.491   0.139  10.282  0.0703 -0.3823 -0.4437
 3842SOL     OW23161   2.584   0.764   6.593  0.4671  0.0777 -0.5416
 3842SOL    HW123162   2.576   0.670   6.576 -0.6802 -0.0372  0.5652
 3842SOL    HW223163   2.585   0.761   6.689 -0.9630 -0.0968 -0.5237
 3843SOL     OW23164   1.910   4.235   9.348  0.4442  0.4784  0.5101
 3843SOL    HW123165   2.000   4.218   9.377  1.4213  1.2421 -2.0974
 3843SOL    HW223166   1.929   4.242   9.254 -2.5169 -1.9804 -0.2610
 3844SOL     OW23167   2.294   1.753   6.250 -0.0393  0.3949  0.2245
 3844SOL    HW123168   2.312   1.765   6.343 -4.2230 -0.7642  1.1999
 3844SOL    HW223169   2.310   1.842   6.220 -0.6534  0.3630 -0.2057
 3845SOL     OW23170   2.324   2.047   1.973 -0.7860  0.4942 -0.1561
 3845SOL    HW123171   2.260   2.055   2.045  1.6584 -0.1341  2.0870
 3845SOL    HW223172   2.402   2.020   2.020 -1.4537 -2.1696 -0.6199
 3846SOL     OW23173   3.058   0.184  17.526 -0.1189  0.4498  0.4225
 3846SOL    HW123174   3.137   0.135  17.504  0.8800  1.4683  1.7175
 3846SOL    HW223175   3.031   0.122  17.594  0.8065  0.2632  0.6232
 3847SOL     OW23176   4.151   0.096   9.455  0.8562  0.0464 -0.4195
 3847SOL    HW123177   4.091   0.097   9.529 -0.0579 -2.4267 -1.1237
 3847SOL    HW223178   4.112   0.033   9.394 -1.8799  0.0173  1.3738
 3848SOL     OW23179   2.023   3.492   3.373 -0.2641  0.1209 -0.0082
 3848SOL    HW123180   2.043   3.579   3.408  0.8472 -0.4521  0.7956
 3848SOL    HW223181   2.112   3.456   3.382 -0.4803 -0.6073 -0.8586
 3849SOL     OW23182   2.082   0.865   4.459 -0.1324  0.3654  0.6109
 3849SOL    HW123183   1.989   0.845   4.470 -0.0605 -0.5311 -0.3941
 3849SOL    HW223184   2.108   0.793   4.401 -1.4813 -1.4315  2.2000
 3850SOL     OW23185   4.497   3.507   5.829 -0.0547 -0.3555  0.0955
 3850SOL    HW123186   4.440   3.584   5.839 -0.5497 -0.6479 -0.5038
 3850SOL    HW223187   4.502   3.499   5.734  3.8156  0.1667  0.2402
 3851SOL     OW23188   0.004   4.247   3.925 -0.7405  0.7499 -0.0135
 3851SOL    HW123189   4.677   4.293   3.977  1.3000  2.9214  0.6840
 3851SOL    HW223190   4.702   4.264   3.840 -0.4984  0.8863 -0.1045
 3852SOL     OW23191   3.327   0.529   9.164  0.2236 -0.3530 -0.3559
 3852SOL    HW123192   3.290   0.571   9.086  3.2006 -0.1468 -1.6396
 3852SOL    HW223193   3.321   0.439   9.133  3.0232 -0.4841 -0.4649
 3853SOL     OW23194   1.984   4.606   2.403 -0.1980  0.5055 -0.0395
 3853SOL    HW123195   1.922   4.548   2.358  1.9514 -1.4766 -0.4220
 3853SOL    HW223196   2.058   4.545   2.403 -1.6633 -1.2518  1.2208
 3854SOL     OW23197   4.548   3.099   8.850 -0.3277 -0.3974  0.1402
 3854SOL    HW123198   4.460   3.135   8.846  0.4733  1.5124 -0.1162
 3854SOL    HW223199   4.547   3.058   8.937  1.2071 -1.5496 -0.3691
 3855SOL     OW23200   4.715   1.910   4.765 -0.8058 -0.1988 -0.3503
 3855SOL    HW123201   4.696   1.821   4.795 -1.8875 -0.2782 -1.2497
 3855SOL    HW223202   0.069   1.911   4.787 -0.8140 -1.4279 -0.2584
 3856SOL     OW23203   0.342   3.497   5.276 -0.2300 -0.3196 -0.1168
 3856SOL    HW123204   0.333   3.489   5.181  1.2248  0.6204 -0.3221
 3856SOL    HW223205   0.278   3.567   5.294  1.0711  0.5597  1.0719
 3857SOL     OW23206   1.808   0.398   5.697 -0.4026 -0.1512  0.2558
 3857SOL    HW123207   1.902   0.407   5.712 -0.1593 -2.2743 -0.0535
 3857SOL    HW223208   1.804   0.470   5.634  1.3699  1.6772  2.2232
 3858SOL     OW23209   2.468   0.829  12.493  0.0157 -0.5934 -0.0557
 3858SOL    HW123210   2.444   0.894  12.558 -0.2134 -1.1213  0.3809
 3858SOL    HW223211   2.405   0.842  12.422 -0.4115  0.7063  0.5645
 3859SOL     OW23212   3.742   3.988  10.640 -0.0360 -0.1504 -0.1513
 3859SOL    HW123213   3.697   4.026  10.565  0.1866  1.6692  0.6338
 3859SOL    HW223214   3.678   3.998  10.710  0.9029 -1.0698  0.8485
 3860SOL     OW23215   4.618   1.427   8.478  0.5324 -0.0515 -0.5371
 3860SOL    HW123216   4.613   1.363   8.406 -1.8131  0.0295 -0.4450
 3860SOL    HW223217   4.683   1.380   8.531 -1.1880 -2.0351 -0.1929
 3861SOL     OW23218   0.964   1.336  11.852 -0.1659 -0.5944  0.4478
 3861SOL    HW123219   0.902   1.271  11.884 -0.4651  0.0464  1.1765
 3861SOL    HW223220   0.945   1.416  11.902  1.5266 -0.0346  0.2015
 3862SOL     OW23221   4.025   0.547   6.683 -0.4908  0.2732  0.0115
 3862SOL    HW123222   4.040   0.515   6.772  0.1214 -0.2256 -0.2751
 3862SOL    HW223223   3.963   0.482   6.650 -0.1245 -1.0436  1.9052
 3863SOL     OW23224   4.492   2.495  10.377  0.1748 -0.4344 -0.2833
 3863SOL    HW123225   4.490   2.505  10.472 -0.9713 -1.8488 -0.1610
 3863SOL    HW223226   4.534   2.410  10.366  2.4802  0.2981  2.7395
 3864SOL     OW23227   0.500   3.335   6.777  0.0557 -0.0070  0.4539
 3864SOL    HW123228   0.578   3.280   6.780  0.4431  0.5103 -0.2644
 3864SOL    HW223229   0.447   3.289   6.842 -2.1513  1.9039  0.0098
 3865SOL     OW23230   4.674   3.961   6.447  0.3135 -0.0489  0.6192
 3865SOL    HW123231   4.595   3.924   6.407  1.5658 -0.2100 -1.7294
 3865SOL    HW223232   4.676   3.934   6.539  1.6058  0.6337  0.7866
 3866SOL     OW23233   2.995   0.374  14.081 -0.2754 -0.6673 -0.4402
 3866SOL    HW123234   2.978   0.284  14.109 -0.4404 -0.3111  0.5957
 3866SOL    HW223235   2.962   0.410  14.163  2.8545  2.2317 -0.4372
 3867SOL     OW23236   2.100   3.740  11.274 -0.5314  0.3548 -0.1524
 3867SOL    HW123237   2.130   3.830  11.266  0.3836  0.2679  2.2731
 3867SOL    HW223238   2.008   3.758  11.253 -0.3322  1.3495 -0.1409
 3868SOL     OW23239   2.040   3.979   2.394 -0.2868  0.5086  0.2309
 3868SOL    HW123240   1.981   4.054   2.384 -1.0016 -0.1160 -0.2292
 3868SOL    HW223241   2.124   4.020   2.374  1.3496 -1.3906  3.1518
 3869SOL     OW23242   0.187   0.929  14.436 -0.2601  0.6479  0.2280
 3869SOL    HW123243   0.251   0.981  14.386  0.1311 -1.4602 -1.4835
 3869SOL    HW223244   0.155   0.987  14.504 -3.0697  0.3599 -0.8666
 3870SOL     OW23245   0.761   3.446   7.173  0.0433  0.5867 -0.0378
 3870SOL    HW123246   0.732   3.436   7.083 -0.0403  1.5368 -0.1174
 3870SOL    HW223247   0.857   3.437   7.173 -0.1035 -1.1216  4.1127
 3871SOL     OW23248   2.144   4.622   6.345  0.4840 -0.3721  1.0101
 3871SOL    HW123249   2.167   4.638   6.436  0.2568 -0.1584  1.0305
 3871SOL    HW223250   2.227   4.623   6.297 -0.8850  0.0464 -1.3570
 3872SOL     OW23251   2.082   1.514  12.480 -0.5256 -0.3373 -0.2502
 3872SOL    HW123252   2.074   1.504  12.386 -0.9854  3.0533 -0.5918
 3872SOL    HW223253   1.993   1.505  12.513 -0.1694  0.7070  1.0329
 3873SOL     OW23254   1.942   1.500   1.793 -0.0727  0.1953 -0.0007
 3873SOL    HW123255   2.027   1.457   1.799  0.0592  0.6433  1.3282
 3873SOL    HW223256   1.970   1.591   1.779  1.7560 -0.7005 -2.1985
 3874SOL     OW23257   0.427   1.116  11.071 -0.0284 -0.2138  0.4949
 3874SOL    HW123258   0.374   1.156  11.001  1.2323  1.2315  0.3573
 3874SOL    HW223259   0.492   1.062  11.027 -0.1809 -0.1974  0.2477
 3875SOL     OW23260   3.662   2.736   4.023  0.1059  0.1501  0.3200
 3875SOL    HW123261   3.720   2.759   3.951 -0.5376  1.6210  0.2687
 3875SOL    HW223262   3.580   2.715   3.978  0.4760  1.4139 -0.9311
 3876SOL     OW23263   2.872   4.118  12.506 -0.0265 -0.2810  0.1527
 3876SOL    HW123264   2.925   4.038  12.498 -0.5529 -0.6266  0.0733
 3876SOL    HW223265   2.939   4.186  12.508 -2.1657  1.7872  0.0389
 3877SOL     OW23266   0.476   3.096   4.326  0.2811  0.2863  0.4737
 3877SOL    HW123267   0.556   3.085   4.377 -1.3580 -1.6739  2.6536
 3877SOL    HW223268   0.469   3.191   4.331  0.7623  0.3409  0.1085
 3878SOL     OW23269   2.488   4.669  15.730 -0.2783  0.3920  0.3357
 3878SOL    HW123270   2.573   4.683  15.771 -0.2383  1.2980 -0.0601
 3878SOL    HW223271   2.455   0.019  15.718  1.2844  0.9677  0.3276
 3879SOL     OW23272   1.882   1.777   1.278 -0.1483  0.5372 -0.2492
 3879SOL    HW123273   1.936   1.741   1.209 -2.4556 -2.0344 -0.7399
 3879SOL    HW223274   1.888   1.701   1.337  1.1714  0.1351 -0.9178
 3880SOL     OW23275   3.533   2.014   5.439  0.5438 -0.0101 -0.2649
 3880SOL    HW123276   3.500   1.996   5.351 -2.1281  0.3016  0.6785
 3880SOL    HW223277   3.473   1.978   5.505  0.5062  0.5062 -0.0142
 3881SOL     OW23278   0.274   2.825   6.307  0.3750  0.6724 -0.0227
 3881SOL    HW123279   0.186   2.794   6.327  0.5887  1.1363  1.6378
 3881SOL    HW223280   0.322   2.754   6.350 -1.9699 -0.2962  0.9971
 3882SOL     OW23281   2.389   2.792   7.957 -0.4594  0.2462  0.1774
 3882SOL    HW123282   2.362   2.797   7.865  1.0123 -1.6288 -0.3506
 3882SOL    HW223283   2.333   2.863   7.989 -0.6903  0.2462 -0.2209
 3883SOL     OW23284   1.572   2.407   4.225  0.0406  0.0497 -0.3273
 3883SOL    HW123285   1.554   2.498   4.245  0.2865  0.4804 -2.0866
 3883SOL    HW223286   1.550   2.393   4.133  0.9638  1.3510 -0.7440
 3884SOL     OW23287   2.962   2.364   7.563  0.3514 -0.2053 -0.5366
 3884SOL    HW123288   2.895   2.321   7.510 -3.0081  2.4221  1.4954
 3884SOL    HW223289   2.961   2.452   7.526  1.3225 -0.8173 -1.9991
 3885SOL     OW23290   0.829   1.777   7.874 -0.4093  0.2529 -0.2293
 3885SOL    HW123291   0.805   1.703   7.930  0.9850  0.8306  1.1109
 3885SOL    HW223292   0.765   1.842   7.903 -1.2120  0.3452 -2.1893
 3886SOL     OW23293   0.495   3.329   7.444  0.0060 -0.3622 -0.1463
 3886SOL    HW123294   0.577   3.376   7.455 -0.1807 -0.6054  2.5008
 3886SOL    HW223295   0.458   3.353   7.359 -0.7245 -1.3824 -0.1324
 3887SOL     OW23296   3.319   0.524   7.734 -0.2590 -0.0624  0.5020
 3887SOL    HW123297   3.410   0.541   7.758 -0.1421  0.2189 -0.1568
 3887SOL    HW223298   3.271   0.574   7.800  0.2724  1.2205 -0.0983
 3888SOL     OW23299   3.207   3.924   3.140  0.5448  0.0311 -0.4016
 3888SOL    HW123300   3.229   4.014   3.166  1.6723 -0.9681  2.0449
 3888SOL    HW223301   3.281   3.894   3.088  1.1838  1.6019 -0.4229
 3889SOL     OW23302   2.121   0.512  13.933  0.4975  0.2040  0.0651
 3889SOL    HW123303   2.204   0.465  13.931  0.9577  0.9884  0.8704
 3889SOL    HW223304   2.085   0.482  14.017 -2.5794  1.4387 -0.7870
 3890SOL     OW23305   0.228   0.866   4.327 -0.5359  0.0682  0.1944
 3890SOL    HW123306   0.254   0.869   4.419  0.2381  2.3789 -0.1081
 3890SOL    HW223307   0.158   0.800   4.331  0.5872 -1.3569 -4.0390
 3891SOL     OW23308   4.702   4.682   5.651 -0.1099  0.4867 -0.0466
 3891SOL    HW123309   4.653   0.019   5.685  2.6262  1.5783  1.4484
 3891SOL    HW223310   4.629   4.620   5.646  0.8239 -0.7180  1.1947
 3892SOL     OW23311   1.234   1.537   3.649  0.2812 -0.3187 -1.0317
 3892SOL    HW123312   1.141   1.555   3.636  0.0659 -0.7018  0.0057
 3892SOL    HW223313   1.258   1.491   3.568  2.1917  0.7589 -1.0888
 3893SOL     OW23314   1.083   3.638   6.839 -0.4573  0.0299  0.2388
 3893SOL    HW123315   0.995   3.670   6.858 -0.1478  0.0231  1.6804
 3893SOL    HW223316   1.135   3.704   6.885 -1.6655  2.4764 -1.8864
 3894SOL     OW23317   2.363   3.542   4.945 -0.3564 -0.5944  0.2800
 3894SOL    HW123318   2.383   3.545   4.851 -0.1186 -0.9298  0.3243
 3894SOL    HW223319   2.407   3.619   4.979  0.2240  0.5488 -3.0473
 3895SOL     OW23320   3.795   4.284   7.846  0.0595  0.5066  1.0996
 3895SOL    HW123321   3.862   4.256   7.909  1.0945  0.3524 -0.0847
 3895SOL    HW223322   3.752   4.351   7.900  1.0624  0.6583  1.7054
 3896SOL     OW23323   1.265   2.186   5.955 -0.0684  0.2983 -0.2032
 3896SOL    HW123324   1.308   2.101   5.951 -0.8141 -0.0876 -0.1570
 3896SOL    HW223325   1.304   2.215   6.037  1.2613  1.1539 -1.1379
 3897SOL     OW23326   0.185   3.400   3.790 -0.2538 -0.0405 -0.0980
 3897SOL    HW123327   0.177   3.420   3.884  0.8800 -0.6870  0.1351
 3897SOL    HW223328   0.176   3.490   3.761  0.4382  0.0265 -0.0968
 3898SOL     OW23329   0.120   0.730   5.985 -0.4429  0.2537  0.5600
 3898SOL    HW123330   0.034   0.769   5.967 -1.1996 -1.1904  0.9963
 3898SOL    HW223331   0.087   0.656   6.036  0.5757 -1.7463 -1.7067
 3899SOL     OW23332   1.897   4.415   2.224  0.5893  0.0641  0.4727
 3899SOL    HW123333   1.982   4.421   2.180  0.5575  0.2316  0.4330
 3899SOL    HW223334   1.838   4.418   2.148  1.0609  1.0777  0.1405
 3900SOL     OW23335   0.262   3.828   5.829  0.1833 -0.7580  0.3071
 3900SOL    HW123336   0.261   3.786   5.915  0.7543  0.3965  0.8718
 3900SOL    HW223337   0.284   3.756   5.770  2.6073 -1.5619  2.2143
 3901SOL     OW23338   4.554   1.858   4.553 -0.1481 -0.1497  0.2246
 3901SOL    HW123339   4.603   1.883   4.631  1.0008 -1.6610 -0.0139
 3901SOL    HW223340   4.472   1.888   4.591 -0.5907 -0.0474 -0.8188
 3902SOL     OW23341   2.325   2.210   2.349  0.1501  0.4405  0.3099
 3902SOL    HW123342   2.416   2.204   2.381 -0.1259  1.3616  1.2854
 3902SOL    HW223343   2.298   2.289   2.397  0.7021  1.2910 -0.7830
 3903SOL     OW23344   0.553   2.197   5.848 -0.0009  0.2812  0.2424
 3903SOL    HW123345   0.545   2.133   5.778 -0.3998  1.8018 -1.1080
 3903SOL    HW223346   0.638   2.176   5.887 -0.2687  1.5051  1.4910
 3904SOL     OW23347   1.600   1.256   5.206 -1.1945  0.1635 -0.2330
 3904SOL    HW123348   1.547   1.187   5.246 -0.5440 -0.4245 -0.3783
 3904SOL    HW223349   1.541   1.301   5.145  0.1012  4.5663  1.8000
 3905SOL     OW23350   1.848   3.618  12.091  0.1853  0.4761  0.0891
 3905SOL    HW123351   1.931   3.577  12.066  0.3250  0.3072  0.8423
 3905SOL    HW223352   1.858   3.706  12.055 -1.1412  0.7030  0.2795
 3906SOL     OW23353   0.721   0.701   4.421 -0.1006  0.6032  0.3739
 3906SOL    HW123354   0.807   0.740   4.405  0.7477 -1.2099  0.4334
 3906SOL    HW223355   0.736   0.615   4.382 -1.5180  0.1990  0.7338
 3907SOL     OW23356   3.670   4.030  14.183 -0.7771  0.4286  0.2862
 3907SOL    HW123357   3.750   4.063  14.224 -1.3258  1.2318  0.7139
 3907SOL    HW223358   3.700   3.963  14.121 -0.9433  1.3122 -0.7325
 3908SOL     OW23359   1.756   0.870   7.903 -0.3564  0.0204 -0.1633
 3908SOL    HW123360   1.699   0.830   7.967 -0.9016 -1.9868 -1.9091
 3908SOL    HW223361   1.835   0.870   7.957  0.8540  1.9860 -1.8736
 3909SOL     OW23362   1.330   1.088   8.660  0.6998  0.4013 -0.1941
 3909SOL    HW123363   1.304   1.036   8.584  2.8289 -1.2509  0.1963
 3909SOL    HW223364   1.306   1.174   8.625  0.1684 -0.5361 -2.1454
 3910SOL     OW23365   0.257   2.097   2.648 -0.4122  0.5959 -0.1815
 3910SOL    HW123366   0.278   2.088   2.741  0.0734 -2.5497 -0.6022
 3910SOL    HW223367   0.282   2.189   2.635  2.9130 -0.2811 -0.0501
 3911SOL     OW23368   0.427   3.144   7.632  0.0547 -1.4401  0.3239
 3911SOL    HW123369   0.464   3.200   7.564  0.8681 -2.2326  0.1072
 3911SOL    HW223370   0.361   3.096   7.582 -0.4036  0.4418 -0.8435
 3912SOL     OW23371   0.746   3.274   8.707 -0.1257  0.5662  0.1145
 3912SOL    HW123372   0.828   3.241   8.669 -1.2246  1.7410 -3.2694
 3912SOL    HW223373   0.714   3.323   8.632  1.1262  1.1404 -0.0495
 3913SOL     OW23374   2.287   1.869   8.341 -0.1796 -0.6465 -0.4008
 3913SOL    HW123375   2.277   1.963   8.325  1.9694 -0.5742 -1.3213
 3913SOL    HW223376   2.204   1.851   8.386 -0.9299  1.0749 -1.0958
 3914SOL     OW23377   0.239   2.223   9.546 -0.2180  0.1479  0.2892
 3914SOL    HW123378   0.271   2.305   9.584 -1.7618  0.9797 -0.2219
 3914SOL    HW223379   0.146   2.239   9.558 -0.3071  0.4334 -0.8283
 3915SOL     OW23380   2.753   3.193  12.855 -0.3347  0.1301  0.4956
 3915SOL    HW123381   2.740   3.167  12.946 -2.4527 -1.8397 -0.3601
 3915SOL    HW223382   2.811   3.127  12.819 -1.8731 -1.0002  0.0853
 3916SOL     OW23383   3.163   4.737   5.990  0.4130  0.5875  0.3103
 3916SOL    HW123384   3.196   0.052   6.062 -1.0192  2.0806 -0.1494
 3916SOL    HW223385   3.236   4.675   5.982 -1.5767 -1.5167 -1.5761
 3917SOL     OW23386   3.058   3.249   3.074 -0.8140 -0.6211 -0.2357
 3917SOL    HW123387   3.144   3.209   3.063 -1.2050 -1.2783 -0.9195
 3917SOL    HW223388   3.086   3.337   3.099  0.8917 -0.9320 -1.0586
 3918SOL     OW23389   1.882   2.906   9.942 -0.2630  0.2009 -0.9432
 3918SOL    HW123390   1.963   2.859   9.919  0.3556  0.5276  0.5370
 3918SOL    HW223391   1.923   2.991   9.958  0.3734 -0.1040 -0.9156
 3919SOL     OW23392   1.023   1.888   3.455  0.4762 -1.1638 -0.3497
 3919SOL    HW123393   1.065   1.915   3.374  1.1087 -1.0278  0.0232
 3919SOL    HW223394   1.081   1.898   3.531 -1.9117  2.6864  0.9597
 3920SOL     OW23395   1.181   4.044   7.914 -0.4402  0.5771  0.3313
 3920SOL    HW123396   1.132   3.986   7.972 -2.6655  1.4382 -0.6836
 3920SOL    HW223397   1.249   3.984   7.884  0.5714  0.9172  1.8867
 3921SOL     OW23398   4.440   4.733  15.434  0.8537 -0.1582  0.0759
 3921SOL    HW123399   4.447   0.087  15.413  0.8597  0.1576  1.4499
 3921SOL    HW223400   4.448   4.697  15.346  0.5508  0.3740 -0.1678
 3922SOL     OW23401   3.398   4.520   0.747  0.3888  0.5643 -0.1437
 3922SOL    HW123402   3.405   4.602   0.697 -0.3859 -0.9277 -2.6893
 3922SOL    HW223403   3.420   4.455   0.680 -1.1057 -0.2618  0.1716
 3923SOL     OW23404   0.252   3.783   7.821  0.5580 -0.1469  0.0942
 3923SOL    HW123405   0.228   3.700   7.779  0.6687  0.2561 -0.7634
 3923SOL    HW223406   0.177   3.832   7.785 -1.2329 -1.6472  1.7374
 3924SOL     OW23407   3.865   1.852  11.895  0.0940 -0.2923  0.3971
 3924SOL    HW123408   3.825   1.877  11.979  1.7141  0.0832  1.0553
 3924SOL    HW223409   3.784   1.848  11.845  0.6289  2.6356 -0.7115
 3925SOL     OW23410   2.049   2.904   7.325 -0.4119 -0.0766  0.4305
 3925SOL    HW123411   2.108   2.829   7.315  1.0116  0.6289  3.3929
 3925SOL    HW223412   2.100   2.975   7.287 -0.9780  1.9081  3.3344
 3926SOL     OW23413   3.051   0.126  14.165 -0.0257 -0.1857 -0.2687
 3926SOL    HW123414   2.966   0.083  14.157  0.1899 -0.5110 -0.9072
 3926SOL    HW223415   3.109   0.064  14.120 -0.9609 -0.0272 -1.6956
 3927SOL     OW23416   0.667   2.882   7.756  0.4782 -0.0711  0.0023
 3927SOL    HW123417   0.753   2.919   7.777 -0.2045  1.8725 -0.5951
 3927SOL    HW223418   0.669   2.802   7.808 -1.5776 -0.5274 -0.6215
 3928SOL     OW23419   1.123   0.212   7.232  0.4528 -0.5543  0.5845
 3928SOL    HW123420   1.033   0.200   7.202 -0.4406  1.8016  2.3092
 3928SOL    HW223421   1.172   0.245   7.156  3.2924 -0.6120  2.3955
 3929SOL     OW23422   4.634   4.659   7.606  0.7447  0.5009  0.0479
 3929SOL    HW123423   4.706   4.615   7.651  0.2763 -1.8885 -1.5083
 3929SOL    HW223424   4.665   4.649   7.515  1.5346 -1.0505  0.4794
 3930SOL     OW23425   3.552   3.120  10.143 -0.0393  0.1822  0.0634
 3930SOL    HW123426   3.503   3.055  10.092 -1.1020 -0.0728  1.4174
 3930SOL    HW223427   3.579   3.069  10.219  4.2839  0.7906 -1.0680
 3931SOL     OW23428   1.528   2.277   4.972 -0.0485  0.0953 -0.0466
 3931SOL    HW123429   1.528   2.195   4.923  0.4916  0.1086 -0.0684
 3931SOL    HW223430   1.444   2.277   5.018  0.6646 -0.0615  1.2521
 3932SOL     OW23431   3.332   1.291   8.462  0.4278 -0.2975 -0.6468
 3932SOL    HW123432   3.271   1.331   8.399 -1.1718  1.1834  1.8342
 3932SOL    HW223433   3.296   1.204   8.477  2.0570 -1.1607 -1.7419
 3933SOL     OW23434   0.111   0.839  16.299  0.4238 -0.2600  0.2979
 3933SOL    HW123435   0.055   0.858  16.374  1.1329  0.7674  0.5704
 3933SOL    HW223436   0.160   0.921  16.289  0.1104 -0.2992 -1.5427
 3934SOL     OW23437   4.325   3.862  13.981  0.4515  0.4732 -0.1100
 3934SOL    HW123438   4.335   3.932  13.916  2.0088  0.0872 -0.2794
 3934SOL    HW223439   4.274   3.792  13.940  0.1529  0.9626 -0.5838
 3935SOL     OW23440   3.966   0.172  15.402  0.1892 -0.1425 -0.0178
 3935SOL    HW123441   4.005   0.179  15.488 -1.1321  1.3776  0.4566
 3935SOL    HW223442   3.874   0.160  15.424  0.1792  2.8291  1.5283
 3936SOL     OW23443   0.267   0.560  15.511 -0.4398 -0.6148 -0.0845
 3936SOL    HW123444   0.318   0.607  15.445  0.0567  0.8351  1.3423
 3936SOL    HW223445   0.304   0.472  15.509 -0.2176 -0.5475  1.2982
 3937SOL     OW23446   0.215   0.518   8.490 -0.4254  0.0218  0.6787
 3937SOL    HW123447   0.150   0.515   8.420  1.5405  1.7654 -1.2565
 3937SOL    HW223448   0.281   0.572   8.446 -0.2028 -0.3954  0.4992
 3938SOL     OW23449   1.654   3.120   3.390 -0.3606  0.2796  0.4266
 3938SOL    HW123450   1.730   3.073   3.426  0.3997  0.3408 -1.0755
 3938SOL    HW223451   1.633   3.055   3.323  0.9123 -0.6687  0.9364
 3939SOL     OW23452   2.675   4.498  15.193  1.0272 -0.0222 -1.3103
 3939SOL    HW123453   2.603   4.542  15.239  2.9873  0.2632  1.4134
 3939SOL    HW223454   2.628   4.418  15.167 -0.5522  0.3923  0.2282
 3940SOL     OW23455   3.360   3.517   4.839 -0.6997  0.2683  0.0891
 3940SOL    HW123456   3.268   3.544   4.845 -0.7550  0.0582  0.1867
 3940SOL    HW223457   3.415   3.596   4.845  0.8851 -0.8561  0.4038
 3941SOL     OW23458   1.040   1.501   6.737 -0.1502 -0.3749 -0.3925
 3941SOL    HW123459   0.949   1.472   6.732 -0.0795 -0.6527 -0.0588
 3941SOL    HW223460   1.062   1.487   6.829 -0.2201  1.6373 -0.0535
 3942SOL     OW23461   0.641   4.296   9.476  0.1986 -0.2023 -0.1564
 3942SOL    HW123462   0.705   4.350   9.430 -0.9442  1.9087  0.7520
 3942SOL    HW223463   0.563   4.319   9.426  1.4131 -0.2610 -2.0816
 3943SOL     OW23464   3.704   1.580   1.608  0.6609 -0.1200 -0.0815
 3943SOL    HW123465   3.684   1.604   1.518  0.5033 -0.0150 -0.0181
 3943SOL    HW223466   3.791   1.540   1.616  0.4085 -1.0294 -1.9234
 3944SOL     OW23467   1.902   2.252   9.034  0.2235  0.1698 -0.2883
 3944SOL    HW123468   1.900   2.327   8.976 -0.9457  0.9051  0.6937
 3944SOL    HW223469   1.976   2.273   9.090  0.2426 -0.5011 -0.0551
 3945SOL     OW23470   3.655   2.688   7.845  0.0536 -0.5549  0.3778
 3945SOL    HW123471   3.742   2.678   7.806 -0.2808 -1.2208 -0.2174
 3945SOL    HW223472   3.652   2.611   7.902 -0.8999 -0.9769 -0.2439
 3946SOL     OW23473   2.136   3.477   2.325  0.2522  0.1172 -0.2615
 3946SOL    HW123474   2.213   3.422   2.338  0.3644  0.5106  0.7145
 3946SOL    HW223475   2.088   3.437   2.252  1.4261  1.3313 -1.6990
 3947SOL     OW23476   2.890   0.163   4.878  0.2656 -0.3566  0.0074
 3947SOL    HW123477   2.806   0.178   4.921 -1.2396  2.4872 -3.9584
 3947SOL    HW223478   2.860   0.129   4.794 -2.4571 -2.4042  1.7888
 3948SOL     OW23479   0.316   2.294   9.275 -0.5678  0.5220 -0.1013
 3948SOL    HW123480   0.384   2.257   9.332 -1.6465  1.1789  1.5825
 3948SOL    HW223481   0.245   2.253   9.325 -0.7025  0.1032 -0.6362
 3949SOL     OW23482   4.300   1.088  10.927 -0.2263  0.0353 -0.4751
 3949SOL    HW123483   4.362   1.101  10.999  0.2922  0.8384 -1.0689
 3949SOL    HW223484   4.360   1.026  10.886 -1.0383  1.0266 -3.1345
 3950SOL     OW23485   4.600   3.075  11.082 -0.3333 -0.6525 -0.5601
 3950SOL    HW123486   4.564   2.992  11.051  0.7537 -0.6211 -1.8981
 3950SOL    HW223487   4.537   3.087  11.153  0.4505 -1.6716  0.3126
 3951SOL     OW23488   3.780   3.362   3.015 -0.0760  0.0045 -0.3153
 3951SOL    HW123489   3.803   3.347   3.106  0.1145  1.3770 -0.1391
 3951SOL    HW223490   3.748   3.452   3.017  1.2993  0.5080 -1.0632
 3952SOL     OW23491   4.498   0.450   3.636 -0.2956  0.6177 -0.6545
 3952SOL    HW123492   4.447   0.392   3.580  0.2784 -1.4739  1.0258
 3952SOL    HW223493   4.559   0.402   3.691 -0.4109 -1.6419 -2.5304
 3953SOL     OW23494   2.298   1.560   1.890 -0.1676 -0.0112  0.0515
 3953SOL    HW123495   2.285   1.526   1.801 -1.0168 -0.5980  0.3972
 3953SOL    HW223496   2.300   1.653   1.867  1.7681 -0.2565 -0.7589
 3954SOL     OW23497   2.656   2.189   7.005  0.1204  0.1517 -0.3394
 3954SOL    HW123498   2.701   2.261   7.049  1.4318  0.8108 -2.7462
 3954SOL    HW223499   2.666   2.220   6.914 -0.4043 -0.2723 -0.5412
 3955SOL     OW23500   4.069   3.286  13.200  0.3038  0.3320 -0.8407
 3955SOL    HW123501   4.149   3.327  13.167  0.0959  1.8285  0.4967
 3955SOL    HW223502   4.101   3.232  13.272 -1.9263  0.8928  0.5895
 3956SOL     OW23503   2.205   2.619   9.600 -0.3895  0.3536 -0.1678
 3956SOL    HW123504   2.152   2.540   9.612  0.0022  0.0201 -0.6717
 3956SOL    HW223505   2.198   2.632   9.506 -0.7227 -1.4630 -0.3959
 3957SOL     OW23506   1.712   4.602   2.957  0.0189  0.2551 -0.0410
 3957SOL    HW123507   1.769   4.539   3.001 -1.3399 -0.2726  0.9766
 3957SOL    HW223508   1.701   4.669   3.025 -0.0772  1.3403 -1.1392
 3958SOL     OW23509   4.270   3.921   7.984  0.2791 -0.7309 -0.1932
 3958SOL    HW123510   4.232   4.008   7.974  0.5395 -0.8018 -1.7351
 3958SOL    HW223511   4.195   3.890   8.036 -1.7063  2.1669 -1.3046
 3959SOL     OW23512   3.348   4.474   7.050  0.2136 -0.3308  0.6352
 3959SOL    HW123513   3.343   4.548   7.110 -0.7987  0.6485 -0.6588
 3959SOL    HW223514   3.261   4.440   7.070 -0.1149  0.4833  0.5533
 3960SOL     OW23515   3.254   2.174   7.836 -0.9672 -0.2623  0.4065
 3960SOL    HW123516   3.255   2.079   7.837 -1.1388 -0.2682  0.0006
 3960SOL    HW223517   3.341   2.185   7.876  0.0043  0.1361 -1.7889
 3961SOL     OW23518   1.373   0.139   5.216 -0.4378 -0.5696 -0.0652
 3961SOL    HW123519   1.340   0.049   5.215 -0.5402 -0.5299 -0.2285
 3961SOL    HW223520   1.431   0.143   5.140  0.3262  1.8985  0.6288
 3962SOL     OW23521   0.282   3.871   9.198  0.9513 -0.1141  0.4904
 3962SOL    HW123522   0.369   3.911   9.196 -0.1131  2.0384 -1.8202
 3962SOL    HW223523   0.305   3.785   9.162 -1.4749 -0.4889 -0.1261
 3963SOL     OW23524   3.121   4.235   5.175 -0.0295  0.1266  0.3150
 3963SOL    HW123525   3.145   4.307   5.234 -0.5860  2.5574 -2.4689
 3963SOL    HW223526   3.190   4.168   5.186  1.2398  1.9576  3.7871
 3964SOL     OW23527   4.442   0.564   4.637 -0.5500 -0.7392  0.4344
 3964SOL    HW123528   4.349   0.569   4.615 -0.3112 -1.4779 -0.7629
 3964SOL    HW223529   4.475   0.481   4.603 -0.5574 -0.6776  0.2770
 3965SOL     OW23530   1.972   0.403  10.196 -0.0649  0.1381 -0.2881
 3965SOL    HW123531   2.056   0.376  10.158  0.7220  1.9084  0.1888
 3965SOL    HW223532   1.929   0.326  10.233 -1.5494  0.0030 -2.2953
 3966SOL     OW23533   3.724   3.257   6.826 -0.0184  0.3975 -0.0831
 3966SOL    HW123534   3.782   3.329   6.802 -1.6539  1.5827 -0.3901
 3966SOL    HW223535   3.762   3.178   6.787  2.0925  0.7921  1.1700
 3967SOL     OW23536   2.631   2.206   3.132  0.3243  0.0047 -0.0319
 3967SOL    HW123537   2.557   2.172   3.182  2.6833  1.6044  4.5637
 3967SOL    HW223538   2.688   2.244   3.199  0.3953  0.9693 -0.6388
 3968SOL     OW23539   2.800   0.463   6.946  0.1173 -0.3309  0.0972
 3968SOL    HW123540   2.830   0.508   6.867 -0.6699  0.4792  0.2620
 3968SOL    HW223541   2.855   0.386   6.961  1.3555  0.8061  1.3439
 3969SOL     OW23542   3.453   1.529  16.856  0.1958  0.1195  0.0683
 3969SOL    HW123543   3.388   1.474  16.812  0.4712  0.4402 -0.7515
 3969SOL    HW223544   3.535   1.481  16.867  0.4255  0.6838  0.7956
 3970SOL     OW23545   3.087   2.922  15.899  0.3030  0.1839  0.3006
 3970SOL    HW123546   3.107   2.829  15.910  1.1919  0.5867  2.0118
 3970SOL    HW223547   3.162   2.964  15.856  0.4169 -0.6502 -0.3094
 3971SOL     OW23548   0.025   3.362   8.251  0.0965 -0.4196  0.5000
 3971SOL    HW123549   4.724   3.351   8.337  2.3064  0.4574  1.6309
 3971SOL    HW223550   4.684   3.355   8.198  2.2005 -2.2361 -2.4345
 3972SOL     OW23551   4.502   4.141   5.979 -0.2366 -0.4181  0.1955
 3972SOL    HW123552   4.455   4.212   6.023  3.7154  1.1318  1.8623
 3972SOL    HW223553   4.477   4.154   5.888 -2.9036  1.1258  1.1444
 3973SOL     OW23554   4.359   0.432   8.119  0.3802  0.5985 -0.4197
 3973SOL    HW123555   4.389   0.384   8.196  0.0404  0.3899 -0.4180
 3973SOL    HW223556   4.378   0.521   8.148 -0.8678  0.7146  0.0504
 3974SOL     OW23557   3.818   4.683   5.546  0.1380 -0.2003 -0.2310
 3974SOL    HW123558   3.907   4.714   5.528 -0.1590  2.0285  2.1758
 3974SOL    HW223559   3.809   4.714   5.637  1.4567 -0.8045  0.1130
 3975SOL     OW23560   3.356   4.155   2.146 -0.6202 -0.1028 -0.1723
 3975SOL    HW123561   3.354   4.159   2.051  1.1422  0.8698 -0.1823
 3975SOL    HW223562   3.402   4.237   2.168 -1.6226  0.0538  1.3813
 3976SOL     OW23563   1.414   0.025   0.899  0.2102  0.4445 -0.0320
 3976SOL    HW123564   1.447   4.696   0.959 -1.0557 -1.0211 -0.9958
 3976SOL    HW223565   1.479   0.096   0.898  1.5370 -0.7604 -0.1446
 3977SOL     OW23566   4.306   3.333   0.679  1.4002  0.2851 -0.3392
 3977SOL    HW123567   4.259   3.302   0.757  0.9460  2.2658  0.1750
 3977SOL    HW223568   4.230   3.355   0.626  0.6217 -1.8138 -0.0793
 3978SOL     OW23569   1.259   3.360   6.413  0.3733  0.1232  0.2420
 3978SOL    HW123570   1.263   3.305   6.492 -0.9078  0.5586  0.6170
 3978SOL    HW223571   1.307   3.307   6.350 -2.4514 -1.7904 -0.3062
 3979SOL     OW23572   0.762   3.147  15.574 -0.4812  0.4297  0.3891
 3979SOL    HW123573   0.737   3.128  15.665  0.0360  0.4403  0.5304
 3979SOL    HW223574   0.674   3.163  15.540  0.0237  0.1765 -1.0274
 3980SOL     OW23575   1.891   0.538  16.562  0.1101 -0.0321 -0.0324
 3980SOL    HW123576   1.916   0.559  16.472  0.0966  0.4868  0.0868
 3980SOL    HW223577   1.951   0.468  16.587 -2.1027 -1.5966  0.8526
 3981SOL     OW23578   0.011   1.811   5.511 -0.2445  0.1400  0.6546
 3981SOL    HW123579   0.022   1.881   5.448 -2.1883  1.1400  1.4162
 3981SOL    HW223580   0.085   1.810   5.571  0.2088  2.4020  0.1426
 3982SOL     OW23581   2.596   4.721   5.400 -0.7251  0.3164 -0.3482
 3982SOL    HW123582   2.535   0.013   5.334 -1.4813 -1.0419 -0.2792
 3982SOL    HW223583   2.557   0.024   5.477  1.7235  0.3411  0.9135
 3983SOL     OW23584   3.580   3.609   0.028 -0.5505 -0.9981 -0.1333
 3983SOL    HW123585   3.583   3.601  17.685 -1.3011 -2.3474 -0.0433
 3983SOL    HW223586   3.672   3.598   0.052  0.0352  1.5555 -1.2332
 3984SOL     OW23587   1.140   0.784   3.730  0.1888 -0.4109  0.7323
 3984SOL    HW123588   1.190   0.865   3.741 -1.8406  0.5583  2.7135
 3984SOL    HW223589   1.067   0.808   3.785 -0.5693  1.0352 -0.9045
 3985SOL     OW23590   4.183   3.882  10.049  0.1464  0.3920  0.8772
 3985SOL    HW123591   4.150   3.873   9.959  2.4568  3.5804 -0.3116
 3985SOL    HW223592   4.138   3.813  10.097  0.3269  0.4047  1.0665
 3986SOL     OW23593   1.510   1.049  15.405 -0.3318 -0.8692  0.4574
 3986SOL    HW123594   1.535   0.967  15.363  0.7456  0.1299 -0.8706
 3986SOL    HW223595   1.416   1.034  15.412 -0.8314  1.6253 -0.7656
 3987SOL     OW23596   3.051   0.881   5.511 -0.2302  0.9309  0.5899
 3987SOL    HW123597   3.085   0.805   5.558 -0.7718 -1.2374 -2.4980
 3987SOL    HW223598   3.118   0.887   5.443 -0.6673  1.2395  0.1867
 3988SOL     OW23599   2.307   4.612   9.337  0.2015  0.4103  0.1138
 3988SOL    HW123600   2.248   4.687   9.333 -0.0224  0.1294 -1.7591
 3988SOL    HW223601   2.271   4.568   9.414  1.1090  1.3427  1.0755
 3989SOL     OW23602   0.383   4.102   4.174  0.0893 -0.3757  0.5675
 3989SOL    HW123603   0.380   4.059   4.088  1.8994  0.7333 -0.0512
 3989SOL    HW223604   0.372   4.195   4.155  3.0647  0.1808  1.6299
 3990SOL     OW23605   2.112   3.963   2.874 -0.3322  0.0447 -0.2635
 3990SOL    HW123606   2.133   3.927   2.960  0.3478 -0.0055 -0.4462
 3990SOL    HW223607   2.194   3.986   2.829 -0.5868  1.7271  0.1064
 3991SOL     OW23608   2.441   4.664   5.780 -0.5309 -0.5137 -0.4085
 3991SOL    HW123609   2.375   4.628   5.840  0.1834  1.6527  1.6880
 3991SOL    HW223610   2.437   4.590   5.719  1.4207  0.3596 -1.5815
 3992SOL     OW23611   1.713   3.818  13.994  0.0587 -0.3839 -0.1136
 3992SOL    HW123612   1.736   3.794  14.084  1.9866 -2.3157 -1.1178
 3992SOL    HW223613   1.714   3.914  14.003 -0.6654 -0.3433 -0.4695
 3993SOL     OW23614   0.560   0.409   8.408 -0.2265  0.2373  0.4965
 3993SOL    HW123615   0.613   0.457   8.472  1.2616 -0.2359 -0.3675
 3993SOL    HW223616   0.581   0.318   8.432 -1.9522 -0.9084 -2.3731
 3994SOL     OW23617   4.456   2.535   6.603  0.9941  0.1081 -0.3271
 3994SOL    HW123618   4.498   2.621   6.607  0.3202  0.3994  0.3851
 3994SOL    HW223619   4.369   2.566   6.577  1.6103  2.0076 -0.0978
 3995SOL     OW23620   2.427   2.985   2.740  0.0649  0.2888  0.1351
 3995SOL    HW123621   2.352   3.046   2.743  0.4086  0.6483  1.3517
 3995SOL    HW223622   2.469   3.013   2.658  0.5247  1.3068  0.7192
 3996SOL     OW23623   1.519   4.014   9.375  0.1353  0.3982 -0.4544
 3996SOL    HW123624   1.437   4.047   9.412 -0.5182  0.2010 -1.7168
 3996SOL    HW223625   1.529   4.063   9.292 -2.1452  1.9572  0.1919
 3997SOL     OW23626   2.448   4.546   4.553  0.1381  0.1473  0.0397
 3997SOL    HW123627   2.543   4.554   4.546  0.3294 -0.6054  1.7224
 3997SOL    HW223628   2.439   4.493   4.632 -0.9327 -1.1836 -0.9820
 3998SOL     OW23629   2.277   3.366   8.533 -0.4504 -0.0796  0.4448
 3998SOL    HW123630   2.312   3.329   8.614  0.8130  1.2078  0.4966
 3998SOL    HW223631   2.311   3.455   8.523 -0.5174 -0.2752 -1.5659
 3999SOL     OW23632   0.499   3.412   2.295 -0.5685  0.2740  0.3323
 3999SOL    HW123633   0.430   3.463   2.252 -1.5773 -1.6280 -0.2760
 3999SOL    HW223634   0.469   3.322   2.285  1.0320 -0.0183 -1.8863
 4000SOL     OW23635   3.142   3.145   7.973 -0.4261  0.4852 -0.5697
 4000SOL    HW123636   3.104   3.105   7.895  0.4940 -1.4811 -0.0183
 4000SOL    HW223637   3.069   3.143   8.035 -0.1385 -0.4779 -0.2675
 4001SOL     OW23638   1.051   2.441   0.592 -0.2895 -0.0255 -0.1159
 4001SOL    HW123639   1.107   2.373   0.556 -1.0180 -0.2090 -0.8946
 4001SOL    HW223640   1.111   2.515   0.600 -0.8294  0.0519  3.2604
 4002SOL     OW23641   4.717   4.638   9.947  0.0181 -0.0809 -0.7197
 4002SOL    HW123642   0.038   4.696   9.900  0.7660 -2.3127 -2.5684
 4002SOL    HW223643   0.033   4.560   9.939  1.4472  0.4287  4.3898
 4003SOL     OW23644   3.610   4.042   8.000 -0.4031 -0.7040 -0.5014
 4003SOL    HW123645   3.547   3.997   8.056  0.3555  0.9852  1.6845
 4003SOL    HW223646   3.689   4.049   8.054 -1.4916  0.0714  0.9717
 4004SOL     OW23647   1.372   4.038   7.488  0.2032  0.0576 -0.3667
 4004SOL    HW123648   1.459   4.069   7.463 -0.1946  0.9632 -0.6298
 4004SOL    HW223649   1.317   4.068   7.416  0.7337 -0.6783 -1.0708
 4005SOL     OW23650   4.471   3.382   1.913  0.4423  0.2979 -0.2467
 4005SOL    HW123651   4.512   3.466   1.935 -1.7699  0.8974  1.4916
 4005SOL    HW223652   4.390   3.416   1.875  0.8530  0.9842 -0.5106
 4006SOL     OW23653   1.746   0.900   6.273 -0.4459 -0.2946  0.0582
 4006SOL    HW123654   1.716   0.901   6.182 -0.6001 -0.2256  0.1091
 4006SOL    HW223655   1.840   0.889   6.267 -0.3308  1.0505 -0.5725
 4007SOL     OW23656   1.007   4.434   6.066  0.0872  0.3429 -0.0370
 4007SOL    HW123657   0.976   4.445   5.977  0.9522 -1.9053 -0.6212
 4007SOL    HW223658   1.076   4.498   6.084  0.0048  0.2787  0.5165
 4008SOL     OW23659   2.550   2.108   5.721  0.7441 -0.8665 -0.1225
 4008SOL    HW123660   2.642   2.094   5.702  0.5800 -0.5293 -1.1637
 4008SOL    HW223661   2.506   2.065   5.648  2.1874 -0.1710 -1.3864
 4009SOL     OW23662   3.123   2.590   3.441  0.2028 -0.7398 -0.5298
 4009SOL    HW123663   3.147   2.513   3.390  0.6413 -1.3601  0.6119
 4009SOL    HW223664   3.041   2.619   3.401 -0.2964 -2.1970 -0.5605
 4010SOL     OW23665   3.784   1.864   1.229 -0.0041  0.4752 -0.6218
 4010SOL    HW123666   3.723   1.838   1.161 -0.7644  0.8847 -0.0918
 4010SOL    HW223667   3.870   1.856   1.187 -0.4962  0.1963 -1.5663
 4011SOL     OW23668   3.987   4.561   7.580  0.0124 -0.7603  0.1229
 4011SOL    HW123669   4.011   4.633   7.523 -0.5796  0.4832  1.4529
 4011SOL    HW223670   4.013   4.589   7.668 -0.1209  2.4300 -0.8889
 4012SOL     OW23671   3.067   0.640   2.456  0.2855 -0.3264 -0.1132
 4012SOL    HW123672   3.108   0.557   2.479 -1.5351 -1.5767 -1.3139
 4012SOL    HW223673   3.003   0.614   2.389  0.7477  0.3715 -0.8248
 4013SOL     OW23674   1.716   2.314  17.565 -0.8373 -0.2992  0.6721
 4013SOL    HW123675   1.739   2.364  17.487 -0.2260  0.8208  1.5624
 4013SOL    HW223676   1.641   2.360  17.604 -0.8501 -0.4976  0.8785
 4014SOL     OW23677   4.452   3.005   3.418  0.2958 -0.1450 -0.0204
 4014SOL    HW123678   4.419   2.921   3.388 -0.9955  0.6173 -0.7084
 4014SOL    HW223679   4.461   2.994   3.512 -0.0359 -0.3276 -0.0104
 4015SOL     OW23680   2.965   1.966  17.578 -0.3672 -0.0237 -0.5534
 4015SOL    HW123681   2.989   2.033  17.643 -0.4902 -0.2988 -0.2216
 4015SOL    HW223682   3.040   1.906  17.576  0.2317  0.5352  4.2606
 4016SOL     OW23683   3.874   1.715   7.118 -0.1021 -0.5660 -0.1637
 4016SOL    HW123684   3.782   1.726   7.095 -0.5928 -1.1732  1.4659
 4016SOL    HW223685   3.917   1.702   7.034 -0.0059  1.3382 -0.3967
 4017SOL     OW23686   4.212   4.544  10.468  0.2895  0.3901 -0.1454
 4017SOL    HW123687   4.256   4.462  10.447 -0.8376 -1.1123  3.4285
 4017SOL    HW223688   4.276   4.599  10.422 -1.1910  1.0073 -1.4694
 4018SOL     OW23689   2.482   2.788  13.003 -0.2746  0.3155 -0.1013
 4018SOL    HW123690   2.418   2.716  13.001 -0.0203  0.0728  0.6969
 4018SOL    HW223691   2.543   2.758  12.936  0.0571 -1.1764  0.8707
 4019SOL     OW23692   1.110   2.398   9.886 -0.0303  0.4730 -0.0204
 4019SOL    HW123693   1.058   2.343   9.828 -0.8533 -0.6410  1.7889
 4019SOL    HW223694   1.171   2.437   9.824 -2.2271  4.4014  0.2718
 4020SOL     OW23695   0.235   3.506   6.564  0.2496 -0.2366 -0.0975
 4020SOL    HW123696   0.195   3.506   6.477 -1.1223  0.3205  0.5256
 4020SOL    HW223697   0.304   3.442   6.547  0.0545 -0.2763 -0.7372
 4021SOL     OW23698   1.958   3.538  13.360 -0.2915  0.0969  0.3337
 4021SOL    HW123699   1.994   3.563  13.445 -2.3979  1.0891  0.9359
 4021SOL    HW223700   2.032   3.493  13.320 -1.3871 -1.5791  0.1657
 4022SOL     OW23701   0.608   2.544   2.585 -0.3002  0.5119  0.0239
 4022SOL    HW123702   0.703   2.541   2.574 -0.4342  0.2697 -1.1320
 4022SOL    HW223703   0.580   2.466   2.537 -0.1486 -0.2872  1.2477
 4023SOL     OW23704   2.702   4.698   2.558 -0.8927  0.0257  0.2123
 4023SOL    HW123705   2.784   0.007   2.545  0.3990 -2.3408 -0.3024
 4023SOL    HW223706   2.661   4.719   2.474 -1.1398 -0.2132  0.2746
 4024SOL     OW23707   0.386   0.721   6.137 -0.1382  0.4426 -0.2873
 4024SOL    HW123708   0.292   0.740   6.146  0.1357  1.1272  1.1116
 4024SOL    HW223709   0.389   0.626   6.146 -2.4806  0.3953  0.0661
 4025SOL     OW23710   0.755   0.388   2.619 -0.5895 -0.0606  0.3399
 4025SOL    HW123711   0.832   0.392   2.676 -0.4510 -1.2460  0.2410
 4025SOL    HW223712   0.730   0.479   2.610 -1.6938 -0.6311 -2.1807
 4026SOL     OW23713   0.686   4.439   1.037  0.3989 -0.3410 -0.2168
 4026SOL    HW123714   0.622   4.377   1.072 -0.2254  1.2937  1.5797
 4026SOL    HW223715   0.749   4.377   1.000  1.7807  0.6008  0.5462
 4027SOL     OW23716   0.164   2.720   9.148  0.7575  0.3766  0.6285
 4027SOL    HW123717   0.232   2.757   9.205  1.0450  0.8803 -0.0512
 4027SOL    HW223718   0.142   2.791   9.088  0.6412 -0.1096  0.0957
 4028SOL     OW23719   4.025   1.031   3.294 -0.5560 -0.0451 -0.2462
 4028SOL    HW123720   3.997   0.955   3.345  1.7737 -1.5007 -1.1233
 4028SOL    HW223721   4.116   1.050   3.316 -1.1423  1.8929  0.5170
 4029SOL     OW23722   0.011   2.577  10.493  0.5654  0.6860  0.3667
 4029SOL    HW123723   4.688   2.518  10.538  1.4997 -1.3411 -1.0298
 4029SOL    HW223724   4.731   2.560  10.401  0.1459  1.9172  0.2197
 4030SOL     OW23725   3.544   2.705  14.215 -0.0664 -0.2828 -0.4793
 4030SOL    HW123726   3.492   2.685  14.294  0.1009 -1.8554 -0.7617
 4030SOL    HW223727   3.490   2.665  14.147 -0.0338  0.2811 -0.8316
 4031SOL     OW23728   0.636   1.021  10.909 -0.7414 -0.3661 -0.1751
 4031SOL    HW123729   0.573   0.975  10.854 -0.9873  0.8095 -0.8884
 4031SOL    HW223730   0.685   0.950  10.950 -1.2212  0.9123  2.6106
 4032SOL     OW23731   1.811   0.619   8.080 -0.0698  0.4204  0.5383
 4032SOL    HW123732   1.793   0.703   8.122  1.1683  0.5470  0.8224
 4032SOL    HW223733   1.890   0.639   8.030  0.1530 -0.7146  0.4427
 4033SOL     OW23734   0.282   2.514   5.789 -0.6001  0.4825  0.1190
 4033SOL    HW123735   0.360   2.569   5.781  0.0964 -1.1899 -4.9117
 4033SOL    HW223736   0.321   2.437   5.747 -1.8962 -0.6184  0.9696
 4034SOL     OW23737   1.167   4.386  10.613 -0.1283 -0.3819 -0.0231
 4034SOL    HW123738   1.155   4.463  10.667  0.0178 -1.0352  0.9398
 4034SOL    HW223739   1.232   4.430  10.558 -0.6804  1.3347  0.7251
 4035SOL     OW23740   1.829   2.641   7.413 -0.1014 -0.4750 -0.4209
 4035SOL    HW123741   1.850   2.656   7.321  0.3757 -0.5257 -0.3234
 4035SOL    HW223742   1.836   2.546   7.417 -1.1697 -0.4526  1.8770
 4036SOL     OW23743   3.538   3.924  14.391 -0.0830 -0.0850  0.3452
 4036SOL    HW123744   3.456   3.914  14.343  0.4075  1.0534 -0.7133
 4036SOL    HW223745   3.581   3.968  14.318 -1.2253  1.2800  0.4956
 4037SOL     OW23746   1.065   4.737  10.552  0.2254 -0.3519 -0.3554
 4037SOL    HW123747   1.065   4.672  10.481  0.6331 -1.1013  0.3307
 4037SOL    HW223748   1.142   0.049  10.527  0.0829 -0.5737 -1.2539
 4038SOL     OW23749   1.016   3.652   7.455 -0.0532 -0.2463 -0.3399
 4038SOL    HW123750   0.932   3.689   7.426 -0.2551  0.3963  1.0724
 4038SOL    HW223751   1.064   3.722   7.499  0.7041 -2.3934  2.2679
 4039SOL     OW23752   4.096   2.886   6.221  1.0799 -0.0493  0.3986
 4039SOL    HW123753   4.149   2.806   6.213 -0.3620 -0.8636 -0.9651
 4039SOL    HW223754   4.031   2.871   6.153  1.0159  1.1488  0.1920
 4040SOL     OW23755   1.518   0.965   3.091  0.1339 -0.3804  0.0545
 4040SOL    HW123756   1.440   0.910   3.096 -0.2884  0.3274  1.2933
 4040SOL    HW223757   1.594   0.909   3.108 -0.0117 -0.5206  0.2510
 4041SOL     OW23758   3.342   2.769   0.681 -0.2657  0.6797 -0.1891
 4041SOL    HW123759   3.327   2.861   0.702 -0.0646  0.7345 -0.2813
 4041SOL    HW223760   3.423   2.750   0.729 -0.9728  0.0415  0.7464
 4042SOL     OW23761   3.540   1.365   4.478  0.3305 -0.0360  0.0039
 4042SOL    HW123762   3.531   1.458   4.455 -1.0747 -0.0262  0.6132
 4042SOL    HW223763   3.459   1.326   4.447  0.0354  0.3359  0.3073
 4043SOL     OW23764   4.720   3.974   8.703  0.2652 -0.0947 -0.7767
 4043SOL    HW123765   0.055   3.935   8.749  0.2093 -0.2122 -0.7864
 4043SOL    HW223766   4.652   3.968   8.770 -0.2839 -1.8478 -1.4925
 4044SOL     OW23767   1.425   0.748   1.663  0.2061 -0.2332 -0.3160
 4044SOL    HW123768   1.449   0.785   1.579 -0.8237 -0.4160 -0.6978
 4044SOL    HW223769   1.508   0.752   1.711  1.1945  0.6449 -2.1490
 4045SOL     OW23770   2.356   2.094   6.476  0.1255  0.4665  0.7133
 4045SOL    HW123771   2.346   2.004   6.508  2.2660 -0.1157 -0.2148
 4045SOL    HW223772   2.359   2.079   6.382 -0.1755 -0.5003  0.8619
 4046SOL     OW23773   0.571   1.855  16.492  0.2041 -0.6365  0.3324
 4046SOL    HW123774   0.550   1.936  16.539  1.6704 -1.0290  1.6665
 4046SOL    HW223775   0.518   1.785  16.532 -0.8214 -0.7574 -1.2543
 4047SOL     OW23776   3.245   1.112  15.850  0.5693 -0.1470 -0.4400
 4047SOL    HW123777   3.302   1.070  15.915 -1.3587 -1.8909  0.1057
 4047SOL    HW223778   3.296   1.097  15.771  0.2133  1.4676 -0.9724
 4048SOL     OW23779   0.095   0.783   8.329  0.3141 -0.0139  0.6236
 4048SOL    HW123780   0.045   0.781   8.410 -0.3968 -1.4427  0.1525
 4048SOL    HW223781   0.061   0.702   8.289 -0.4630  1.8527 -2.4884
 4049SOL     OW23782   3.530   1.455   7.593  0.0113 -0.7648  0.8173
 4049SOL    HW123783   3.620   1.441   7.565  0.1111 -1.7003  1.5770
 4049SOL    HW223784   3.471   1.420   7.527 -2.5365  2.6996  1.2720
 4050SOL     OW23785   3.971   0.368   5.428  0.2381  0.2882  0.1591
 4050SOL    HW123786   3.878   0.380   5.413  0.2763  0.4970  0.0904
 4050SOL    HW223787   4.004   0.396   5.342  2.7764 -0.8307  0.7624
 4051SOL     OW23788   4.438   0.259  15.348 -0.4463  0.1838  0.0236
 4051SOL    HW123789   4.512   0.315  15.323 -0.1616 -0.9636 -1.6905
 4051SOL    HW223790   4.361   0.296  15.303  0.3098  0.9714 -0.6254
 4052SOL     OW23791   2.956   4.246   3.585  0.0787  0.0416 -0.1375
 4052SOL    HW123792   3.041   4.282   3.612 -1.6395  2.7194  1.7203
 4052SOL    HW223793   2.905   4.327   3.591 -1.9318 -1.3829  1.6312
 4053SOL     OW23794   3.881   3.575   1.899  0.4084 -0.5577 -0.2997
 4053SOL    HW123795   3.818   3.614   1.839  0.4730  0.6987  0.4614
 4053SOL    HW223796   3.854   3.483   1.894  1.0303 -0.6374 -2.0135
 4054SOL     OW23797   1.923   3.383   8.385  0.1488 -0.3396  0.2951
 4054SOL    HW123798   1.912   3.476   8.405 -0.3971 -0.9798  2.9236
 4054SOL    HW223799   1.933   3.391   8.290 -3.0308  0.2905 -0.0015
 4055SOL     OW23800   2.979   2.038   4.751  0.5568  0.0668 -0.2539
 4055SOL    HW123801   3.007   2.013   4.839 -0.7321 -1.1356 -0.1759
 4055SOL    HW223802   2.900   2.088   4.774 -0.2085 -0.9913 -0.6011
 4056SOL     OW23803   0.743   3.202   3.808 -0.7629 -0.3783  0.0755
 4056SOL    HW123804   0.689   3.250   3.871  0.3083  1.2020 -0.2057
 4056SOL    HW223805   0.777   3.132   3.863 -0.3037 -1.6066 -1.7693
 4057SOL     OW23806   3.923   4.386  10.214  0.1763 -0.3745  0.6193
 4057SOL    HW123807   3.877   4.469  10.223  3.1035  1.5352 -2.2216
 4057SOL    HW223808   3.848   4.329  10.201 -0.1119  0.0954  0.2458
 4058SOL     OW23809   1.558   1.781   6.190  0.4708  0.1130  0.1234
 4058SOL    HW123810   1.612   1.834   6.132  2.9665 -1.0159  1.4033
 4058SOL    HW223811   1.619   1.777   6.264  0.5325 -1.4276  0.0002
 4059SOL     OW23812   3.078   3.326   2.266  0.4588  0.5641 -0.0264
 4059SOL    HW123813   3.067   3.391   2.335 -1.8637 -0.2521  0.3531
 4059SOL    HW223814   3.030   3.255   2.308 -1.1590  2.1923  0.8697
 4060SOL     OW23815   3.360   1.648   5.620 -0.2428 -0.0297  0.3067
 4060SOL    HW123816   3.279   1.698   5.615 -0.6841 -1.0154 -2.3550
 4060SOL    HW223817   3.321   1.562   5.635  1.0478 -0.6722  0.0252
 4061SOL     OW23818   4.409   0.171  11.853  0.5047  0.1387  0.2936
 4061SOL    HW123819   4.440   0.119  11.779  0.0570 -1.4713  1.2305
 4061SOL    HW223820   4.440   0.119  11.928 -2.5960 -0.9704  0.7966
 4062SOL     OW23821   2.711   1.247   8.820  0.7181 -0.0104  0.1204
 4062SOL    HW123822   2.717   1.286   8.907  4.6150 -0.0389 -0.1461
 4062SOL    HW223823   2.749   1.314   8.763 -2.1236  0.8967 -0.6924
 4063SOL     OW23824   3.395   1.101   6.479  0.2779  0.1699  0.1069
 4063SOL    HW123825   3.344   1.117   6.400 -0.5093 -1.1819  0.3396
 4063SOL    HW223826   3.394   1.005   6.478  0.5189  0.2035 -3.7953
 4064SOL     OW23827   0.720   4.111   9.666  0.1481 -0.4366 -0.0185
 4064SOL    HW123828   0.813   4.121   9.645  0.0312 -1.7405 -1.1682
 4064SOL    HW223829   0.688   4.189   9.620  1.6289  0.2427  0.1022
 4065SOL     OW23830   0.942   1.557   8.284 -0.4285  0.8002  0.4634
 4065SOL    HW123831   0.877   1.605   8.334  1.3720  0.9282  2.6668
 4065SOL    HW223832   0.954   1.479   8.338  0.9294  0.7959  0.1709
 4066SOL     OW23833   2.029   3.445   1.630  0.4768 -0.5484  0.0234
 4066SOL    HW123834   2.087   3.387   1.679 -0.4666 -1.9239 -0.4952
 4066SOL    HW223835   1.989   3.491   1.704 -0.6226  2.1518 -2.2393
 4067SOL     OW23836   4.053   2.758   8.133  0.4497 -0.0251  0.1274
 4067SOL    HW123837   4.136   2.724   8.098  0.8715 -0.9119  1.9647
 4067SOL    HW223838   4.065   2.849   8.104  1.2389  0.1184  0.8984
 4068SOL     OW23839   0.379   0.446   4.762  0.4815  0.2510  0.8488
 4068SOL    HW123840   0.471   0.457   4.785  0.8650 -1.5667  0.2121
 4068SOL    HW223841   0.366   0.539   4.741  2.8600  0.6054  0.9950
 4069SOL     OW23842   2.241   2.048   2.868 -0.3299 -0.7237  0.1783
 4069SOL    HW123843   2.218   2.079   2.781  1.2518 -0.2418 -0.0592
 4069SOL    HW223844   2.231   2.126   2.922  0.2854 -0.2214 -0.4470
 4070SOL     OW23845   0.460   1.107   0.759 -0.0468  0.6428 -0.1936
 4070SOL    HW123846   0.456   1.185   0.703  0.0228 -0.6323 -1.9850
 4070SOL    HW223847   0.449   1.142   0.847 -1.7273  0.5634 -0.3590
 4071SOL     OW23848   3.950   2.277   7.074  0.8686  0.2263 -0.4081
 4071SOL    HW123849   4.032   2.237   7.045  0.6007 -1.3400  0.9769
 4071SOL    HW223850   3.882   2.234   7.021  3.1543 -1.7512 -1.7511
 4072SOL     OW23851   2.593   3.253   0.490 -0.1584  0.2236  0.1611
 4072SOL    HW123852   2.576   3.336   0.445 -1.4156 -0.0728  0.0846
 4072SOL    HW223853   2.592   3.198   0.412  0.9904  2.2286 -1.2736
 4073SOL     OW23854   1.421   2.340   7.435  0.3040  0.5285  0.4165
 4073SOL    HW123855   1.383   2.297   7.511  2.3046 -1.3721  0.3521
 4073SOL    HW223856   1.341   2.354   7.383  0.8020 -0.3502 -0.5945
 4074SOL     OW23857   0.775   0.057   9.030  0.3732 -0.2143  0.8851
 4074SOL    HW123858   0.682   0.053   9.007 -0.3187  1.0022  3.4733
 4074SOL    HW223859   0.826   0.023   8.957 -0.8467  1.5154 -0.7761
 4075SOL     OW23860   1.266   4.401   1.948  0.4928 -0.0975  0.3007
 4075SOL    HW123861   1.278   4.314   1.985 -0.3642 -0.9809 -1.4633
 4075SOL    HW223862   1.177   4.430   1.969  0.2900 -0.3191 -0.2622
 4076SOL     OW23863   1.772   3.581  15.528 -0.3147 -0.4480  0.4255
 4076SOL    HW123864   1.698   3.627  15.568 -1.4089 -0.4443 -1.6532
 4076SOL    HW223865   1.754   3.611  15.439  2.9770  0.5133  0.1157
 4077SOL     OW23866   1.808   2.587   6.882  0.3213  0.7707 -0.2384
 4077SOL    HW123867   1.725   2.538   6.883  0.5643  0.4261  2.3440
 4077SOL    HW223868   1.873   2.518   6.866 -0.2037  0.1412  0.3203
 4078SOL     OW23869   3.304   1.463   7.975  0.1870 -0.0019  0.1503
 4078SOL    HW123870   3.306   1.408   7.897 -1.6824 -0.4408  0.4106
 4078SOL    HW223871   3.255   1.539   7.943 -0.7302 -0.5120  0.3378
 4079SOL     OW23872   0.423   1.718  14.054  0.8761 -0.1899  0.5599
 4079SOL    HW123873   0.386   1.674  14.130 -3.5927  3.1662  0.3459
 4079SOL    HW223874   0.505   1.745  14.094 -0.5725  0.8514  2.8279
 4080SOL     OW23875   0.359   1.906   7.602 -0.2776  0.0849  0.0644
 4080SOL    HW123876   0.370   1.933   7.693 -0.4158  1.0484 -0.1973
 4080SOL    HW223877   0.266   1.891   7.586 -0.0441 -1.1263 -0.1291
 4081SOL     OW23878   0.613   0.782   5.884  0.0874  1.0958 -0.2914
 4081SOL    HW123879   0.518   0.787   5.879 -0.1507 -0.2566  2.7191
 4081SOL    HW223880   0.617   0.789   5.980  3.2055  1.5379 -0.4549
 4082SOL     OW23881   3.910   3.615   8.196  0.0077  0.0388  0.1700
 4082SOL    HW123882   3.966   3.538   8.197  0.6262  0.5064  2.3140
 4082SOL    HW223883   3.876   3.624   8.285 -0.8039  0.0024 -0.1438
 4083SOL     OW23884   4.241   2.280   0.892  0.2321  0.2469  0.0668
 4083SOL    HW123885   4.260   2.373   0.899 -4.3046  1.0618  1.3994
 4083SOL    HW223886   4.178   2.282   0.820  0.4517 -1.1390 -0.1694
 4084SOL     OW23887   3.333   4.201  10.458 -0.3395 -0.1091  0.1236
 4084SOL    HW123888   3.322   4.121  10.511 -1.1169  0.1913  0.4043
 4084SOL    HW223889   3.425   4.223  10.476 -0.1560 -0.9305  0.2141
 4085SOL     OW23890   2.550   0.572   5.794  0.0494 -0.6165 -0.0302
 4085SOL    HW123891   2.466   0.589   5.751  0.2355 -0.8615 -0.4903
 4085SOL    HW223892   2.615   0.575   5.723  1.4861  0.1239  1.3272
 4086SOL     OW23893   1.901   1.206   5.292  0.0630  0.8470 -0.1795
 4086SOL    HW123894   1.881   1.215   5.385 -1.0132  0.3266 -0.3542
 4086SOL    HW223895   1.821   1.236   5.250  0.1800 -0.0339 -1.0362
 4087SOL     OW23896   4.057   2.428   8.356 -0.0787 -0.4282  0.1950
 4087SOL    HW123897   4.034   2.473   8.275  0.2673 -0.9578 -0.1993
 4087SOL    HW223898   3.994   2.356   8.352 -2.0456  1.4121 -1.8139
 4088SOL     OW23899   0.295   4.279   8.486 -0.7967 -0.0359 -0.3380
 4088SOL    HW123900   0.204   4.271   8.515 -0.9821  0.4088 -0.8184
 4088SOL    HW223901   0.334   4.229   8.559 -1.9096  1.0602  1.0114
 4089SOL     OW23902   1.450   1.054   6.219  0.6650  0.0445  0.0001
 4089SOL    HW123903   1.482   1.079   6.306 -2.0548 -0.8242  1.2417
 4089SOL    HW223904   1.454   0.958   6.224  3.7515  0.0970 -1.4401
 4090SOL     OW23905   2.602   3.696   2.695  0.5502 -0.4447  0.1788
 4090SOL    HW123906   2.687   3.699   2.739 -0.3510  1.1683  1.7822
 4090SOL    HW223907   2.584   3.788   2.712 -0.1709 -0.3285 -1.1801
 4091SOL     OW23908   2.646   1.358   4.153 -0.3957 -0.1796 -0.2731
 4091SOL    HW123909   2.621   1.428   4.214 -0.2010  1.1181 -1.6789
 4091SOL    HW223910   2.662   1.408   4.073 -0.2456  0.0022 -0.1277
 4092SOL     OW23911   4.378   2.656   9.935  0.2508 -0.0214  0.0200
 4092SOL    HW123912   4.373   2.577   9.988 -0.6849 -0.6419 -0.9935
 4092SOL    HW223913   4.415   2.712  10.004 -0.0279  0.6175 -0.3445
 4093SOL     OW23914   3.188   0.710   9.355  0.1379  0.0294  0.0100
 4093SOL    HW123915   3.241   0.637   9.322  3.3642  2.9123 -1.2145
 4093SOL    HW223916   3.240   0.779   9.315 -1.4477  0.8026 -0.7208
 4094SOL     OW23917   1.710   1.473  15.838  0.1617  0.0732 -0.1608
 4094SOL    HW123918   1.651   1.540  15.872 -1.0096 -0.6400 -0.7417
 4094SOL    HW223919   1.798   1.503  15.860  0.3103 -1.1136  0.8533
 4095SOL     OW23920   4.141   2.871   2.959 -0.0009 -0.7265  0.4227
 4095SOL    HW123921   4.130   2.941   2.894 -3.5046 -3.5364 -1.9757
 4095SOL    HW223922   4.229   2.835   2.947  0.5517  1.4046 -2.0376
 4096SOL     OW23923   3.135   3.687   5.121  0.3136 -0.1420 -0.1938
 4096SOL    HW123924   3.065   3.719   5.178 -0.8003  1.3015 -2.3588
 4096SOL    HW223925   3.199   3.663   5.188  0.5765 -0.0650 -0.4175
 4097SOL     OW23926   0.933   2.868  16.663  0.4527 -0.1837 -0.4648
 4097SOL    HW123927   0.951   2.791  16.610  1.7487 -2.7332  3.6702
 4097SOL    HW223928   1.014   2.919  16.673 -0.6691  1.6123 -0.4701
 4098SOL     OW23929   2.596   4.114   4.753 -0.2208 -0.7103  0.2450
 4098SOL    HW123930   2.612   4.154   4.667  0.2412 -1.2245  0.0962
 4098SOL    HW223931   2.672   4.057   4.762  1.2873  1.2002 -0.4136
 4099SOL     OW23932   1.322   0.476   3.258 -0.0032  0.5139 -0.1538
 4099SOL    HW123933   1.234   0.488   3.222  0.9253  0.2109 -2.5538
 4099SOL    HW223934   1.295   0.449   3.346  0.3217  3.4597  0.8454
 4100SOL     OW23935   2.890   0.857   5.832  0.2790 -0.3502  0.0864
 4100SOL    HW123936   2.877   0.891   5.744  1.6699 -1.4046 -0.5331
 4100SOL    HW223937   2.881   0.762   5.823 -0.4628 -0.3655  0.9782
 4101SOL     OW23938   4.653   1.388   0.274  0.7360  0.0389 -0.0385
 4101SOL    HW123939   4.641   1.316   0.336  0.3658  1.4479  1.5111
 4101SOL    HW223940   4.695   1.344   0.200  2.8702  1.7493  0.1643
 4102SOL     OW23941   4.720   2.573   9.551  0.1633 -0.0932 -0.6387
 4102SOL    HW123942   4.658   2.621   9.606  0.0823  1.9600 -2.5449
 4102SOL    HW223943   4.664   2.509   9.506 -0.6560  1.6556 -2.0870
 4103SOL     OW23944   4.607   4.540   8.038  0.1787  0.2225 -0.6462
 4103SOL    HW123945   4.588   4.519   8.130 -1.1987 -0.4453 -1.0738
 4103SOL    HW223946   4.525   4.581   8.009 -0.8179 -1.2299  0.1021
 4104SOL     OW23947   1.403   4.536   2.232  0.3944 -0.6940 -0.2543
 4104SOL    HW123948   1.374   4.451   2.198 -1.8821  0.1176 -0.3745
 4104SOL    HW223949   1.458   4.514   2.307 -0.6574  0.5471  0.8937
 4105SOL     OW23950   4.712   2.372   2.805 -0.5582 -0.5773 -0.3380
 4105SOL    HW123951   4.640   2.385   2.868 -0.5755 -1.3161 -0.2084
 4105SOL    HW223952   0.035   2.337   2.868 -0.4630  0.3590  0.0978
 4106SOL     OW23953   3.586   1.628  17.348 -0.3147  0.4090  0.0841
 4106SOL    HW123954   3.529   1.567  17.302  0.7045 -0.4108 -0.0870
 4106SOL    HW223955   3.646   1.573  17.397 -1.5503 -0.3208  0.7482
 4107SOL     OW23956   0.851   4.688   7.211  0.4439 -0.1921  0.4527
 4107SOL    HW123957   0.863   0.018   7.145  0.7814 -1.4942 -0.8421
 4107SOL    HW223958   0.940   4.671   7.239  0.1799  1.3008  2.2529
 4108SOL     OW23959   1.809   4.095   2.624 -0.4032  0.8665 -0.0143
 4108SOL    HW123960   1.866   4.150   2.571 -1.6226  1.3505 -0.8182
 4108SOL    HW223961   1.800   4.009   2.585  0.8387  0.8254 -0.2122
 4109SOL     OW23962   3.346   1.451   2.756 -0.5688  0.1615 -0.1753
 4109SOL    HW123963   3.370   1.375   2.704  1.8786  0.4822  0.4409
 4109SOL    HW223964   3.426   1.501   2.736 -0.6225  1.1940  2.0963
 4110SOL     OW23965   4.386   4.672  10.302  0.6285 -0.0344  0.0370
 4110SOL    HW123966   4.465   4.635  10.262  1.4240  1.3008  0.3669
 4110SOL    HW223967   4.413   0.026  10.301  1.3069 -0.2453 -1.2201
 4111SOL     OW23968   2.017   4.177   8.806  0.6108  0.0509 -0.4976
 4111SOL    HW123969   2.043   4.263   8.838  1.0696 -0.2171 -0.1538
 4111SOL    HW223970   1.927   4.199   8.781  0.8606  0.0307 -1.4350
 4112SOL     OW23971   0.438   4.104   2.231  0.7398 -0.0948  0.2120
 4112SOL    HW123972   0.391   4.176   2.273 -1.5012 -1.9811  0.9863
 4112SOL    HW223973   0.525   4.139   2.214  0.4590  0.4077 -0.1771
 4113SOL     OW23974   0.204   0.631  16.070 -0.7439 -0.1147 -0.2660
 4113SOL    HW123975   0.209   0.553  16.125  1.4049 -0.9058 -1.5949
 4113SOL    HW223976   0.190   0.703  16.132 -0.0788 -0.6807  0.5442
 4114SOL     OW23977   1.094   0.693  12.640 -0.1792 -0.2409  0.2743
 4114SOL    HW123978   1.059   0.674  12.554  0.6873 -0.9247  0.0702
 4114SOL    HW223979   1.187   0.679  12.620  0.4158  4.2644 -0.2441
 4115SOL     OW23980   2.899   4.002   1.060 -0.4861  0.2980  0.3317
 4115SOL    HW123981   2.807   3.978   1.045 -0.8217 -0.2314  3.2522
 4115SOL    HW223982   2.932   3.912   1.057 -1.2465  0.1107 -2.0924
 4116SOL     OW23983   3.453   1.325   4.169 -0.0637  0.6588 -0.3558
 4116SOL    HW123984   3.422   1.290   4.253  0.2454 -0.2676 -0.6196
 4116SOL    HW223985   3.547   1.313   4.182 -0.1472  0.2003 -0.1512
 4117SOL     OW23986   2.704   0.464  11.689  0.3291 -0.1931  0.3110
 4117SOL    HW123987   2.739   0.447  11.776  1.3334 -1.4922 -0.3382
 4117SOL    HW223988   2.683   0.375  11.660 -0.3231 -0.2724  1.0540
 4118SOL     OW23989   2.650   3.199   1.536 -0.5213  0.0779  0.0809
 4118SOL    HW123990   2.600   3.184   1.616 -1.7420  0.5552 -0.5779
 4118SOL    HW223991   2.729   3.151   1.559 -1.3348 -1.4236 -0.2601
 4119SOL     OW23992   4.441   0.037   9.298 -0.5698 -0.3889  0.5590
 4119SOL    HW123993   4.364   0.064   9.249  1.0339  0.9682 -1.2139
 4119SOL    HW223994   4.403   0.055   9.384  0.5732 -2.1346  1.4365
 4120SOL     OW23995   4.550   1.132   0.321 -0.1409 -0.2825  0.5328
 4120SOL    HW123996   4.630   1.099   0.361  0.6678 -0.4639 -1.2644
 4120SOL    HW223997   4.531   1.058   0.264  0.0168 -0.1495  0.3096
 4121SOL     OW23998   1.619   3.205   2.617  0.7689  0.7774  0.0002
 4121SOL    HW123999   1.590   3.231   2.704 -0.7606  2.7484 -1.0996
 4121SOL    HW224000   1.711   3.183   2.627  1.1667  2.5536  0.2366
 4122SOL     OW24001   1.316   4.262   7.686  0.0953  0.3456  0.2848
 4122SOL    HW124002   1.376   4.216   7.745  1.6466  0.2167 -1.3989
 4122SOL    HW224003   1.320   4.204   7.610 -0.5573 -0.2739  0.7202
 4123SOL     OW24004   4.730   1.592   6.257  0.1540 -0.0910  0.1169
 4123SOL    HW124005   0.023   1.506   6.285 -0.2489 -0.9957 -2.1991
 4123SOL    HW224006   0.035   1.646   6.323  0.1402 -1.5028  1.2883
 4124SOL     OW24007   4.381   1.241   8.519 -0.8821 -0.6623  0.1150
 4124SOL    HW124008   4.310   1.213   8.460 -1.7519 -2.9425  2.2585
 4124SOL    HW224009   4.372   1.334   8.497 -1.7319 -0.8214 -0.2476
 4125SOL     OW24010   3.251   1.762   4.943 -0.0295 -0.3178  0.0469
 4125SOL    HW124011   3.192   1.699   4.902  1.5022 -0.6171 -1.7075
 4125SOL    HW224012   3.305   1.699   4.990  2.3322  1.1519 -0.6473
 4126SOL     OW24013   4.515   3.475   6.183 -0.2838  0.2592  0.1034
 4126SOL    HW124014   4.435   3.454   6.231 -1.3767 -0.3763 -1.9652
 4126SOL    HW224015   4.532   3.563   6.216 -0.0633 -1.2676  4.0632
 4127SOL     OW24016   1.272   0.656   7.144  0.4882 -0.0936 -0.1427
 4127SOL    HW124017   1.264   0.707   7.224  1.6884 -1.0657  0.5982
 4127SOL    HW224018   1.341   0.706   7.100 -0.3632  2.0628  1.0098
 4128SOL     OW24019   0.026   2.599   0.926  0.5688  0.2491  0.5008
 4128SOL    HW124020   0.109   2.570   0.962 -0.0168  0.6996  2.1865
 4128SOL    HW224021   4.725   2.640   1.003 -1.5016 -1.8992  0.5856
 4129SOL     OW24022   1.680   0.396   2.180  0.1680  0.1957  0.0787
 4129SOL    HW124023   1.593   0.368   2.154 -0.7113  1.1887  1.9540
 4129SOL    HW224024   1.707   0.452   2.108 -1.5407  1.4772  0.4370
 4130SOL     OW24025   3.027   1.589  11.463 -0.0516  0.4889  0.2162
 4130SOL    HW124026   2.965   1.518  11.449  0.0088  0.8788 -2.0379
 4130SOL    HW224027   2.987   1.651  11.402 -0.9664 -0.2541  0.0611
 4131SOL     OW24028   3.117   4.408   3.966  0.1461 -0.1266  0.0196
 4131SOL    HW124029   3.160   4.343   4.022  0.8858 -1.2845 -1.8658
 4131SOL    HW224030   3.106   4.477   4.030 -2.4338  0.3011 -0.8512
 4132SOL     OW24031   0.334   0.444   6.175 -0.1388 -0.1223 -0.9108
 4132SOL    HW124032   0.358   0.451   6.083  2.0832 -0.2001 -0.3357
 4132SOL    HW224033   0.338   0.349   6.187  0.5619  0.1994  1.3866
 4133SOL     OW24034   0.638   4.597   7.396  0.5975 -0.6815  0.4446
 4133SOL    HW124035   0.686   4.566   7.472  0.9045 -2.1376 -0.3359
 4133SOL    HW224036   0.710   4.629   7.341  0.6607 -1.5656  0.0181
 4134SOL     OW24037   2.462   4.564   8.628 -0.9884  0.7022  0.3168
 4134SOL    HW124038   2.417   4.485   8.598  0.4450  0.3936 -0.9937
 4134SOL    HW224039   2.553   4.534   8.630 -0.1882  3.0240 -1.0857
 4135SOL     OW24040   2.450   0.025   5.129 -0.2816  0.4975  0.6240
 4135SOL    HW124041   2.493   0.096   5.082 -0.3882  0.8811  1.1085
 4135SOL    HW224042   2.433   4.700   5.059 -0.4909  1.6160 -0.3551
 4136SOL     OW24043   3.818   3.427   3.325  0.1596 -0.3694  0.1076
 4136SOL    HW124044   3.729   3.454   3.345  0.1169 -0.7237  0.3809
 4136SOL    HW224045   3.847   3.389   3.408  2.3470  1.5494  0.2403
 4137SOL     OW24046   0.825   2.534   5.837  0.0941 -0.2094 -0.3288
 4137SOL    HW124047   0.863   2.515   5.923 -0.4500  0.4411  0.0588
 4137SOL    HW224048   0.786   2.621   5.846  1.5812  0.5360 -1.1612
 4138SOL     OW24049   1.983   1.490  15.499 -0.3665  0.0191 -0.1268
 4138SOL    HW124050   1.902   1.515  15.455 -0.0528 -1.4030 -1.5066
 4138SOL    HW224051   1.956   1.444  15.578  0.9801 -1.2244 -0.4040
 4139SOL     OW24052   1.017   2.487  12.160 -0.3111  0.0576  0.3238
 4139SOL    HW124053   0.954   2.452  12.224 -0.1924  2.4248  1.7441
 4139SOL    HW224054   1.053   2.563  12.205  1.3431 -0.4506 -0.1564
 4140SOL     OW24055   3.514   1.740  15.204 -0.5694  0.7368 -0.0139
 4140SOL    HW124056   3.460   1.664  15.223  2.2868 -1.5037 -0.9401
 4140SOL    HW224057   3.508   1.760  15.110 -0.0858  0.1169 -0.1715
 4141SOL     OW24058   4.343   1.503  11.102  0.0185 -0.5516  0.2730
 4141SOL    HW124059   4.397   1.433  11.064 -1.3785 -1.2315 -0.4387
 4141SOL    HW224060   4.266   1.505  11.045 -1.4636  1.7099  2.3517
 4142SOL     OW24061   3.122   1.594   3.252  0.2756  1.0843 -0.3436
 4142SOL    HW124062   3.124   1.503   3.222 -1.1102  0.5606  1.1726
 4142SOL    HW224063   3.136   1.643   3.171  2.7107  0.0959 -0.5261
 4143SOL     OW24064   0.069   2.924  13.956  0.8757 -0.1860  0.2875
 4143SOL    HW124065   0.023   2.867  13.895 -0.0652  1.2477 -0.3476
 4143SOL    HW224066   0.142   2.948  13.900 -0.4660 -0.3515 -1.5126
 4144SOL     OW24067   4.518   2.563   7.756  0.0699 -0.3822 -0.4115
 4144SOL    HW124068   4.462   2.486   7.760  0.3910 -0.6982 -2.1507
 4144SOL    HW224069   4.585   2.541   7.692 -0.5054  1.8099 -1.7628
 4145SOL     OW24070   3.319   3.876  14.654 -0.2524  0.2640  0.1542
 4145SOL    HW124071   3.402   3.923  14.648  0.7280 -1.0888  2.7670
 4145SOL    HW224072   3.308   3.874  14.749 -0.6530  0.9471  0.1184
 4146SOL     OW24073   4.578   4.505   4.915 -0.0818 -0.0708 -0.1529
 4146SOL    HW124074   4.549   4.450   4.988  0.5172  0.7864  0.7270
 4146SOL    HW224075   4.666   4.469   4.903  0.8474  2.3439 -0.4154
 4147SOL     OW24076   3.750   3.399  12.483  0.2716  0.2912 -0.4034
 4147SOL    HW124077   3.744   3.488  12.519 -1.6572  0.1518 -0.3749
 4147SOL    HW224078   3.783   3.348  12.557 -1.4730  2.1254  1.6735
 4148SOL     OW24079   3.837   0.884  16.362 -0.2400  0.5830 -0.2482
 4148SOL    HW124080   3.893   0.954  16.394  0.5269 -1.1153  2.1037
 4148SOL    HW224081   3.881   0.803  16.389 -2.0345  0.1500  1.3641
 4149SOL     OW24082   4.640   3.430   2.761  0.1770 -0.3328 -0.2575
 4149SOL    HW124083   4.600   3.494   2.702 -1.4259 -0.4959  0.6873
 4149SOL    HW224084   4.616   3.340   2.737 -2.1075  0.3207 -0.3615
 4150SOL     OW24085   3.369   0.233  10.148  0.2498 -0.4773 -0.1256
 4150SOL    HW124086   3.299   0.209  10.087 -0.5153  0.6647  0.2926
 4150SOL    HW224087   3.341   0.324  10.162  1.8197  0.6547 -4.4817
 4151SOL     OW24088   1.974   0.058   3.294 -1.2221  0.2180  0.5903
 4151SOL    HW124089   2.069   0.045   3.290 -1.2430  1.5264 -3.3470
 4151SOL    HW224090   1.952   0.077   3.203  0.5078  0.2050  0.1651
 4152SOL     OW24091   3.125   0.586   4.936  0.4880  0.4674  0.2737
 4152SOL    HW124092   3.095   0.541   5.015  3.6589 -0.5333  0.9150
 4152SOL    HW224093   3.142   0.676   4.962  4.1724 -0.1666  0.1226
 4153SOL     OW24094   3.870   1.093   3.815  0.1471 -0.3200  0.1061
 4153SOL    HW124095   3.832   1.177   3.786 -1.9419 -1.8719 -1.6434
 4153SOL    HW224096   3.894   1.043   3.737  2.9693 -1.7307  1.8750
 4154SOL     OW24097   3.858   3.321   0.582 -0.8376  0.0137  0.1469
 4154SOL    HW124098   3.825   3.234   0.603 -0.0711 -0.5026 -0.7960
 4154SOL    HW224099   3.785   3.371   0.620 -1.0690  1.2881 -1.9756
 4155SOL     OW24100   0.036   3.866   7.627 -0.2887 -0.3703  0.6601
 4155SOL    HW124101   4.682   3.890   7.621  0.0833  0.8737 -0.0902
 4155SOL    HW224102   0.062   3.909   7.545  1.3742 -1.0496  0.8276
 4156SOL     OW24103   3.925   4.484   5.967  0.0685  0.0643  0.3586
 4156SOL    HW124104   3.905   4.576   5.982 -0.8064  0.2068 -1.7473
 4156SOL    HW224105   4.017   4.481   5.993 -0.3036  1.8925  1.9175
 4157SOL     OW24106   2.377   1.745  17.124  0.5687  0.1887  0.0762
 4157SOL    HW124107   2.397   1.794  17.044 -0.0859 -3.0297 -2.0321
 4157SOL    HW224108   2.450   1.740  17.185  0.1244  0.8426  0.6665
 4158SOL     OW24109   0.699   3.923   1.656  0.4658 -0.4327  0.0909
 4158SOL    HW124110   0.674   3.887   1.571  0.0418 -1.7274  0.7660
 4158SOL    HW224111   0.721   4.013   1.631  0.4156 -0.7063 -0.9678
 4159SOL     OW24112   0.084   4.090   2.017 -0.0115 -0.2768 -0.0263
 4159SOL    HW124113   0.063   4.178   1.985 -1.0452 -0.8084 -0.8108
 4159SOL    HW224114   0.052   4.102   2.107 -1.3607 -0.4529 -0.4821
 4160SOL     OW24115   3.294   0.647  14.123 -0.5250  0.4869 -0.1752
 4160SOL    HW124116   3.354   0.594  14.176 -0.4625 -0.4939 -1.2123
 4160SOL    HW224117   3.359   0.706  14.087  0.1542 -1.3565 -1.9660
 4161SOL     OW24118   1.342   0.299   4.645  0.6565  0.1918 -0.5256
 4161SOL    HW124119   1.264   0.245   4.633  0.7465 -0.0176 -0.1574
 4161SOL    HW224120   1.330   0.322   4.737 -0.5844  1.5920 -1.0261
 4162SOL     OW24121   1.007   0.693   4.463 -0.5110  0.5371 -0.2696
 4162SOL    HW124122   1.093   0.704   4.422 -0.1088 -2.5799 -0.2480
 4162SOL    HW224123   0.998   0.777   4.508 -0.0545 -0.3466  1.4829
 4163SOL     OW24124   3.034   0.207   3.472 -0.2143 -0.5329 -0.1302
 4163SOL    HW124125   3.128   0.214   3.453 -0.5333 -0.8817 -1.8276
 4163SOL    HW224126   3.036   0.248   3.558 -0.1936  1.1438 -0.9268
 4164SOL     OW24127   4.721   0.413  15.144  0.4702 -0.5415 -0.2686
 4164SOL    HW124128   4.647   0.459  15.184  2.1171  2.8112 -1.0770
 4164SOL    HW224129   0.049   0.479  15.164  2.3752 -2.3823 -0.5075
 4165SOL     OW24130   0.031   0.009   3.215  0.5099  0.4869 -0.2227
 4165SOL    HW124131   0.119   4.712   3.220  0.5347  0.4724 -0.7089
 4165SOL    HW224132   4.718   4.674   3.248  2.1119 -0.1762  0.7586
 4166SOL     OW24133   2.543   2.837   5.537  0.2792 -0.6033  0.0999
 4166SOL    HW124134   2.502   2.841   5.451 -0.7579  1.0308  0.6679
 4166SOL    HW224135   2.544   2.741   5.541  0.9889 -0.6893 -2.4246
 4167SOL     OW24136   0.488   0.220  11.427 -0.1683  0.6095 -0.1505
 4167SOL    HW124137   0.530   0.306  11.432  0.8373  0.1595 -0.7411
 4167SOL    HW224138   0.447   0.233  11.342 -0.3583 -2.1651 -0.4878
 4168SOL     OW24139   0.348   4.179   6.418  0.4533 -0.1326 -0.1800
 4168SOL    HW124140   0.422   4.141   6.371  0.8663 -0.1016  0.4386
 4168SOL    HW224141   0.266   4.153   6.377  0.6374 -0.7362 -0.1546
 4169SOL     OW24142   1.481   1.275  13.902 -0.0975  0.6063  0.0657
 4169SOL    HW124143   1.420   1.261  13.975 -0.9555 -0.2044 -0.8171
 4169SOL    HW224144   1.513   1.364  13.915  0.3933  0.4285  0.0763
 4170SOL     OW24145   2.048   3.917   5.358 -0.2595 -0.2186  0.7124
 4170SOL    HW124146   2.113   3.849   5.377  0.0760 -0.3548 -0.9301
 4170SOL    HW224147   1.993   3.882   5.287  0.7350  0.0906 -0.2008
 4171SOL     OW24148   1.240   1.971   3.124 -0.1659  0.3447  0.1050
 4171SOL    HW124149   1.169   1.929   3.076 -0.3046 -0.6683  1.2307
 4171SOL    HW224150   1.318   1.925   3.092  0.0457  0.0520  1.0540
 4172SOL     OW24151   1.314   1.146   9.521  0.9425 -0.0673  0.1344
 4172SOL    HW124152   1.289   1.054   9.510  2.3975 -0.6004  1.2892
 4172SOL    HW224153   1.382   1.149   9.454  0.4992 -2.0768 -0.4149
 4173SOL     OW24154   0.639   4.182   3.766  0.1452 -0.1259  0.0491
 4173SOL    HW124155   0.620   4.092   3.793  1.0468 -0.0738  0.8641
 4173SOL    HW224156   0.641   4.225   3.852 -2.2406 -4.7203  2.4432
 4174SOL     OW24157   0.305   3.094   1.139  0.1217 -0.2775  0.1886
 4174SOL    HW124158   0.220   3.061   1.111  0.2489  0.3959 -0.9794
 4174SOL    HW224159   0.346   3.018   1.181  0.9137 -0.2395 -0.5201
 4175SOL     OW24160   1.157   1.980   2.258  0.0658 -0.3528 -0.5678
 4175SOL    HW124161   1.186   1.899   2.216 -0.6673 -0.6022 -0.5922
 4175SOL    HW224162   1.073   1.953   2.294 -0.4978  0.8525 -0.9661
 4176SOL     OW24163   4.335   0.872   7.598  0.0653  0.1682  0.0101
 4176SOL    HW124164   4.430   0.878   7.613  0.0788  0.2046 -0.0896
 4176SOL    HW224165   4.333   0.881   7.503 -3.0300 -1.8257 -0.0933
 4177SOL     OW24166   3.377   2.945   4.804  0.0302  0.0524  0.5772
 4177SOL    HW124167   3.456   2.897   4.781 -0.4218 -0.6349  0.4744
 4177SOL    HW224168   3.370   3.001   4.727  1.3988  0.2492  0.5920
 4178SOL     OW24169   0.923   3.854  13.171  0.2063  0.4326 -0.3586
 4178SOL    HW124170   0.930   3.777  13.115  0.8900  2.1926 -2.6773
 4178SOL    HW224171   0.998   3.839  13.228  0.5947  1.2238 -0.6576
 4179SOL     OW24172   0.152   0.551   9.723  0.2873 -0.2696  0.7863
 4179SOL    HW124173   0.097   0.592   9.790 -1.1437 -0.4000 -0.3042
 4179SOL    HW224174   0.236   0.534   9.765 -0.3311 -0.0472  2.1063
 4180SOL     OW24175   3.647   4.153  15.098  0.8204  0.5741  0.0665
 4180SOL    HW124176   3.558   4.146  15.062  1.6167 -0.3255 -1.7434
 4180SOL    HW224177   3.664   4.247  15.091 -0.9172  1.0066  1.7586
 4181SOL     OW24178   3.034   0.778  16.306  0.5265  0.4368  0.1924
 4181SOL    HW124179   3.106   0.813  16.254  1.1039  1.2882  1.5735
 4181SOL    HW224180   2.997   0.861  16.337  0.0360  0.6808 -1.0396
 4182SOL     OW24181   3.989   3.698   3.059  0.0724 -0.0967  0.0187
 4182SOL    HW124182   4.050   3.762   3.022  0.0771  0.2652  0.6557
 4182SOL    HW224183   4.000   3.626   2.996 -0.4827  0.5843 -0.8614
 4183SOL     OW24184   2.580   3.416  11.484  0.3400  0.5647  0.8170
 4183SOL    HW124185   2.492   3.413  11.521  1.1028 -2.0899  2.4321
 4183SOL    HW224186   2.611   3.330  11.514 -0.0856 -0.2398 -1.0404
 4184SOL     OW24187   0.631   0.511   4.854  0.1520 -0.5110  0.0856
 4184SOL    HW124188   0.690   0.575   4.813  1.1158 -2.5644 -1.7012
 4184SOL    HW224189   0.627   0.551   4.941  0.1854 -0.2934 -0.0126
 4185SOL     OW24190   1.016   3.269   8.038  0.6682  0.4665 -0.1652
 4185SOL    HW124191   0.950   3.339   8.043  1.5973  1.2599  1.0967
 4185SOL    HW224192   1.061   3.275   8.122  2.7349  0.5989 -1.2814
 4186SOL     OW24193   2.599   2.729   6.261 -0.2757  0.0660  0.7556
 4186SOL    HW124194   2.568   2.817   6.282 -0.3048  0.3255 -0.3860
 4186SOL    HW224195   2.551   2.706   6.182 -0.9756 -0.3025  1.2858
 4187SOL     OW24196   2.361   3.691   3.956 -0.5532 -0.3300 -0.2600
 4187SOL    HW124197   2.427   3.623   3.967  0.0263  0.0807 -1.1933
 4187SOL    HW224198   2.414   3.769   3.939 -0.1799 -0.3870  0.6610
 4188SOL     OW24199   1.818   0.823   4.561 -0.1295  0.1711 -0.2533
 4188SOL    HW124200   1.877   0.829   4.636 -2.1108 -0.4408  1.3681
 4188SOL    HW224201   1.736   0.859   4.595  1.4556  2.4284  1.2293
 4189SOL     OW24202   3.230   0.893   5.287  0.1094  0.1046  0.2128
 4189SOL    HW124203   3.277   0.842   5.222 -0.8236  0.7277 -0.9479
 4189SOL    HW224204   3.201   0.972   5.242 -2.3757 -1.3907 -0.8306
 4190SOL     OW24205   1.741   1.052   2.602  0.7588 -0.0339  0.2040
 4190SOL    HW124206   1.826   1.035   2.644  1.4108  5.0770  0.9868
 4190SOL    HW224207   1.712   1.125   2.657 -0.1523 -0.7673  0.6990
 4191SOL     OW24208   4.485   3.468  11.016  0.1875  0.5555  0.3785
 4191SOL    HW124209   4.439   3.384  11.014  1.5111 -0.1735  0.2047
 4191SOL    HW224210   4.520   3.478  10.927  1.7556 -2.5970  0.6417
 4192SOL     OW24211   1.273   2.434   4.470 -0.0648 -0.1072 -0.1458
 4192SOL    HW124212   1.251   2.365   4.407 -1.0753 -1.7016  1.9504
 4192SOL    HW224213   1.322   2.495   4.415  1.1389 -0.3938  0.6188
 4193SOL     OW24214   0.069   2.424   7.131 -0.5870  0.5397  0.2748
 4193SOL    HW124215   0.051   2.437   7.224  0.2016 -1.8626  0.7516
 4193SOL    HW224216   0.144   2.365   7.128 -2.3130 -1.5973 -0.7343
 4194SOL     OW24217   1.109   3.461   8.744 -0.1014 -0.5729  0.1087
 4194SOL    HW124218   1.178   3.518   8.709 -0.2562  1.0960  2.5125
 4194SOL    HW224219   1.035   3.517   8.720  0.4160  0.6113  1.2615
 4195SOL     OW24220   0.024   4.557  12.459 -0.0455 -0.3329 -0.8755
 4195SOL    HW124221   4.677   4.540  12.499 -0.5863  0.2504 -1.8013
 4195SOL    HW224222   0.048   4.480  12.408  0.6418  0.4145 -1.6716
 4196SOL     OW24223   2.157   3.704   9.698 -0.0489 -0.1943 -0.1962
 4196SOL    HW124224   2.240   3.657   9.687  0.5098  1.2450 -2.1204
 4196SOL    HW224225   2.138   3.704   9.792 -0.4021 -0.6313 -0.2640
 4197SOL     OW24226   1.142   2.245  16.618  0.8020 -0.1704 -0.2742
 4197SOL    HW124227   1.191   2.300  16.679  0.4846 -1.7265  1.3720
 4197SOL    HW224228   1.156   2.158  16.656  2.5000  0.7784  1.2954
 4198SOL     OW24229   3.373   4.057   9.424  0.2049  0.2826  0.0597
 4198SOL    HW124230   3.414   4.077   9.340  0.6766 -0.3960  0.1318
 4198SOL    HW224231   3.376   3.961   9.421  0.5445  0.3382 -1.2297
 4199SOL     OW24232   3.704   0.418   5.387  0.8178  0.1653  0.0225
 4199SOL    HW124233   3.616   0.409   5.352  1.5213 -3.5338 -0.8142
 4199SOL    HW224234   3.711   0.513   5.395 -0.4243  0.2109  0.5267
 4200SOL     OW24235   4.180   1.457   3.764 -0.3918  0.4821 -0.5999
 4200SOL    HW124236   4.212   1.368   3.750 -0.1037  0.4996 -0.0465
 4200SOL    HW224237   4.155   1.497   3.681 -0.8452  2.1975  0.3601
 4201SOL     OW24238   2.280   2.618   1.946 -0.5976 -0.1521 -0.0672
 4201SOL    HW124239   2.229   2.685   1.901 -0.6428  0.1621  0.4436
 4201SOL    HW224240   2.311   2.675   2.017 -0.7937  1.0382 -0.9362
 4202SOL     OW24241   1.594   3.054   6.909  0.8093 -0.2165 -0.2498
 4202SOL    HW124242   1.628   3.117   6.973  0.3267 -0.2729  0.0593
 4202SOL    HW224243   1.581   3.106   6.831  0.2052  0.6009  0.4041
 4203SOL     OW24244   2.462   3.551   1.712 -0.5424  0.2314  0.1682
 4203SOL    HW124245   2.542   3.539   1.660 -2.0614 -0.9442 -1.9048
 4203SOL    HW224246   2.430   3.637   1.684 -0.6006  0.2217  0.2060
 4204SOL     OW24247   1.151   3.327   8.977  0.6035 -0.0287 -0.4768
 4204SOL    HW124248   1.170   3.397   9.039  1.4460  0.1462 -0.9261
 4204SOL    HW224249   1.127   3.377   8.900 -0.5580  0.4227  0.1925
 4205SOL     OW24250   1.223   0.706  15.876 -0.1337  0.8220  0.1403
 4205SOL    HW124251   1.202   0.624  15.832 -1.3787  1.6321 -0.7817
 4205SOL    HW224252   1.185   0.700  15.963 -0.4600 -0.5936 -0.1034
 4206SOL     OW24253   3.045   4.577   3.149  0.0600 -0.4819  0.6393
 4206SOL    HW124254   3.107   4.593   3.078 -1.5616  0.8631 -0.4761
 4206SOL    HW224255   3.039   4.482   3.141 -0.4126 -0.5484  1.8556
 4207SOL     OW24256   1.821   4.710   5.029  0.5430  0.4085  0.8898
 4207SOL    HW124257   1.903   4.661   5.020 -0.3130 -0.7565 -0.4779
 4207SOL    HW224258   1.844   0.056   4.990 -1.8516  1.4318  1.6953
 4208SOL     OW24259   0.697   1.638   3.531 -0.6000  0.4751 -0.0289
 4208SOL    HW124260   0.707   1.600   3.444  0.2485  0.3074  0.1455
 4208SOL    HW224261   0.682   1.731   3.511  0.2836  1.0782  2.0581
 4209SOL     OW24262   4.250   2.890  14.200 -0.4415 -0.2160  0.4391
 4209SOL    HW124263   4.202   2.958  14.248  0.2332 -0.6304  1.7005
 4209SOL    HW224264   4.338   2.930  14.204 -0.6686  0.4296 -1.2525
 4210SOL     OW24265   2.845   1.010   5.610  0.7111  0.5914 -0.2110
 4210SOL    HW124266   2.938   1.006   5.589  0.4498 -1.8977 -0.8903
 4210SOL    HW224267   2.810   0.983   5.525 -0.4939  1.1549  0.1161
 4211SOL     OW24268   0.419   3.908  12.373  1.0347  0.2399  0.2334
 4211SOL    HW124269   0.442   3.883  12.462 -1.6028  2.1872  1.4782
 4211SOL    HW224270   0.361   3.981  12.394 -1.3914 -1.5572 -0.1968
 4212SOL     OW24271   1.982   1.885  12.288 -0.1897  0.0016 -0.2188
 4212SOL    HW124272   2.048   1.902  12.221  1.3462 -1.1739  0.9674
 4212SOL    HW224273   1.945   1.968  12.317  0.4367  0.9034 -2.0171
 4213SOL     OW24274   2.788   4.023   8.044 -0.4102  0.1702 -0.3690
 4213SOL    HW124275   2.757   4.113   8.051 -0.9296 -0.0646  0.3787
 4213SOL    HW224276   2.883   4.021   8.058 -0.3157 -2.3591 -1.4656
 4214SOL     OW24277   3.731   1.842   0.164  0.6200 -0.4850  0.1310
 4214SOL    HW124278   3.762   1.752   0.157 -0.1364 -0.8376  1.3831
 4214SOL    HW224279   3.748   1.883   0.079 -3.1604  2.0008  0.5730
 4215SOL     OW24280   2.832   2.044   5.917  0.6009 -0.0525 -0.1495
 4215SOL    HW124281   2.886   2.085   5.851 -1.3503 -0.7722 -2.1864
 4215SOL    HW224282   2.843   2.090   6.000 -0.3321 -0.3479  0.1404
 4216SOL     OW24283   1.348   0.425   5.271  0.2895  0.1321 -0.4098
 4216SOL    HW124284   1.323   0.341   5.232  1.9285  0.0697 -1.3410
 4216SOL    HW224285   1.396   0.470   5.201  0.2628  0.2263 -0.3667
 4217SOL     OW24286   4.191   4.469  12.587 -0.2149  0.1698  0.1126
 4217SOL    HW124287   4.226   4.454  12.499  0.6561 -1.1365  0.6782
 4217SOL    HW224288   4.183   4.564  12.584 -1.4081  0.0698 -0.0775
 4218SOL     OW24289   3.296   1.299   5.258 -0.0997 -0.4325  0.3189
 4218SOL    HW124290   3.309   1.261   5.345  1.6782 -1.7377 -0.5327
 4218SOL    HW224291   3.295   1.222   5.201 -1.0231 -0.6304  0.5862
 4219SOL     OW24292   0.707   2.011  11.614 -0.7254 -0.0113 -0.3909
 4219SOL    HW124293   0.704   1.997  11.708 -1.4899 -1.1340 -0.5726
 4219SOL    HW224294   0.743   1.923  11.598 -0.9726 -0.1912  0.0321
 4220SOL     OW24295   4.616   0.156   3.457 -0.7584  0.2954  0.0959
 4220SOL    HW124296   4.640   0.104   3.381  2.1696 -1.7030  2.4234
 4220SOL    HW224297   4.693   0.182   3.507 -1.6369  1.9475  0.5971
 4221SOL     OW24298   2.362   2.317   5.995 -0.0282  0.6950 -0.1279
 4221SOL    HW124299   2.283   2.307   6.047 -0.4088 -1.3069 -1.0853
 4221SOL    HW224300   2.428   2.275   6.050  1.0989  0.6151 -1.5440
 4222SOL     OW24301   3.420   2.638   9.357 -0.2724  0.2969  0.2590
 4222SOL    HW124302   3.478   2.674   9.289  2.2439 -0.0836  2.2174
 4222SOL    HW224303   3.486   2.602   9.416 -0.4518 -0.9378 -0.3015
 4223SOL     OW24304   0.728   2.565  16.672  0.8635 -0.4978 -0.1778
 4223SOL    HW124305   0.810   2.538  16.633  0.1541 -1.0180 -1.3055
 4223SOL    HW224306   0.733   2.522  16.757 -0.0873 -1.2436 -0.4944
 4224SOL     OW24307   0.617   2.949   7.335 -0.3620 -0.2924 -0.2381
 4224SOL    HW124308   0.559   3.016   7.299 -0.7990  0.4178  1.7715
 4224SOL    HW224309   0.570   2.923   7.415  0.3738  0.8350  0.5637
 4225SOL     OW24310   0.981   4.347   4.552  0.3659 -0.7252  0.2785
 4225SOL    HW124311   1.021   4.390   4.477 -3.2245 -2.3202 -2.5194
 4225SOL    HW224312   1.015   4.397   4.627  1.0047  0.2050 -0.6311
 4226SOL     OW24313   3.555   4.271   8.322  0.8916  0.4121  0.1035
 4226SOL    HW124314   3.567   4.320   8.404  1.4684  2.7203 -1.3749
 4226SOL    HW224315   3.639   4.285   8.278  0.6078  1.4812 -0.1070
 4227SOL     OW24316   3.874   1.386   9.507  0.2604 -0.0248 -0.6104
 4227SOL    HW124317   3.872   1.345   9.420 -1.8964  1.9920 -1.5256
 4227SOL    HW224318   3.968   1.405   9.515 -0.1002  2.1524 -1.5379
 4228SOL     OW24319   3.691   0.553   4.244  0.2808  0.0484 -0.4957
 4228SOL    HW124320   3.609   0.599   4.224  0.3515  1.4648  2.5371
 4228SOL    HW224321   3.753   0.571   4.173  1.3846  0.1566  0.5052
 4229SOL     OW24322   2.497   2.073   4.155 -0.2061 -0.6707 -0.1206
 4229SOL    HW124323   2.581   2.082   4.200 -2.3180 -0.8770  3.8459
 4229SOL    HW224324   2.440   2.046   4.227 -1.0705  2.3368  0.3560
 4230SOL     OW24325   1.559   0.996   1.784 -0.0993  0.2370  0.1959
 4230SOL    HW124326   1.501   1.065   1.750 -0.3163  0.0032  0.0960
 4230SOL    HW224327   1.648   1.033   1.783 -0.6164  1.4866  0.0485
 4231SOL     OW24328   1.579   4.491   0.431 -0.0736  0.4379  0.0315
 4231SOL    HW124329   1.650   4.550   0.406  1.2564 -1.6179 -0.9999
 4231SOL    HW224330   1.540   4.479   0.345  0.2233 -0.8862  0.0821
 4232SOL     OW24331   2.452   4.332   2.273  0.0661 -0.3781 -0.3487
 4232SOL    HW124332   2.544   4.346   2.251 -0.0430  0.6144 -0.1813
 4232SOL    HW224333   2.432   4.415   2.316 -2.0932 -0.8651 -0.3975
 4233SOL     OW24334   3.066   2.883   1.487 -0.3029  0.2349 -0.7414
 4233SOL    HW124335   3.115   2.963   1.507  0.3174 -0.0097 -1.2594
 4233SOL    HW224336   3.140   2.822   1.483 -1.1773 -0.9246  0.8435
 4234SOL     OW24337   0.285   1.750   3.821  0.3108 -0.7199  0.0508
 4234SOL    HW124338   0.305   1.707   3.904 -2.7985 -0.5911  0.8719
 4234SOL    HW224339   0.190   1.744   3.819  0.1950  0.7578  0.9827
 4235SOL     OW24340   2.843   4.569  17.670  0.1490 -0.6102  0.2210
 4235SOL    HW124341   2.877   4.519  17.745  1.3253 -2.0180 -1.2460
 4235SOL    HW224342   2.846   4.492  17.614  0.2265 -1.2346  1.0725
 4236SOL     OW24343   3.856   1.506  17.374  0.0069 -0.0095 -0.6915
 4236SOL    HW124344   3.898   1.590  17.358  0.1497  0.3153  1.4516
 4236SOL    HW224345   3.900   1.444  17.315  0.8584  2.0173 -2.1707
 4237SOL     OW24346   0.316   4.737   6.858 -0.2990 -0.7113 -0.0777
 4237SOL    HW124347   0.256   0.069   6.834  1.3616 -0.1411 -2.5675
 4237SOL    HW224348   0.401   0.022   6.821 -0.4616 -0.2385 -0.1428
 4238SOL     OW24349   1.768   2.388  12.676  0.1129 -0.3569 -0.5731
 4238SOL    HW124350   1.835   2.399  12.609  0.4084  0.3444 -0.1623
 4238SOL    HW224351   1.770   2.293  12.685 -2.5237 -0.4133 -0.6340
 4239SOL     OW24352   2.371   1.696   8.151  0.2756 -0.0469 -0.0985
 4239SOL    HW124353   2.331   1.748   8.220  1.0948  2.4165 -1.4929
 4239SOL    HW224354   2.413   1.767   8.103 -0.7704  1.6017  1.4203
 4240SOL     OW24355   0.863   3.665   7.006 -0.0806  0.0153 -0.2469
 4240SOL    HW124356   0.869   3.617   7.089  0.3667  1.3064  0.4787
 4240SOL    HW224357   0.817   3.599   6.954  1.2381 -0.8941 -0.2560
 4241SOL     OW24358   2.797   3.214   5.146  0.2328 -0.2228  0.0957
 4241SOL    HW124359   2.865   3.148   5.160  1.5710  1.0483 -0.3523
 4241SOL    HW224360   2.822   3.287   5.203  2.0103  0.1774 -1.1761
 4242SOL     OW24361   1.750   1.152   5.737  0.1070 -0.7526 -0.1987
 4242SOL    HW124362   1.796   1.193   5.664 -0.4324  0.1015 -0.0554
 4242SOL    HW224363   1.742   1.222   5.801  0.2930  1.0578 -2.1641
 4243SOL     OW24364   2.996   3.271   5.636  0.0160  0.2412 -0.3164
 4243SOL    HW124365   2.960   3.244   5.552  1.3294 -1.8471 -0.2159
 4243SOL    HW224366   3.008   3.361   5.605 -0.1537 -0.7053 -3.1420
 4244SOL     OW24367   3.267   4.722   5.249  0.4563  0.0481 -0.1590
 4244SOL    HW124368   3.297   0.048   5.185  1.0242  0.9758  1.0580
 4244SOL    HW224369   3.174   4.724   5.229 -0.0644  0.6193  2.3741
 4245SOL     OW24370   2.848   2.200  16.022 -0.2033  0.1215 -0.0976
 4245SOL    HW124371   2.926   2.155  15.990  0.9419  2.0203  0.0333
 4245SOL    HW224372   2.807   2.233  15.942  0.9921  1.1989 -0.2704
 4246SOL     OW24373   3.678   4.265  10.883  0.0339 -0.1266 -0.2432
 4246SOL    HW124374   3.710   4.313  10.807  0.2203 -1.3302 -0.9159
 4246SOL    HW224375   3.755   4.267  10.939  1.0846 -1.1780 -1.6557
 4247SOL     OW24376   4.670   0.585   4.800  0.1552 -0.4308 -0.0938
 4247SOL    HW124377   0.019   0.557   4.775 -0.2887 -2.5572  0.7293
 4247SOL    HW224378   4.630   0.560   4.717 -1.2947 -1.7506  1.0102
 4248SOL     OW24379   0.194   2.409   0.196 -0.4595 -0.1566 -0.4184
 4248SOL    HW124380   0.272   2.448   0.236 -0.6904 -0.0397 -0.0813
 4248SOL    HW224381   0.226   2.320   0.179  0.6817  0.2899 -0.6249
 4249SOL     OW24382   3.331   4.078   5.263 -0.0194 -0.2304 -0.3510
 4249SOL    HW124383   3.385   4.006   5.230  0.7693  0.7068 -1.1242
 4249SOL    HW224384   3.390   4.153   5.270  0.6459 -0.8103  0.2625
 4250SOL     OW24385   1.186   1.104  13.477  0.1849  1.0014  0.0655
 4250SOL    HW124386   1.247   1.153  13.532 -0.3544 -0.1974  1.7392
 4250SOL    HW224387   1.109   1.102  13.535 -0.9001 -0.7162 -1.4484
 4251SOL     OW24388   1.303   4.266   8.030 -0.2549  0.3189  0.4432
 4251SOL    HW124389   1.236   4.329   8.055  0.1647  1.5259 -1.3941
 4251SOL    HW224390   1.260   4.200   7.976 -0.4097  2.1744 -1.7341
 4252SOL     OW24391   3.706   2.214   5.572 -0.2560 -0.5081 -0.3383
 4252SOL    HW124392   3.636   2.151   5.553 -0.8467  0.4096 -1.2204
 4252SOL    HW224393   3.768   2.147   5.598  0.9211  0.9175  0.4901
 4253SOL     OW24394   0.139   0.753   6.337 -0.5075 -0.2756 -0.1978
 4253SOL    HW124395   0.103   0.841   6.347 -1.0577 -0.5441  0.2041
 4253SOL    HW224396   0.072   0.703   6.384  1.2258 -2.7394 -0.3249
 4254SOL     OW24397   0.111   1.057   9.411 -0.1375  0.3103  0.3407
 4254SOL    HW124398   0.136   0.971   9.446 -1.4820 -0.5426 -0.8132
 4254SOL    HW224399   0.019   1.055   9.438  0.0849  0.3074  1.0996
 4255SOL     OW24400   1.513   0.792   5.315 -0.0040 -0.1329 -0.5635
 4255SOL    HW124401   1.498   0.728   5.246  0.4038  0.3577 -1.1121
 4255SOL    HW224402   1.479   0.742   5.389  0.0022 -0.4301 -0.7596
 4256SOL     OW24403   3.543   1.564   5.826 -0.4466  0.0577  0.5604
 4256SOL    HW124404   3.519   1.534   5.914  1.2780  0.3456  1.1238
 4256SOL    HW224405   3.468   1.554   5.767  0.2463 -0.7410 -0.1775
 4257SOL     OW24406   3.703   4.098   1.372  0.3014  0.0748 -0.8380
 4257SOL    HW124407   3.697   4.070   1.281  1.4514 -1.1380 -0.5460
 4257SOL    HW224408   3.616   4.078   1.406  1.0286 -0.7397  0.5683
 4258SOL     OW24409   4.164   2.306   7.288 -0.0808 -0.0064  0.2554
 4258SOL    HW124410   4.083   2.342   7.253  1.9004  1.7048 -2.5387
 4258SOL    HW224411   4.125   2.228   7.329 -1.9390  0.7720 -0.0236
 4259SOL     OW24412   1.364   3.891   2.645 -0.2819  0.2675  0.0865
 4259SOL    HW124413   1.433   3.921   2.704  0.2300 -0.4314 -0.1644
 4259SOL    HW224414   1.373   3.799   2.669 -0.2912  0.2726  0.1094
 4260SOL     OW24415   3.920   3.761  16.484 -0.0040 -0.2246 -0.2146
 4260SOL    HW124416   3.990   3.760  16.418 -0.4044  0.3763 -0.6489
 4260SOL    HW224417   3.918   3.850  16.518 -1.5008 -0.6508  0.7973
 4261SOL     OW24418   3.983   0.706   0.639 -0.7155 -0.3243 -0.5334
 4261SOL    HW124419   4.002   0.642   0.570  0.4357 -0.8264  0.2546
 4261SOL    HW224420   3.907   0.749   0.600 -1.7294 -1.0117  0.6721
 4262SOL     OW24421   1.469   2.792   8.019  0.4637  0.0785  0.7227
 4262SOL    HW124422   1.521   2.850   7.964 -0.9698  1.4297  0.8159
 4262SOL    HW224423   1.530   2.778   8.092  0.7796  1.6196  0.7423
 4263SOL     OW24424   1.779   1.655   7.044 -0.0363 -0.3749  0.3513
 4263SOL    HW124425   1.745   1.742   7.066  1.8391 -0.1921  2.5276
 4263SOL    HW224426   1.869   1.668   7.074 -0.0989 -0.4308  0.5701
 4264SOL     OW24427   0.114   1.120   2.232 -0.5330  0.8911  0.0852
 4264SOL    HW124428   0.094   1.074   2.314  2.9644 -0.0749  0.3917
 4264SOL    HW224429   0.068   1.201   2.256 -2.0277  0.6280 -1.8887
 4265SOL     OW24430   2.555   1.105  11.486 -0.1137 -0.1228 -0.2368
 4265SOL    HW124431   2.498   1.163  11.538 -1.0829 -2.2590  1.0842
 4265SOL    HW224432   2.601   1.179  11.447 -1.7908  1.9849  1.7201
 4266SOL     OW24433   3.197   0.130  13.429 -0.2913  0.2157  0.1945
 4266SOL    HW124434   3.122   0.084  13.391  0.8719 -1.2596 -0.3255
 4266SOL    HW224435   3.153   0.208  13.461  1.4771  1.3911 -0.2884
 4267SOL     OW24436   1.304   3.910   4.686 -0.5802  0.1229 -0.1149
 4267SOL    HW124437   1.252   3.988   4.662 -1.7220 -0.6337 -0.1082
 4267SOL    HW224438   1.260   3.898   4.770 -2.0658 -1.0727 -1.0697
 4268SOL     OW24439   4.733   1.708   3.821 -0.4166 -0.1633  0.7882
 4268SOL    HW124440   4.663   1.771   3.805 -0.6717 -0.9448 -1.0794
 4268SOL    HW224441   4.721   1.695   3.915  0.3104 -1.2805  0.7216
 4269SOL     OW24442   0.221   1.487   8.496  0.1208  0.5090  0.4920
 4269SOL    HW124443   0.208   1.578   8.469 -2.9999 -0.0652  0.0262
 4269SOL    HW224444   0.163   1.478   8.572  0.4589  0.3011  0.7261
 4270SOL     OW24445   2.563   4.308  14.487  0.9361 -0.6563  0.3877
 4270SOL    HW124446   2.646   4.347  14.515  0.5207 -0.1639  0.9395
 4270SOL    HW224447   2.500   4.314  14.559 -2.2646  1.8588 -2.6076
 4271SOL     OW24448   0.430   0.802   6.395 -0.0067  0.5614  0.0891
 4271SOL    HW124449   0.379   0.773   6.319  0.1238 -2.0097  0.9768
 4271SOL    HW224450   0.367   0.836   6.458 -1.3428  1.2735 -1.6497
 4272SOL     OW24451   1.524   1.430   1.552  0.2950  0.4326 -0.2516
 4272SOL    HW124452   1.461   1.498   1.527  1.2604  1.1082 -0.8474
 4272SOL    HW224453   1.590   1.481   1.599  0.2023 -0.9705  1.3708
 4273SOL     OW24454   3.358   1.844   7.170  0.5217 -0.5175 -0.4693
 4273SOL    HW124455   3.313   1.760   7.156 -0.8781  0.1308  0.1134
 4273SOL    HW224456   3.298   1.896   7.223  0.7418 -0.5252 -0.2139
 4274SOL     OW24457   1.382   1.425   8.445  0.0727 -0.0632  0.2912
 4274SOL    HW124458   1.423   1.466   8.369  3.7893 -0.0224  2.3388
 4274SOL    HW224459   1.454   1.417   8.507 -0.1431 -1.6963  0.3151
 4275SOL     OW24460   0.664   1.230   5.875 -0.1526  0.1044  0.6314
 4275SOL    HW124461   0.707   1.305   5.916  1.6276  0.5683 -2.1097
 4275SOL    HW224462   0.579   1.231   5.920 -1.6246 -1.6682 -2.1160
 4276SOL     OW24463   2.983   3.213   6.722 -0.6099  0.0925  0.2986
 4276SOL    HW124464   3.016   3.243   6.807 -1.9526  3.0094 -0.2010
 4276SOL    HW224465   2.892   3.240   6.718 -0.9064 -1.1984 -1.6703
 4277SOL     OW24466   0.884   2.107  12.736 -0.3413  0.1001  0.3382
 4277SOL    HW124467   0.814   2.041  12.744 -2.1064  1.8163 -0.8276
 4277SOL    HW224468   0.862   2.159  12.658  0.9648  0.0087 -0.0859
 4278SOL     OW24469   3.346   1.724   6.136 -0.5204  1.0401  0.6191
 4278SOL    HW124470   3.345   1.729   6.231 -0.1508  0.2295  0.6628
 4278SOL    HW224471   3.256   1.749   6.115 -0.6699 -1.7694 -2.1997
 4279SOL     OW24472   4.298   0.656   3.628 -0.1983 -0.0053  0.4198
 4279SOL    HW124473   4.282   0.563   3.640 -0.5056 -0.2344 -1.7251
 4279SOL    HW224474   4.391   0.648   3.610 -0.4488  0.3696 -1.1152
 4280SOL     OW24475   4.631   4.299   3.701 -0.2249 -1.1084  0.1143
 4280SOL    HW124476   4.593   4.374   3.655 -2.5665 -1.9303  0.7423
 4280SOL    HW224477   4.708   4.281   3.646  1.0383  0.3513  1.3955
 4281SOL     OW24478   1.851   3.531   2.519  0.3956 -0.1217  0.1222
 4281SOL    HW124479   1.859   3.467   2.449  2.4682  1.2926 -0.9373
 4281SOL    HW224480   1.942   3.542   2.548  0.3498 -3.1679  1.3773
 4282SOL     OW24481   4.258   3.282   4.469  0.0576  0.2346  0.1751
 4282SOL    HW124482   4.173   3.313   4.501  0.1659 -0.0515  0.7366
 4282SOL    HW224483   4.232   3.255   4.380  0.2602  0.1567  0.1411
 4283SOL     OW24484   1.759   2.139  10.094 -0.6882 -1.1626 -0.0756
 4283SOL    HW124485   1.675   2.184  10.083  0.6890  1.5190  0.3761
 4283SOL    HW224486   1.818   2.209  10.064  0.5495 -1.5315  1.4743
 4284SOL     OW24487   0.421   4.009   4.583  0.3061  0.1851 -0.3103
 4284SOL    HW124488   0.482   4.046   4.518  2.9114 -1.4891  1.2133
 4284SOL    HW224489   0.341   4.039   4.539 -0.6172  1.1913  2.0435
 4285SOL     OW24490   4.653   0.385   2.802 -0.0041 -0.0776  0.7586
 4285SOL    HW124491   4.597   0.355   2.731  1.4528 -1.7496  0.3015
 4285SOL    HW224492   0.001   0.395   2.762 -1.0246  0.0516 -1.3876
 4286SOL     OW24493   3.216   4.450   8.600  0.3001  0.0467 -0.4859
 4286SOL    HW124494   3.135   4.482   8.640 -0.7974 -0.8705 -1.9595
 4286SOL    HW224495   3.267   4.421   8.676  0.0181 -1.2360 -0.7873
 4287SOL     OW24496   1.318   2.353   5.571 -0.5764  0.0307 -0.1862
 4287SOL    HW124497   1.319   2.424   5.507 -4.0539 -0.5028 -0.7802
 4287SOL    HW224498   1.271   2.284   5.525 -0.9134  0.3625 -0.3361
 4288SOL     OW24499   0.392   3.457   4.987 -0.4785 -0.3786  1.0387
 4288SOL    HW124500   0.430   3.369   4.992  1.4767  0.2925 -2.0040
 4288SOL    HW224501   0.469   3.507   5.016 -0.5590 -0.9306  2.2205
 4289SOL     OW24502   2.266   0.858   3.686  0.3168  0.2681 -0.1351
 4289SOL    HW124503   2.307   0.895   3.608  1.8322 -1.2997 -0.0716
 4289SOL    HW224504   2.342   0.805   3.712 -0.2880 -0.7388 -0.4478
 4290SOL     OW24505   3.998   1.051  16.748 -0.2351 -0.3617  0.3161
 4290SOL    HW124506   3.993   1.052  16.653  0.6687  3.3019  0.2980
 4290SOL    HW224507   3.921   1.004  16.779 -0.8531 -0.3742 -1.2317
 4291SOL     OW24508   0.384   4.527   7.904  0.0425  0.0601 -0.5374
 4291SOL    HW124509   0.366   4.490   7.817  0.9464 -1.0142 -0.2664
 4291SOL    HW224510   0.304   4.574   7.928 -0.5792 -1.4665  0.3917
 4292SOL     OW24511   2.945   2.250  11.141 -0.0065 -0.1980 -0.0141
 4292SOL    HW124512   2.898   2.333  11.155 -1.2193 -0.9945  0.6680
 4292SOL    HW224513   2.961   2.254  11.047  0.1152  4.9717  0.2404
 4293SOL     OW24514   1.604   3.368   9.219 -0.1319 -0.7172  0.0514
 4293SOL    HW124515   1.664   3.405   9.284  2.6579 -0.6058 -2.5864
 4293SOL    HW224516   1.655   3.305   9.167  0.6873  0.5961 -0.7180
 4294SOL     OW24517   1.526   3.513   1.985 -0.3165  0.0477  0.1376
 4294SOL    HW124518   1.606   3.491   1.939  0.2394  0.4589  0.9031
 4294SOL    HW224519   1.557   3.574   2.052 -0.3409  1.2066 -0.8954
 4295SOL     OW24520   1.995   0.900   6.561 -0.1907  0.2526  0.2326
 4295SOL    HW124521   1.932   0.840   6.602  0.0764 -0.8577 -0.9824
 4295SOL    HW224522   2.026   0.954   6.634 -1.1577  0.0815  0.7769
 4296SOL     OW24523   0.252   2.478   8.589  0.8743  0.2891 -0.2982
 4296SOL    HW124524   0.219   2.388   8.595 -1.5087  0.9608 -2.8956
 4296SOL    HW224525   0.237   2.515   8.676  0.8772  0.8372 -0.5307
 4297SOL     OW24526   4.072   4.263   4.651 -0.4035 -0.0643  0.5563
 4297SOL    HW124527   4.073   4.338   4.591 -1.4031 -0.6213 -0.1410
 4297SOL    HW224528   4.099   4.192   4.594  0.7658  0.4149  0.5169
 4298SOL     OW24529   2.274   4.600   7.442  0.6102 -0.0839 -0.5739
 4298SOL    HW124530   2.330   4.670   7.477  0.3330 -0.2165  0.1381
 4298SOL    HW224531   2.211   4.654   7.394 -0.1519 -1.5443 -1.2071
 4299SOL     OW24532   3.664   0.629  12.082 -0.1940  0.0929 -0.0309
 4299SOL    HW124533   3.606   0.553  12.084  1.3400 -1.0544  0.6704
 4299SOL    HW224534   3.703   0.636  12.169 -1.9784 -2.1963  0.9495
 4300SOL     OW24535   2.204   0.205   3.163 -0.0376  0.7428 -0.1834
 4300SOL    HW124536   2.242   0.133   3.112 -0.1320  1.8237 -1.7491
 4300SOL    HW224537   2.131   0.231   3.108  0.5455 -0.8955 -1.7177
 4301SOL     OW24538   0.289   1.144   5.909 -0.1211 -0.5431 -0.2417
 4301SOL    HW124539   0.341   1.074   5.948 -0.7857 -1.1433 -0.4265
 4301SOL    HW224540   0.349   1.180   5.844  0.4405 -0.3192  0.4007
 4302SOL     OW24541   2.332   1.224  12.291 -0.4137 -0.0098 -0.5126
 4302SOL    HW124542   2.386   1.191  12.220 -2.4630 -0.1265 -2.0047
 4302SOL    HW224543   2.309   1.310  12.256 -1.9755 -0.2869 -0.1783
 4303SOL     OW24544   1.879   1.168   6.196  0.0689 -0.0544 -0.8363
 4303SOL    HW124545   1.813   1.121   6.145 -1.6283  0.8910  0.4710
 4303SOL    HW224546   1.943   1.105   6.229 -3.0890 -2.2178  1.0914
 4304SOL     OW24547   3.407   1.697  14.302  0.4923 -0.3886  0.1293
 4304SOL    HW124548   3.418   1.792  14.311 -0.5454 -0.5120  2.8507
 4304SOL    HW224549   3.434   1.673  14.391  0.5182  0.8425  0.4664
 4305SOL     OW24550   4.595   2.986   0.938  0.1077  0.0345  0.0000
 4305SOL    HW124551   4.532   3.054   0.961  1.4783  1.0395  0.7711
 4305SOL    HW224552   4.664   3.001   1.003  1.5314 -2.7436 -0.8497
 4306SOL     OW24553   2.736   1.929   3.774  0.5139 -0.2006  0.4097
 4306SOL    HW124554   2.760   1.900   3.862  1.7056  0.2667  0.2399
 4306SOL    HW224555   2.783   2.012   3.766 -0.5470  0.3181 -0.4458
 4307SOL     OW24556   2.729   0.053   8.681 -0.3148 -0.4403 -0.1600
 4307SOL    HW124557   2.659   0.119   8.681  1.0747  1.0139  0.5258
 4307SOL    HW224558   2.674   4.713   8.670 -0.8657  0.1933 -1.9932
 4308SOL     OW24559   4.727   2.017   6.603  0.1216  0.0984  0.1498
 4308SOL    HW124560   4.643   2.010   6.558 -0.0788 -1.3487  0.7384
 4308SOL    HW224561   0.021   2.094   6.556 -1.0328  0.4420 -0.0691
 4309SOL     OW24562   4.723   3.003   8.344 -0.1233  0.3562  0.5889
 4309SOL    HW124563   4.720   3.092   8.380 -2.5756  0.4600  0.1368
 4309SOL    HW224564   4.677   2.960   8.416  0.1024  0.4970  0.8177
 4310SOL     OW24565   3.328   0.409  13.343  0.1123 -0.4149 -0.1572
 4310SOL    HW124566   3.240   0.444  13.347  0.0961 -0.1898 -2.4222
 4310SOL    HW224567   3.382   0.475  13.385  0.1360  1.3877 -2.9924
 4311SOL     OW24568   4.004   2.634   5.757 -0.0536 -0.0987 -0.4092
 4311SOL    HW124569   4.026   2.716   5.713 -2.1015  0.6945  0.0602
 4311SOL    HW224570   3.923   2.662   5.798  0.1215 -0.0823 -0.0754
 4312SOL     OW24571   3.567   3.862   7.122 -0.3909  0.2366 -0.4965
 4312SOL    HW124572   3.575   3.872   7.217  0.6081 -0.0549 -0.5511
 4312SOL    HW224573   3.635   3.796   7.108  0.7327  1.3016 -0.0974
 4313SOL     OW24574   4.488   3.061   5.095  0.5420 -0.3288 -0.3463
 4313SOL    HW124575   4.522   3.056   5.184 -0.5883 -4.0221 -0.1259
 4313SOL    HW224576   4.500   2.968   5.077 -0.9128 -0.1471 -2.2544
 4314SOL     OW24577   1.626   1.677   4.090 -0.1476  0.6181 -0.2614
 4314SOL    HW124578   1.540   1.643   4.112  0.0848  0.2560  0.1064
 4314SOL    HW224579   1.683   1.603   4.115 -1.3992 -0.5773 -0.9778
 4315SOL     OW24580   2.610   0.800   0.708 -0.0758  0.3684 -0.6477
 4315SOL    HW124581   2.520   0.769   0.711 -0.1461  0.3867 -3.0553
 4315SOL    HW224582   2.588   0.878   0.760  0.1340 -0.1255  0.1863
 4316SOL     OW24583   4.111   2.108   7.646  0.1156 -0.2409  0.4832
 4316SOL    HW124584   4.047   2.040   7.665 -0.5515  0.4429  0.6635
 4316SOL    HW224585   4.054   2.180   7.621 -1.1068 -0.4509  2.6342
 4317SOL     OW24586   2.099   4.722   2.866 -0.3282  0.1314  0.6184
 4317SOL    HW124587   2.082   0.015   2.777 -2.2030  1.0218  1.2903
 4317SOL    HW224588   2.193   4.733   2.873 -0.2154 -0.8208  0.5704
 4318SOL     OW24589   1.832   0.016   7.475 -0.3241  0.7934  0.0990
 4318SOL    HW124590   1.892   4.727   7.543 -2.1434 -1.4862  0.7679
 4318SOL    HW224591   1.880   0.003   7.393  0.9721 -1.3207  1.2057
 4319SOL     OW24592   0.107   1.842   7.726  0.5858  0.3066  0.7562
 4319SOL    HW124593   0.108   1.772   7.791 -0.9253  0.3960  0.8680
 4319SOL    HW224594   0.024   1.827   7.682  1.2921  0.8535 -0.7995
 4320SOL     OW24595   3.590   2.353   4.952 -0.6115 -0.1894  0.0819
 4320SOL    HW124596   3.622   2.313   4.871  1.8542  0.1458  0.8780
 4320SOL    HW224597   3.547   2.434   4.922 -0.4125 -0.4183 -0.8207
 4321SOL     OW24598   1.406   1.519   7.632  0.7094 -0.3370 -0.2119
 4321SOL    HW124599   1.425   1.444   7.687  1.1157 -0.3185 -0.3229
 4321SOL    HW224600   1.319   1.490   7.605  1.2857 -1.5656 -0.7583
 4322SOL     OW24601   0.654   3.363   6.031 -0.1558 -0.1477  0.0579
 4322SOL    HW124602   0.684   3.376   6.121  1.7057 -0.6567 -0.4894
 4322SOL    HW224603   0.597   3.439   6.031  3.2273  2.4141 -3.0179
 4323SOL     OW24604   1.542   2.034   8.012  0.0559  0.7787 -0.0872
 4323SOL    HW124605   1.534   1.945   8.046  3.3670  0.7363  0.6022
 4323SOL    HW224606   1.462   2.037   7.961  0.8574  2.7499 -1.2506
 4324SOL     OW24607   4.032   0.781   4.157  0.6832 -0.1458 -0.4608
 4324SOL    HW124608   4.084   0.791   4.077  0.4661  2.0217 -0.3231
 4324SOL    HW224609   3.960   0.838   4.131  1.6370  0.2125 -2.3347
 4325SOL     OW24610   1.864   3.088   1.686 -0.5381 -0.4426 -0.4245
 4325SOL    HW124611   1.954   3.086   1.654 -0.7404  0.3846 -1.0441
 4325SOL    HW224612   1.817   3.031   1.626 -1.6633 -0.9277  0.9039
 4326SOL     OW24613   3.676   3.600   4.998  0.2906  0.2104  0.0735
 4326SOL    HW124614   3.691   3.539   5.070 -1.6236 -1.7487 -1.2124
 4326SOL    HW224615   3.720   3.680   5.029  0.6734 -0.0083  0.0891
 4327SOL     OW24616   3.888   0.574   8.097 -0.5907  0.2817  0.6810
 4327SOL    HW124617   3.825   0.609   8.034  0.2958  2.2020  0.8644
 4327SOL    HW224618   3.828   0.556   8.169 -1.0476 -0.3756  0.1362
 4328SOL     OW24619   3.556   2.419   0.142 -0.0523  0.2289 -0.2180
 4328SOL    HW124620   3.470   2.454   0.118 -0.5393 -0.5309  0.4519
 4328SOL    HW224621   3.613   2.490   0.112 -1.0869  0.7532 -0.9506
 4329SOL     OW24622   2.461   2.648  13.334  0.3046 -0.2862  0.2778
 4329SOL    HW124623   2.386   2.590  13.320  1.7108 -2.3808  1.3936
 4329SOL    HW224624   2.509   2.595  13.397 -0.7693 -1.8111 -0.2094
 4330SOL     OW24625   0.727   1.496  13.639 -0.0501  0.2996 -0.0672
 4330SOL    HW124626   0.727   1.482  13.544  0.1820  0.0382 -0.0309
 4330SOL    HW224627   0.801   1.444  13.671  1.2302  0.8544 -2.1533
 4331SOL     OW24628   0.597   1.224   7.719  0.2289 -0.2295 -0.4191
 4331SOL    HW124629   0.501   1.216   7.718  0.1497  0.7277 -0.5427
 4331SOL    HW224630   0.606   1.295   7.782  1.2936 -0.3202 -0.4701
 4332SOL     OW24631   0.440   1.934   1.011  0.1913  0.0439  0.0585
 4332SOL    HW124632   0.368   1.939   1.074 -0.0556  1.1111 -0.2925
 4332SOL    HW224633   0.417   1.849   0.974 -0.0436  1.0183 -2.0437
 4333SOL     OW24634   2.106   0.187  17.168 -0.1824  0.6093  0.3576
 4333SOL    HW124635   2.156   0.268  17.164 -0.2201  0.3877 -4.7681
 4333SOL    HW224636   2.161   0.133  17.110 -2.1822 -0.7955 -0.2421
 4334SOL     OW24637   2.723   0.958   7.319 -0.4790  0.0059 -0.3475
 4334SOL    HW124638   2.745   0.928   7.231  0.6484 -0.5334  0.1178
 4334SOL    HW224639   2.796   1.015   7.345  1.0289 -2.3082  0.4506
 4335SOL     OW24640   1.198   4.683   6.049 -0.8882 -0.4503  0.1260
 4335SOL    HW124641   1.181   4.715   6.138  0.1974  2.5495 -0.7678
 4335SOL    HW224642   1.219   0.026   6.005  0.1422 -0.9160 -0.2379
 4336SOL     OW24643   2.944   0.105   2.557  0.0503  0.3183 -0.3673
 4336SOL    HW124644   2.954   0.066   2.644 -2.6138 -0.4123 -0.3926
 4336SOL    HW224645   3.035   0.091   2.531 -0.1504 -0.1417 -0.8102
 4337SOL     OW24646   2.556   4.702   3.694  0.0766  0.3915 -0.6584
 4337SOL    HW124647   2.474   4.718   3.741  0.5361 -2.0951  0.9959
 4337SOL    HW224648   2.533   4.631   3.634  2.3610 -0.0308 -1.0646
 4338SOL     OW24649   0.112   2.032   3.716 -0.0834  0.7246 -0.0152
 4338SOL    HW124650   0.023   1.999   3.729 -1.1858  4.5101  2.1170
 4338SOL    HW224651   0.137   1.983   3.637 -0.3576  0.5406  0.0145
 4339SOL     OW24652   0.075   0.176   6.032 -0.2812 -0.5326  0.2311
 4339SOL    HW124653   0.138   0.173   6.105 -2.1024 -1.1689  1.7753
 4339SOL    HW224654   0.124   0.152   5.954 -1.7250 -1.8613 -0.2594
 4340SOL     OW24655   3.928   2.008   6.931  0.0386  0.4806  0.4910
 4340SOL    HW124656   3.950   1.935   6.872 -1.5848 -1.2062  1.9627
 4340SOL    HW224657   3.959   1.977   7.016  2.7423 -2.8019 -1.6765
 4341SOL     OW24658   0.862   1.789   5.694  0.2123 -0.3442  0.1296
 4341SOL    HW124659   0.945   1.785   5.648  0.6765 -1.1608  1.0457
 4341SOL    HW224660   0.820   1.706   5.671 -1.5842  0.4113  0.6318
 4342SOL     OW24661   3.041   3.519   6.678 -0.1516 -0.2521  0.3128
 4342SOL    HW124662   2.980   3.503   6.750  0.2785 -2.2980  0.2145
 4342SOL    HW224663   2.985   3.495   6.604 -0.3106  0.2565  0.2672
 4343SOL     OW24664   0.918   3.753   2.551  0.6369 -0.3269  0.1115
 4343SOL    HW124665   0.832   3.790   2.532  1.2496  0.1164 -1.8731
 4343SOL    HW224666   0.944   3.779   2.639  2.1995  2.8831 -1.2693
 4344SOL     OW24667   1.834   4.577   8.118  0.0486 -0.5049  0.4633
 4344SOL    HW124668   1.774   4.538   8.183  0.8612 -0.9139  0.9636
 4344SOL    HW224669   1.860   4.495   8.076  0.8369  0.5243 -1.0698
 4345SOL     OW24670   0.037   0.397   7.813  0.9397 -0.1416 -0.4271
 4345SOL    HW124671   4.724   0.338   7.758 -0.2818 -1.2508  1.9201
 4345SOL    HW224672   0.111   0.423   7.758  0.4128  2.1964 -0.0325
 4346SOL     OW24673   1.068   1.650   5.564  0.4294 -0.1964 -0.1136
 4346SOL    HW124674   1.150   1.601   5.557  0.3115 -0.7292  2.2155
 4346SOL    HW224675   1.021   1.591   5.624  0.9820 -0.7026 -0.1813
 4347SOL     OW24676   4.020   1.060  16.477 -0.1947  0.3054 -0.3920
 4347SOL    HW124677   4.049   1.145  16.510  0.0175 -0.1710  0.6642
 4347SOL    HW224678   4.104   1.016  16.469  0.5313  1.9585 -1.9344
 4348SOL     OW24679   4.364   2.778  15.827 -0.2761  0.6703  0.3646
 4348SOL    HW124680   4.376   2.872  15.814  0.5140  0.0869 -3.0845
 4348SOL    HW224681   4.359   2.775  15.922 -0.3370  0.8409  0.3677
 4349SOL     OW24682   2.003   3.417   7.535  0.1353 -0.2730  0.2397
 4349SOL    HW124683   1.931   3.459   7.582  0.6301 -1.1673  1.7998
 4349SOL    HW224684   2.015   3.338   7.586  1.2221 -1.5027 -1.9234
 4350SOL     OW24685   3.534   0.575   8.589 -0.4170 -0.1362  0.0098
 4350SOL    HW124686   3.556   0.667   8.596  1.6672 -0.5297 -1.4939
 4350SOL    HW224687   3.518   0.559   8.682 -2.4552  1.9087  0.0245
 4351SOL     OW24688   2.206   3.749   1.515 -0.0837 -0.0094  0.3034
 4351SOL    HW124689   2.237   3.767   1.604  1.9004  1.4209 -0.6835
 4351SOL    HW224690   2.269   3.686   1.482  1.3098  0.0838  2.7993
 4352SOL     OW24691   0.472   1.892   2.697  0.5500  0.0013  0.2878
 4352SOL    HW124692   0.525   1.961   2.737  0.4939  0.0857  0.2163
 4352SOL    HW224693   0.400   1.939   2.655  0.4822 -1.5442 -1.3365
 4353SOL     OW24694   2.343   3.633   8.506  0.3091 -0.3810  0.1631
 4353SOL    HW124695   2.408   3.692   8.469  0.8671  0.0230  1.7841
 4353SOL    HW224696   2.270   3.644   8.446 -1.1869  0.6918  2.1833
 4354SOL     OW24697   4.089   4.333   8.362  0.5078 -0.0249 -0.4178
 4354SOL    HW124698   4.037   4.411   8.342 -1.2263 -0.7265  1.3557
 4354SOL    HW224699   4.167   4.339   8.306  1.0366 -0.5057  0.2631
 4355SOL     OW24700   0.416   3.861   2.377  0.1463  0.0794 -0.8748
 4355SOL    HW124701   0.401   3.935   2.318 -0.7791  0.6575  0.0884
 4355SOL    HW224702   0.356   3.799   2.335 -0.5095  0.3737 -0.3819
 4356SOL     OW24703   4.089   4.076   9.363  0.6184  0.2822 -0.4419
 4356SOL    HW124704   4.142   4.043   9.436 -0.9689 -0.3069  0.4388
 4356SOL    HW224705   4.014   4.100   9.416  0.2458 -2.7782  0.4037
 4357SOL     OW24706   3.788   1.369  10.082  0.5739 -0.3554 -0.6608
 4357SOL    HW124707   3.772   1.300  10.018 -1.1548 -0.5333 -0.0452
 4357SOL    HW224708   3.867   1.342  10.129 -0.3811 -0.4778  0.8703
 4358SOL     OW24709   1.784   3.094   8.660  0.3119  0.0086  0.1110
 4358SOL    HW124710   1.741   3.159   8.604  3.6703  2.8746  0.8795
 4358SOL    HW224711   1.787   3.132   8.748 -1.5203 -0.4679  0.3810
 4359SOL     OW24712   3.958   3.132   7.704  0.2550 -0.1687 -0.5071
 4359SOL    HW124713   3.905   3.122   7.624 -1.5271 -1.3614  0.8195
 4359SOL    HW224714   3.903   3.078   7.760  0.6778 -1.9766 -1.8330
 4360SOL     OW24715   3.210   0.805   4.700  0.0255  0.4952  0.3031
 4360SOL    HW124716   3.167   0.880   4.658  0.9334  0.4469 -0.7127
 4360SOL    HW224717   3.142   0.799   4.767  1.4968 -2.1032  1.5810
 4361SOL     OW24718   1.508   4.492   6.723 -0.0395  0.3230 -0.7859
 4361SOL    HW124719   1.577   4.553   6.750 -2.4453  1.4440  2.7886
 4361SOL    HW224720   1.559   4.426   6.674 -0.7897  1.1819 -2.7169
 4362SOL     OW24721   1.709   1.553   0.147 -0.3797  0.5614  0.5105
 4362SOL    HW124722   1.647   1.550   0.075  0.0697  0.3118  0.1358
 4362SOL    HW224723   1.727   1.460   0.162  0.6367  0.8888  1.3694
 4363SOL     OW24724   1.355   2.856   6.996  0.0221 -0.3638  0.4258
 4363SOL    HW124725   1.352   2.859   6.900  0.4459 -0.7540  0.4038
 4363SOL    HW224726   1.444   2.822   7.003  0.1824 -0.0386 -0.0002
 4364SOL     OW24727   4.024   3.962  14.487 -0.0639  0.0060  0.1199
 4364SOL    HW124728   4.070   4.009  14.556  1.5946 -1.0708 -0.2435
 4364SOL    HW224729   4.025   3.871  14.517  1.9291 -0.5076 -1.5134
 4365SOL     OW24730   2.015   0.297  15.661  0.0340 -0.3257  0.0026
 4365SOL    HW124731   2.030   0.389  15.685 -2.2601 -0.0287  0.3466
 4365SOL    HW224732   2.073   0.299  15.585  0.9425 -0.2405  0.7023
 4366SOL     OW24733   2.983   0.140   7.284 -0.2584  0.3585  0.2821
 4366SOL    HW124734   2.908   0.162   7.339 -2.2374 -2.1803 -1.4138
 4366SOL    HW224735   2.949   0.147   7.195  3.2265 -2.0827 -1.2515
 4367SOL     OW24736   0.365   3.745   0.690  0.4588 -0.1120 -0.7680
 4367SOL    HW124737   0.337   3.747   0.781  1.1238  0.8861 -0.5950
 4367SOL    HW224738   0.456   3.717   0.692  0.6163  0.6296  1.5555
 4368SOL     OW24739   3.705   4.049  15.357 -0.2707  0.3706  0.3820
 4368SOL    HW124740   3.739   4.127  15.400 -1.2197  2.2476 -2.3187
 4368SOL    HW224741   3.688   4.087  15.271  1.6021 -1.4948 -0.8045
 4369SOL     OW24742   0.587   4.521   6.757  0.0466  0.2729  0.3554
 4369SOL    HW124743   0.662   4.528   6.816  0.0605  0.5368  0.3086
 4369SOL    HW224744   0.548   4.436   6.775  0.5487  0.0072  0.2077
 4370SOL     OW24745   3.109   2.492   3.887 -0.2745 -0.4002 -0.1059
 4370SOL    HW124746   3.139   2.569   3.840 -0.3126 -0.8879 -0.9254
 4370SOL    HW224747   3.183   2.434   3.871  0.0091 -0.2874  0.7903
 4371SOL     OW24748   1.626   2.409   8.972  0.5436 -0.7376  0.1736
 4371SOL    HW124749   1.708   2.410   8.922 -0.3695  1.2437 -1.2218
 4371SOL    HW224750   1.639   2.353   9.049 -1.8216  0.6996  1.6028
 4372SOL     OW24751   4.654   1.435   6.801 -0.7723  0.0740  0.1261
 4372SOL    HW124752   4.581   1.439   6.864 -1.0122 -1.5009 -0.0521
 4372SOL    HW224753   4.648   1.519   6.755  0.1363 -0.6893 -1.3804
 4373SOL     OW24754   2.728   2.524   0.002 -0.1247 -0.7720  0.5048
 4373SOL    HW124755   2.718   2.432  17.729 -0.1842  0.1195 -2.7601
 4373SOL    HW224756   2.751   2.499   0.091 -1.2568 -1.5981  0.5666
 4374SOL     OW24757   0.104   0.634  15.225 -0.0773  0.5945  0.1165
 4374SOL    HW124758   0.089   0.728  15.227 -3.2142  0.0766  0.8244
 4374SOL    HW224759   0.166   0.638  15.298 -0.0883  0.2066  0.1506
 4375SOL     OW24760   3.655   1.095   6.754 -0.1299  0.0791  0.1896
 4375SOL    HW124761   3.649   1.188   6.778 -1.7706 -0.4875  2.0179
 4375SOL    HW224762   3.570   1.061   6.784  1.3757 -3.5658  0.2716
 4376SOL     OW24763   0.853   2.419   5.259 -0.0394  0.3189 -0.4293
 4376SOL    HW124764   0.931   2.464   5.291 -1.0073  0.6672  1.4397
 4376SOL    HW224765   0.882   2.415   5.168 -1.0969  0.3515 -0.7682
 4377SOL     OW24766   1.594   2.804  10.589 -0.3940 -0.1488 -0.2755
 4377SOL    HW124767   1.601   2.896  10.566  2.5887 -0.8145 -1.9904
 4377SOL    HW224768   1.519   2.764  10.544 -1.2177  2.4105 -1.2043
 4378SOL     OW24769   2.616   4.667  15.453 -0.5357  0.2053 -0.7099
 4378SOL    HW124770   2.546   4.630  15.400  1.6527 -2.5670 -1.6370
 4378SOL    HW224771   2.575   4.672  15.540 -1.1843 -0.7702 -0.9629
 4379SOL     OW24772   0.007   2.794  13.733 -0.9275  0.1288  0.2885
 4379SOL    HW124773   4.689   2.843  13.673 -2.3398 -0.7492  0.9126
 4379SOL    HW224774   0.050   2.751  13.659  1.0768  0.6716  1.1455
 4380SOL     OW24775   2.039   4.699   4.465  0.1560 -0.0673 -0.0743
 4380SOL    HW124776   2.040   0.055   4.479  1.8682  0.1933 -1.9540
 4380SOL    HW224777   2.003   4.688   4.378 -0.3415 -0.2138  0.1491
 4381SOL     OW24778   3.170   2.964   0.400  0.1629 -0.3587 -0.0601
 4381SOL    HW124779   3.165   2.933   0.491  0.3280  2.4840  0.9097
 4381SOL    HW224780   3.090   3.015   0.387 -0.7310 -1.8690 -0.4488
 4382SOL     OW24781   3.065   2.121  12.372  0.3342  0.2096 -0.4559
 4382SOL    HW124782   3.023   2.037  12.354  0.7944  0.0045 -0.5752
 4382SOL    HW224783   3.118   2.102  12.450 -0.4280  0.8482  0.2147
 4383SOL     OW24784   0.320   4.376   4.133 -0.1001 -0.2325 -0.3666
 4383SOL    HW124785   0.309   4.354   4.041  0.8158  4.2502 -1.5452
 4383SOL    HW224786   0.349   4.467   4.127  1.1424 -0.6405 -0.5007
 4384SOL     OW24787   3.537   0.346   0.547  0.0124  0.2403 -0.3544
 4384SOL    HW124788   3.508   0.321   0.635  0.4640 -1.5981 -0.7152
 4384SOL    HW224789   3.465   0.319   0.490 -0.5921  2.5115 -0.6377
 4385SOL     OW24790   0.343   3.004  13.354  0.0837 -0.0429  0.3502
 4385SOL    HW124791   0.253   3.011  13.385  0.2104  0.4713  0.6146
 4385SOL    HW224792   0.374   2.940  13.418 -0.0052  0.1529  0.5909
 4386SOL     OW24793   2.143   0.587   8.852  0.0841 -0.4556 -0.8148
 4386SOL    HW124794   2.158   0.636   8.932 -2.8496 -0.3189 -0.3367
 4386SOL    HW224795   2.202   0.626   8.788  0.5940 -0.8183 -0.5665
 4387SOL     OW24796   3.949   1.582   8.409  0.3139  0.0251  0.6175
 4387SOL    HW124797   3.966   1.641   8.336  0.9071 -0.0869  0.6589
 4387SOL    HW224798   3.918   1.505   8.362  1.4656  1.2378 -2.1155
 4388SOL     OW24799   2.837   0.949  11.580  0.4563 -0.2305  0.4980
 4388SOL    HW124800   2.800   1.037  11.579 -2.6715 -1.5860 -2.4345
 4388SOL    HW224801   2.869   0.948  11.490  0.5874 -2.4554  0.5573
 4389SOL     OW24802   0.506   1.457   2.843 -0.3102 -0.4545 -0.3183
 4389SOL    HW124803   0.476   1.387   2.786  1.6215 -0.0642 -1.8140
 4389SOL    HW224804   0.437   1.523   2.837 -1.2839 -1.5134 -0.7096
 4390SOL     OW24805   3.413   0.781   3.177 -0.6580 -0.7499  0.3668
 4390SOL    HW124806   3.377   0.708   3.226 -1.7564 -1.6875 -1.8709
 4390SOL    HW224807   3.328   0.814   3.151 -1.1170  0.4661  3.3937
 4391SOL     OW24808   3.992   2.648   2.495 -0.0504 -0.2612 -0.2885
 4391SOL    HW124809   4.048   2.709   2.446  0.8304 -1.1166 -0.3468
 4391SOL    HW224810   4.009   2.683   2.583  0.5620  1.1005 -0.9346
 4392SOL     OW24811   3.382   1.808   0.575 -0.3283  0.5088  0.3285
 4392SOL    HW124812   3.333   1.774   0.500  0.4991 -0.4435  0.2208
 4392SOL    HW224813   3.349   1.898   0.575 -0.0685  0.6037  1.3062
 4393SOL     OW24814   1.633   0.517  17.010 -0.0874  0.2029  0.1473
 4393SOL    HW124815   1.553   0.465  17.007 -0.9293  1.4303  1.3951
 4393SOL    HW224816   1.673   0.475  17.086  0.7502 -1.0340 -0.9773
 4394SOL     OW24817   1.041   0.922   9.734 -0.2164 -0.0639  0.2666
 4394SOL    HW124818   0.997   0.999   9.698 -0.1670  0.0592  0.4726
 4394SOL    HW224819   1.109   0.914   9.667 -2.6108 -1.8173 -1.9548
 4395SOL     OW24820   2.221   4.316  12.984 -0.2278  0.1814 -0.3737
 4395SOL    HW124821   2.133   4.301  12.952 -0.8785  0.2267  1.4006
 4395SOL    HW224822   2.264   4.362  12.912 -0.8216 -2.6337 -2.5497
 4396SOL     OW24823   0.997   4.149   8.988  0.1514  0.0871  1.2196
 4396SOL    HW124824   0.952   4.234   8.980 -0.3052 -0.3155 -0.4292
 4396SOL    HW224825   1.086   4.173   8.964  0.3499 -0.8949  0.9994
 4397SOL     OW24826   3.489   2.228   7.979  0.2646 -0.7095  0.0190
 4397SOL    HW124827   3.534   2.308   7.951 -1.0007 -0.6625 -1.9006
 4397SOL    HW224828   3.562   2.176   8.011  0.0537 -1.2614 -0.3995
 4398SOL     OW24829   0.939   2.986   4.446  0.1093 -0.4220  0.3865
 4398SOL    HW124830   0.937   2.891   4.455 -2.0032 -0.6273 -2.0766
 4398SOL    HW224831   1.034   2.994   4.435 -0.1989  1.1960 -1.0780
 4399SOL     OW24832   0.705   1.931  12.767  0.1116 -0.3080 -0.4047
 4399SOL    HW124833   0.631   1.895  12.815  0.2606  0.2755  0.2612
 4399SOL    HW224834   0.726   1.858  12.709 -0.1393  0.3650 -1.3528
 4400SOL     OW24835   4.547   3.112   3.967 -0.0325 -0.0585 -0.4545
 4400SOL    HW124836   4.552   3.069   3.881  2.9705  0.2177 -0.4265
 4400SOL    HW224837   4.451   3.120   3.968 -0.2857 -2.9545 -0.6207
 4401SOL     OW24838   3.187   1.276   2.892  0.2988  0.0744  0.1496
 4401SOL    HW124839   3.198   1.278   2.987 -3.4125  0.9823  0.5521
 4401SOL    HW224840   3.256   1.341   2.878  0.4047  0.2588  1.4812
 4402SOL     OW24841   4.685   1.694   3.315  0.2611 -0.3291  0.1547
 4402SOL    HW124842   4.593   1.687   3.288 -0.3448  1.0784  1.8267
 4402SOL    HW224843   4.721   1.606   3.306  0.8316 -0.1580  0.7391
 4403SOL     OW24844   2.815   2.462   3.892 -0.4814  0.5028 -0.2614
 4403SOL    HW124845   2.785   2.541   3.938 -2.4902 -1.3594  1.6759
 4403SOL    HW224846   2.907   2.489   3.893 -0.3956  0.1278  1.8463
 4404SOL     OW24847   4.314   1.485  14.178 -0.4198  0.4492 -0.5631
 4404SOL    HW124848   4.262   1.560  14.149 -0.8993  0.0843 -0.6646
 4404SOL    HW224849   4.286   1.488  14.270  0.8271  0.1778 -0.1829
 4405SOL     OW24850   1.299   2.175   4.054  0.3392 -0.1058 -0.1448
 4405SOL    HW124851   1.247   2.125   3.991 -0.2886  1.1607 -0.6282
 4405SOL    HW224852   1.352   2.226   3.992 -0.0168  1.0026  0.4628
 4406SOL     OW24853   1.972   0.955   2.705  0.0525  0.3349 -0.4082
 4406SOL    HW124854   2.038   0.947   2.636 -0.4396  0.4265 -0.8971
 4406SOL    HW224855   2.031   1.003   2.763 -0.3856  0.1827  0.1591
 4407SOL     OW24856   1.560   3.584   5.461 -0.1414 -0.1449  0.3124
 4407SOL    HW124857   1.581   3.521   5.391  0.1380  1.3988 -1.0058
 4407SOL    HW224858   1.613   3.659   5.434 -0.1013 -1.0457 -2.1291
 4408SOL     OW24859   1.101   3.699   3.611 -0.1060  0.4075  0.0279
 4408SOL    HW124860   1.085   3.645   3.534  0.9961 -0.3587  0.3435
 4408SOL    HW224861   1.173   3.656   3.657  0.6170  1.5419 -0.0372
 4409SOL     OW24862   0.036   4.537   4.575  0.1778 -0.1610 -0.2812
 4409SOL    HW124863   4.725   4.456   4.583  0.3914 -0.1147  1.5553
 4409SOL    HW224864   0.126   4.510   4.557  0.1487  1.4400 -2.8456
 4410SOL     OW24865   0.513   0.700   3.704  0.2361 -0.1172 -0.9055
 4410SOL    HW124866   0.434   0.753   3.694  1.4829  2.0730  1.0414
 4410SOL    HW224867   0.505   0.665   3.793 -0.7891 -1.4075 -1.5016
 4411SOL     OW24868   2.477   0.859   3.127  0.3324  0.2917 -0.2830
 4411SOL    HW124869   2.532   0.800   3.075  0.6311  1.5617 -1.4299
 4411SOL    HW224870   2.422   0.895   3.057 -0.9176 -1.2711 -0.1078
 4412SOL     OW24871   2.784   0.161   6.606  0.7182 -0.1929  0.1972
 4412SOL    HW124872   2.737   0.163   6.523  1.7475 -2.5642 -0.4370
 4412SOL    HW224873   2.872   0.181   6.573 -0.1081  3.0965 -0.0106
 4413SOL     OW24874   0.671   0.738   6.596  0.1805  0.0614 -0.6213
 4413SOL    HW124875   0.753   0.737   6.646 -0.0127  1.6325 -0.2841
 4413SOL    HW224876   0.626   0.814   6.633  0.3185 -0.6298  0.9783
 4414SOL     OW24877   3.342   1.267   7.782  0.0185 -0.0421 -0.5061
 4414SOL    HW124878   3.275   1.214   7.740 -1.3143  0.9415  0.3528
 4414SOL    HW224879   3.349   1.321   7.704 -2.0126  1.2064  0.1810
 4415SOL     OW24880   3.707   0.431   5.086  0.4989  0.0725  0.4355
 4415SOL    HW124881   3.764   0.454   5.013  3.0970  1.4591  2.9211
 4415SOL    HW224882   3.763   0.451   5.161  1.7874  0.0039 -0.5110
 4416SOL     OW24883   3.059   4.398  17.519 -0.6178  0.1344  0.3669
 4416SOL    HW124884   2.984   4.436  17.474  0.2011 -0.7793 -1.7638
 4416SOL    HW224885   3.036   4.305  17.514 -0.8319  0.1819  0.4937
 4417SOL     OW24886   3.755   2.582   3.738  0.4062 -0.2774 -0.1109
 4417SOL    HW124887   3.850   2.574   3.727  0.9194  1.3047  3.1058
 4417SOL    HW224888   3.723   2.553   3.652  0.3243 -0.5451  0.0099
 4418SOL     OW24889   1.760   4.346   5.998  0.1727 -0.5711 -0.1932
 4418SOL    HW124890   1.702   4.409   6.041  1.8044  1.0543 -0.4238
 4418SOL    HW224891   1.805   4.324   6.080  0.5594  2.2327  0.3223
 4419SOL     OW24892   1.769   0.945   3.466 -0.7491  0.0523  0.3251
 4419SOL    HW124893   1.742   0.873   3.409  2.1189  0.3067 -1.3274
 4419SOL    HW224894   1.698   0.935   3.530 -1.0547 -0.6195 -0.1190
 4420SOL     OW24895   0.218   1.578   5.036 -0.2375 -0.2993 -0.3791
 4420SOL    HW124896   0.231   1.585   5.130 -0.5357  2.0851 -0.5148
 4420SOL    HW224897   0.201   1.671   5.020 -1.3716 -0.5000 -0.3724
 4421SOL     OW24898   3.545   4.521   4.010 -0.3447  0.6138 -0.1261
 4421SOL    HW124899   3.549   4.563   4.095 -0.3109  2.9028 -1.2562
 4421SOL    HW224900   3.526   4.430   4.030  0.5197  0.3390 -0.5172
 4422SOL     OW24901   1.599   2.692  11.609 -0.0694 -0.1683  0.1164
 4422SOL    HW124902   1.518   2.678  11.560  1.6473  1.6175 -3.2391
 4422SOL    HW224903   1.566   2.712  11.696 -0.7430  1.7793 -0.5813
 4423SOL     OW24904   3.707   4.259   6.588  0.0496 -0.0768 -0.5725
 4423SOL    HW124905   3.636   4.303   6.636  0.5356  0.1761 -0.0784
 4423SOL    HW224906   3.659   4.224   6.514 -0.0347 -0.2701 -0.4258
 4424SOL     OW24907   3.285   2.456   6.883  0.2503  0.5818  0.0492
 4424SOL    HW124908   3.333   2.538   6.895  2.3055 -0.8248  1.4443
 4424SOL    HW224909   3.352   2.387   6.885  1.0182  1.2809 -1.1336
 4425SOL     OW24910   3.971   0.625   5.197 -0.2697 -0.0748  0.2616
 4425SOL    HW124911   4.034   0.554   5.184 -1.9702 -1.1416 -2.2740
 4425SOL    HW224912   3.992   0.657   5.285 -1.5110  1.6284 -0.0619
 4426SOL     OW24913   4.089   0.379   5.195  0.3042  0.1752  0.3835
 4426SOL    HW124914   4.056   0.337   5.116 -0.8016  1.0739  0.3798
 4426SOL    HW224915   4.172   0.335   5.216 -0.3326 -0.3365  1.7889
 4427SOL     OW24916   2.253   3.248   4.554  0.2658 -0.4154 -0.1248
 4427SOL    HW124917   2.178   3.194   4.529  0.8369 -1.4807  0.4756
 4427SOL    HW224918   2.206   3.290   4.626  3.0079  1.3050  0.6324
 4428SOL     OW24919   3.584   4.270  14.313 -0.6560  0.5423  0.3648
 4428SOL    HW124920   3.616   4.193  14.265 -0.8487  0.0041  1.0925
 4428SOL    HW224921   3.666   4.317  14.308  0.2754 -1.1302 -0.1961
 4429SOL     OW24922   1.356   4.333   9.665 -0.1520 -0.0085  0.3051
 4429SOL    HW124923   1.435   4.385   9.679 -0.4012  0.7200 -0.9428
 4429SOL    HW224924   1.341   4.287   9.747  0.0888 -1.0114 -0.2171
 4430SOL     OW24925   3.648   0.042   8.323  0.7495 -0.1418 -0.6249
 4430SOL    HW124926   3.616   0.129   8.299  1.6202 -0.2581 -2.2349
 4430SOL    HW224927   3.574   4.723   8.308 -0.1495  1.2683 -1.6633
 4431SOL     OW24928   1.415   0.999   2.119  0.1941  0.0297  0.2155
 4431SOL    HW124929   1.445   1.072   2.064  0.8407 -1.3335 -1.2447
 4431SOL    HW224930   1.482   0.938   2.088  0.3814  2.4094 -4.1780
 4432SOL     OW24931   3.467   1.338  16.249  0.3699 -0.2121 -0.1210
 4432SOL    HW124932   3.483   1.425  16.286 -0.7903 -0.8104  1.7552
 4432SOL    HW224933   3.497   1.365  16.162 -0.7881 -2.7972 -1.3408
 4433SOL     OW24934   1.709   2.363   7.424  0.2514  0.1342  0.0289
 4433SOL    HW124935   1.742   2.338   7.337 -1.3088  0.5837 -0.6927
 4433SOL    HW224936   1.614   2.372   7.420  0.3302  0.7231 -0.7567
 4434SOL     OW24937   1.191   0.715   5.145  0.1267 -0.3883 -0.1880
 4434SOL    HW124938   1.125   0.762   5.095 -1.0035 -0.8367  0.8724
 4434SOL    HW224939   1.155   0.681   5.227  1.2188 -0.0185  0.4392
 4435SOL     OW24940   1.669   0.149   7.692  0.1749  0.2563 -0.1036
 4435SOL    HW124941   1.606   0.187   7.631  0.5918  0.0343 -0.6710
 4435SOL    HW224942   1.726   0.108   7.627  2.6568  1.3453  1.3741
 4436SOL     OW24943   2.926   4.632   2.141  0.2755  0.1696  0.3672
 4436SOL    HW124944   2.874   4.707   2.111  0.7846  0.9984  1.5712
 4436SOL    HW224945   3.005   4.682   2.162  0.5606 -0.5468  1.0104
 4437SOL     OW24946   3.908   4.356   3.834  0.2075  0.1661  0.0802
 4437SOL    HW124947   3.894   4.420   3.904  2.9667  0.7858  0.0766
 4437SOL    HW224948   3.901   4.268   3.872 -2.3087 -0.2645 -1.3735
 4438SOL     OW24949   2.545   3.822   4.271 -0.4063 -0.5450  0.8329
 4438SOL    HW124950   2.579   3.765   4.202 -1.0706 -0.0618  0.1128
 4438SOL    HW224951   2.614   3.810   4.336  1.1323  3.2837 -0.0715
 4439SOL     OW24952   3.932   4.123  15.123 -0.1671  0.5229 -0.4188
 4439SOL    HW124953   3.842   4.096  15.108  0.5441 -0.6795 -2.5012
 4439SOL    HW224954   3.959   4.059  15.189 -0.9439  0.3185 -0.2984
 4440SOL     OW24955   2.538   2.280   9.906  0.0698  0.0463 -0.3239
 4440SOL    HW124956   2.450   2.249   9.887  0.6138 -0.2338 -2.3931
 4440SOL    HW224957   2.603   2.234   9.853  1.0240  3.0962 -1.8487
 4441SOL     OW24958   1.935   2.643   5.508  0.2714  0.2149 -0.5269
 4441SOL    HW124959   1.941   2.571   5.447 -0.1383 -1.2130  1.1129
 4441SOL    HW224960   1.843   2.658   5.527  0.5469  1.4992 -0.1875
 4442SOL     OW24961   1.542   0.156   8.888  0.0939 -0.4002 -0.2946
 4442SOL    HW124962   1.468   0.115   8.932  0.0814 -1.2617 -1.1007
 4442SOL    HW224963   1.582   0.210   8.956 -0.5124  0.1014 -0.3406
 4443SOL     OW24964   4.109   3.420   3.671  0.2489 -0.5854  0.4569
 4443SOL    HW124965   4.085   3.512   3.663 -1.7729 -0.9848  2.0626
 4443SOL    HW224966   4.034   3.368   3.644  0.2746 -0.2482 -0.2905
 4444SOL     OW24967   1.387   0.657   3.705 -0.2670  0.1530 -0.4317
 4444SOL    HW124968   1.404   0.635   3.796  1.4573  0.1606 -0.7515
 4444SOL    HW224969   1.292   0.659   3.713 -0.1649 -1.1812  1.0137
 4445SOL     OW24970   3.772   2.059   9.180 -0.0579 -0.1540  0.0852
 4445SOL    HW124971   3.858   2.092   9.205 -0.1212 -0.7761  1.1249
 4445SOL    HW224972   3.717   2.132   9.210 -0.4943  0.1810 -1.5231
 4446SOL     OW24973   2.148   3.133   1.628 -0.6258 -0.3413 -0.5485
 4446SOL    HW124974   2.222   3.124   1.567 -0.6839  2.7092 -1.0378
 4446SOL    HW224975   2.191   3.182   1.697 -1.0789 -1.6154  0.6340
 4447SOL     OW24976   2.376   2.718   4.082 -0.0499  0.1162  0.1278
 4447SOL    HW124977   2.372   2.624   4.100  1.5949  0.0322  0.0608
 4447SOL    HW224978   2.367   2.720   3.987 -1.7001  1.6946  0.2924
 4448SOL     OW24979   1.708   1.508   8.231  0.0712 -0.0638 -0.5018
 4448SOL    HW124980   1.688   1.421   8.264 -2.5215 -0.4836 -3.1260
 4448SOL    HW224981   1.799   1.497   8.203  0.4462 -1.0715  1.1252
 4449SOL     OW24982   4.047   2.246   0.687 -0.2899 -0.5580  0.4539
 4449SOL    HW124983   4.079   2.220   0.601 -2.2659 -2.6187  0.3593
 4449SOL    HW224984   3.986   2.178   0.715 -1.0514  0.1133  0.4379
 4450SOL     OW24985   2.737   2.247  17.689  0.1299 -0.6852  0.3193
 4450SOL    HW124986   2.700   2.177  17.743 -0.2902  0.4036  1.4650
 4450SOL    HW224987   2.727   2.219  17.598 -0.8075  1.7802 -0.3387
 4451SOL     OW24988   2.846   0.086   5.466  0.6653  0.0023 -0.7300
 4451SOL    HW124989   2.771   0.045   5.423 -0.9824  0.9371  1.2460
 4451SOL    HW224990   2.908   0.018   5.493  0.5677 -0.2445 -1.1197
 4452SOL     OW24991   1.225   2.360   7.256  0.3246 -0.1349  0.0933
 4452SOL    HW124992   1.252   2.443   7.217 -1.2442 -0.4649 -1.6846
 4452SOL    HW224993   1.130   2.369   7.253  0.4952  0.8755 -2.0086
 4453SOL     OW24994   2.544   1.364   5.936 -0.1637  0.0805 -0.6422
 4453SOL    HW124995   2.559   1.284   5.886 -1.9984 -0.1304 -0.8520
 4453SOL    HW224996   2.520   1.328   6.022 -0.2281  2.0458  0.1686
 4454SOL     OW24997   1.538   4.413   9.384  0.2607  0.1812  0.2059
 4454SOL    HW124998   1.618   4.392   9.431  0.8571 -0.0899 -0.9302
 4454SOL    HW224999   1.478   4.441   9.454 -1.2285  0.1519 -1.0555
 4455SOL     OW25000   1.264   3.633   2.190 -0.1493 -0.1020 -0.1079
 4455SOL    HW125001   1.294   3.546   2.212 -1.6878 -0.8958 -1.1413
 4455SOL    HW225002   1.190   3.643   2.250  0.3213  3.7238 -0.1555
 4456SOL     OW25003   2.616   0.839   4.190 -0.2930  0.3091  0.0479
 4456SOL    HW125004   2.526   0.863   4.167  0.0824  1.0548 -0.6108
 4456SOL    HW225005   2.640   0.924   4.227 -0.5115  0.0822  0.7176
 4457SOL     OW25006   3.658   0.850   0.984  0.2162 -0.0909  0.2171
 4457SOL    HW125007   3.676   0.770   1.032  0.6748 -0.2333 -0.1922
 4457SOL    HW225008   3.682   0.820   0.896 -0.7925  1.8606 -0.7345
 4458SOL     OW25009   0.059   1.447   8.831  0.5078  0.0287 -0.3065
 4458SOL    HW125010   0.049   1.369   8.777 -0.0295  0.1546 -0.3868
 4458SOL    HW225011   0.104   1.402   8.902 -1.8517  0.1979  1.3152
 4459SOL     OW25012   1.780   1.762   4.706 -0.6601  0.0934 -0.1462
 4459SOL    HW125013   1.803   1.848   4.672 -2.4016  1.6472  2.6167
 4459SOL    HW225014   1.725   1.792   4.779 -0.6274  0.0035 -0.0850
 4460SOL     OW25015   1.975   0.292   7.243  0.4365 -0.1182  0.0871
 4460SOL    HW125016   1.882   0.270   7.243  0.2838  0.5479 -0.5059
 4460SOL    HW225017   1.980   0.360   7.311 -0.9920  0.4363 -0.3583
 4461SOL     OW25018   0.397   3.207   1.611  0.0353  0.7010 -0.2104
 4461SOL    HW125019   0.467   3.248   1.559 -0.0415  1.5518  0.3640
 4461SOL    HW225020   0.386   3.269   1.683 -0.1769  1.0899 -0.5794
 4462SOL     OW25021   0.668   1.896   8.259 -0.2451 -0.7376 -0.1029
 4462SOL    HW125022   0.631   1.808   8.251  0.0971 -1.0742  1.8963
 4462SOL    HW225023   0.671   1.906   8.355  1.6368  0.6436 -0.3208
 4463SOL     OW25024   3.747   4.604   4.267  0.0185 -0.2128  0.6113
 4463SOL    HW125025   3.826   4.603   4.321  0.3343  0.8269  0.1716
 4463SOL    HW225026   3.685   4.616   4.338  0.2614 -2.0087  1.1200
 4464SOL     OW25027   1.743   1.479   3.622  0.2824 -0.3388  0.0643
 4464SOL    HW125028   1.751   1.514   3.533 -0.0522 -1.4453 -0.3918
 4464SOL    HW225029   1.654   1.491   3.655 -0.0172  1.1582 -1.2307
 4465SOL     OW25030   4.530   1.283   5.207  0.7919  0.0054 -0.3880
 4465SOL    HW125031   4.591   1.222   5.166 -1.5372 -1.3476 -1.8718
 4465SOL    HW225032   4.452   1.227   5.199  1.5801 -1.4127  1.5660
 4466SOL     OW25033   1.208   4.251   5.665 -0.2789 -0.0173 -0.3644
 4466SOL    HW125034   1.224   4.320   5.730  2.9039 -1.0838  0.0056
 4466SOL    HW225035   1.202   4.180   5.729  4.8881 -1.2775 -1.2728
 4467SOL     OW25036   4.381   1.137   9.657 -0.1057  0.6342 -0.6910
 4467SOL    HW125037   4.305   1.079   9.648  0.4680 -0.2681  0.3659
 4467SOL    HW225038   4.357   1.176   9.740 -0.6176  0.9596 -0.9901
 4468SOL     OW25039   1.639   1.684   1.448 -0.4760 -0.4958 -0.8613
 4468SOL    HW125040   1.661   1.774   1.428 -0.1959 -0.5310 -0.7148
 4468SOL    HW225041   1.555   1.697   1.492 -0.4662 -2.2598 -0.2979
 4469SOL     OW25042   1.035   4.644   3.837  0.1976 -0.2205 -0.0313
 4469SOL    HW125043   1.114   4.609   3.794  0.4714 -0.1050  0.3720
 4469SOL    HW225044   1.053   4.612   3.925  2.1217 -0.6058 -0.5409
 4470SOL     OW25045   0.870   3.124   7.199  0.4429  0.6430  0.0924
 4470SOL    HW125046   0.816   3.202   7.195  0.4879  0.5927 -1.3570
 4470SOL    HW225047   0.820   3.076   7.265  0.4104  1.8582  0.9465
 4471SOL     OW25048   2.215   3.816   6.956  0.4666  0.3575  0.1849
 4471SOL    HW125049   2.182   3.873   6.885  4.0494 -0.4412 -2.1483
 4471SOL    HW225050   2.227   3.876   7.030 -1.2026  0.1107  0.6482
 4472SOL     OW25051   4.141   0.669   9.352  0.0297 -0.0897  0.0452
 4472SOL    HW125052   4.047   0.671   9.337 -0.1559 -1.5920  1.0494
 4472SOL    HW225053   4.159   0.581   9.386 -0.3768 -1.2613 -2.7846
 4473SOL     OW25054   1.021   3.745   8.510 -0.7522 -0.5472  0.0790
 4473SOL    HW125055   0.962   3.708   8.576 -1.1571 -1.9519 -1.0655
 4473SOL    HW225056   1.078   3.798   8.566 -1.3708 -1.5033  1.5991
 4474SOL     OW25057   1.615   2.659   4.065  0.1645 -0.0330 -0.3726
 4474SOL    HW125058   1.664   2.729   4.020 -0.1174  1.0938  1.0637
 4474SOL    HW225059   1.527   2.693   4.080  0.5093 -0.3136  2.2940
 4475SOL     OW25060   2.705   3.473  17.282 -0.3784  0.0171 -0.3413
 4475SOL    HW125061   2.612   3.479  17.302 -0.5444  1.5729 -1.6430
 4475SOL    HW225062   2.687   3.459  17.189 -0.7856 -1.0355 -0.1024
 4476SOL     OW25063   4.722   2.389   2.278  0.1363  0.4233 -0.4851
 4476SOL    HW125064   4.651   2.338   2.315  1.6359 -1.2893  0.0361
 4476SOL    HW225065   0.034   2.386   2.359  1.3201 -1.6465 -1.2994
 4477SOL     OW25066   2.207   2.667   7.332 -0.6032 -0.3539 -0.5679
 4477SOL    HW125067   2.192   2.647   7.425 -2.4351 -0.0074 -0.7836
 4477SOL    HW225068   2.161   2.600   7.282 -1.9366 -0.2285  0.4811
 4478SOL     OW25069   4.686   2.230   5.243 -0.1764 -0.2938  0.1816
 4478SOL    HW125070   4.712   2.162   5.305  0.2632  0.1816  0.5271
 4478SOL    HW225071   4.675   2.187   5.159  2.8417  0.0378 -0.4074
 4479SOL     OW25072   1.597   4.559   3.648 -0.5136  0.1102  0.0827
 4479SOL    HW125073   1.543   4.500   3.594 -2.5127  3.0431 -1.1255
 4479SOL    HW225074   1.676   4.505   3.653 -0.3429  0.3999  0.5076
 4480SOL     OW25075   1.205   2.491  12.952 -0.1851  0.6043  0.1933
 4480SOL    HW125076   1.148   2.424  12.915 -0.2089  1.2840 -0.9776
 4480SOL    HW225077   1.289   2.448  12.936 -0.8630 -0.1091 -1.4175
 4481SOL     OW25078   3.198   1.711  11.645 -0.4097 -0.1635 -0.1455
 4481SOL    HW125079   3.197   1.661  11.726  4.0536  0.3537  0.1922
 4481SOL    HW225080   3.150   1.654  11.585 -0.4056  0.4397 -0.7287
 4482SOL     OW25081   1.182   1.735  16.254  0.6555  0.2079 -0.6503
 4482SOL    HW125082   1.200   1.644  16.227  0.8409  0.7570 -2.3927
 4482SOL    HW225083   1.268   1.748  16.295  0.8572 -3.4141  0.1362
 4483SOL     OW25084   4.212   0.532   4.214  0.0599 -0.7108 -0.7234
 4483SOL    HW125085   4.153   0.600   4.183  1.8450  0.3125 -1.8971
 4483SOL    HW225086   4.253   0.505   4.132 -1.2936  0.8954 -1.9199
 4484SOL     OW25087   0.600   3.241   8.133  0.2827 -0.1444  0.1917
 4484SOL    HW125088   0.541   3.311   8.161  1.3142  0.6949  0.2615
 4484SOL    HW225089   0.584   3.225   8.040 -0.8098 -0.2198  0.3986
 4485SOL     OW25090   3.618   1.561  14.998  0.1055  0.0211  0.5444
 4485SOL    HW125091   3.660   1.478  14.973  0.2858  0.0053  0.9037
 4485SOL    HW225092   3.560   1.576  14.923  1.7608  2.6443 -0.2272
 4486SOL     OW25093   3.906   1.302   7.202  0.3685 -0.6225 -0.2552
 4486SOL    HW125094   3.945   1.361   7.266  1.8642 -2.2740  0.3665
 4486SOL    HW225095   3.928   1.345   7.119  1.5732 -0.2027  0.2868
 4487SOL     OW25096   1.887   1.754   0.127 -0.2644  0.4647  0.2149
 4487SOL    HW125097   1.823   1.687   0.149  0.0071 -0.4073 -1.5866
 4487SOL    HW225098   1.938   1.760   0.208 -1.5795 -2.1824  1.2189
 4488SOL     OW25099   2.945   1.213  10.477 -0.6402 -0.4773 -0.2165
 4488SOL    HW125100   2.950   1.279  10.408 -0.8252  0.1308  0.3480
 4488SOL    HW225101   2.883   1.151  10.439 -0.0336 -1.8387  1.0095
 4489SOL     OW25102   0.919   0.755   2.346  0.0708  1.0011 -0.2001
 4489SOL    HW125103   0.838   0.707   2.329  1.1264 -0.9826  0.3418
 4489SOL    HW225104   0.981   0.682   2.339 -1.3968 -0.3673  1.1923
 4490SOL     OW25105   0.871   1.682   7.207 -0.4476  0.5179  0.1211
 4490SOL    HW125106   0.801   1.745   7.191  0.0171  0.6374 -1.4648
 4490SOL    HW225107   0.843   1.635   7.285 -0.5450 -1.1353 -0.9187
 4491SOL     OW25108   4.662   1.613  10.391 -0.0730  0.2556  0.0646
 4491SOL    HW125109   4.689   1.578  10.476  0.0737  0.7038  0.2021
 4491SOL    HW225110   0.001   1.600  10.335  0.1212  2.2117 -0.1146
 4492SOL     OW25111   3.497   1.734   3.141  0.7697  0.5877 -0.2717
 4492SOL    HW125112   3.424   1.705   3.086  2.1684 -1.6007 -0.9693
 4492SOL    HW225113   3.451   1.797   3.197 -2.4526 -0.0362 -2.2529
 4493SOL     OW25114   1.064   3.741   1.614  0.2390 -0.3483  0.3470
 4493SOL    HW125115   1.076   3.836   1.621 -2.6283  0.0310  0.2443
 4493SOL    HW225116   1.115   3.732   1.534 -0.6734  0.7811 -0.3527
 4494SOL     OW25117   3.583   1.517   2.575 -0.3795 -0.6505  0.3480
 4494SOL    HW125118   3.640   1.499   2.650  0.6664 -0.7481 -0.4623
 4494SOL    HW225119   3.604   1.610   2.565 -1.1263 -0.4490  0.6782
 4495SOL     OW25120   2.009   0.695   6.910  0.0969  0.1903 -0.1123
 4495SOL    HW125121   2.036   0.765   6.970  0.1760 -1.5935  1.9005
 4495SOL    HW225122   2.009   0.624   6.974 -0.4661 -0.7055 -1.1047
 4496SOL     OW25123   1.398   1.806   2.764 -0.1432  0.0816 -0.1211
 4496SOL    HW125124   1.362   1.863   2.696 -0.1483 -0.9377 -0.9673
 4496SOL    HW225125   1.483   1.844   2.788  0.1052 -0.9078  0.5393
 4497SOL     OW25126   3.200   1.661   7.428  0.4282 -0.7001 -0.2552
 4497SOL    HW125127   3.131   1.726   7.413  1.9910  1.0142  0.0169
 4497SOL    HW225128   3.207   1.614   7.345  0.4626 -2.2982  0.6479
 4498SOL     OW25129   4.673   4.615   3.638 -0.0397 -0.1598 -0.2399
 4498SOL    HW125130   4.610   4.660   3.694 -0.6624  1.8818 -2.6145
 4498SOL    HW225131   4.623   4.609   3.557  0.4292 -1.1116 -0.4672
 4499SOL     OW25132   2.248   0.743   9.094  0.2724 -0.2694 -0.0170
 4499SOL    HW125133   2.175   0.773   9.148 -0.8150  1.8464 -2.6589
 4499SOL    HW225134   2.314   0.781   9.152  0.2717 -1.7040  0.9281
 4500SOL     OW25135   2.712   4.473   9.082  0.2645 -0.5252 -0.2895
 4500SOL    HW125136   2.628   4.510   9.109  1.6492  2.2031  0.2000
 4500SOL    HW225137   2.755   4.492   9.165  0.8069 -4.1116  0.2445
 4501SOL     OW25138   3.531   4.601   7.642 -0.6826 -0.1063  0.0413
 4501SOL    HW125139   3.471   4.565   7.707  0.4143  0.8882  1.6014
 4501SOL    HW225140   3.483   4.682   7.626 -0.6868  0.1142  1.1501
 4502SOL     OW25141   4.033   2.484   9.497 -0.2117  0.2392 -0.0204
 4502SOL    HW125142   3.969   2.501   9.428  0.7926  0.7721 -0.8189
 4502SOL    HW225143   4.117   2.492   9.453 -0.1491  1.1340  0.2452
 4503SOL     OW25144   3.524   3.539  10.624  0.3643  0.2825  0.1439
 4503SOL    HW125145   3.463   3.611  10.632 -0.4026 -0.0939 -2.2325
 4503SOL    HW225146   3.468   3.462  10.639  1.1882 -0.1644  0.9128
 4504SOL     OW25147   3.779   4.592  13.178 -0.0856  0.4848  0.7853
 4504SOL    HW125148   3.842   4.664  13.183  1.2140 -0.4865 -1.4419
 4504SOL    HW225149   3.789   4.559  13.088  2.2058  0.1427  1.1588
 4505SOL     OW25150   1.839   2.249   0.393  0.0220 -0.3124  0.2363
 4505SOL    HW125151   1.829   2.322   0.455  0.5308  0.3769 -0.4937
 4505SOL    HW225152   1.897   2.288   0.328  0.9149 -1.4702  0.3406
 4506SOL     OW25153   3.944   2.131   2.349  0.3050  0.3729 -0.0139
 4506SOL    HW125154   3.975   2.221   2.344 -0.5224  0.6994  0.7394
 4506SOL    HW225155   4.025   2.080   2.351 -1.1530 -2.0500 -1.5117
 4507SOL     OW25156   3.467   0.834  14.022 -0.7631 -0.2804 -0.1204
 4507SOL    HW125157   3.510   0.912  14.057 -1.2767  0.2802 -0.7478
 4507SOL    HW225158   3.525   0.807  13.951 -0.6004 -0.4793  0.0866
 4508SOL     OW25159   1.668   1.307  12.532  0.1214 -0.6949  0.0002
 4508SOL    HW125160   1.719   1.384  12.509  0.7806 -0.7711  1.2612
 4508SOL    HW225161   1.718   1.262  12.599 -1.3287 -0.0132  1.5337
 4509SOL     OW25162   2.102   3.810  10.481 -0.0643  0.7083  0.2141
 4509SOL    HW125163   2.191   3.781  10.500 -0.5509 -0.1121  1.2284
 4509SOL    HW225164   2.114   3.904  10.470  1.5037  0.7701  2.3201
 4510SOL     OW25165   2.752   0.858   7.043 -0.3396 -0.0179  0.2168
 4510SOL    HW125166   2.706   0.816   6.970 -1.1818  1.0766  0.1233
 4510SOL    HW225167   2.843   0.827   7.034 -0.2883  0.1109  0.2945
 4511SOL     OW25168   2.556   1.885   6.876  0.5562 -0.0605 -0.2935
 4511SOL    HW125169   2.570   1.840   6.793 -3.6360 -1.7940 -0.0358
 4511SOL    HW225170   2.633   1.857   6.926  0.7457 -0.3530 -0.7481
 4512SOL     OW25171   1.082   3.667   5.335 -0.1975  0.3464 -0.4952
 4512SOL    HW125172   1.096   3.581   5.295  1.9850  0.6825 -0.4554
 4512SOL    HW225173   0.991   3.654   5.362 -0.3100  0.9564 -0.5756
 4513SOL     OW25174   1.398   4.706   8.627 -0.1191 -1.0659  0.4530
 4513SOL    HW125175   1.487   0.001   8.617 -0.1053 -1.8530 -2.1408
 4513SOL    HW225176   1.344   0.047   8.625  1.0962 -0.2691 -0.7299
 4514SOL     OW25177   0.351   4.108   9.392  0.2661 -0.7574 -0.4054
 4514SOL    HW125178   0.299   4.098   9.471  0.6509  0.7029  0.0195
 4514SOL    HW225179   0.306   4.179   9.346 -0.6582 -1.1736 -0.1410
 4515SOL     OW25180   2.208   2.483  13.430 -0.3320 -0.0220 -0.4522
 4515SOL    HW125181   2.244   2.472  13.519 -0.4845  0.2913 -0.3548
 4515SOL    HW225182   2.176   2.571  13.448  0.9224  0.2435  0.4977
 4516SOL     OW25183   0.512   4.450   3.035 -0.0978 -0.1419 -0.1521
 4516SOL    HW125184   0.584   4.489   3.085 -0.5276  0.0885  0.2871
 4516SOL    HW225185   0.557   4.391   2.975  3.3350 -0.5174  2.7675
 4517SOL     OW25186   0.547   2.480   7.854 -0.0161 -0.4914 -0.0990
 4517SOL    HW125187   0.522   2.389   7.835  2.5453 -1.2562  0.1987
 4517SOL    HW225188   0.620   2.471   7.915 -1.0552 -1.0970  1.0557
 4518SOL     OW25189   2.270   0.535  12.185  0.3370 -0.0725 -0.1071
 4518SOL    HW125190   2.327   0.574  12.252 -1.0660 -0.4438  1.3182
 4518SOL    HW225191   2.318   0.459  12.154  0.0064 -0.9343  1.4762
 4519SOL     OW25192   4.084   2.493  12.195 -0.3078 -0.5244 -0.2541
 4519SOL    HW125193   4.003   2.515  12.148  0.0568  3.2505  0.9132
 4519SOL    HW225194   4.070   2.399  12.189  0.3731 -0.7023  0.9472
 4520SOL     OW25195   1.101   0.805   8.261 -0.6200 -0.4684 -0.0715
 4520SOL    HW125196   1.058   0.744   8.320 -1.1502 -1.0203 -1.0254
 4520SOL    HW225197   1.150   0.743   8.207 -0.8190 -0.3119 -0.4319
 4521SOL     OW25198   0.269   2.912   3.214 -0.2207 -0.4918 -0.0172
 4521SOL    HW125199   0.247   2.977   3.281  0.2103  0.0578 -0.4136
 4521SOL    HW225200   0.189   2.935   3.165  0.4425  0.6768 -0.5524
 4522SOL     OW25201   2.748   2.306   7.419  0.5553  0.1104 -0.4831
 4522SOL    HW125202   2.759   2.361   7.341  1.2659 -0.3966 -0.7402
 4522SOL    HW225203   2.689   2.364   7.467 -1.3694 -1.8193 -0.5174
 4523SOL     OW25204   3.854   2.577   6.092 -0.0927 -0.0432  0.1853
 4523SOL    HW125205   3.856   2.670   6.115  1.1943 -0.1428  0.4876
 4523SOL    HW225206   3.817   2.584   6.004 -2.2744 -1.3355  1.0035
 4524SOL     OW25207   1.048   2.915  12.384 -0.2818 -0.0685  0.3522
 4524SOL    HW125208   0.997   2.946  12.458  2.4936 -1.4409  2.8306
 4524SOL    HW225209   1.121   2.977  12.384 -0.8196  0.5985 -2.8122
 4525SOL     OW25210   3.513   0.625  14.999  0.0007  0.0574  0.1905
 4525SOL    HW125211   3.604   0.610  14.974 -1.1215  1.4032 -4.5032
 4525SOL    HW225212   3.502   0.587  15.087  2.9781 -0.6909  0.2301
 4526SOL     OW25213   4.106   0.198   6.603 -0.5064  0.1700 -0.3052
 4526SOL    HW125214   4.145   0.243   6.528 -0.2089  0.0623 -0.2137
 4526SOL    HW225215   4.014   0.210   6.577 -0.5309 -0.3618 -0.4848
 4527SOL     OW25216   1.833   2.700   8.684  0.3850 -0.2337 -0.3920
 4527SOL    HW125217   1.761   2.735   8.736 -0.3355  0.4927 -1.8659
 4527SOL    HW225218   1.789   2.659   8.609  1.5040 -1.4125 -0.4051
 4528SOL     OW25219   3.004   1.906   4.984 -0.6122  0.5127  0.3373
 4528SOL    HW125220   2.988   1.817   5.016 -0.0035  0.3048  0.0520
 4528SOL    HW225221   3.097   1.898   4.962 -1.0486 -0.5975 -1.0895
 4529SOL     OW25222   0.704   2.028   8.938 -0.2964 -0.1677  0.1648
 4529SOL    HW125223   0.775   2.009   9.000 -0.6144 -2.2702 -0.1242
 4529SOL    HW225224   0.753   2.020   8.856 -0.0955 -0.8577  0.3551
 4530SOL     OW25225   4.496   4.117   2.607  0.0605  0.2895  0.3358
 4530SOL    HW125226   4.443   4.116   2.527  2.2121  0.3089 -1.0800
 4530SOL    HW225227   4.575   4.071   2.580  1.3619  2.0091  1.1895
 4531SOL     OW25228   2.691   0.941  14.882 -0.1100  0.3821  0.0074
 4531SOL    HW125229   2.737   0.865  14.847 -0.0298  0.6366 -0.4419
 4531SOL    HW225230   2.739   1.010  14.836  0.6952  1.1458  2.0113
 4532SOL     OW25231   0.311   2.361   2.648 -0.2495  0.4721 -0.0344
 4532SOL    HW125232   0.346   2.380   2.735  0.5286  1.7131 -0.6180
 4532SOL    HW225233   0.384   2.390   2.593  0.3436 -1.0441 -0.0580
 4533SOL     OW25234   0.687   0.051   6.534 -0.5153  0.3375 -0.0882
 4533SOL    HW125235   0.651   0.035   6.447  0.7301  1.3910 -0.7963
 4533SOL    HW225236   0.740   0.129   6.516 -1.4719  0.9370 -0.2623
 4534SOL     OW25237   0.240   3.123   9.992  0.0330  0.2229 -0.1996
 4534SOL    HW125238   0.231   3.203   9.940  1.1877 -0.5829 -1.6485
 4534SOL    HW225239   0.163   3.130  10.049 -0.3645 -1.4093 -0.5303
 4535SOL     OW25240   2.070   0.273   4.809 -0.0685  0.0080 -0.1935
 4535SOL    HW125241   2.021   0.199   4.774 -1.5448 -0.3249  2.5438
 4535SOL    HW225242   2.089   0.250   4.900  0.7926 -0.8203 -0.5761
 4536SOL     OW25243   1.805   0.441   2.643 -0.1360 -0.1216  0.1034
 4536SOL    HW125244   1.713   0.441   2.669 -0.3166 -0.2080 -0.5388
 4536SOL    HW225245   1.808   0.465   2.551 -1.6258 -0.2761  0.0189
 4537SOL     OW25246   3.173   2.142   3.395 -1.0147  0.2855  0.3052
 4537SOL    HW125247   3.195   2.227   3.358  0.7401 -0.6385 -0.7782
 4537SOL    HW225248   3.158   2.096   3.312 -0.5013 -1.1667  1.0214
 4538SOL     OW25249   1.192   2.634   3.367  0.9916  0.3222  0.0376
 4538SOL    HW125250   1.185   2.718   3.322  0.5683  1.1440  1.6224
 4538SOL    HW225251   1.177   2.575   3.294  1.5120  0.6398 -0.3259
 4539SOL     OW25252   4.496   1.565   5.118 -0.4175 -0.0148  0.1379
 4539SOL    HW125253   4.565   1.585   5.182 -0.3393 -0.8099  0.3062
 4539SOL    HW225254   4.478   1.477   5.151  0.5497  0.8223  2.9568
 4540SOL     OW25255   4.304   3.309   3.817  0.2485 -0.0681 -0.1714
 4540SOL    HW125256   4.272   3.223   3.841  0.5998  0.1856  1.2355
 4540SOL    HW225257   4.231   3.350   3.770  0.2370  1.1885  0.9404
 4541SOL     OW25258   4.088   1.667   5.213  0.4037  0.6528 -0.4085
 4541SOL    HW125259   4.145   1.741   5.192  2.4026 -0.5972  0.6916
 4541SOL    HW225260   4.022   1.673   5.144  0.0912  2.0336 -0.0048
 4542SOL     OW25261   0.028   3.605   5.868  0.3261  0.4475 -0.2435
 4542SOL    HW125262   0.080   3.587   5.789  1.4315  1.7560  0.1964
 4542SOL    HW225263   4.685   3.558   5.854 -0.9681  2.1050  1.7606
 4543SOL     OW25264   4.158   3.397  11.304 -0.4728  0.0672  0.1988
 4543SOL    HW125265   4.139   3.491  11.312  1.3147  0.5744 -1.5069
 4543SOL    HW225266   4.088   3.352  11.351  0.6236 -1.0077  0.7968
 4544SOL     OW25267   1.449   1.897   4.003 -0.4896 -0.1133  0.0738
 4544SOL    HW125268   1.531   1.865   4.040 -0.5004  0.7119  0.8149
 4544SOL    HW225269   1.468   1.988   3.978 -0.5646  0.3206  1.5805
 4545SOL     OW25270   3.103   3.267   1.787  0.2603 -0.5808  0.2126
 4545SOL    HW125271   3.055   3.344   1.819  1.0786 -1.3371  3.2473
 4545SOL    HW225272   3.142   3.237   1.869 -1.3341 -1.9793  0.4596
 4546SOL     OW25273   3.550   3.241   2.654 -0.6179 -0.1796 -0.6588
 4546SOL    HW125274   3.608   3.317   2.650 -0.6142 -0.2146 -1.2073
 4546SOL    HW225275   3.486   3.252   2.585 -1.0194 -1.1383 -0.4411
 4547SOL     OW25276   4.136   2.392  10.182  0.0537 -0.2670  0.2219
 4547SOL    HW125277   4.138   2.339  10.103 -0.4947 -1.0807  0.7418
 4547SOL    HW225278   4.224   2.428  10.175 -1.2185  2.2889 -2.4941
 4548SOL     OW25279   0.953   4.699   8.504  0.2852 -0.4708 -0.0480
 4548SOL    HW125280   0.967   4.639   8.432 -0.4647  2.2642 -2.4736
 4548SOL    HW225281   0.875   4.662   8.547  2.0147 -0.3020  3.2633
 4549SOL     OW25282   3.687   1.918  12.111  0.0620  0.2357  0.4218
 4549SOL    HW125283   3.630   1.852  12.150 -0.7769  0.5346 -0.2778
 4549SOL    HW225284   3.649   1.995  12.154 -2.7465 -1.4716  0.9613
 4550SOL     OW25285   2.254   2.979   4.318  0.1698  0.0413  0.0333
 4550SOL    HW125286   2.161   2.977   4.341  0.3620 -0.9057  0.7796
 4550SOL    HW225287   2.262   2.933   4.235 -0.8643 -0.0393 -0.0183
 4551SOL     OW25288   3.531   3.508   6.780 -0.2769 -0.0699  0.1708
 4551SOL    HW125289   3.448   3.491   6.825  0.7857  1.7156  2.8588
 4551SOL    HW225290   3.592   3.442   6.810 -0.2773  0.2244  0.8278
 4552SOL     OW25291   2.767   1.188   6.443  0.2365  0.1416  0.1152
 4552SOL    HW125292   2.783   1.178   6.537  2.1848 -0.5892 -0.2761
 4552SOL    HW225293   2.761   1.094   6.424  2.9345 -0.1056  0.4471
 4553SOL     OW25294   1.823   2.976   7.227 -0.2983  0.3596  0.1641
 4553SOL    HW125295   1.870   3.021   7.157  0.1740  0.7852  0.7475
 4553SOL    HW225296   1.892   2.947   7.286 -0.8512 -1.3592 -0.0094
 4554SOL     OW25297   2.053   0.019   8.141 -0.1989 -0.2073 -0.2673
 4554SOL    HW125298   2.004   0.084   8.191  0.3418  0.6790 -0.8897
 4554SOL    HW225299   1.982   4.698   8.118  0.2996 -0.9009  0.0059
 4555SOL     OW25300   1.072   3.717  15.009  0.5709  0.1874  0.2628
 4555SOL    HW125301   0.977   3.711  15.007  0.6322  0.1049 -2.2261
 4555SOL    HW225302   1.091   3.743  14.919  1.9369 -1.4326  0.0817
 4556SOL     OW25303   4.266   0.472   7.742  0.1322 -0.0118 -0.0768
 4556SOL    HW125304   4.192   0.526   7.715 -0.8433 -1.1750  0.2868
 4556SOL    HW225305   4.214   0.392   7.733 -1.7198  1.4600 -2.6073
 4557SOL     OW25306   2.384   4.295   2.002 -0.0780  0.3073  0.0927
 4557SOL    HW125307   2.387   4.321   2.094  2.4810  0.3777 -0.0041
 4557SOL    HW225308   2.463   4.344   1.980  0.0435 -0.1163 -0.4026
 4558SOL     OW25309   2.522   1.625   4.301 -0.3080 -0.2341 -0.6377
 4558SOL    HW125310   2.606   1.669   4.314 -0.7603  0.4529 -0.0937
 4558SOL    HW225311   2.509   1.632   4.206  0.1060 -0.3088 -0.7023
 4559SOL     OW25312   1.168   3.451   5.208 -0.4659 -0.1937 -0.4738
 4559SOL    HW125313   1.135   3.374   5.253  1.0185 -0.1089  0.7861
 4559SOL    HW225314   1.262   3.436   5.215 -0.4838 -0.7328 -1.4259
 4560SOL     OW25315   4.357   1.905   5.294  0.4881 -0.6773 -0.0505
 4560SOL    HW125316   4.320   1.922   5.380 -0.0528 -0.0281 -0.4124
 4560SOL    HW225317   4.290   1.923   5.228  1.0367  1.2191 -0.0848
 4561SOL     OW25318   2.593   1.743   1.826 -0.6887  0.1848  0.0273
 4561SOL    HW125319   2.636   1.818   1.869  0.0625  1.0258 -2.1974
 4561SOL    HW225320   2.518   1.781   1.780 -1.0293 -1.5160 -0.8157
 4562SOL     OW25321   1.309   1.354   6.252  0.6940  0.1361 -0.5355
 4562SOL    HW125322   1.398   1.369   6.219  1.8863  1.3382  3.1458
 4562SOL    HW225323   1.316   1.383   6.343  0.8676  0.3138 -0.6062
 4563SOL     OW25324   3.565   4.215   5.233 -0.5474  0.3412  0.4517
 4563SOL    HW125325   3.655   4.185   5.225 -1.0352 -0.6861 -1.2654
 4563SOL    HW225326   3.560   4.301   5.192  0.4150  0.5131  0.7089
 4564SOL     OW25327   4.424   1.290   0.534  0.2866  0.7469 -0.5599
 4564SOL    HW125328   4.484   1.253   0.470  2.6317  1.8068  1.0140
 4564SOL    HW225329   4.354   1.225   0.522  2.5546 -1.5759 -1.3788
 4565SOL     OW25330   0.054   2.793   6.766  0.2024  0.2445  0.4151
 4565SOL    HW125331   4.711   2.801   6.718  0.0181 -0.2337  0.6503
 4565SOL    HW225332   0.051   2.873   6.818 -2.2518  0.7999 -0.6146
 4566SOL     OW25333   2.809   1.966   6.586  0.0535  0.0672 -0.1202
 4566SOL    HW125334   2.776   2.054   6.568  1.4835  0.8975  1.3001
 4566SOL    HW225335   2.793   1.935   6.497 -2.0771  1.9428 -0.3992
 4567SOL     OW25336   0.963   4.323   3.310  0.4811  0.6908 -0.7455
 4567SOL    HW125337   0.910   4.246   3.331  0.9668  0.7918  0.8672
 4567SOL    HW225338   0.912   4.384   3.363  0.5035  0.2658 -0.2335
 4568SOL     OW25339   2.703   1.277  10.946 -0.8544  0.5143  0.4126
 4568SOL    HW125340   2.726   1.218  11.018  0.0236 -1.1243 -1.2291
 4568SOL    HW225341   2.756   1.232  10.882  0.9225  0.8671  1.6376
 4569SOL     OW25342   2.948   3.908   4.033  0.1330  0.3553  0.4445
 4569SOL    HW125343   2.933   3.855   4.112  0.4157  2.9723  2.2633
 4569SOL    HW225344   3.017   3.963   4.070 -0.3360  1.8004 -0.8553
 4570SOL     OW25345   1.075   4.354   6.603  0.2609  0.7171 -0.4436
 4570SOL    HW125346   1.145   4.296   6.573  1.4203  1.8593  0.0452
 4570SOL    HW225347   1.019   4.346   6.526  0.9075  0.9128 -0.9363
 4571SOL     OW25348   2.985   3.531  13.788 -0.3957  1.6766 -0.1990
 4571SOL    HW125349   3.004   3.445  13.825 -1.0823  1.3579 -0.6002
 4571SOL    HW225350   2.890   3.533  13.777 -0.3575 -2.7205 -1.0988
 4572SOL     OW25351   4.276   1.639  10.794  0.1231 -0.2823 -0.3570
 4572SOL    HW125352   4.198   1.587  10.776 -0.2875  0.1509  0.1911
 4572SOL    HW225353   4.241   1.686  10.869  3.1001  2.6378 -0.7748
 4573SOL     OW25354   0.994   2.027   1.528 -0.5439 -0.6296 -0.5984
 4573SOL    HW125355   1.062   1.971   1.565  1.1093  0.8581 -1.3821
 4573SOL    HW225356   0.918   1.972   1.547 -0.8217  0.0780  0.3328
 4574SOL     OW25357   1.188   4.276   9.230  0.0148 -0.1166  0.2939
 4574SOL    HW125358   1.189   4.182   9.247 -1.0177  0.1661  1.9558
 4574SOL    HW225359   1.218   4.320   9.310  0.2639  0.9699 -0.4019
 4575SOL     OW25360   1.341   2.915   6.443  0.0911 -0.2569 -0.1084
 4575SOL    HW125361   1.436   2.906   6.455 -0.0856 -1.8081  0.0856
 4575SOL    HW225362   1.326   2.889   6.352  0.6526 -0.9647  0.0082
 4576SOL     OW25363   1.210   0.269   7.742 -0.1440  0.2867 -0.1064
 4576SOL    HW125364   1.238   0.185   7.777 -1.0285  0.8012  1.8114
 4576SOL    HW225365   1.174   0.236   7.659 -3.9092 -0.4176  1.8016
 4577SOL     OW25366   3.002   3.629  17.545  0.4024 -0.2271 -0.2425
 4577SOL    HW125367   3.095   3.650  17.536  0.1959  0.4009 -0.9401
 4577SOL    HW225368   2.966   3.674  17.469  1.7299  1.6095  0.2140
 4578SOL     OW25369   3.128   0.210   8.904  0.1309 -0.1570 -0.3242
 4578SOL    HW125370   3.059   0.161   8.949 -0.0292 -1.7014 -2.2709
 4578SOL    HW225371   3.104   0.223   8.812  0.3107  0.1352 -0.3317
 4579SOL     OW25372   1.040   0.677  14.754  0.1487 -0.5500 -0.7479
 4579SOL    HW125373   1.033   0.703  14.846  0.2950  0.8945 -1.1404
 4579SOL    HW225374   0.986   0.598  14.758 -2.4265  1.2247 -0.1869
 4580SOL     OW25375   1.878   3.623   3.202  0.3682 -0.2225  0.3927
 4580SOL    HW125376   1.790   3.584   3.210 -0.7577  2.0881 -0.6264
 4580SOL    HW225377   1.925   3.584   3.276  0.0995 -1.4042 -0.0533
 4581SOL     OW25378   3.202   2.789  10.820 -0.3698  0.0318  0.1271
 4581SOL    HW125379   3.296   2.811  10.820 -0.6868  1.3148 -3.4489
 4581SOL    HW225380   3.162   2.849  10.757 -2.5139  1.5637  2.9555
 4582SOL     OW25381   4.734   1.338   5.936 -0.0079 -0.1355  0.4594
 4582SOL    HW125382   0.081   1.300   5.956  0.0734  0.3754  1.0928
 4582SOL    HW225383   0.015   1.431   5.942 -0.5566 -0.1701  2.8803
 4583SOL     OW25384   4.592   0.069  16.341 -0.0327  0.3938  1.1037
 4583SOL    HW125385   4.552   0.156  16.338  0.6228  0.6898  0.7119
 4583SOL    HW225386   4.514   0.015  16.351 -0.4098  0.8323  0.5138
 4584SOL     OW25387   3.608   4.529  13.564  0.1195  0.1497 -0.2817
 4584SOL    HW125388   3.514   4.546  13.568  0.5004  2.0313  0.4717
 4584SOL    HW225389   3.623   4.492  13.477  0.7308 -0.9105  0.2721
 4585SOL     OW25390   3.911   1.196   6.754 -0.1300 -0.4817  0.8103
 4585SOL    HW125391   3.855   1.118   6.759  0.2049 -0.7765 -0.1701
 4585SOL    HW225392   4.003   1.172   6.764 -0.4908 -1.8542  0.7204
 4586SOL     OW25393   0.651   1.671  10.776 -0.1365 -0.5694 -1.0156
 4586SOL    HW125394   0.673   1.624  10.695  1.3440 -0.1283 -0.8664
 4586SOL    HW225395   0.623   1.756  10.742  1.0254  0.0890 -0.3053
 4587SOL     OW25396   1.470   2.428  12.966 -0.5615  0.5843  0.7597
 4587SOL    HW125397   1.556   2.470  12.958 -0.2835  0.1296  1.3910
 4587SOL    HW225398   1.492   2.336  12.954  1.3055  1.1037  0.1335
 4588SOL     OW25399   3.626   0.633   1.823 -0.6306 -0.4837 -0.3042
 4588SOL    HW125400   3.574   0.648   1.744  0.6757 -1.7608 -1.3906
 4588SOL    HW225401   3.674   0.711   1.853 -1.4000  0.2507 -0.9791
 4589SOL     OW25402   1.724   2.430   3.929  0.3621 -0.1486 -0.1031
 4589SOL    HW125403   1.780   2.398   4.000  2.0222  1.7602 -0.5639
 4589SOL    HW225404   1.672   2.496   3.975 -0.4555 -1.4446  0.8312
 4590SOL     OW25405   3.454   4.698   0.370  0.2951  0.1227 -0.1455
 4590SOL    HW125406   3.369   4.689   0.326 -0.3131  1.3197  0.7679
 4590SOL    HW225407   3.425   4.720   0.459 -1.7923  0.2387 -0.8587
 4591SOL     OW25408   1.767   0.102  16.243 -0.0841  0.3069 -0.3207
 4591SOL    HW125409   1.803   0.167  16.303 -0.1940  0.5233 -0.4884
 4591SOL    HW225410   1.849   0.055  16.227 -0.2329 -0.3437  0.8762
 4592SOL     OW25411   4.240   2.653   4.803  1.1245  0.0655  0.3577
 4592SOL    HW125412   4.236   2.733   4.751  1.6701  0.6478  1.2136
 4592SOL    HW225413   4.235   2.581   4.741 -0.1354 -0.8100  1.4599
 4593SOL     OW25414   1.838   4.170  12.290  0.0509  0.0040 -0.0643
 4593SOL    HW125415   1.831   4.076  12.304 -0.7401  0.1126  0.2868
 4593SOL    HW225416   1.753   4.191  12.328 -0.0140 -0.7589  0.1989
 4594SOL     OW25417   3.668   3.560   1.339  0.0049 -0.7752  0.0088
 4594SOL    HW125418   3.644   3.641   1.386  1.4910  0.6293 -1.6702
 4594SOL    HW225419   3.749   3.538   1.384  0.9396  1.3373 -0.6316
 4595SOL     OW25420   0.965   2.640   3.536 -0.3349 -0.1472 -0.0183
 4595SOL    HW125421   0.948   2.725   3.577 -0.7766  0.1387 -0.7996
 4595SOL    HW225422   1.011   2.666   3.456 -1.6937 -0.7546 -0.9955
 4596SOL     OW25423   2.090   1.154  17.134 -0.1349 -0.7470 -0.1079
 4596SOL    HW125424   2.153   1.195  17.194 -1.0709  1.9787 -0.9814
 4596SOL    HW225425   2.013   1.186  17.180  2.0912  1.5843  2.0308
 4597SOL     OW25426   0.525   3.412   0.493  0.1475  0.0792  0.2087
 4597SOL    HW125427   0.540   3.370   0.578  0.5648  0.5146  0.3532
 4597SOL    HW225428   0.528   3.334   0.438 -1.0786  1.8115 -2.3131
 4598SOL     OW25429   4.098   1.168   7.499 -0.4593 -0.1444  1.0121
 4598SOL    HW125430   4.135   1.154   7.412  0.7413  0.9150  1.3424
 4598SOL    HW225431   4.165   1.222   7.543 -0.6353  1.7561 -1.0382
 4599SOL     OW25432   2.285   4.122   3.141 -0.0183  0.4757 -0.5658
 4599SOL    HW125433   2.250   4.032   3.140 -1.2853  0.9645 -2.1414
 4599SOL    HW225434   2.315   4.127   3.231 -0.7407  2.6327 -0.4336
 4600SOL     OW25435   3.099   1.639   5.942 -0.0501 -0.7127  0.1941
 4600SOL    HW125436   3.131   1.585   5.870  0.5985 -0.4630  0.2877
 4600SOL    HW225437   3.045   1.702   5.896 -0.5358 -2.2309 -1.2968
 4601SOL     OW25438   1.950   3.982   1.547  0.6857 -0.4412 -0.2941
 4601SOL    HW125439   1.967   3.906   1.491  0.9714  0.1979 -1.0732
 4601SOL    HW225440   2.034   4.002   1.587  0.8435 -0.2712 -0.7109
 4602SOL     OW25441   2.334   3.581   7.292 -0.1315  0.6375 -0.2726
 4602SOL    HW125442   2.421   3.545   7.274 -0.0365 -1.0227  3.5649
 4602SOL    HW225443   2.317   3.632   7.212  0.0957  1.2174  0.0477
 4603SOL     OW25444   4.389   2.057   8.946 -0.1288  0.5971 -0.0504
 4603SOL    HW125445   4.377   2.142   8.905  0.7849  0.5166 -0.4854
 4603SOL    HW225446   4.479   2.038   8.919 -0.2693  1.0342 -0.8158
 4604SOL     OW25447   3.888   4.053   3.875  0.3540 -0.7205  0.4018
 4604SOL    HW125448   3.959   4.024   3.818  0.2836 -0.6039  0.2548
 4604SOL    HW225449   3.931   4.077   3.957  0.2646  0.2913  0.1563
 4605SOL     OW25450   2.216   2.708  11.783 -0.0340  0.2161  0.3345
 4605SOL    HW125451   2.241   2.619  11.808  0.1230  0.2029  0.1332
 4605SOL    HW225452   2.237   2.756  11.862  0.8932 -0.2201  0.3570
 4606SOL     OW25453   2.238   1.425   6.415  0.2813  0.0336 -0.6482
 4606SOL    HW125454   2.276   1.339   6.431  0.2027 -0.2860 -2.1413
 4606SOL    HW225455   2.280   1.474   6.485 -0.1239 -1.2526  0.5014
 4607SOL     OW25456   4.586   3.297  17.552 -0.5218  1.0648  0.0285
 4607SOL    HW125457   4.680   3.309  17.561 -0.3932 -1.0810  1.5665
 4607SOL    HW225458   4.566   3.292  17.645 -0.9217  2.2516  0.0011
 4608SOL     OW25459   3.023   4.675   3.431 -0.5740  0.2192  0.3148
 4608SOL    HW125460   3.042   4.660   3.339  1.7538 -0.6685  0.9431
 4608SOL    HW225461   3.018   0.032   3.433  1.0937  0.3263 -0.2072
 4609SOL     OW25462   3.219   3.567   1.396  0.3235  0.1864  0.7440
 4609SOL    HW125463   3.208   3.636   1.462  0.7675  0.8885  0.0923
 4609SOL    HW225464   3.243   3.610   1.314  2.2436 -1.7128  0.3338
 4610SOL     OW25465   4.113   3.032   8.084 -0.1699 -0.1540 -0.0378
 4610SOL    HW125466   4.122   3.077   7.999 -1.4241  1.5810  0.7599
 4610SOL    HW225467   4.019   3.040   8.096 -0.4228 -0.4659 -1.7685
 4611SOL     OW25468   3.307   2.423   5.635  0.0101  0.4164  0.0523
 4611SOL    HW125469   3.231   2.472   5.604  1.2983  2.0064 -0.6268
 4611SOL    HW225470   3.357   2.420   5.553 -0.8082  0.3888 -0.4453
 4612SOL     OW25471   2.334   1.445   8.697 -0.1946 -0.3155  0.1850
 4612SOL    HW125472   2.428   1.466   8.699 -0.7563  2.1592  0.3746
 4612SOL    HW225473   2.300   1.517   8.643 -0.0018 -1.1710 -1.0580
 4613SOL     OW25474   1.494   4.285  12.304 -0.2222  0.4101  0.2139
 4613SOL    HW125475   1.429   4.337  12.352 -0.2885 -2.3141  3.0912
 4613SOL    HW225476   1.493   4.317  12.214 -1.2405 -0.8021 -0.2106
 4614SOL     OW25477   0.037   1.224   7.902 -0.2840  0.0656 -0.2572
 4614SOL    HW125478   0.075   1.157   7.844  1.6531 -0.2203  1.3547
 4614SOL    HW225479   0.082   1.305   7.879  0.7136 -0.7927 -1.3837
 4615SOL     OW25480   0.108   2.683   7.073  0.1151  0.3191  0.0045
 4615SOL    HW125481   0.080   2.594   7.096 -0.3247  0.7366  1.0665
 4615SOL    HW225482   0.024   2.723   7.054  0.0735  0.7908  1.2065
 4616SOL     OW25483   3.984   2.564  14.305 -0.1685 -0.4795 -0.4311
 4616SOL    HW125484   3.906   2.550  14.252 -2.5284 -3.2638  3.7556
 4616SOL    HW225485   4.028   2.629  14.250  1.1669 -1.9728 -1.1201
 4617SOL     OW25486   4.620   4.320   4.613  0.2908  0.2172 -0.2373
 4617SOL    HW125487   4.592   4.263   4.541  1.7061 -2.1157  1.0721
 4617SOL    HW225488   4.626   4.255   4.683  1.8277 -0.9399 -1.4325
 4618SOL     OW25489   4.325   1.180   5.951 -0.5755  0.2215 -0.3140
 4618SOL    HW125490   4.412   1.197   5.987 -0.2078 -0.9497 -0.6765
 4618SOL    HW225491   4.304   1.094   5.986  0.6591 -0.8635 -2.2415
 4619SOL     OW25492   0.585   4.734  14.219 -0.5081 -0.5758 -0.4924
 4619SOL    HW125493   0.661   4.727  14.160  0.3731 -1.3426  0.7387
 4619SOL    HW225494   0.614   0.047  14.295 -2.3273  2.8063 -2.0727
 4620SOL     OW25495   2.896   3.497   6.895 -0.4626  0.0296 -0.1069
 4620SOL    HW125496   2.800   3.498   6.894 -0.4604  0.1755 -0.1740
 4620SOL    HW225497   2.925   3.508   6.985  1.5111  1.5147 -0.9093
 4621SOL     OW25498   3.530   3.426  12.332 -0.3479 -0.0858 -0.1971
 4621SOL    HW125499   3.551   3.427  12.238  2.6489  0.0644  0.4818
 4621SOL    HW225500   3.614   3.421  12.376  0.8867  1.4916 -2.3587
 4622SOL     OW25501   2.369   2.983   4.573  0.6211  0.1331 -0.6198
 4622SOL    HW125502   2.328   2.946   4.495 -0.6637  2.1341 -0.8944
 4622SOL    HW225503   2.328   3.070   4.573  0.1697 -0.0970 -2.3673
 4623SOL     OW25504   1.532   1.257   1.979  0.6712 -0.2773  0.3039
 4623SOL    HW125505   1.619   1.295   1.975  0.2941  0.5502 -0.0814
 4623SOL    HW225506   1.518   1.259   1.885 -0.5028 -0.9196  0.4642
 4624SOL     OW25507   1.725   1.310   4.831  0.2100  0.3814  0.0102
 4624SOL    HW125508   1.748   1.369   4.759  1.3668  1.2789  1.1242
 4624SOL    HW225509   1.646   1.264   4.802  0.0819 -0.3881  1.5651
 4625SOL     OW25510   2.653   1.817  16.391  0.0559  0.0577  0.2912
 4625SOL    HW125511   2.662   1.747  16.326 -2.4805  0.8776 -0.9153
 4625SOL    HW225512   2.562   1.814  16.420  0.4857 -2.6136  1.3442
 4626SOL     OW25513   1.629   4.320  15.135  0.1572  0.0867  0.0748
 4626SOL    HW125514   1.622   4.335  15.229 -1.8100 -0.8726  0.0623
 4626SOL    HW225515   1.670   4.233  15.136  0.6404  0.2986 -0.8916
 4627SOL     OW25516   2.639   3.991   2.805 -0.0927  0.2344  1.0553
 4627SOL    HW125517   2.678   4.017   2.887  0.8941 -0.7758  0.9080
 4627SOL    HW225518   2.713   3.996   2.745 -0.1984 -2.7421  0.6436
 4628SOL     OW25519   0.232   1.165   6.742 -0.5519 -0.5343 -0.4255
 4628SOL    HW125520   0.214   1.224   6.816  3.6024 -0.6935  0.7060
 4628SOL    HW225521   0.292   1.214   6.686  0.6893  0.4768  1.7784
 4629SOL     OW25522   1.344   3.794  16.084  0.0428 -0.0636  0.1107
 4629SOL    HW125523   1.250   3.804  16.102 -0.2616 -0.7783 -1.1242
 4629SOL    HW225524   1.346   3.715  16.031 -2.5007 -1.3137  1.8824
 4630SOL     OW25525   0.783   2.795   6.321  0.2113  0.7105 -0.5941
 4630SOL    HW125526   0.721   2.808   6.393  0.4717 -1.7454  0.0779
 4630SOL    HW225527   0.822   2.879   6.295  1.1015  0.1828 -0.9596
 4631SOL     OW25528   2.339   2.274   5.744 -0.0998 -0.3425  0.0147
 4631SOL    HW125529   2.339   2.290   5.839  0.0235  2.1170 -0.3922
 4631SOL    HW225530   2.411   2.214   5.726 -0.5342 -0.3476 -1.6092
 4632SOL     OW25531   3.065   4.584   4.157 -0.2135 -0.0581  0.2832
 4632SOL    HW125532   3.055   4.558   4.249 -0.5833  1.1113  0.5707
 4632SOL    HW225533   3.012   4.663   4.150 -1.7916 -1.0374  1.1039
 4633SOL     OW25534   2.488   1.250  14.297  0.4222 -0.1367 -0.0006
 4633SOL    HW125535   2.504   1.246  14.392  0.8793  3.2744  0.0788
 4633SOL    HW225536   2.393   1.240  14.295  0.3316  0.6724  0.0357
 4634SOL     OW25537   0.895   4.732  15.809 -0.0610  0.0002  0.0505
 4634SOL    HW125538   0.822   4.705  15.754 -0.5870  0.7878  0.3680
 4634SOL    HW225539   0.895   4.674  15.885 -2.1587 -0.9015 -0.6368
 4635SOL     OW25540   4.537   2.568  15.723 -0.3232  0.8194 -0.0511
 4635SOL    HW125541   4.475   2.611  15.782  0.3290 -0.5774  1.6738
 4635SOL    HW225542   4.617   2.581  15.773  1.2409 -1.7096 -1.9045
 4636SOL     OW25543   2.747   1.646   5.694 -0.2055 -0.1167  0.3976
 4636SOL    HW125544   2.724   1.710   5.627 -0.6905 -0.6109  0.0871
 4636SOL    HW225545   2.711   1.564   5.658  1.8322 -1.0594  0.4877
 4637SOL     OW25546   0.524   3.006   4.080 -0.2420 -0.5710 -0.2926
 4637SOL    HW125547   0.473   3.083   4.054  0.1212  0.0296  0.7350
 4637SOL    HW225548   0.524   3.021   4.175 -0.8802  0.6172 -0.4763
 4638SOL     OW25549   0.041   0.162   7.095  0.0283  0.3406 -0.4771
 4638SOL    HW125550   0.072   0.178   7.006  0.2288 -1.1574 -0.6802
 4638SOL    HW225551   0.085   0.079   7.110  0.6734  0.9832  1.1297
 4639SOL     OW25552   0.199   2.231   8.217 -0.6523 -0.8743 -0.4742
 4639SOL    HW125553   0.247   2.236   8.300 -0.8709  0.4400 -0.4207
 4639SOL    HW225554   0.226   2.148   8.178 -1.5491 -0.2855 -2.3572
 4640SOL     OW25555   0.592   0.065  16.163  0.3351 -0.0111 -0.1068
 4640SOL    HW125556   0.549   0.087  16.081  0.6473  1.2344  0.0633
 4640SOL    HW225557   0.682   0.047  16.135  0.8058  0.8947  0.7983
 4641SOL     OW25558   3.074   3.349   7.415 -0.2388 -0.0743 -0.3507
 4641SOL    HW125559   3.006   3.398   7.368  1.0480  2.6934  0.7400
 4641SOL    HW225560   3.109   3.296   7.343 -0.2970 -1.0026  0.3037
 4642SOL     OW25561   1.789   2.043   3.793  0.0973 -0.1724  0.2482
 4642SOL    HW125562   1.878   2.074   3.775 -0.1102  0.0765 -0.3644
 4642SOL    HW225563   1.812   1.984   3.864  0.0470  1.3111  1.4896
 4643SOL     OW25564   1.005   2.808   8.065  0.0979 -0.2229 -0.4922
 4643SOL    HW125565   1.015   2.713   8.073 -0.2140 -0.1437  0.8950
 4643SOL    HW225566   0.970   2.829   7.979  0.9679  0.1825 -0.7455
 4644SOL     OW25567   3.056   1.882   3.638 -0.3770 -0.1010 -0.2699
 4644SOL    HW125568   3.025   1.841   3.558  0.2387  0.4612 -0.7925
 4644SOL    HW225569   3.123   1.821   3.666  0.8273  0.8180 -1.1789
 4645SOL     OW25570   4.563   0.980   8.536 -0.4198 -0.1447 -0.0249
 4645SOL    HW125571   4.504   1.054   8.551 -1.6348 -0.5467 -2.9238
 4645SOL    HW225572   4.506   0.923   8.485  1.7338 -1.9401 -0.4446
 4646SOL     OW25573   3.329   4.343   7.776  0.4571 -0.0348  0.5745
 4646SOL    HW125574   3.374   4.280   7.833  1.2013  0.2146  0.2713
 4646SOL    HW225575   3.354   4.424   7.821  0.3569  0.4663 -0.2760
 4647SOL     OW25576   4.725   2.424   7.376  0.0647 -0.3788  0.7148
 4647SOL    HW125577   4.656   2.472   7.421 -1.7034 -2.1387 -0.1631
 4647SOL    HW225578   0.033   2.371   7.441 -0.1177 -1.3207  0.0758
 4648SOL     OW25579   0.652   0.814   3.226 -0.6256  0.5044 -0.4035
 4648SOL    HW125580   0.564   0.849   3.238 -0.3020  1.7832 -1.6888
 4648SOL    HW225581   0.649   0.780   3.136  0.4122 -0.3522 -0.1115
 4649SOL     OW25582   1.005   0.335  11.973  0.5500 -0.3167 -0.7609
 4649SOL    HW125583   1.037   0.333  11.883  0.5156  2.1409 -0.8348
 4649SOL    HW225584   1.049   0.413  12.006 -1.2253  0.8592 -1.1561
 4650SOL     OW25585   2.164   1.006   2.009  0.3631 -0.1162 -0.0224
 4650SOL    HW125586   2.177   1.037   1.919 -0.8123  1.5277  0.3737
 4650SOL    HW225587   2.221   1.065   2.058 -0.7532  1.5024 -0.6890
 4651SOL     OW25588   2.654   4.692   3.056  0.2679  0.1473  0.2321
 4651SOL    HW125589   2.663   4.619   3.117 -0.0445 -0.1861 -0.1257
 4651SOL    HW225590   2.701   4.662   2.978 -0.5654 -1.9562  0.5587
 4652SOL     OW25591   2.342   3.456   9.943 -0.1260  0.1936 -0.2099
 4652SOL    HW125592   2.266   3.515   9.942 -0.7353 -0.5490  2.1750
 4652SOL    HW225593   2.330   3.398  10.018 -2.6236 -0.6000 -1.2222
 4653SOL     OW25594   4.608   3.671  13.252 -0.0723  0.1333  0.4596
 4653SOL    HW125595   4.691   3.705  13.285 -0.4326  2.1168 -0.6823
 4653SOL    HW225596   4.615   3.646  13.160  0.1428 -3.2148  1.3849
 4654SOL     OW25597   4.287   0.772   7.208  0.3107 -0.1360  0.0388
 4654SOL    HW125598   4.209   0.718   7.193 -1.2763  2.1197  0.1497
 4654SOL    HW225599   4.357   0.711   7.185  0.6824  0.5927 -0.7293
 4655SOL     OW25600   0.283   0.158   9.509 -0.4444  0.4392  0.5725
 4655SOL    HW125601   0.281   0.119   9.422  1.1991  0.0699  0.6969
 4655SOL    HW225602   0.367   0.133   9.548 -0.5912  0.4335  0.8852
 4656SOL     OW25603   4.369   1.089   5.617  0.1505 -0.0309 -0.1173
 4656SOL    HW125604   4.371   1.171   5.568  1.0594  0.8788  1.4693
 4656SOL    HW225605   4.280   1.101   5.651 -0.5991 -1.5184 -1.5412
 4657SOL     OW25606   4.611   0.410   5.842 -0.4244  0.0872 -0.1019
 4657SOL    HW125607   4.699   0.429   5.809  0.4480 -3.4877  0.2045
 4657SOL    HW225608   4.576   0.498   5.857 -1.1068 -0.2823  0.5205
 4658SOL     OW25609   1.656   1.242  15.114 -0.3214 -0.5943  0.1331
 4658SOL    HW125610   1.692   1.232  15.026  1.9042 -0.0427  0.9905
 4658SOL    HW225611   1.733   1.233  15.170  0.4551  0.1157 -0.8319
 4659SOL     OW25612   3.456   1.433   8.657  0.0032  0.4619  0.2827
 4659SOL    HW125613   3.417   1.396   8.578 -0.7515 -0.1794  0.9633
 4659SOL    HW225614   3.536   1.380   8.654 -0.3897 -0.1761  1.0483
 4660SOL     OW25615   2.838   3.112   4.738 -1.1242 -0.1890 -0.4445
 4660SOL    HW125616   2.828   3.133   4.645  2.7975  1.1029 -0.5925
 4660SOL    HW225617   2.878   3.026   4.728 -2.0683 -0.4945 -1.5461
 4661SOL     OW25618   3.178   4.064   7.779 -0.1208 -0.3298  0.1642
 4661SOL    HW125619   3.184   4.155   7.808  0.1001  0.0592 -1.1163
 4661SOL    HW225620   3.091   4.067   7.738  0.5510 -2.4948 -1.3823
 4662SOL     OW25621   0.784   1.011   3.385  0.1180  0.4618  0.0694
 4662SOL    HW125622   0.740   0.956   3.320  0.1295  1.0378 -0.4250
 4662SOL    HW225623   0.765   0.970   3.470  1.3715  0.0409  0.1447
 4663SOL     OW25624   3.434   1.464   6.059  0.0684  0.0126 -0.1106
 4663SOL    HW125625   3.403   1.551   6.084 -0.1399  0.1492 -0.8308
 4663SOL    HW225626   3.494   1.454   6.133  0.4965 -1.3867 -0.6459
 4664SOL     OW25627   3.054   3.090   1.269  0.4871  0.1247  0.4214
 4664SOL    HW125628   3.047   3.022   1.336 -0.1407  0.4023  0.6361
 4664SOL    HW225629   3.107   3.041   1.205  0.4380  0.9901 -0.2914
 4665SOL     OW25630   4.203   4.442   6.453  0.4358 -0.0914 -0.0322
 4665SOL    HW125631   4.153   4.520   6.478  0.5432  0.1893 -0.6908
 4665SOL    HW225632   4.232   4.455   6.363 -0.0762  2.1279  0.1091
 4666SOL     OW25633   2.185   0.177   9.524  0.0779  0.1094 -0.2007
 4666SOL    HW125634   2.247   0.131   9.581  1.2618  2.3418  0.2993
 4666SOL    HW225635   2.244   0.227   9.468  0.8219 -1.3317 -0.7172
 4667SOL     OW25636   2.744   2.842   3.273  0.4309  0.4355 -0.3934
 4667SOL    HW125637   2.811   2.911   3.267  1.6072 -0.5089  1.7470
 4667SOL    HW225638   2.692   2.883   3.343  1.1455 -0.7820  0.8644
 4668SOL     OW25639   2.397   1.150  10.933 -0.1834  0.1847  0.3760
 4668SOL    HW125640   2.366   1.073  10.980  0.8688 -0.4788 -0.0265
 4668SOL    HW225641   2.485   1.164  10.967 -0.1304  2.0714 -0.5284
 4669SOL     OW25642   1.631   4.249   9.787 -0.0589 -0.1468 -0.1861
 4669SOL    HW125643   1.597   4.339   9.788  2.1388  0.7254 -2.7595
 4669SOL    HW225644   1.693   4.256   9.714 -0.8644 -2.4678 -1.0765
 4670SOL     OW25645   1.084   2.336   3.213 -0.1243  0.2587 -0.8435
 4670SOL    HW125646   1.158   2.326   3.153  1.2963  3.0243  0.4138
 4670SOL    HW225647   1.049   2.417   3.175 -2.1581 -1.1255 -1.8705
 4671SOL     OW25648   2.287   3.301   7.066 -0.5059  0.0342  0.2311
 4671SOL    HW125649   2.263   3.348   6.986 -0.8062 -1.7891 -0.7577
 4671SOL    HW225650   2.264   3.363   7.134  1.1951 -0.0947  0.9318
 4672SOL     OW25651   4.270   2.771   1.635 -0.6538  0.1629  0.0361
 4672SOL    HW125652   4.310   2.849   1.674 -0.6273  1.3749 -2.4370
 4672SOL    HW225653   4.210   2.743   1.704  0.3453  0.7707  1.1586
 4673SOL     OW25654   3.861   3.892   5.779  0.2693  0.4352  0.1424
 4673SOL    HW125655   3.900   3.842   5.707  1.9664  3.5676 -1.0884
 4673SOL    HW225656   3.885   3.983   5.763  1.4797  0.0649 -0.1643
 4674SOL     OW25657   0.489   4.134   9.112 -0.2599  0.0876  0.0190
 4674SOL    HW125658   0.484   4.125   9.208 -1.2365 -1.2731 -0.1665
 4674SOL    HW225659   0.538   4.056   9.084  0.1327  0.0380  0.8390
 4675SOL     OW25660   0.250   2.014   8.728 -0.4485 -0.1859 -0.3354
 4675SOL    HW125661   0.331   1.966   8.743 -1.2171 -1.5692 -0.5820
 4675SOL    HW225662   0.196   1.936   8.717 -0.9406 -0.0479  0.9883
 4676SOL     OW25663   3.802   4.725  15.852  0.5048 -0.0125 -0.2797
 4676SOL    HW125664   3.879   0.028  15.813  1.4910 -2.2527 -0.6709
 4676SOL    HW225665   3.730   0.026  15.803  0.2180  0.5708  0.5997
 4677SOL     OW25666   1.570   0.521   6.080 -0.1800  0.0890 -0.2743
 4677SOL    HW125667   1.659   0.556   6.084  0.2181 -0.7725 -1.5473
 4677SOL    HW225668   1.571   0.476   5.996 -0.1501 -1.3496  0.4924
 4678SOL     OW25669   0.395   3.584   8.903 -0.4732  0.2444  0.2780
 4678SOL    HW125670   0.471   3.639   8.923 -1.0556  1.6924 -1.4667
 4678SOL    HW225671   0.354   3.590   8.989 -2.6285  0.4196 -0.7579
 4679SOL     OW25672   2.848   3.961   9.036  0.1113 -0.0086 -0.2313
 4679SOL    HW125673   2.891   3.976   9.121  0.8562  0.0629 -0.6219
 4679SOL    HW225674   2.755   3.963   9.060  0.8541  1.2515  2.6271
 4680SOL     OW25675   3.196   4.672   6.699  0.3165  0.0553 -0.4484
 4680SOL    HW125676   3.133   4.707   6.762  0.4483  0.8199 -0.7369
 4680SOL    HW225677   3.217   4.587   6.738 -0.2137  0.5976  1.0291
 4681SOL     OW25678   0.576   3.445  16.566  0.5844 -0.1266 -1.0383
 4681SOL    HW125679   0.575   3.404  16.480  1.3136 -0.2958 -0.9721
 4681SOL    HW225680   0.493   3.492  16.563  0.8427  0.3639 -0.5067
 4682SOL     OW25681   4.521   3.931   7.570  0.1095 -0.5706  0.3409
 4682SOL    HW125682   4.465   3.864   7.531 -0.7190  0.4314 -0.1785
 4682SOL    HW225683   4.454   3.999   7.580 -0.0581 -0.6864 -0.0158
 4683SOL     OW25684   2.518   3.814   8.408  0.6384 -0.6889  0.3704
 4683SOL    HW125685   2.545   3.867   8.482  1.4134  0.7376 -0.9381
 4683SOL    HW225686   2.599   3.794   8.360 -0.1306 -0.4173 -1.0311
 4684SOL     OW25687   3.173   1.212  15.095  0.4649 -0.3307 -0.4876
 4684SOL    HW125688   3.245   1.207  15.032  0.0927 -0.6084 -0.8823
 4684SOL    HW225689   3.114   1.140  15.077 -2.4831  1.1200  3.3939
 4685SOL     OW25690   3.621   4.162  12.640  0.4842  0.0989 -0.6114
 4685SOL    HW125691   3.562   4.093  12.611  1.8282  0.2623 -3.6503
 4685SOL    HW225692   3.580   4.244  12.611  1.6575  0.8570 -0.1278
 4686SOL     OW25693   3.015   4.706   5.133  0.2268  0.4729  0.4329
 4686SOL    HW125694   2.965   0.025   5.075  0.4168  0.2049 -0.0009
 4686SOL    HW225695   2.984   4.616   5.122  0.0067  0.5211  0.6510
 4687SOL     OW25696   2.133   1.133   0.796 -0.1739  0.0373 -0.0522
 4687SOL    HW125697   2.131   1.217   0.748 -0.4453  0.4190  0.6333
 4687SOL    HW225698   2.109   1.160   0.884 -2.6272 -1.3846 -0.2884
 4688SOL     OW25699   2.359   0.451  17.381 -0.1929  0.0966 -0.2228
 4688SOL    HW125700   2.429   0.388  17.364  0.5382  1.2200 -1.3648
 4688SOL    HW225701   2.305   0.432  17.305  0.4064 -0.2384 -0.5663
 4689SOL     OW25702   0.298   4.190   4.909 -1.1367  0.0908  0.2333
 4689SOL    HW125703   0.269   4.113   4.859 -0.8647 -0.3818  0.7958
 4689SOL    HW225704   0.389   4.192   4.879 -0.6495  1.8767  1.8228
 4690SOL     OW25705   4.046   3.087   9.327  0.1814  0.1847 -0.2393
 4690SOL    HW125706   4.081   3.025   9.263 -0.2773  0.1371 -0.4425
 4690SOL    HW225707   4.058   3.171   9.282  0.6607  0.1956 -0.0839
 4691SOL     OW25708   3.987   1.395  13.191 -0.8745  0.2699  0.2174
 4691SOL    HW125709   4.052   1.434  13.249  0.8311 -1.2465 -0.7056
 4691SOL    HW225710   4.014   1.394  13.099 -0.2551  0.8392  0.3944
 4692SOL     OW25711   2.975   2.648  17.343  0.3327  0.1527  0.0205
 4692SOL    HW125712   2.922   2.670  17.267 -0.1509  0.0836  0.3360
 4692SOL    HW225713   2.919   2.597  17.402  0.4860  0.5027  0.4758
 4693SOL     OW25714   2.681   4.419   2.468  0.1649  0.0282  0.0982
 4693SOL    HW125715   2.730   4.376   2.538 -1.0930  0.5910  1.3212
 4693SOL    HW225716   2.681   4.507   2.504  0.8192  0.6236 -1.3479
 4694SOL     OW25717   2.415   3.242   8.042  0.1744 -0.5068  0.4756
 4694SOL    HW125718   2.478   3.182   8.083 -2.1718 -2.3189  1.4381
 4694SOL    HW225719   2.471   3.315   8.015 -0.1505 -0.6681 -0.6452
 4695SOL     OW25720   1.209   1.998  16.684 -0.6939  0.0025 -0.5481
 4695SOL    HW125721   1.259   1.952  16.751 -5.0133  0.0171  2.7444
 4695SOL    HW225722   1.213   1.919  16.630 -2.8535 -0.3294 -0.2122
 4696SOL     OW25723   1.653   3.715   4.500  0.1220 -0.1577 -0.1723
 4696SOL    HW125724   1.619   3.796   4.538 -0.0271  1.4119 -3.5766
 4696SOL    HW225725   1.716   3.757   4.441 -0.6892  1.8139  0.3481
 4697SOL     OW25726   2.792   2.709   6.468  0.3645  0.2343  0.0834
 4697SOL    HW125727   2.872   2.751   6.437  0.9471  0.3209  1.7008
 4697SOL    HW225728   2.733   2.725   6.395  0.5751  0.4494 -0.0379
 4698SOL     OW25729   2.078   1.058  11.750  0.1185  0.1685 -0.2447
 4698SOL    HW125730   2.041   1.141  11.718 -0.7867  0.3559  1.2999
 4698SOL    HW225731   2.172   1.076  11.749  0.1893 -0.0666  2.3471
 4699SOL     OW25732   1.162   3.254   0.078 -0.2753 -0.0815  0.0930
 4699SOL    HW125733   1.192   3.170   0.113  1.4275 -0.2905 -1.8697
 4699SOL    HW225734   1.127   3.294   0.158 -1.2337  0.0167 -0.3784
 4700SOL     OW25735   1.666   1.582   1.900  0.1503 -0.0874  0.0053
 4700SOL    HW125736   1.755   1.547   1.904  0.2453  0.1212 -0.3247
 4700SOL    HW225737   1.678   1.677   1.909 -0.9008  0.1992 -1.6708
 4701SOL     OW25738   2.772   1.955   1.866  0.0934  0.1491  0.2728
 4701SOL    HW125739   2.816   1.925   1.787 -1.0950  1.4287 -0.8773
 4701SOL    HW225740   2.719   2.031   1.841 -0.1967  0.6378  2.3949
 4702SOL     OW25741   3.952   2.505   4.505 -0.1122 -0.1385 -0.0030
 4702SOL    HW125742   3.998   2.505   4.421 -2.4752 -1.2218 -1.3207
 4702SOL    HW225743   3.880   2.567   4.494  1.6108  2.0193  1.0226
 4703SOL     OW25744   3.316   1.389   6.419 -0.3492 -0.2502  0.2159
 4703SOL    HW125745   3.399   1.346   6.442  0.0372  0.2373 -0.2576
 4703SOL    HW225746   3.344   1.480   6.404  1.1855 -1.1349 -2.2800
 4704SOL     OW25747   3.116   0.309   7.779 -0.1136  0.1183 -0.2468
 4704SOL    HW125748   3.182   0.372   7.750 -1.5988  0.6688 -2.4162
 4704SOL    HW225749   3.172   0.234   7.802  0.7668  0.2314 -2.0437
 4705SOL     OW25750   2.712   1.815   5.486  0.0097  0.2314 -0.2137
 4705SOL    HW125751   2.776   1.806   5.415  0.4815  1.1869  0.0935
 4705SOL    HW225752   2.702   1.909   5.496 -2.4192  0.0562 -0.9087
 4706SOL     OW25753   4.332   4.298   5.763  0.1174  0.2197 -0.3550
 4706SOL    HW125754   4.271   4.239   5.808  0.6020 -0.9356 -1.2299
 4706SOL    HW225755   4.287   4.306   5.679  2.7506 -1.1866 -1.8906
 4707SOL     OW25756   4.712   3.134   5.995  0.1449  0.0111 -0.2152
 4707SOL    HW125757   4.629   3.180   6.008  1.5730  2.7048 -0.7942
 4707SOL    HW225758   0.024   3.201   5.949  2.2648 -0.8305  0.8698
 4708SOL     OW25759   3.177   2.191  11.249 -0.1712  0.0224  0.0243
 4708SOL    HW125760   3.209   2.143  11.173  1.0421  1.9082 -0.6787
 4708SOL    HW225761   3.093   2.224  11.217 -0.5072  0.7126  1.5826
 4709SOL     OW25762   1.272   1.234   6.787 -0.2193  0.1926 -0.0772
 4709SOL    HW125763   1.273   1.315   6.838  1.0958 -1.3158  2.3148
 4709SOL    HW225764   1.366   1.217   6.779 -0.2871  0.5083 -1.4073
 4710SOL     OW25765   2.442   0.979   4.495  0.0771  0.3946 -0.0534
 4710SOL    HW125766   2.413   0.991   4.404  0.9214 -0.5497 -0.4496
 4710SOL    HW225767   2.360   0.995   4.540 -1.7694 -1.4486 -2.7822
 4711SOL     OW25768   2.085   1.704  16.811 -0.1519 -0.6626 -0.1369
 4711SOL    HW125769   2.073   1.698  16.905  0.2587  3.1558  0.1498
 4711SOL    HW225770   2.047   1.791  16.802  0.9739 -0.3777 -2.0752
 4712SOL     OW25771   2.802   2.335   2.566  0.0982  0.9063 -0.2499
 4712SOL    HW125772   2.748   2.263   2.599  0.3989  1.0592  0.5736
 4712SOL    HW225773   2.868   2.286   2.517  1.7739  1.1561  1.7163
 4713SOL     OW25774   3.649   4.502   0.437  0.0591 -0.4104  0.5596
 4713SOL    HW125775   3.581   4.565   0.411  0.1384 -0.8110 -0.6398
 4713SOL    HW225776   3.675   4.470   0.351  2.5025  1.0081  0.7760
 4714SOL     OW25777   4.113   0.403   8.575 -0.2629 -0.4118 -0.0448
 4714SOL    HW125778   4.153   0.459   8.509 -1.3707  1.6625  1.0122
 4714SOL    HW225779   4.128   0.452   8.656  0.0118  1.1266 -1.0089
 4715SOL     OW25780   0.120   3.255   4.668 -0.4680 -0.2077 -0.3625
 4715SOL    HW125781   0.171   3.304   4.732 -1.5607  1.1598 -0.5568
 4715SOL    HW225782   0.079   3.325   4.617 -0.4432 -0.3545 -0.5866
 4716SOL     OW25783   3.441   4.651  10.589 -0.7355  0.5019  0.4855
 4716SOL    HW125784   3.444   0.008  10.593  3.3468  0.3923  0.0642
 4716SOL    HW225785   3.353   4.644  10.624 -1.6846 -2.0742 -2.4056
 4717SOL     OW25786   3.560   0.691  17.256  0.0983 -0.2824  0.1714
 4717SOL    HW125787   3.626   0.641  17.304 -0.8921 -1.7389  0.0381
 4717SOL    HW225788   3.545   0.627  17.186  0.5839  0.2263 -0.3973
 4718SOL     OW25789   2.099   1.713   8.066 -0.3579  0.0766 -0.2909
 4718SOL    HW125790   2.129   1.753   7.984 -0.1752 -1.3230 -0.9177
 4718SOL    HW225791   2.177   1.662   8.088 -1.5137 -1.2783  0.6512
 4719SOL     OW25792   1.813   0.975  14.852  0.9308 -0.2346 -0.3151
 4719SOL    HW125793   1.873   0.977  14.777  2.9204  1.2508  1.3214
 4719SOL    HW225794   1.808   1.070  14.865 -1.3400 -0.3352 -0.5178
 4720SOL     OW25795   0.015   0.775  12.799  0.0800  0.4326  0.4803
 4720SOL    HW125796   4.700   0.697  12.785 -0.1550  0.5085  0.9588
 4720SOL    HW225797   4.697   0.849  12.821  0.2883  0.3875  1.1642
 4721SOL     OW25798   2.458   2.030  14.583  0.2606  0.1196  0.0732
 4721SOL    HW125799   2.539   2.073  14.557  0.6018  0.3562  1.5047
 4721SOL    HW225800   2.444   1.972  14.509  1.8869 -0.2198  0.0341
 4722SOL     OW25801   1.698   3.372   5.780 -0.0450  0.4705 -0.1500
 4722SOL    HW125802   1.712   3.408   5.868  2.2833 -3.2968  1.0467
 4722SOL    HW225803   1.616   3.416   5.757  0.3873  0.9867 -0.6856
 4723SOL     OW25804   3.431   0.251   1.441  0.4641 -0.3019  0.3346
 4723SOL    HW125805   3.357   0.193   1.419  0.9893 -0.6539 -0.5079
 4723SOL    HW225806   3.388   0.334   1.463  0.6999 -0.7749  2.5313
 4724SOL     OW25807   2.239   2.554  13.915 -0.3275  0.2356  0.0427
 4724SOL    HW125808   2.219   2.647  13.914 -1.3359  0.0169 -1.4592
 4724SOL    HW225809   2.299   2.538  13.842 -0.1163 -2.6278  0.8154
 4725SOL     OW25810   2.109   1.681   3.229 -0.0837  0.0802  0.8060
 4725SOL    HW125811   2.161   1.730   3.292  0.2713 -0.8420  1.2369
 4725SOL    HW225812   2.141   1.718   3.147  1.1429 -1.1555  0.7193
 4726SOL     OW25813   0.005   1.420   9.233  0.3266 -0.3006  0.6933
 4726SOL    HW125814   0.037   1.381   9.315  0.5602 -1.7525 -0.0953
 4726SOL    HW225815   0.079   1.481   9.225 -0.3205  0.4324  0.2822
 4727SOL     OW25816   4.274   0.927  16.421 -0.1310  0.7770  0.0955
 4727SOL    HW125817   4.263   0.878  16.503 -0.2316 -0.5783 -0.7307
 4727SOL    HW225818   4.353   0.886  16.386  1.6216  4.1883  0.0650
 4728SOL     OW25819   4.467   1.639   2.136  1.2723 -0.1957  0.5392
 4728SOL    HW125820   4.423   1.669   2.216 -3.2885 -2.0187 -1.3581
 4728SOL    HW225821   4.459   1.545   2.148 -1.4173  0.2449  2.0791
 4729SOL     OW25822   0.012   3.442   4.275 -0.0352  0.0564 -0.4423
 4729SOL    HW125823   4.660   3.427   4.303  0.1105  0.0652  0.0402
 4729SOL    HW225824   0.049   3.478   4.355 -4.5803  0.7121  1.3677
 4730SOL     OW25825   0.898   1.521   7.691  0.3582  0.1926 -0.1375
 4730SOL    HW125826   0.894   1.616   7.701  0.1569  0.0721  0.9265
 4730SOL    HW225827   0.857   1.493   7.773 -0.3188  0.6911 -0.3075
 4731SOL     OW25828   2.727   2.045   7.376  0.1679 -0.1441 -0.2594
 4731SOL    HW125829   2.729   2.140   7.390  0.2551 -0.2690  0.5496
 4731SOL    HW225830   2.768   2.047   7.289  2.5780  1.3402  0.8859
 4732SOL     OW25831   3.995   2.644   8.805  0.3125  0.0949  0.1062
 4732SOL    HW125832   3.908   2.604   8.809 -0.0401  0.7776 -0.7252
 4732SOL    HW225833   4.044   2.587   8.745 -0.4624  0.3759 -0.7944
 4733SOL     OW25834   3.246   0.940  13.905 -0.1350 -0.9471  0.3378
 4733SOL    HW125835   3.303   0.921  13.831 -0.8448 -0.3322 -0.3562
 4733SOL    HW225836   3.308   0.903  13.969  1.2051 -2.0074 -1.5785
 4734SOL     OW25837   1.542   2.536  16.305 -0.3618 -0.1025 -0.4413
 4734SOL    HW125838   1.520   2.474  16.236 -1.2422  0.3994 -0.6273
 4734SOL    HW225839   1.610   2.589  16.264  0.9336 -0.3755  1.3798
 4735SOL     OW25840   3.467   4.233   7.021  0.3944  0.4326 -0.2091
 4735SOL    HW125841   3.518   4.256   7.098  2.2202 -1.0363 -0.9922
 4735SOL    HW225842   3.430   4.318   7.000  0.1881  0.1416 -1.0224
 4736SOL     OW25843   0.949   0.527   9.247  0.1490 -0.2636  0.1438
 4736SOL    HW125844   0.877   0.474   9.213 -1.0724  1.0946  0.5956
 4736SOL    HW225845   1.023   0.486   9.201 -0.3874  0.0873 -1.0274
 4737SOL     OW25846   3.594   3.102   2.951  0.5571  0.2757  0.6091
 4737SOL    HW125847   3.642   3.162   3.007  1.4023  0.1655  0.0011
 4737SOL    HW225848   3.641   3.109   2.868  0.9695  0.3589  0.8526
 4738SOL     OW25849   2.827   4.505  12.612 -0.0168  0.3518 -0.0851
 4738SOL    HW125850   2.766   4.491  12.685 -2.5908  3.1602 -1.7268
 4738SOL    HW225851   2.758   4.535  12.553  0.3419  0.3286 -0.5121
 4739SOL     OW25852   4.436   2.412   1.830  0.0797 -0.6744  0.5188
 4739SOL    HW125853   4.438   2.470   1.906  0.7406 -0.5804  0.4349
 4739SOL    HW225854   4.344   2.386   1.833 -0.0546 -0.2562 -0.0559
 4740SOL     OW25855   0.920   1.985   6.522  0.4150  0.1678 -0.5133
 4740SOL    HW125856   0.912   2.081   6.526 -0.8966 -0.0802  2.5638
 4740SOL    HW225857   0.859   1.965   6.593  0.7021 -3.8968 -1.4007
 4741SOL     OW25858   4.610   2.214   1.923  0.4482  1.0331 -0.3717
 4741SOL    HW125859   4.619   2.138   1.866 -2.6827  1.1834 -1.0865
 4741SOL    HW225860   4.575   2.269   1.852 -0.3928  0.2958 -0.5341
 4742SOL     OW25861   3.964   4.209   8.073  0.0647 -0.2468 -0.2227
 4742SOL    HW125862   4.029   4.213   8.143 -0.9082 -0.9880  0.7297
 4742SOL    HW225863   4.020   4.177   8.002  1.1451 -0.9986  0.9849
 4743SOL     OW25864   4.662   0.334   8.805  0.1553 -0.4876 -0.1108
 4743SOL    HW125865   4.681   0.262   8.744  2.1988 -0.6287  0.6990
 4743SOL    HW225866   4.624   0.396   8.742  1.8854 -1.2483 -1.9248
 4744SOL     OW25867   1.480   0.949   8.406  0.2479 -0.1046  0.4942
 4744SOL    HW125868   1.498   0.997   8.486 -2.7411  0.2241  0.9547
 4744SOL    HW225869   1.432   0.874   8.443  1.0214 -1.1540 -0.6112
 4745SOL     OW25870   2.782   0.233   6.112  0.1113  0.7065  0.0762
 4745SOL    HW125871   2.751   0.224   6.022 -0.0557  2.2730 -0.0212
 4745SOL    HW225872   2.850   0.166   6.121 -1.8390 -1.4385 -1.2408
 4746SOL     OW25873   3.513   3.973   1.906 -0.2062 -0.4779  0.2102
 4746SOL    HW125874   3.515   3.954   2.000  1.2842 -0.1330  0.2607
 4746SOL    HW225875   3.515   3.886   1.866 -0.2551 -0.2207 -0.3598
 4747SOL     OW25876   4.552   1.832   8.771 -0.1436  0.1604 -0.5919
 4747SOL    HW125877   4.565   1.750   8.818  0.7716  0.3988 -0.4184
 4747SOL    HW225878   4.640   1.867   8.782 -0.0975 -0.6140  1.4208
 4748SOL     OW25879   1.001   1.501   4.126  0.2462  0.9936  0.7637
 4748SOL    HW125880   1.059   1.502   4.049  0.6123  2.5895  1.0500
 4748SOL    HW225881   1.008   1.590   4.161 -2.5409  1.0760  1.0928
 4749SOL     OW25882   2.982   3.662  16.753 -0.1545  0.1768  0.2856
 4749SOL    HW125883   3.026   3.730  16.700  0.3153 -1.2257 -1.1276
 4749SOL    HW225884   3.043   3.588  16.747 -0.2761  0.1364 -0.5412
 4750SOL     OW25885   3.920   2.316  17.718  0.2053  0.0264 -0.1180
 4750SOL    HW125886   3.993   2.273   0.010 -0.6311 -2.2601 -0.9549
 4750SOL    HW225887   3.906   2.391   0.024  1.7445 -0.4369  0.8393
 4751SOL     OW25888   2.064   2.651   4.163  0.5211  0.7822  0.0395
 4751SOL    HW125889   1.983   2.676   4.206 -1.2219 -2.8488 -1.1248
 4751SOL    HW225890   2.090   2.734   4.123 -0.5542  0.3035 -1.6732
 4752SOL     OW25891   4.032   3.442   4.567  0.6026 -0.4197  0.0239
 4752SOL    HW125892   4.091   3.505   4.607 -1.7298  0.1452  2.5810
 4752SOL    HW225893   3.967   3.500   4.528  0.1779 -1.3134 -0.6080
 4753SOL     OW25894   0.895   0.373   2.008  0.2094 -0.6547 -0.2613
 4753SOL    HW125895   0.953   0.397   2.080  1.1847 -1.4480 -0.7867
 4753SOL    HW225896   0.942   0.394   1.928 -0.1946  0.5041 -0.2008
 4754SOL     OW25897   1.856   3.724   0.749 -0.3017  0.2096 -0.1149
 4754SOL    HW125898   1.900   3.797   0.706 -0.9246  0.7265  0.1270
 4754SOL    HW225899   1.849   3.648   0.691 -1.1341  1.2160 -1.3176
 4755SOL     OW25900   0.383   1.187   3.830  0.1895 -0.1606 -0.3069
 4755SOL    HW125901   0.404   1.262   3.886 -2.4834 -0.7618  1.4722
 4755SOL    HW225902   0.458   1.199   3.771 -0.0924 -0.1013 -0.6545
 4756SOL     OW25903   0.463   2.708   2.401  0.5138  0.4371  0.3032
 4756SOL    HW125904   0.475   2.657   2.481 -0.7219 -0.4924 -0.0966
 4756SOL    HW225905   0.505   2.793   2.411 -3.8174  2.7523 -1.0803
 4757SOL     OW25906   1.194   0.417   3.490 -0.1362  0.4949 -0.5371
 4757SOL    HW125907   1.150   0.333   3.475 -1.9962  0.7820  3.3565
 4757SOL    HW225908   1.124   0.481   3.506 -2.6706 -2.8888  1.9235
 4758SOL     OW25909   0.271   3.257   8.324  0.2103 -0.3459 -0.5865
 4758SOL    HW125910   0.251   3.283   8.414 -2.5156 -0.7116 -1.0630
 4758SOL    HW225911   0.195   3.302   8.287  1.2707  1.5689 -0.4383
 4759SOL     OW25912   3.031   2.852  13.393  0.8812 -0.1076  0.0899
 4759SOL    HW125913   2.983   2.929  13.361  1.1004  0.3418  0.8573
 4759SOL    HW225914   2.970   2.806  13.450  0.6208  0.2498  0.1008
 4760SOL     OW25915   0.448   3.736   4.668 -0.0896 -0.0740 -0.2724
 4760SOL    HW125916   0.440   3.832   4.665  2.4896  0.1285 -0.3253
 4760SOL    HW225917   0.510   3.719   4.597 -0.9739 -0.3232 -0.9900
 4761SOL     OW25918   4.047   1.582  10.625  0.1827  0.0901  0.5505
 4761SOL    HW125919   4.015   1.507  10.575  2.0466 -3.0117  4.0400
 4761SOL    HW225920   4.050   1.650  10.557  0.6993  1.0869  1.5787
 4762SOL     OW25921   3.643   2.365  14.465 -0.1118  0.1287 -0.0284
 4762SOL    HW125922   3.686   2.299  14.520 -0.9572 -0.7042 -0.3631
 4762SOL    HW225923   3.651   2.444  14.517 -1.1982  0.2538 -0.0450
 4763SOL     OW25924   2.567   1.339   2.471  0.0810 -0.2651 -0.1439
 4763SOL    HW125925   2.553   1.350   2.565  0.4092  2.7667 -0.4604
 4763SOL    HW225926   2.507   1.406   2.438 -0.1104 -1.7539 -2.8317
 4764SOL     OW25927   1.809   4.446   7.401  0.7733 -0.0128 -0.5026
 4764SOL    HW125928   1.735   4.494   7.438  1.1380  0.1079  0.0743
 4764SOL    HW225929   1.825   4.480   7.313 -2.2015 -3.6780 -2.4523
 4765SOL     OW25930   0.327   0.610  10.964  0.1800 -0.1581  0.1512
 4765SOL    HW125931   0.398   0.650  11.014  0.2192 -0.1347  0.0764
 4765SOL    HW225932   0.348   0.516  10.967  0.8499 -0.0003  0.3318
 4766SOL     OW25933   4.564   2.945   9.460  0.6609  0.4978 -0.1788
 4766SOL    HW125934   4.620   3.022   9.454 -2.6807  3.0086  0.9780
 4766SOL    HW225935   4.531   2.947   9.550  3.1536 -0.3249  0.7495
 4767SOL     OW25936   3.936   4.722  16.091  0.0809 -0.1140 -0.5380
 4767SOL    HW125937   3.884   4.718  16.011 -0.4860  1.6241 -0.2545
 4767SOL    HW225938   3.880   0.038  16.146 -1.3884  0.3884 -2.5329
 4768SOL     OW25939   2.280   1.523   9.361  0.6187 -0.1860  0.9025
 4768SOL    HW125940   2.374   1.533   9.347  0.8989  0.2121  3.0656
 4768SOL    HW225941   2.271   1.464   9.436 -0.4519 -0.7472  0.3289
 4769SOL     OW25942   1.299   0.049   8.938 -0.2325 -0.7020  0.3062
 4769SOL    HW125943   1.223   0.051   8.996 -0.7686  0.3113 -0.4097
 4769SOL    HW225944   1.277   4.702   8.900  0.7587 -1.2205  0.9311
 4770SOL     OW25945   1.226   1.916   6.901  0.2078 -0.0712  0.3553
 4770SOL    HW125946   1.290   1.986   6.915 -0.0661  0.1520  0.4851
 4770SOL    HW225947   1.209   1.928   6.808 -0.5748 -0.4275  0.4509
 4771SOL     OW25948   1.974   2.305   8.465 -0.4964  0.0937 -0.5356
 4771SOL    HW125949   1.887   2.340   8.448 -0.5497  0.1280 -0.1772
 4771SOL    HW225950   2.026   2.374   8.424  1.1334 -1.0576 -0.4139
 4772SOL     OW25951   2.674   0.208   6.363 -0.6213  0.1364 -0.0069
 4772SOL    HW125952   2.726   0.213   6.282 -1.0028 -3.0311 -0.4639
 4772SOL    HW225953   2.593   0.159   6.346 -0.9218  0.4460  0.5332
 4773SOL     OW25954   2.171   4.687  12.025  0.3903  0.4931  0.1427
 4773SOL    HW125955   2.136   0.020  12.078  0.4981  0.4299  0.3016
 4773SOL    HW225956   2.101   4.679  11.960  0.8839 -1.0454 -0.1957
 4774SOL     OW25957   0.332   1.937   5.115 -0.4852 -0.8104  0.1340
 4774SOL    HW125958   0.244   1.914   5.085 -0.9914  0.1565  0.8788
 4774SOL    HW225959   0.315   2.028   5.139 -0.6784 -1.8389  3.8635
 4775SOL     OW25960   3.015   2.925  17.160  0.3772  0.1520 -0.0414
 4775SOL    HW125961   3.026   3.015  17.129 -2.3962  0.8560  1.0896
 4775SOL    HW225962   2.943   2.892  17.106  0.4316  0.2583 -0.1797
 4776SOL     OW25963   4.245   2.130   4.940  0.5934 -1.0550  0.5412
 4776SOL    HW125964   4.214   2.215   4.909 -1.0969 -1.6489  0.6091
 4776SOL    HW225965   4.256   2.165   5.029 -0.1368 -1.2928  0.7211
 4777SOL     OW25966   4.482   3.834   3.112  0.0885  0.0804 -0.7385
 4777SOL    HW125967   4.418   3.800   3.176  0.6973 -1.7788 -1.1130
 4777SOL    HW225968   4.517   3.750   3.081  2.4558 -0.1826  2.5179
 4778SOL     OW25969   3.473   1.044   9.062  0.0889 -0.6718  0.2518
 4778SOL    HW125970   3.558   1.074   9.092  0.2197 -2.4916  1.6648
 4778SOL    HW225971   3.417   1.119   9.084  0.2119 -0.7853  0.9679
 4779SOL     OW25972   1.567   3.523  14.754  0.8457 -0.1397  0.3935
 4779SOL    HW125973   1.490   3.510  14.809  1.3318  4.2739  2.0922
 4779SOL    HW225974   1.605   3.595  14.803 -0.7906  2.4119 -2.0991
 4780SOL     OW25975   2.526   4.248  15.138  0.3095  0.0868 -0.0999
 4780SOL    HW125976   2.521   4.160  15.177  0.1898 -0.7105 -1.9089
 4780SOL    HW225977   2.516   4.238  15.043  0.7133 -0.2478 -0.1068
 4781SOL     OW25978   4.033   4.003   6.076 -0.5015  0.3992  0.6359
 4781SOL    HW125979   4.043   3.988   6.170 -1.2204 -0.6620  0.5453
 4781SOL    HW225980   3.960   3.944   6.058 -0.0261  0.7240 -2.2831
 4782SOL     OW25981   1.913   4.359   6.223  0.1941 -0.1177 -0.3971
 4782SOL    HW125982   1.844   4.296   6.245 -0.0488  0.6412  1.0233
 4782SOL    HW225983   1.960   4.357   6.307 -0.5173  0.9022  0.0197
 4783SOL     OW25984   4.162   4.084   4.441 -0.6303  0.1207 -0.3235
 4783SOL    HW125985   4.137   4.007   4.389 -0.0277 -0.7170  0.6312
 4783SOL    HW225986   4.225   4.136   4.391  0.7098 -0.7714  0.4260
 4784SOL     OW25987   1.849   4.608   9.315 -0.6699 -0.4811 -0.1785
 4784SOL    HW125988   1.783   4.558   9.363 -1.4694  2.3567  1.6321
 4784SOL    HW225989   1.880   4.674   9.377 -0.0685 -0.8441 -0.0960
 4785SOL     OW25990   2.341   3.781   9.504 -0.4449  0.0578 -0.3724
 4785SOL    HW125991   2.371   3.696   9.537 -0.1393  0.0168 -0.7587
 4785SOL    HW225992   2.249   3.763   9.483 -0.7277  0.0865  0.8218
 4786SOL     OW25993   1.478   3.327   2.427  0.2354  0.1045 -0.3650
 4786SOL    HW125994   1.415   3.348   2.497 -0.6049 -0.3871 -0.9727
 4786SOL    HW225995   1.553   3.294   2.477 -1.9245 -4.4923 -0.1327
 4787SOL     OW25996   3.115   0.135   3.900  0.3634 -0.3542  0.5817
 4787SOL    HW125997   3.134   0.189   3.977  3.1345 -0.8358  0.2331
 4787SOL    HW225998   3.198   0.086   3.905  0.0444 -0.6821  2.7045
 4788SOL     OW25999   3.382   3.450   4.544 -0.1998 -0.3265 -0.0962
 4788SOL    HW126000   3.370   3.463   4.638  0.8896  1.2844 -0.1774
 4788SOL    HW226001   3.291   3.458   4.514  0.2909  1.5832 -1.1025
 4789SOL     OW26002   3.351   4.229  15.305  0.2257 -0.5563  0.6812
 4789SOL    HW126003   3.406   4.283  15.248  1.8537 -1.5597  1.2876
 4789SOL    HW226004   3.369   4.142  15.269  1.2177 -0.2077  0.3241
 4790SOL     OW26005   4.423   1.003   4.218 -0.1564  0.1827  0.2802
 4790SOL    HW126006   4.458   1.037   4.300  2.9964 -0.7456 -0.7116
 4790SOL    HW226007   4.329   1.020   4.229 -0.1262  0.3941  0.2155
 4791SOL     OW26008   4.469   2.561   8.232 -0.0320  0.1802 -0.6354
 4791SOL    HW126009   4.430   2.620   8.296  2.3661  0.3437  0.6777
 4791SOL    HW226010   4.412   2.486   8.249 -1.3713  1.3960  0.2782
 4792SOL     OW26011   0.088   0.938  13.114  0.3282 -0.3237  0.1122
 4792SOL    HW126012   0.158   0.891  13.068  1.1717  0.7898  0.2691
 4792SOL    HW226013   0.036   0.974  13.043  0.2805  0.5942  0.6200
 4793SOL     OW26014   3.049   3.866   7.263 -0.7687 -0.2047 -0.1375
 4793SOL    HW126015   3.092   3.860   7.178  0.3095  2.5504  0.1997
 4793SOL    HW226016   3.092   3.789   7.300 -0.9490 -0.4852 -0.5111
 4794SOL     OW26017   3.459   4.111  16.538  0.1747  0.1331  0.1639
 4794SOL    HW126018   3.431   4.020  16.545 -0.1089  0.2613  0.6656
 4794SOL    HW226019   3.545   4.112  16.582 -0.3458  1.4288  1.1471
 4795SOL     OW26020   3.743   0.892   9.323 -0.2437 -0.1359  0.7772
 4795SOL    HW126021   3.815   0.955   9.327 -1.3245  1.1761 -0.4529
 4795SOL    HW226022   3.686   0.927   9.392 -0.3217 -2.1058  1.6964
 4796SOL     OW26023   0.241   3.418   7.534 -0.1998 -0.6052 -0.0655
 4796SOL    HW126024   0.322   3.371   7.515 -0.8991 -2.4539  1.5432
 4796SOL    HW226025   0.252   3.501   7.487  3.0502 -0.2546  1.2915
 4797SOL     OW26026   3.136   3.834   5.989 -0.0014  0.0507 -0.5803
 4797SOL    HW126027   3.048   3.838   5.951 -0.8147  0.4322  1.3299
 4797SOL    HW226028   3.184   3.877   5.919  0.7062 -0.3918 -0.3685
 4798SOL     OW26029   4.063   4.340   8.655 -0.0007  0.4052  0.0990
 4798SOL    HW126030   3.996   4.394   8.698 -0.0913 -0.0130  0.4782
 4798SOL    HW226031   4.030   4.340   8.565 -0.5530 -0.2514  0.3045
 4799SOL     OW26032   1.561   4.203  14.342 -0.1138 -0.3805  0.1809
 4799SOL    HW126033   1.488   4.211  14.280  0.9939  1.3749 -0.8742
 4799SOL    HW226034   1.553   4.289  14.382  0.5617 -0.7192  1.0409
 4800SOL     OW26035   4.332   2.374   5.827 -0.2067  0.2169  0.2867
 4800SOL    HW126036   4.274   2.436   5.870  1.3967  0.0745  2.6798
 4800SOL    HW226037   4.357   2.325   5.906 -1.3790 -2.0627 -0.7658
 4801SOL     OW26038   2.684   3.147  14.223  0.2873 -0.0292 -0.8067
 4801SOL    HW126039   2.651   3.225  14.268  0.5887  0.8129 -2.0447
 4801SOL    HW226040   2.678   3.159  14.128 -1.0921  0.8080 -0.6152
 4802SOL     OW26041   0.440   1.339   0.606 -0.0332  0.0822 -0.2213
 4802SOL    HW126042   0.431   1.426   0.646 -0.4372  0.7217 -1.6880
 4802SOL    HW226043   0.432   1.361   0.513 -1.3365  0.7357  0.0366
 4803SOL     OW26044   0.128   4.621   7.989  0.6204  0.3093  0.4525
 4803SOL    HW126045   0.034   4.606   8.003  0.8049 -0.3361  0.9454
 4803SOL    HW226046   0.156   4.626   8.080 -0.8922  3.0070  0.7902
 4804SOL     OW26047   1.210   2.395   9.628  0.4921 -0.1556  0.6016
 4804SOL    HW126048   1.219   2.447   9.548  0.5846 -0.4938  0.3918
 4804SOL    HW226049   1.212   2.309   9.585 -1.1620 -0.6491  1.5131
 4805SOL     OW26050   4.413   0.669   6.796  0.2712  0.2117 -0.0916
 4805SOL    HW126051   4.465   0.744   6.765  0.3525  0.5018  0.7466
 4805SOL    HW226052   4.350   0.714   6.852 -0.7068  1.0400 -1.8529
 4806SOL     OW26053   0.445   1.455  15.192 -0.1062 -0.0450  0.1448
 4806SOL    HW126054   0.422   1.530  15.246  1.9660  0.2598  0.6170
 4806SOL    HW226055   0.537   1.475  15.172  0.1183  0.3051  1.5609
 4807SOL     OW26056   1.899   0.851  14.411 -0.3035  0.0446 -0.1083
 4807SOL    HW126057   1.985   0.855  14.453 -0.8405 -1.7982  1.1140
 4807SOL    HW226058   1.862   0.781  14.464 -1.4354  0.2689 -0.5889
 4808SOL     OW26059   2.522   4.639   9.176  0.3257  0.7926 -0.4838
 4808SOL    HW126060   2.435   4.631   9.214  0.2674 -0.8181 -0.9653
 4808SOL    HW226061   2.570   4.635   9.259  1.5549  2.4006 -1.1151
 4809SOL     OW26062   3.924   4.210  17.569  0.2095 -0.6545 -0.0677
 4809SOL    HW126063   4.014   4.184  17.552  0.9583  1.2118  1.0660
 4809SOL    HW226064   3.873   4.133  17.543 -0.7900 -0.0127  0.0022
 4810SOL     OW26065   2.257   2.456   4.122  0.2074  0.1858  0.7475
 4810SOL    HW126066   2.183   2.515   4.106  1.8764  2.4139  1.2456
 4810SOL    HW226067   2.225   2.376   4.081  0.5471 -0.0167  0.8828
 4811SOL     OW26068   3.107   2.931  10.623 -0.0586  0.1322  0.3099
 4811SOL    HW126069   3.094   3.025  10.626  2.2621  0.5476 -1.8248
 4811SOL    HW226070   3.144   2.920  10.535 -1.5784 -0.3676 -0.2702
 4812SOL     OW26071   1.110   4.172   1.008 -0.5444  0.5147 -0.6268
 4812SOL    HW126072   1.026   4.208   0.978  0.1097  1.4889 -1.2941
 4812SOL    HW226073   1.095   4.084   0.973  2.9723 -1.1961  2.2209
 4813SOL     OW26074   1.063   1.441   7.023 -0.1285 -0.6575  0.6416
 4813SOL    HW126075   1.145   1.413   7.063 -0.1359  0.1410  1.2117
 4813SOL    HW226076   1.056   1.525   7.068 -2.3047 -1.4045  1.7098
 4814SOL     OW26077   3.214   2.114   4.602 -0.0605 -0.5240  0.6527
 4814SOL    HW126078   3.281   2.046   4.599 -1.5830 -1.9744 -0.2393
 4814SOL    HW226079   3.134   2.071   4.632 -0.7859 -1.6792 -2.9033
 4815SOL     OW26080   2.076   1.997   3.227 -0.2773 -0.2007  0.1649
 4815SOL    HW126081   2.072   1.919   3.173 -0.3797  1.9178 -2.8790
 4815SOL    HW226082   2.011   1.970   3.292  1.4164 -1.2897  1.4125
 4816SOL     OW26083   4.585   2.405  10.656 -0.1674 -0.2915 -0.1314
 4816SOL    HW126084   4.641   2.335  10.692  1.6725  0.2282 -1.9525
 4816SOL    HW226085   4.537   2.435  10.733  0.6466  2.7775 -0.8447
 4817SOL     OW26086   2.884   3.992   7.424 -0.0787 -0.2272  0.2718
 4817SOL    HW126087   2.909   3.945   7.504  0.3865 -1.0693 -0.3756
 4817SOL    HW226088   2.918   3.931   7.359 -1.2208  0.7889 -1.2722
 4818SOL     OW26089   3.177   0.392   2.508  0.0578 -0.4567 -0.0968
 4818SOL    HW126090   3.175   0.382   2.413  0.9067  0.5489 -0.2218
 4818SOL    HW226091   3.161   0.300   2.532 -0.5181 -0.6735 -1.3168
 4819SOL     OW26092   3.662   2.538   1.845 -0.7248  0.1210 -0.5984
 4819SOL    HW126093   3.571   2.509   1.858 -0.5992  1.2550  2.6488
 4819SOL    HW226094   3.687   2.565   1.933 -1.5085 -0.0918 -0.3041
 4820SOL     OW26095   0.854   0.084   4.144 -0.7813  0.1618 -0.4867
 4820SOL    HW126096   0.820   0.051   4.061 -1.1935 -0.4557 -0.0776
 4820SOL    HW226097   0.767   0.113   4.173 -0.9715 -0.6831 -0.1840
 4821SOL     OW26098   2.788   3.006  13.346  0.2309 -0.4118 -0.4775
 4821SOL    HW126099   2.710   2.972  13.301  0.7852  0.3065 -1.9570
 4821SOL    HW226100   2.755   3.021  13.435 -0.6238  2.7987 -1.3582
 4822SOL     OW26101   3.030   2.615   6.795  0.9367 -0.2138  0.1182
 4822SOL    HW126102   3.053   2.708   6.793 -0.3616  0.1305  0.8387
 4822SOL    HW226103   3.107   2.569   6.828  0.6390  0.6838  2.0629
 4823SOL     OW26104   2.190   1.818   1.559 -0.1375  0.3298  0.1077
 4823SOL    HW126105   2.183   1.760   1.483  1.4045  0.1827  0.0682
 4823SOL    HW226106   2.113   1.794   1.610  0.0429 -1.6352 -0.5244
 4824SOL     OW26107   0.988   2.730   4.537 -0.5743 -0.4090  0.8322
 4824SOL    HW126108   0.945   2.765   4.615  0.4017  0.0850  1.1612
 4824SOL    HW226109   0.951   2.643   4.526 -1.6696  0.0437  0.9272
 4825SOL     OW26110   4.199   3.575   7.581 -0.4928  0.7284 -0.2599
 4825SOL    HW126111   4.228   3.637   7.648 -1.7281  1.4484 -0.3933
 4825SOL    HW226112   4.110   3.562   7.613 -0.0306  1.0433  1.1771
 4826SOL     OW26113   2.028   0.430   3.054 -0.2085 -0.1711  0.2117
 4826SOL    HW126114   1.945   0.459   3.016  0.1989  1.8531  0.8334
 4826SOL    HW226115   2.095   0.466   2.996 -0.6782  0.9807  0.3744
 4827SOL     OW26116   4.182   4.688   3.680  0.3342 -0.0272  0.0829
 4827SOL    HW126117   4.194   0.013   3.609 -2.0438 -1.1222 -1.3238
 4827SOL    HW226118   4.265   4.693   3.727  1.2889  0.2037 -1.6103
 4828SOL     OW26119   2.492   2.969   1.754  0.1806  0.6565  0.5793
 4828SOL    HW126120   2.530   3.010   1.831  2.9169 -1.7517  0.5344
 4828SOL    HW226121   2.410   2.936   1.792  1.1794 -0.9917  1.3155
 4829SOL     OW26122   2.704   0.835   0.418 -0.0181 -0.1428 -0.1896
 4829SOL    HW126123   2.788   0.789   0.429 -0.0548  0.0128  0.7349
 4829SOL    HW226124   2.650   0.817   0.495 -2.7243  0.4920 -1.9759
 4830SOL     OW26125   0.075   2.310  10.178 -0.4381 -0.2760 -0.8585
 4830SOL    HW126126   0.123   2.238  10.139 -0.8992  0.4483 -2.7683
 4830SOL    HW226127   0.049   2.289  10.268  0.7353  1.6986 -0.0594
 4831SOL     OW26128   4.432   0.806   6.171  0.4550 -0.9808  0.7708
 4831SOL    HW126129   4.386   0.745   6.229 -0.0383 -1.0276  0.3327
 4831SOL    HW226130   4.365   0.846   6.116 -0.2477  0.3890  2.6282
 4832SOL     OW26131   1.083   1.717  15.251  0.2983 -0.2595 -0.4029
 4832SOL    HW126132   1.130   1.777  15.309 -2.7628  2.0932 -0.3782
 4832SOL    HW226133   1.058   1.653  15.318 -2.8786  1.2389 -0.1762
 4833SOL     OW26134   4.149   1.675   7.928  0.2628  0.2150 -0.0687
 4833SOL    HW126135   4.160   1.769   7.943  0.4291  0.6607 -2.9924
 4833SOL    HW226136   4.139   1.647   8.019  0.1130  2.2914  0.5664
 4834SOL     OW26137   3.944   1.881  16.628  0.9875  0.0842  0.0352
 4834SOL    HW126138   3.988   1.947  16.574 -1.9314  2.6498  0.8009
 4834SOL    HW226139   3.858   1.918  16.647  1.5763  1.7530 -0.5368
 4835SOL     OW26140   4.048   3.747   2.740  0.2282 -0.2312 -0.3950
 4835SOL    HW126141   4.081   3.714   2.824  1.9463 -0.5649 -1.1944
 4835SOL    HW226142   4.131   3.787   2.714 -0.6006  0.8335 -1.3971
 4836SOL     OW26143   4.131   3.022   4.455 -0.1791  0.1991 -0.3763
 4836SOL    HW126144   4.074   3.087   4.496  1.8642  1.9055 -0.2401
 4836SOL    HW226145   4.069   2.984   4.393 -2.2224 -2.2975  3.1738
 4837SOL     OW26146   1.992   4.014   6.077 -0.4884 -0.3857 -0.3189
 4837SOL    HW126147   1.909   4.026   6.030 -0.2670  1.2523 -0.3079
 4837SOL    HW226148   1.971   3.967   6.157  0.0449 -0.5391 -0.2689
 4838SOL     OW26149   1.558   1.800   7.658  0.0395  0.0423 -0.0358
 4838SOL    HW126150   1.638   1.795   7.712  0.3414 -0.0187 -0.4865
 4838SOL    HW226151   1.518   1.713   7.668 -0.6655  0.5185  1.2921
 4839SOL     OW26152   3.439   1.747   5.375  0.0473 -0.0116 -0.3661
 4839SOL    HW126153   3.437   1.669   5.320 -0.7160 -0.9407  0.9811
 4839SOL    HW226154   3.398   1.713   5.454  0.6037  0.0158 -0.0673
 4840SOL     OW26155   4.381   3.079   8.183 -0.5155  0.4300  0.6998
 4840SOL    HW126156   4.287   3.066   8.168 -0.5359  0.5933  0.6951
 4840SOL    HW226157   4.412   3.070   8.093  1.6171 -1.7457  1.6295
 4841SOL     OW26158   4.466   2.942  10.437 -0.1035  0.1218 -0.0860
 4841SOL    HW126159   4.560   2.947  10.425 -0.3666  0.6790 -1.8473
 4841SOL    HW226160   4.464   2.946  10.533  1.4293 -1.5612  0.0121
 4842SOL     OW26161   2.522   2.837  12.429  0.5866  0.3358  0.6350
 4842SOL    HW126162   2.561   2.749  12.422 -0.7085 -0.3897  2.6909
 4842SOL    HW226163   2.590   2.893  12.393 -0.1916  0.8542 -0.0387
 4843SOL     OW26164   2.769   0.543   7.250 -0.6101 -0.1586  0.4109
 4843SOL    HW126165   2.794   0.531   7.159  2.1254 -0.1530  1.1555
 4843SOL    HW226166   2.806   0.463   7.288 -1.8390  1.0613  4.1860
 4844SOL     OW26167   2.040   2.478  12.988  0.2378  0.3911 -0.2560
 4844SOL    HW126168   1.960   2.426  12.992  0.9017 -0.6526 -0.6667
 4844SOL    HW226169   2.094   2.434  13.053  0.6104  0.1355 -0.7312
 4845SOL     OW26170   3.742   0.369   8.410  0.2480  0.1451 -0.2729
 4845SOL    HW126171   3.751   0.347   8.502 -1.6852 -0.9537 -0.3462
 4845SOL    HW226172   3.800   0.303   8.371 -0.5254  0.1203 -1.4037
 4846SOL     OW26173   4.263   4.552  13.999  0.3321 -0.7171 -0.0529
 4846SOL    HW126174   4.191   4.614  13.996  1.2084  0.2276 -2.3223
 4846SOL    HW226175   4.231   4.482  14.055 -0.9715  0.1105  0.2311
 4847SOL     OW26176   3.075   2.053   6.491 -0.3538  0.3052 -0.0023
 4847SOL    HW126177   2.991   2.020   6.522  1.0961 -0.4641  3.2218
 4847SOL    HW226178   3.088   2.003   6.411 -1.1986  0.7041 -0.3796
 4848SOL     OW26179   0.621   3.295   1.470 -0.2046 -0.4037  0.4759
 4848SOL    HW126180   0.600   3.370   1.415 -1.9845 -2.3771 -1.5403
 4848SOL    HW226181   0.705   3.320   1.509  0.5726 -2.2760  0.0167
 4849SOL     OW26182   0.767   1.675   9.510  0.2061 -0.2003  0.0223
 4849SOL    HW126183   0.681   1.632   9.507 -0.2913  0.7426  0.7641
 4849SOL    HW226184   0.743   1.757   9.466  0.4631 -0.4746 -0.6299
 4850SOL     OW26185   0.223   0.332   0.682  0.2970 -0.0827 -0.0205
 4850SOL    HW126186   0.190   0.420   0.664  0.3947 -0.3529 -1.5473
 4850SOL    HW226187   0.267   0.341   0.766  0.9819  2.3703 -0.6305
 4851SOL     OW26188   4.561   3.452  12.430  0.5803  0.9554  0.3927
 4851SOL    HW126189   4.633   3.484  12.377 -0.1201  4.0469  1.2922
 4851SOL    HW226190   4.611   3.393  12.487 -2.0039 -1.0927  0.5603
 4852SOL     OW26191   4.477   3.792  15.766 -1.0522  0.1415  0.1169
 4852SOL    HW126192   4.457   3.878  15.803  0.0890 -0.5673  2.3713
 4852SOL    HW226193   4.477   3.824  15.676 -0.3852 -0.7769 -0.2143
 4853SOL     OW26194   0.559   3.136  11.192 -0.1067  0.0094 -0.4309
 4853SOL    HW126195   0.540   3.230  11.191 -1.9520 -0.3464  3.4477
 4853SOL    HW226196   0.500   3.105  11.261  1.9142 -1.2598  0.7018
 4854SOL     OW26197   0.276   2.696   4.055  0.1937 -0.0548  0.3556
 4854SOL    HW126198   0.368   2.680   4.031  0.3276 -0.7888  1.3457
 4854SOL    HW226199   0.284   2.766   4.119 -3.6590  0.2313  0.4988
 4855SOL     OW26200   3.765   4.069   1.094 -0.7775 -0.6921  0.3248
 4855SOL    HW126201   3.705   4.019   1.039  0.1902 -0.8080 -0.6161
 4855SOL    HW226202   3.777   4.151   1.046  0.0269 -0.7650  0.3988
 4856SOL     OW26203   2.883   1.503   7.847 -0.3417  0.4018  0.6664
 4856SOL    HW126204   2.965   1.536   7.885  0.2751  1.6791 -1.7718
 4856SOL    HW226205   2.884   1.528   7.755 -0.5874  0.0260  0.5595
 4857SOL     OW26206   2.082   2.797   9.743 -0.2710  0.4581 -0.2769
 4857SOL    HW126207   2.095   2.746   9.822 -1.3427 -0.7932 -0.9184
 4857SOL    HW226208   2.129   2.740   9.682  1.3941  0.8045  0.6534
 4858SOL     OW26209   2.553   4.223   5.039 -0.5779 -0.4611  0.4568
 4858SOL    HW126210   2.585   4.298   5.090 -0.7646  0.4659 -0.7957
 4858SOL    HW226211   2.540   4.253   4.949 -3.0752 -2.0986  0.2376
 4859SOL     OW26212   0.592   0.313   9.791 -0.4017 -0.0459  0.1408
 4859SOL    HW126213   0.588   0.350   9.703  1.3814 -1.2301 -0.4219
 4859SOL    HW226214   0.687   0.313   9.802 -0.4143 -1.0873  0.2268
 4860SOL     OW26215   4.067   0.545   2.182 -0.1215 -0.0959  0.3815
 4860SOL    HW126216   4.083   0.558   2.089  2.2283  0.0650  0.8144
 4860SOL    HW226217   3.982   0.501   2.183  0.4117 -1.1064  0.6362
 4861SOL     OW26218   1.716   3.530   3.528  0.0228  0.2619  0.0514
 4861SOL    HW126219   1.725   3.466   3.458  1.1037 -0.9857  1.3217
 4861SOL    HW226220   1.764   3.491   3.602  0.3002  1.7623  0.6736
 4862SOL     OW26221   0.666   3.329   4.124  0.0829 -0.0029 -0.3971
 4862SOL    HW126222   0.737   3.272   4.153  0.0628 -0.4685 -1.2812
 4862SOL    HW226223   0.716   3.407   4.097 -0.0413  1.5391  3.8390
 4863SOL     OW26224   0.805   1.497   4.844 -0.0679 -0.2460 -0.6873
 4863SOL    HW126225   0.847   1.519   4.760  0.9536 -0.0156 -0.1114
 4863SOL    HW226226   0.741   1.568   4.841 -0.2541 -0.3346  1.1975
 4864SOL     OW26227   2.209   2.088   1.223 -0.0824  0.2006  0.4701
 4864SOL    HW126228   2.283   2.106   1.282  1.5461 -1.4899 -1.0890
 4864SOL    HW226229   2.205   2.172   1.178 -1.3951 -0.2421 -0.2367
 4865SOL     OW26230   3.237   1.392   6.702 -0.0434 -0.4932 -0.2713
 4865SOL    HW126231   3.208   1.483   6.699  0.3890 -0.3593 -0.4138
 4865SOL    HW226232   3.268   1.383   6.611  0.8541  1.9586 -0.2016
 4866SOL     OW26233   3.757   3.202   4.790  0.4431 -0.0782  0.0125
 4866SOL    HW126234   3.704   3.233   4.716  0.2453  0.5907  0.4329
 4866SOL    HW226235   3.684   3.186   4.850  0.1468  0.3697 -0.2214
 4867SOL     OW26236   1.437   0.512   6.318 -0.2917 -0.4117 -0.3369
 4867SOL    HW126237   1.342   0.517   6.307 -0.2032  0.4878 -0.7147
 4867SOL    HW226238   1.471   0.518   6.229  0.9777 -1.5618  0.0755
 4868SOL     OW26239   4.538   4.566   8.534  0.1275 -0.9572  0.0108
 4868SOL    HW126240   4.454   4.528   8.559 -1.0322  0.5553 -1.5177
 4868SOL    HW226241   4.530   4.544   8.441 -1.1117  0.6290 -0.2556
 4869SOL     OW26242   3.721   1.040   4.681  0.6368  0.6011 -0.1481
 4869SOL    HW126243   3.675   1.020   4.762  0.4371  0.1620 -0.3673
 4869SOL    HW226244   3.674   1.118   4.651 -0.7689 -0.7026 -1.3588
 4870SOL     OW26245   3.988   1.325   5.931  0.1068 -0.1499  0.5269
 4870SOL    HW126246   3.924   1.294   5.867 -0.9818  1.1934  0.9652
 4870SOL    HW226247   4.038   1.374   5.866  0.3524  1.9915  2.3383
 4871SOL     OW26248   3.396   0.110   9.235 -0.5826 -0.3402 -0.2055
 4871SOL    HW126249   3.383   0.164   9.157  2.6873  1.6234  0.6406
 4871SOL    HW226250   3.334   0.041   9.213  1.2545 -1.9237 -0.3550
 4872SOL     OW26251   3.915   3.116   3.310  0.1382  0.0636 -0.2117
 4872SOL    HW126252   3.962   3.033   3.310 -1.1020 -0.6391  2.5068
 4872SOL    HW226253   3.827   3.088   3.284 -0.8452  2.4108  0.5738
 4873SOL     OW26254   4.207   0.684   8.577 -0.0047 -0.9691 -0.4818
 4873SOL    HW126255   4.250   0.639   8.650  1.2473  0.7202 -0.1947
 4873SOL    HW226256   4.162   0.754   8.624 -1.3572 -0.2533 -2.8605
 4874SOL     OW26257   3.437   4.512  14.662  0.1894 -0.2226 -0.0174
 4874SOL    HW126258   3.384   4.451  14.714 -0.6674 -1.0440 -1.8793
 4874SOL    HW226259   3.422   4.470  14.578 -2.3281  1.4313 -0.3769
 4875SOL     OW26260   1.834   0.840   1.539 -0.3311  0.3370  1.0221
 4875SOL    HW126261   1.813   0.904   1.471 -0.9177 -2.3061 -1.2554
 4875SOL    HW226262   1.921   0.875   1.561  0.1559 -1.0226  1.2694
 4876SOL     OW26263   1.620   4.069   8.076  0.1601  0.0168  0.1699
 4876SOL    HW126264   1.546   4.009   8.091  1.6834 -1.8236  0.3943
 4876SOL    HW226265   1.646   4.069   8.168  1.8219 -0.2515 -0.3144
 4877SOL     OW26266   0.389   3.438   7.197 -0.0693  0.0093  0.0163
 4877SOL    HW126267   0.432   3.523   7.200  0.5365 -0.4052  2.8437
 4877SOL    HW226268   0.317   3.451   7.136 -0.2666 -0.8551  0.0598
 4878SOL     OW26269   1.312   0.049   7.891 -0.6564  0.1019 -0.7946
 4878SOL    HW126270   1.320   4.698   7.858 -3.7053 -0.4507 -0.0540
 4878SOL    HW226271   1.404   0.073   7.902 -0.4980 -0.2992 -1.2348
 4879SOL     OW26272   4.453   4.302   3.242 -0.0073  0.4354 -0.1525
 4879SOL    HW126273   4.454   4.217   3.198  0.0198  0.4852 -0.2486
 4879SOL    HW226274   4.404   4.356   3.180  3.9207 -1.7482 -5.1573
 4880SOL     OW26275   4.281   0.091   4.086  0.0866  0.1564  0.0895
 4880SOL    HW126276   4.233   0.165   4.123  1.8820 -0.0472  2.8642
 4880SOL    HW226277   4.336   0.131   4.019 -0.4790 -0.1153 -0.5318
 4881SOL     OW26278   3.599   1.497   3.643 -0.1983  0.2767  0.4692
 4881SOL    HW126279   3.644   1.559   3.585 -0.5236  1.2247  1.2366
 4881SOL    HW226280   3.525   1.463   3.593 -0.7285 -1.2635  2.3397
 4882SOL     OW26281   0.184   2.500   3.762  0.2140  0.5851 -0.0071
 4882SOL    HW126282   0.273   2.523   3.737  0.2660  0.8754  0.4463
 4882SOL    HW226283   0.137   2.580   3.737 -0.2870  0.4622  0.5330
 4883SOL     OW26284   3.137   1.082   3.308  0.1212  0.3002 -0.5208
 4883SOL    HW126285   3.186   1.016   3.259 -0.4964 -0.8436  0.4100
 4883SOL    HW226286   3.045   1.062   3.289 -0.1147  0.6137  0.2994
 4884SOL     OW26287   3.907   1.597  10.861 -0.3018  0.3152  0.5498
 4884SOL    HW126288   3.947   1.578  10.776  0.5076 -1.3832  1.3230
 4884SOL    HW226289   3.922   1.689  10.882 -0.0772 -0.3525  3.3207
 4885SOL     OW26290   1.720   2.726  15.711  0.2434  0.1324  0.8173
 4885SOL    HW126291   1.653   2.667  15.747 -0.9772  0.6404 -0.6283
 4885SOL    HW226292   1.802   2.698  15.753  0.7034  2.0667  1.2426
 4886SOL     OW26293   2.051   2.064   8.831 -0.7190  0.9530  0.6256
 4886SOL    HW126294   2.074   2.153   8.802 -0.3548  0.8342  0.5443
 4886SOL    HW226295   1.985   2.078   8.898 -1.3241  0.7778  0.0656
 4887SOL     OW26296   3.998   1.852   7.633  0.1573  0.2284  0.4656
 4887SOL    HW126297   3.978   1.762   7.661  0.7550  0.2871  1.1008
 4887SOL    HW226298   3.987   1.835   7.540 -1.9281  1.6379  0.4486
 4888SOL     OW26299   1.325   0.979  12.895  0.0100  0.4578  0.0385
 4888SOL    HW126300   1.258   0.910  12.891 -1.0351  1.6116 -1.9787
 4888SOL    HW226301   1.281   1.032  12.962 -0.3031  0.5706 -0.2552
 4889SOL     OW26302   1.423   1.787  13.712 -0.5122 -0.1092 -0.2839
 4889SOL    HW126303   1.397   1.878  13.698  0.7859  0.1038 -1.3573
 4889SOL    HW226304   1.393   1.750  13.630 -2.0064 -2.4463  1.3354
 4890SOL     OW26305   0.727   3.937   0.477  0.2107 -0.1729  0.3224
 4890SOL    HW126306   0.807   3.958   0.428  2.0317 -0.0671  3.3476
 4890SOL    HW226307   0.666   4.009   0.463 -0.3684 -0.7731 -0.2746
 4891SOL     OW26308   4.461   3.300  13.665  0.0303  0.3850  0.7054
 4891SOL    HW126309   4.516   3.250  13.726 -0.8276 -2.0091 -0.4920
 4891SOL    HW226310   4.426   3.361  13.730 -0.3440  0.2118  0.6633
 4892SOL     OW26311   1.104   1.044   0.797  0.5912 -0.1736 -0.3414
 4892SOL    HW126312   1.031   0.986   0.777  0.7291 -0.4437 -0.0521
 4892SOL    HW226313   1.174   0.978   0.794 -0.8627 -1.7184 -0.4194
 4893SOL     OW26314   1.548   0.513  11.567  0.2502 -0.8608 -0.4626
 4893SOL    HW126315   1.474   0.539  11.513  0.0733 -0.9646 -0.2679
 4893SOL    HW226316   1.561   0.425  11.532  0.6022 -0.7844 -0.5268
 4894SOL     OW26317   0.935   4.144   0.331  0.7311  0.2858 -0.0361
 4894SOL    HW126318   0.996   4.215   0.313 -0.1690  1.3283  1.0719
 4894SOL    HW226319   0.992   4.081   0.376  1.0339  0.8469  0.3558
 4895SOL     OW26320   4.528   2.204   4.258  0.9147 -0.5303  0.0633
 4895SOL    HW126321   4.437   2.195   4.228  0.5179  2.0297  0.5143
 4895SOL    HW226322   4.578   2.234   4.182  1.7604  0.2288  0.9246
 4896SOL     OW26323   0.381   0.395  17.167  0.2263  0.4774 -0.1230
 4896SOL    HW126324   0.410   0.475  17.210  1.5991  0.0267 -0.2047
 4896SOL    HW226325   0.421   0.331  17.227 -0.2777  1.5847  1.4082
 4897SOL     OW26326   0.060   3.236  13.280 -0.0885  0.2061  0.6698
 4897SOL    HW126327   0.054   3.284  13.198  0.3670  0.6998  0.9234
 4897SOL    HW226328   0.058   3.309  13.342 -2.2450 -0.6071  1.5888
 4898SOL     OW26329   2.852   3.445   6.482  0.0829  0.2549  0.5757
 4898SOL    HW126330   2.855   3.388   6.406 -0.9219  0.0853  0.6681
 4898SOL    HW226331   2.780   3.498   6.448  0.6689  0.7987  0.1761
 4899SOL     OW26332   0.996   1.324   3.556  0.0859 -0.7584  0.1597
 4899SOL    HW126333   1.061   1.296   3.491  0.7255  2.0016 -0.3871
 4899SOL    HW226334   0.918   1.296   3.508 -0.1950  0.7799 -0.2792
 4900SOL     OW26335   3.498   1.417  12.769  0.3020 -0.1369  0.0777
 4900SOL    HW126336   3.516   1.511  12.760  2.3294 -0.5184  0.0650
 4900SOL    HW226337   3.416   1.415  12.818  0.6681 -0.9790  0.6581
 4901SOL     OW26338   1.520   2.200   3.907  0.2113  0.3578  0.1950
 4901SOL    HW126339   1.493   2.282   3.866 -0.3135  0.1092  0.0463
 4901SOL    HW226340   1.615   2.206   3.912  0.1198  0.7497  1.5550
 4902SOL     OW26341   1.738   4.405  14.749  0.0556  0.4393 -0.5812
 4902SOL    HW126342   1.643   4.397  14.743 -0.1679  0.5838  3.1500
 4902SOL    HW226343   1.747   4.382  14.841  1.7592  1.7514 -0.4412
 4903SOL     OW26344   2.867   0.722   3.303 -0.8703 -1.2038  0.8352
 4903SOL    HW126345   2.897   0.636   3.333 -0.8335 -1.3111  0.4873
 4903SOL    HW226346   2.822   0.754   3.381 -2.9742 -1.4620 -0.2681
 4904SOL     OW26347   3.188   1.224   4.649 -0.5365 -0.5293  0.2464
 4904SOL    HW126348   3.143   1.150   4.608  0.5644 -1.4167  0.6351
 4904SOL    HW226349   3.116   1.287   4.656 -0.0350  0.0667 -0.0407
 4905SOL     OW26350   4.673   4.638   6.928 -0.3470 -0.0905 -0.3912
 4905SOL    HW126351   4.644   4.562   6.879 -0.2070  0.5427 -1.4640
 4905SOL    HW226352   4.620   4.697   6.874  0.1387  0.6802 -0.0311
 4906SOL     OW26353   0.693   1.765  16.803 -0.2382 -1.1031 -0.8714
 4906SOL    HW126354   0.626   1.832  16.793 -0.6813 -1.3287  0.5891
 4906SOL    HW226355   0.641   1.706  16.859 -1.7868 -0.2686 -1.4516
 4907SOL     OW26356   3.140   1.377   8.798  0.4028 -0.0292 -0.2024
 4907SOL    HW126357   3.057   1.388   8.752 -1.2755 -0.4520  2.7167
 4907SOL    HW226358   3.184   1.456   8.766  1.4300 -0.4458  0.1771
 4908SOL     OW26359   2.171   4.305   6.076  0.1521  0.3497 -0.0029
 4908SOL    HW126360   2.197   4.214   6.057 -0.5910  0.2585 -0.5443
 4908SOL    HW226361   2.083   4.284   6.107  0.2114 -1.7722 -1.2417
 4909SOL     OW26362   3.674   1.787  14.811  0.5996  0.0722 -0.5084
 4909SOL    HW126363   3.645   1.763  14.899  2.7834  1.7158  0.6588
 4909SOL    HW226364   3.602   1.839  14.775  0.6847  1.1261  0.8798
 4910SOL     OW26365   0.375   4.180   0.279 -0.1747 -0.0544 -0.2733
 4910SOL    HW126366   0.326   4.099   0.295 -0.4938 -0.1165 -1.5238
 4910SOL    HW226367   0.305   4.245   0.268  1.1539  1.2339 -1.0502
 4911SOL     OW26368   2.159   4.567   5.617 -0.2954 -0.3153 -0.1025
 4911SOL    HW126369   2.111   4.501   5.666 -0.0625  0.2389  0.8555
 4911SOL    HW226370   2.096   4.578   5.545 -0.7897 -0.2125  0.3507
 4912SOL     OW26371   0.588   3.261  16.344  0.3076 -0.7879 -0.8254
 4912SOL    HW126372   0.546   3.177  16.361  2.3381 -1.4900  0.7736
 4912SOL    HW226373   0.675   3.231  16.315  0.7264  2.1482 -2.6441
 4913SOL     OW26374   4.338   0.617   5.046 -1.0233  0.7988 -0.8377
 4913SOL    HW126375   4.403   0.547   5.055 -0.3681  1.6287  0.8702
 4913SOL    HW226376   4.277   0.581   4.981 -1.0556 -0.5135 -0.0704
 4914SOL     OW26377   1.410   0.614   0.911 -0.1507  0.1428 -0.5291
 4914SOL    HW126378   1.436   0.631   1.002  1.4407 -1.4976 -0.6778
 4914SOL    HW226379   1.339   0.549   0.917 -0.2203  0.2031 -0.6938
 4915SOL     OW26380   1.249   2.809  15.734 -0.3468 -0.0304  0.2604
 4915SOL    HW126381   1.157   2.828  15.749 -0.0231  2.4781 -0.9275
 4915SOL    HW226382   1.266   2.878  15.670  0.8334  0.2642  0.8879
 4916SOL     OW26383   2.560   2.985   8.473  0.7026  0.2890 -0.3026
 4916SOL    HW126384   2.585   3.052   8.409  1.4608 -0.9322 -1.2782
 4916SOL    HW226385   2.512   2.922   8.419 -0.2927 -0.0243  0.9417
 4917SOL     OW26386   3.094   0.245   5.879  0.3952  0.1805 -0.0889
 4917SOL    HW126387   3.165   0.231   5.815  0.9727 -1.2920  0.8847
 4917SOL    HW226388   3.078   0.157   5.914 -3.0627 -0.2283 -2.6800
 4918SOL     OW26389   1.181   2.701  12.278 -0.4680  0.4332 -0.1735
 4918SOL    HW126390   1.125   2.773  12.306  0.0922  0.5854  0.5511
 4918SOL    HW226391   1.199   2.737  12.191  2.3973  0.0325  0.2432
 4919SOL     OW26392   2.749   4.266   6.039  0.5045 -0.2037  0.1459
 4919SOL    HW126393   2.784   4.194   6.091  1.0734 -0.1380 -0.1372
 4919SOL    HW226394   2.793   4.244   5.957  2.7382 -0.4911  1.4129
 4920SOL     OW26395   3.200   3.668   8.529 -0.0578  0.0200  0.8891
 4920SOL    HW126396   3.228   3.607   8.597 -1.0020  1.2832  2.4184
 4920SOL    HW226397   3.159   3.607   8.468 -3.1205  2.2735  0.6620
 4921SOL     OW26398   3.100   4.027   4.476  0.1332  0.1847  0.4687
 4921SOL    HW126399   3.145   4.112   4.476 -0.7355  0.6394  1.1593
 4921SOL    HW226400   3.139   3.997   4.557  0.9111 -1.1524 -0.4026
 4922SOL     OW26401   3.923   0.135   7.120 -0.1432  0.1197  0.5141
 4922SOL    HW126402   3.970   0.117   7.038 -2.3712  0.3924 -0.8214
 4922SOL    HW226403   3.856   0.192   7.083  0.8499  1.9197  1.5066
 4923SOL     OW26404   2.200   3.164   2.820 -0.6459 -0.7430 -0.1608
 4923SOL    HW126405   2.176   3.207   2.902  1.4167 -1.9796  1.1065
 4923SOL    HW226406   2.165   3.077   2.839 -0.2492 -0.5365  1.5880
 4924SOL     OW26407   4.025   1.550   7.706  0.2666  1.1503 -0.4112
 4924SOL    HW126408   4.068   1.592   7.781  0.6353 -0.1327  0.0846
 4924SOL    HW226409   4.105   1.548   7.655 -0.1788  0.1820 -1.0663
 4925SOL     OW26410   0.524   0.721   8.977 -0.3348 -0.3274 -0.1131
 4925SOL    HW126411   0.432   0.746   8.986  0.5459  3.1190 -0.7995
 4925SOL    HW226412   0.529   0.647   9.038 -1.9186  1.4258  2.1341
 4926SOL     OW26413   2.556   2.140   4.587 -0.1118  0.4013 -0.0617
 4926SOL    HW126414   2.529   2.139   4.679 -2.4587  3.5915 -0.6994
 4926SOL    HW226415   2.618   2.212   4.586  0.0946  0.2070 -1.6793
 4927SOL     OW26416   4.611   3.850  13.781  0.1374 -0.3804  0.2236
 4927SOL    HW126417   4.615   3.796  13.860 -0.6979  1.0853  1.2658
 4927SOL    HW226418   4.697   3.824  13.749  0.2558  1.0280 -0.5811
 4928SOL     OW26419   0.946   3.046   1.355  0.0531 -0.4069  0.2448
 4928SOL    HW126420   0.935   3.134   1.320 -2.5928 -1.5203 -1.6916
 4928SOL    HW226421   1.037   3.046   1.383  0.4211  1.8722 -0.9989
 4929SOL     OW26422   1.215   3.185   2.197 -0.7458 -0.6524 -0.2702
 4929SOL    HW126423   1.135   3.209   2.152  0.3528  0.7894 -1.4533
 4929SOL    HW226424   1.226   3.254   2.262 -0.5542  0.2036 -1.2261
 4930SOL     OW26425   0.782   1.100  11.622  0.0570  0.2838  0.5396
 4930SOL    HW126426   0.863   1.091  11.672  0.2537 -0.2204  0.1343
 4930SOL    HW226427   0.715   1.121  11.688  0.8426  2.2644  0.6992
 4931SOL     OW26428   2.811   0.076   7.037  0.3641  0.0205  0.5657
 4931SOL    HW126429   2.810   0.017   6.961 -1.1865 -1.0642  1.4497
 4931SOL    HW226430   2.750   0.034   7.096  1.1448  0.8197  1.9396
 4932SOL     OW26431   3.855   0.814  11.738  0.6034 -0.2077 -0.0279
 4932SOL    HW126432   3.880   0.889  11.683 -0.7058 -0.2420 -0.6605
 4932SOL    HW226433   3.859   0.855  11.824 -1.3810  1.1313 -0.5716
 4933SOL     OW26434   3.575   1.104   0.137 -0.0148 -0.0622 -0.0175
 4933SOL    HW126435   3.518   1.063   0.202 -0.6511  1.3774  0.3246
 4933SOL    HW226436   3.613   1.022   0.108 -1.7210 -1.0678  0.5997
 4934SOL     OW26437   3.981   0.228   7.367  0.0234 -0.3824 -0.1168
 4934SOL    HW126438   4.071   0.255   7.383 -0.0209  0.0014 -0.5352
 4934SOL    HW226439   3.984   0.185   7.282  0.6811 -1.0813  0.2516
 4935SOL     OW26440   4.074   2.787  12.515 -0.1826 -0.0901 -0.3949
 4935SOL    HW126441   4.047   2.878  12.501  0.1756 -0.0803 -0.9967
 4935SOL    HW226442   4.066   2.771  12.609  0.3336 -2.8311 -0.8160
 4936SOL     OW26443   2.216   0.063   5.256  0.3155  0.6589 -0.0788
 4936SOL    HW126444   2.300   0.040   5.216  0.3226 -1.1819  1.0100
 4936SOL    HW226445   2.166   4.728   5.222  0.5729 -0.3561  1.7421
 4937SOL     OW26446   1.407   2.475   7.028 -0.0043 -0.4191 -0.1021
 4937SOL    HW126447   1.407   2.551   7.086  2.5151 -0.5646  0.0776
 4937SOL    HW226448   1.349   2.503   6.957 -2.5275 -0.7967  1.7903
 4938SOL     OW26449   0.891   0.890  15.693 -0.0625  0.0845  0.4167
 4938SOL    HW126450   0.821   0.938  15.649 -0.7692 -1.5419 -0.2647
 4938SOL    HW226451   0.846   0.830  15.753  0.8137 -0.7500  0.2399
 4939SOL     OW26452   1.671   0.714   7.142 -0.7835  0.0776 -0.1163
 4939SOL    HW126453   1.615   0.722   7.220  2.0435 -0.6161  2.0050
 4939SOL    HW226454   1.673   0.806   7.116  1.9515  0.2371  0.6905
 4940SOL     OW26455   2.416   1.117   9.456 -0.0438 -0.2657 -0.1562
 4940SOL    HW126456   2.442   1.112   9.549  0.3177  3.4665 -0.0631
 4940SOL    HW226457   2.338   1.172   9.463 -0.6119 -1.0566 -0.2336
 4941SOL     OW26458   0.294   0.712   0.329 -0.4530 -0.3604 -0.4375
 4941SOL    HW126459   0.302   0.680   0.419  1.8710 -0.4823 -0.6950
 4941SOL    HW226460   0.386   0.721   0.305 -0.2145 -4.5388 -1.0250
 4942SOL     OW26461   4.018   3.199  12.924 -0.2139 -0.1246  0.4376
 4942SOL    HW126462   4.014   3.205  13.019  2.7364 -1.1016  0.6187
 4942SOL    HW226463   4.065   3.116  12.916 -2.9336 -1.5352 -0.9320
 4943SOL     OW26464   4.068   3.937   4.220 -0.1476  0.1311  0.1027
 4943SOL    HW126465   4.034   3.854   4.254 -2.3799 -0.0354 -2.5208
 4943SOL    HW226466   4.111   3.897   4.145  0.0925 -0.1817  0.4082
 4944SOL     OW26467   2.717   1.344   4.806  0.7960 -0.0717 -0.6485
 4944SOL    HW126468   2.641   1.324   4.752 -0.6305 -0.9697  1.6803
 4944SOL    HW226469   2.721   1.253   4.834 -0.7377 -0.4581 -1.6746
 4945SOL     OW26470   4.350   2.897   9.775  0.0136  0.0045 -0.1150
 4945SOL    HW126471   4.284   2.905   9.706  0.1297  1.4416 -0.0688
 4945SOL    HW226472   4.331   2.809   9.806  0.9961  0.3434  1.4769
 4946SOL     OW26473   1.833   0.103   9.925  0.3584 -0.1430  0.1231
 4946SOL    HW126474   1.851   0.172   9.862 -0.4877 -0.7370 -0.7749
 4946SOL    HW226475   1.916   0.071   9.960  0.7850 -0.9953 -1.6407
 4947SOL     OW26476   1.432   3.976  14.020  0.2834  0.6027  0.0870
 4947SOL    HW126477   1.502   4.033  13.989  1.2579 -1.0647 -0.7777
 4947SOL    HW226478   1.471   3.955  14.105  0.3905 -2.2031 -0.6492
 4948SOL     OW26479   2.556   3.213  17.160  0.3111 -0.2191 -0.1262
 4948SOL    HW126480   2.461   3.222  17.174  0.2109  0.2928 -1.1394
 4948SOL    HW226481   2.551   3.229  17.066  2.1874  0.4663 -0.0986
 4949SOL     OW26482   2.672   1.346  10.364 -0.2417 -0.3242  0.3774
 4949SOL    HW126483   2.633   1.330  10.450 -0.2434  0.5225  0.5333
 4949SOL    HW226484   2.695   1.257  10.337 -0.0300 -0.7080  1.8275
 4950SOL     OW26485   2.834   1.485  16.371  0.4460 -0.3151  0.3622
 4950SOL    HW126486   2.888   1.564  16.368 -1.6887  1.1816  1.2550
 4950SOL    HW226487   2.807   1.500  16.461  3.0332 -1.1692  1.2935
 4951SOL     OW26488   0.177   4.366   7.388 -0.1144 -0.3979  0.3126
 4951SOL    HW126489   0.131   4.322   7.459  1.1342 -0.6475  0.9590
 4951SOL    HW226490   0.250   4.308   7.368  0.7787  1.3081 -1.4785
 4952SOL     OW26491   1.528   1.579   4.895 -0.2865  0.7041  0.0252
 4952SOL    HW126492   1.494   1.585   4.806 -1.4809  0.6429  0.4766
 4952SOL    HW226493   1.620   1.598   4.876 -0.5791  0.3801 -1.6971
 4953SOL     OW26494   2.119   2.434   5.712  0.1301 -0.6009 -0.8065
 4953SOL    HW126495   2.195   2.424   5.770 -1.9356 -0.4640  1.9567
 4953SOL    HW226496   2.140   2.522   5.682 -0.3799 -0.2931 -0.2719
 4954SOL     OW26497   0.885   0.951  16.824 -0.1667 -0.0904  0.5423
 4954SOL    HW126498   0.812   0.897  16.853  0.1724 -0.0420  1.4926
 4954SOL    HW226499   0.903   1.001  16.904 -4.1665  1.3382  0.5542
 4955SOL     OW26500   0.824   1.787  11.529 -0.0009 -0.1193  0.1665
 4955SOL    HW126501   0.792   1.697  11.534 -0.7279  0.0623 -1.2220
 4955SOL    HW226502   0.902   1.775  11.475  1.0689  1.6518  1.2862
 4956SOL     OW26503   0.441   4.702   2.464 -0.0543  0.0426 -0.0845
 4956SOL    HW126504   0.432   0.002   2.377  0.7570 -1.2041 -0.7205
 4956SOL    HW226505   0.476   0.035   2.517  1.0828 -0.6268  0.0689
 4957SOL     OW26506   3.072   0.709   8.729  0.1268 -0.1773  0.3837
 4957SOL    HW126507   2.980   0.732   8.722  0.2970 -0.0630 -1.4255
 4957SOL    HW226508   3.105   0.695   8.640  2.1843 -1.4794  1.3492
 4958SOL     OW26509   1.109   2.890   7.534 -0.0510 -0.2932  0.0808
 4958SOL    HW126510   1.018   2.882   7.508  0.8455  0.7580 -3.3938
 4958SOL    HW226511   1.139   2.815   7.482  0.3542 -0.4657  0.5677
 4959SOL     OW26512   3.331   1.137   4.357  0.7059  0.3971 -0.1371
 4959SOL    HW126513   3.252   1.094   4.323  1.6618 -0.0620 -1.7803
 4959SOL    HW226514   3.395   1.082   4.311 -0.1205 -1.3644  0.7807
 4960SOL     OW26515   3.178   0.796   7.885  0.5758 -0.8206 -0.3373
 4960SOL    HW126516   3.102   0.750   7.920  1.1255 -1.3467  0.1560
 4960SOL    HW226517   3.159   0.816   7.793 -1.7275  2.6193  0.8979
 4961SOL     OW26518   2.131   3.083   1.937  0.3157  0.0469 -0.2976
 4961SOL    HW126519   2.131   3.046   1.849  0.5392 -0.9635  0.1276
 4961SOL    HW226520   2.166   3.010   1.989 -0.0886  1.6469  2.2516
 4962SOL     OW26521   3.839   0.663  12.642 -0.1482 -0.4157  0.4974
 4962SOL    HW126522   3.774   0.623  12.700 -1.1875  0.7571  0.1433
 4962SOL    HW226523   3.907   0.596  12.645 -2.4883 -2.7905 -0.1605
 4963SOL     OW26524   2.854   1.989   0.164 -0.3685 -0.4865 -0.9311
 4963SOL    HW126525   2.776   1.979   0.110 -1.8723 -3.4231  1.7884
 4963SOL    HW226526   2.827   2.044   0.238 -0.3328  0.3756 -1.5535
 4964SOL     OW26527   1.625   2.476   2.646 -0.4560 -0.3093 -0.2328
 4964SOL    HW126528   1.572   2.478   2.567  0.0963  3.5089 -0.5426
 4964SOL    HW226529   1.624   2.569   2.671 -1.1112  0.1838 -2.1322
 4965SOL     OW26530   1.185   3.268   2.768  0.4358  0.0151  0.2125
 4965SOL    HW126531   1.190   3.309   2.855  1.4090 -2.0550  1.1327
 4965SOL    HW226532   1.250   3.322   2.723  2.2721 -2.0327  0.4097
 4966SOL     OW26533   0.720   2.135   3.520  0.2920 -0.2159  0.4362
 4966SOL    HW126534   0.770   2.122   3.439 -1.1596  1.2015 -0.6915
 4966SOL    HW226535   0.745   2.224   3.546  0.1581 -0.4706  1.4135
 4967SOL     OW26536   2.911   2.400  16.771 -0.2751  0.3926  0.8751
 4967SOL    HW126537   2.891   2.493  16.776  0.2198  0.5479  0.0427
 4967SOL    HW226538   2.846   2.367  16.833 -0.5653  1.2608  1.0278
 4968SOL     OW26539   2.971   0.949  11.333 -0.3011 -0.1371 -0.0025
 4968SOL    HW126540   2.956   0.882  11.267 -1.2910  0.3800 -0.3065
 4968SOL    HW226541   3.066   0.961  11.341 -0.3571 -0.1090  0.6505
 4969SOL     OW26542   0.581   2.663   8.457  0.5686 -0.3477  0.1292
 4969SOL    HW126543   0.553   2.688   8.369 -1.8339  1.2062  1.3532
 4969SOL    HW226544   0.504   2.630   8.503  1.5924 -0.6624  1.6302
 4970SOL     OW26545   0.677   4.657   2.801  0.0663 -0.2930  0.0520
 4970SOL    HW126546   0.760   4.650   2.849  0.3102  1.0919 -0.1567
 4970SOL    HW226547   0.627   4.586   2.841  0.9230 -0.3982  0.9300
 4971SOL     OW26548   2.149   1.628   1.346 -0.4412  0.2537 -0.5382
 4971SOL    HW126549   2.168   1.541   1.310 -2.1159 -0.4799  0.3338
 4971SOL    HW226550   2.083   1.604   1.411  2.5223 -0.1969  2.2842
 4972SOL     OW26551   0.878   0.281  12.784  0.0874  0.3175 -0.4016
 4972SOL    HW126552   0.851   0.370  12.761 -0.5186  0.3589  0.4666
 4972SOL    HW226553   0.957   0.269  12.732  0.3785  0.0505  0.1080
 4973SOL     OW26554   3.701   0.953  13.594 -0.0350 -0.3502 -0.4788
 4973SOL    HW126555   3.699   1.044  13.625 -1.1300  0.0305 -1.6940
 4973SOL    HW226556   3.711   0.959  13.499  1.0021 -1.0577 -0.4136
 4974SOL     OW26557   3.421   0.719   1.982  0.2108 -0.3095 -0.2142
 4974SOL    HW126558   3.455   0.808   1.972  0.3582 -0.3583 -0.1355
 4974SOL    HW226559   3.447   0.686   1.897  0.6752  1.3067 -0.6957
 4975SOL     OW26560   1.910   3.466   6.263  0.0481  0.1541  0.1540
 4975SOL    HW126561   2.004   3.479   6.252  0.3367 -1.8507  0.3359
 4975SOL    HW226562   1.911   3.377   6.297 -1.2614  0.1405  0.1806
 4976SOL     OW26563   1.177   3.897  14.080  0.0105  0.1637 -0.5547
 4976SOL    HW126564   1.136   3.925  13.998  1.1139  2.2002 -0.4122
 4976SOL    HW226565   1.269   3.920  14.076  0.1541 -0.3142  0.0992
 4977SOL     OW26566   3.768   0.002  11.110  0.2865  0.5396  0.6125
 4977SOL    HW126567   3.746   0.095  11.117 -0.9869  0.1599  1.5887
 4977SOL    HW226568   3.715   4.703  11.180  0.2128  0.4961  0.5328
 4978SOL     OW26569   2.460   2.556   3.615  0.5844  0.3941 -0.5500
 4978SOL    HW126570   2.453   2.494   3.688  2.1622  0.8666 -0.0036
 4978SOL    HW226571   2.497   2.496   3.551 -3.7694 -1.9730 -0.8699
 4979SOL     OW26572   3.037   2.570  11.921  0.0554  0.0520  0.4023
 4979SOL    HW126573   3.001   2.482  11.905  0.2382  0.3522 -1.6849
 4979SOL    HW226574   3.116   2.546  11.969  0.2472 -1.5032 -0.7010
 4980SOL     OW26575   1.305   4.103   9.547 -0.2879  0.1131  0.0616
 4980SOL    HW126576   1.234   4.079   9.607 -1.7418  0.8040 -1.3669
 4980SOL    HW226577   1.346   4.173   9.597 -1.8129  2.6348 -2.1942
 4981SOL     OW26578   3.207   2.228   7.487  0.3178  0.0244 -0.1096
 4981SOL    HW126579   3.193   2.176   7.566 -0.7944 -0.3938 -0.5788
 4981SOL    HW226580   3.133   2.286   7.504 -1.2886 -1.8275 -0.7446
 4982SOL     OW26581   2.692   3.221   7.266  0.0237  0.0588 -0.0753
 4982SOL    HW126582   2.632   3.268   7.209 -1.5461 -0.6710  0.9698
 4982SOL    HW226583   2.748   3.292   7.296 -1.7836  1.6295 -0.3996
 4983SOL     OW26584   3.850   2.655   3.325  0.5678 -0.0625 -0.8874
 4983SOL    HW126585   3.911   2.582   3.318  0.8247  0.3170 -2.6331
 4983SOL    HW226586   3.865   2.702   3.242 -0.2416 -0.9573 -1.5353
 4984SOL     OW26587   0.824   0.492  12.291  0.3839  0.1710  0.1774
 4984SOL    HW126588   0.897   0.448  12.334 -0.1350  0.4882  1.3740
 4984SOL    HW226589   0.759   0.422  12.298  0.1918  0.2480 -0.7990
 4985SOL     OW26590   2.818   3.360  14.887  0.3358 -0.7447 -0.2784
 4985SOL    HW126591   2.862   3.410  14.956 -1.2837 -1.8848  1.5736
 4985SOL    HW226592   2.728   3.370  14.917  1.2391  1.7395  1.6425
 4986SOL     OW26593   4.333   2.709  12.695  0.0746  0.3005  0.0722
 4986SOL    HW126594   4.368   2.796  12.715  3.6316 -0.9820 -0.5499
 4986SOL    HW226595   4.245   2.730  12.726  0.0338 -1.5113  1.1653
 4987SOL     OW26596   3.408   1.087   4.746 -0.1014  0.1758 -0.8584
 4987SOL    HW126597   3.326   1.115   4.706 -0.2326  2.3591  0.9578
 4987SOL    HW226598   3.474   1.152   4.724  1.1795 -0.8442 -0.0697
 4988SOL     OW26599   1.306   0.626   9.081 -0.0440  0.2509  0.2515
 4988SOL    HW126600   1.223   0.671   9.069 -0.2490 -0.5698 -1.4185
 4988SOL    HW226601   1.275   0.537   9.095 -0.1966  0.3596  0.6058
 4989SOL     OW26602   1.098   4.186   4.881 -0.0934 -0.2523  0.1924
 4989SOL    HW126603   1.160   4.158   4.948  0.9667 -0.7881 -1.0160
 4989SOL    HW226604   1.022   4.139   4.916 -0.2022 -0.4534 -0.3080
 4990SOL     OW26605   1.984   0.103  12.420  0.2905 -0.4211 -0.5468
 4990SOL    HW126606   1.948   0.023  12.458 -0.6856  0.4090  0.2941
 4990SOL    HW226607   2.051   0.118  12.486 -0.3082 -0.5715  0.0984
 4991SOL     OW26608   3.200   1.698   9.498  0.4474  0.3320  0.0128
 4991SOL    HW126609   3.291   1.694   9.527 -0.9141  0.1443  4.1903
 4991SOL    HW226610   3.200   1.629   9.431  0.5275 -0.5004  0.8639
 4992SOL     OW26611   0.842   3.949   3.472 -0.1930 -0.5254  0.2409
 4992SOL    HW126612   0.778   3.883   3.501  0.0081 -0.7517  0.1708
 4992SOL    HW226613   0.782   4.020   3.449  0.0367  0.4055  2.5390
 4993SOL     OW26614   0.182   3.434   4.055  0.3774  0.3444  0.4418
 4993SOL    HW126615   0.123   3.444   4.129 -1.0926  1.4543 -0.8691
 4993SOL    HW226616   0.215   3.348   4.081 -0.0333 -0.5064 -1.8371
 4994SOL     OW26617   0.354   0.749  10.432 -0.5403  0.0182 -0.0274
 4994SOL    HW126618   0.442   0.711  10.440 -0.7334 -0.2981  0.6032
 4994SOL    HW226619   0.306   0.677  10.391 -1.5994  1.6773 -1.6628
 4995SOL     OW26620   0.397   3.964  11.229 -0.1029 -0.0163  0.1650
 4995SOL    HW126621   0.312   3.957  11.272 -0.1652 -1.1487 -0.1447
 4995SOL    HW226622   0.440   3.884  11.262  0.2177 -0.1288 -0.5341
 4996SOL     OW26623   1.739   1.500   4.626  0.0432  0.5050 -0.6345
 4996SOL    HW126624   1.762   1.587   4.660  0.0917  0.9370 -1.7426
 4996SOL    HW226625   1.781   1.504   4.540 -2.4059 -0.8868 -1.8884
 4997SOL     OW26626   2.268   0.640   8.148 -0.2692 -0.5893  0.0681
 4997SOL    HW126627   2.363   0.626   8.146 -0.3645 -1.1180 -0.7510
 4997SOL    HW226628   2.229   0.564   8.104  0.0174 -0.5744 -0.2160
 4998SOL     OW26629   3.513   1.081   7.915 -0.0901 -0.0859 -0.0358
 4998SOL    HW126630   3.571   1.138   7.965  1.0544 -1.8672  0.6914
 4998SOL    HW226631   3.455   1.142   7.871  0.5518 -0.1270 -0.9314
 4999SOL     OW26632   0.237   2.538   8.296 -0.3381 -0.6385 -0.5690
 4999SOL    HW126633   0.308   2.479   8.323  0.1327  0.6571  1.0317
 4999SOL    HW226634   0.174   2.537   8.368  1.4826 -1.8272  1.0183
 5000SOL     OW26635   4.726   1.198   0.057 -0.3009 -0.0200  0.2193
 5000SOL    HW126636   0.077   1.204   0.023 -0.1191  1.6929  0.9747
 5000SOL    HW226637   4.726   1.104   0.075  1.5675  0.2197  1.4113
 5001SOL     OW26638   0.159   3.125   7.086 -0.1131  0.1780 -0.1913
 5001SOL    HW126639   0.080   3.116   7.032 -0.7178  1.2303  0.5154
 5001SOL    HW226640   0.139   3.054   7.146 -0.1791 -0.2312 -0.6898
 5002SOL     OW26641   1.698   1.689   2.294  0.1631  0.5803 -0.5967
 5002SOL    HW126642   1.617   1.708   2.342  0.9047  0.5168  0.7058
 5002SOL    HW226643   1.677   1.607   2.251  0.0763 -0.4791  1.4349
 5003SOL     OW26644   1.027   2.468   6.097 -0.5916  0.2177 -0.3270
 5003SOL    HW126645   1.103   2.524   6.082 -0.4527 -0.5903 -2.5871
 5003SOL    HW226646   1.001   2.496   6.184 -0.0071  0.6666 -0.2947
 5004SOL     OW26647   2.171   2.540   2.931 -0.2125 -0.5751  0.5798
 5004SOL    HW126648   2.237   2.578   2.872 -1.0912 -0.6883 -0.4882
 5004SOL    HW226649   2.214   2.562   3.013 -1.8488 -0.8101  1.4808
 5005SOL     OW26650   0.993   4.463   8.393  0.0691 -0.4655  0.3390
 5005SOL    HW126651   0.972   4.396   8.458 -2.2618 -0.2086 -0.1415
 5005SOL    HW226652   1.086   4.460   8.413  0.0177 -1.6255  0.4218
 5006SOL     OW26653   3.065   0.660   6.746  0.4879  0.0933  0.0024
 5006SOL    HW126654   3.149   0.684   6.707 -0.0765 -1.1320 -1.9568
 5006SOL    HW226655   3.095   0.664   6.837  5.9919 -0.5827 -1.7972
 5007SOL     OW26656   0.153   1.131   3.123  0.3053  0.0588  0.4759
 5007SOL    HW126657   0.128   1.196   3.058  1.9372 -2.1177 -2.3416
 5007SOL    HW226658   0.081   1.147   3.184  0.4803 -0.4086  0.8016
 5008SOL     OW26659   2.461   3.148   5.521  0.5824 -0.3197  0.0268
 5008SOL    HW126660   2.433   3.060   5.548  0.0659  0.3305  1.5905
 5008SOL    HW226661   2.475   3.132   5.428  1.1918  0.8153 -0.0678
 5009SOL     OW26662   1.490   0.461   5.594  0.0244  0.2783  0.2702
 5009SOL    HW126663   1.556   0.392   5.597 -0.8004 -0.5227  0.0129
 5009SOL    HW226664   1.421   0.416   5.545  1.5098 -0.3770 -1.2178
 5010SOL     OW26665   0.288   2.185   5.943 -0.0350  0.2499  0.0484
 5010SOL    HW126666   0.271   2.269   5.901 -0.4067  0.4219  0.5472
 5010SOL    HW226667   0.381   2.170   5.924 -0.2223 -2.3132  1.0504
 5011SOL     OW26668   4.367   1.635  11.834  0.1587  0.0792 -0.6707
 5011SOL    HW126669   4.318   1.717  11.839  1.7831  0.9852  0.4379
 5011SOL    HW226670   4.457   1.668  11.841  0.1428 -0.0610  0.2503
 5012SOL     OW26671   4.719   0.764   2.748 -0.2237  0.3256 -0.2919
 5012SOL    HW126672   4.642   0.742   2.801 -0.2412  0.7510 -0.1435
 5012SOL    HW226673   4.702   0.858   2.749 -1.9866  0.0201 -0.3948
 5013SOL     OW26674   2.517   0.372   2.619  0.4545  0.1284 -0.1999
 5013SOL    HW126675   2.589   0.355   2.680  0.4926 -1.5675 -0.7385
 5013SOL    HW226676   2.517   0.467   2.607 -2.0617  0.2158  0.5052
 5014SOL     OW26677   1.429   1.090   5.304  0.0085 -0.1317 -0.0313
 5014SOL    HW126678   1.444   1.014   5.247 -0.7925 -1.1619  1.1387
 5014SOL    HW226679   1.471   1.058   5.384 -2.1673  1.8497  1.8958
 5015SOL     OW26680   2.459   2.115   3.900 -0.1660 -0.9047  0.0925
 5015SOL    HW126681   2.391   2.049   3.885 -2.7014  1.4710  1.1478
 5015SOL    HW226682   2.486   2.088   3.988  1.1418  3.0486  0.8973
 5016SOL     OW26683   0.481   1.376  15.856  0.1813  0.5052  0.0798
 5016SOL    HW126684   0.489   1.310  15.926  1.5245  0.7647  0.1804
 5016SOL    HW226685   0.552   1.437  15.876 -0.7101  1.6421 -0.2379
 5017SOL     OW26686   0.331   0.894   4.584  1.1010 -0.8498 -0.5219
 5017SOL    HW126687   0.304   0.804   4.599 -1.3887 -0.1505 -0.8178
 5017SOL    HW226688   0.424   0.898   4.609 -0.2234  1.7294  4.0428
 5018SOL     OW26689   0.321   0.205   3.271  0.4023 -0.2846  0.3820
 5018SOL    HW126690   0.377   0.252   3.209  0.8783  1.2694  1.9771
 5018SOL    HW226691   0.326   0.116   3.235  0.4566  1.3516 -3.6418
 5019SOL     OW26692   3.276   3.929  17.643  0.6608  0.2140  0.1929
 5019SOL    HW126693   3.253   3.839  17.618  1.4195  0.4488 -1.3448
 5019SOL    HW226694   3.295   3.917  17.736 -0.9826  2.9618  0.8874
 5020SOL     OW26695   1.621   4.587   5.467  0.2407  0.0238 -0.0507
 5020SOL    HW126696   1.635   4.663   5.411  0.6955  0.0400  0.0870
 5020SOL    HW226697   1.691   4.610   5.529 -0.2698 -2.4980  1.4768
 5021SOL     OW26698   4.202   4.496   6.910  0.7407  0.0781 -0.5858
 5021SOL    HW126699   4.120   4.502   6.958  1.4794 -0.5219  0.7527
 5021SOL    HW226700   4.229   4.406   6.929 -1.2612 -0.3868 -0.0107
 5022SOL     OW26701   2.857   0.341   2.472  0.7033 -0.0291  0.0804
 5022SOL    HW126702   2.880   0.332   2.379  0.6547 -1.9741  0.2667
 5022SOL    HW226703   2.874   0.251   2.498 -0.2380 -0.2987 -0.2362
 5023SOL     OW26704   1.103   1.219   4.286  0.1995 -0.0643  0.0917
 5023SOL    HW126705   1.185   1.226   4.237 -0.6111 -1.1060 -1.4121
 5023SOL    HW226706   1.140   1.275   4.354  1.5278  0.6039 -1.1831
 5024SOL     OW26707   0.562   3.828   7.774 -0.0175  0.4475 -0.4796
 5024SOL    HW126708   0.482   3.869   7.740 -1.3499 -0.7900  1.1809
 5024SOL    HW226709   0.524   3.799   7.857  1.3671 -2.6604 -0.9255
 5025SOL     OW26710   1.488   3.537  10.241  0.9718  0.1892  0.1267
 5025SOL    HW126711   1.462   3.483  10.167  1.9447 -1.9619  1.3439
 5025SOL    HW226712   1.568   3.488  10.261  0.2356 -0.3658  1.7515
 5026SOL     OW26713   4.072   4.612  13.607 -0.4166 -0.2485 -0.3530
 5026SOL    HW126714   4.104   4.645  13.523 -1.0240 -0.5014 -0.6898
 5026SOL    HW226715   4.087   4.682  13.670 -1.4545 -0.1299 -0.2244
 5027SOL     OW26716   3.968   2.447   6.295  0.8833 -0.1172  0.4390
 5027SOL    HW126717   3.926   2.468   6.211  3.0847  2.4015 -0.0281
 5027SOL    HW226718   3.908   2.388   6.340  0.3982 -0.0123 -0.0654
 5028SOL     OW26719   0.056   0.967   8.695  0.3461  0.4243  0.0427
 5028SOL    HW126720   0.073   0.873   8.695 -2.0383  0.0076 -0.8168
 5028SOL    HW226721   4.720   0.957   8.637 -0.2392  2.7752  0.3977
 5029SOL     OW26722   0.138   2.091   7.136 -0.3574 -0.9038  0.0812
 5029SOL    HW126723   0.096   2.063   7.217 -1.3104 -0.2121 -0.1765
 5029SOL    HW226724   0.189   2.012   7.122  0.5268 -0.1075 -1.1556
 5030SOL     OW26725   3.451   4.213  17.429 -0.6738  0.0541 -0.2187
 5030SOL    HW126726   3.499   4.147  17.479 -1.3150 -1.0404 -1.0578
 5030SOL    HW226727   3.524   4.255  17.383 -0.5113 -0.5180 -0.4773
 5031SOL     OW26728   4.085   2.458  15.595  0.2868 -0.7627  0.5168
 5031SOL    HW126729   4.096   2.537  15.647  2.0726 -0.2978 -0.5867
 5031SOL    HW226730   4.133   2.485  15.517  0.7989 -0.2165  1.0221
 5032SOL     OW26731   4.495   0.180   0.914  0.2740  0.1219  0.2114
 5032SOL    HW126732   4.572   0.180   0.970 -0.0049  1.7332  0.5974
 5032SOL    HW226733   4.431   0.219   0.974 -3.3754 -3.7364 -1.1801
 5033SOL     OW26734   2.412   2.245   7.733 -0.3773 -0.4692  0.2532
 5033SOL    HW126735   2.424   2.167   7.788 -0.9489 -1.3302 -0.8456
 5033SOL    HW226736   2.318   2.229   7.730 -0.9537  3.4158 -1.6827
 5034SOL     OW26737   4.661   0.961   6.249  0.2494  0.2715  0.3079
 5034SOL    HW126738   4.581   0.915   6.223  1.6895 -2.5760  1.0595
 5034SOL    HW226739   4.719   0.964   6.174 -0.3375  0.6755 -0.1352
 5035SOL     OW26740   0.932   0.671  11.634  0.0245 -0.3924  0.2152
 5035SOL    HW126741   0.949   0.765  11.620 -0.4484 -0.3803 -0.3007
 5035SOL    HW226742   0.893   0.679  11.720  1.2783 -2.4160  0.9613
 5036SOL     OW26743   0.370   2.325   7.376  0.3628  0.9915 -0.0042
 5036SOL    HW126744   0.291   2.312   7.429 -0.8225 -0.3544 -2.0995
 5036SOL    HW226745   0.413   2.390   7.432  1.3844  1.5539 -1.4306
 5037SOL     OW26746   0.448   0.487   7.727  0.3681  0.0519 -0.2947
 5037SOL    HW126747   0.361   0.522   7.709  1.3009  2.2420 -0.4903
 5037SOL    HW226748   0.433   0.474   7.821 -0.7403  0.9704 -0.3479
 5038SOL     OW26749   4.498   1.661   7.157  0.0103 -0.0231 -0.3963
 5038SOL    HW126750   4.588   1.686   7.137 -0.2728  0.2722 -1.2869
 5038SOL    HW226751   4.492   1.709   7.239 -1.6590 -0.3248 -0.3417
 5039SOL     OW26752   3.903   3.031   3.716  0.0419  0.8374 -0.4053
 5039SOL    HW126753   3.938   3.098   3.656  1.0488 -0.4094 -1.2021
 5039SOL    HW226754   3.933   2.948   3.679  1.0177  1.6237 -1.3961
 5040SOL     OW26755   2.712   2.763   5.950  0.1544  0.3543  0.2078
 5040SOL    HW126756   2.655   2.689   5.972  1.4157 -1.1991 -1.7293
 5040SOL    HW226757   2.682   2.836   6.004 -0.5967  1.0366 -1.1400
 5041SOL     OW26758   2.589   2.210   6.094  0.4759  0.3811  0.5949
 5041SOL    HW126759   2.662   2.174   6.043  1.0825  2.1476  0.2224
 5041SOL    HW226760   2.627   2.180   6.177 -0.2078 -0.7323  0.5035
 5042SOL     OW26761   2.637   1.314   6.725  0.7493 -0.1232 -0.2476
 5042SOL    HW126762   2.661   1.373   6.797 -1.0664 -0.5054  0.6629
 5042SOL    HW226763   2.716   1.260   6.728 -0.0191 -1.2424 -0.2955
 5043SOL     OW26764   4.634   3.916   2.909 -0.0534 -0.2943  0.1723
 5043SOL    HW126765   4.583   3.879   2.981 -0.5863  0.9426  0.4307
 5043SOL    HW226766   4.586   3.873   2.838  1.2419  0.9810 -1.4610
 5044SOL     OW26767   1.333   0.487   5.810  0.1613 -0.1966  0.0133
 5044SOL    HW126768   1.243   0.489   5.778 -0.9029 -2.1405  2.8689
 5044SOL    HW226769   1.383   0.483   5.728  0.4125  2.6139  0.0258
 5045SOL     OW26770   3.742   2.708  10.750 -0.2706  0.0397  0.0563
 5045SOL    HW126771   3.770   2.799  10.758 -1.5950  0.5787 -1.4140
 5045SOL    HW226772   3.753   2.674  10.839 -1.3576 -1.1606 -0.2604
 5046SOL     OW26773   3.657   0.095   4.770  0.4422 -0.1983 -0.0781
 5046SOL    HW126774   3.593   0.141   4.824 -0.1260  0.4245 -1.2781
 5046SOL    HW226775   3.728   0.094   4.834  1.6643  0.0081 -1.4189
 5047SOL     OW26776   3.916   0.724   5.669 -0.3933 -0.2028 -0.1475
 5047SOL    HW126777   3.976   0.650   5.679  0.6515  0.5673 -0.6745
 5047SOL    HW226778   3.830   0.683   5.676 -0.2898 -0.0398  2.0964
 5048SOL     OW26779   0.477   2.766   3.115 -0.1643 -0.1007  0.1524
 5048SOL    HW126780   0.420   2.836   3.146  1.2034 -0.5819  3.7077
 5048SOL    HW226781   0.451   2.783   3.025  0.9044 -1.7216 -0.4668
 5049SOL     OW26782   3.798   4.344   0.960  0.3455  0.0954  0.6550
 5049SOL    HW126783   3.745   4.325   0.883  2.2657  3.5522 -1.4950
 5049SOL    HW226784   3.742   4.389   1.024  2.6120  2.0663  1.2705
 5050SOL     OW26785   4.719   2.170   6.021 -0.1224 -0.1921 -0.2086
 5050SOL    HW126786   0.066   2.205   5.995  0.6802 -1.0061  1.3862
 5050SOL    HW226787   4.694   2.147   5.931 -0.5323 -3.1598  0.6766
 5051SOL     OW26788   3.482   1.933  14.611  0.4558  0.3439 -0.2124
 5051SOL    HW126789   3.477   2.028  14.623  0.8382  0.7534 -3.1734
 5051SOL    HW226790   3.389   1.913  14.608  0.9517 -2.0224  0.6709
 5052SOL     OW26791   2.964   2.558  14.424 -0.1523 -0.5685 -0.1515
 5052SOL    HW126792   2.951   2.509  14.343 -0.8278 -0.4479 -0.1154
 5052SOL    HW226793   2.902   2.506  14.476  1.8391 -1.6060  1.1898
 5053SOL     OW26794   0.700   0.088  12.868 -0.0348 -0.1482 -0.7024
 5053SOL    HW126795   0.664   0.104  12.781  1.1858 -1.6162 -1.4769
 5053SOL    HW226796   0.771   0.152  12.870 -0.1427 -0.1242  1.8792
 5054SOL     OW26797   2.955   1.915   7.421  0.2732  0.2774 -0.0845
 5054SOL    HW126798   2.867   1.950   7.433 -0.3132 -2.0197  2.4167
 5054SOL    HW226799   2.995   1.943   7.504  2.9471 -0.7944 -1.0158
 5055SOL     OW26800   1.921   0.122  11.446  0.5825 -0.0864 -0.3994
 5055SOL    HW126801   1.965   0.046  11.408 -1.2890 -0.2357 -2.2309
 5055SOL    HW226802   1.864   0.153  11.376  0.6508  0.6873 -0.1176
 5056SOL     OW26803   3.374   1.985  11.029  0.1259 -0.1561  0.1513
 5056SOL    HW126804   3.288   1.948  11.012  0.5011 -1.9510  2.1306
 5056SOL    HW226805   3.417   1.960  10.948  0.3980 -1.5845  0.7417
 5057SOL     OW26806   4.481   3.341   6.955 -0.3170 -1.1690 -0.3413
 5057SOL    HW126807   4.475   3.246   6.960  0.2484 -1.3102 -2.5512
 5057SOL    HW226808   4.499   3.352   6.861 -1.9884 -0.1914 -0.5590
 5058SOL     OW26809   3.511   0.897  14.691 -0.3250 -0.2228  0.2362
 5058SOL    HW126810   3.439   0.953  14.663 -0.1999 -0.1892 -0.0152
 5058SOL    HW226811   3.537   0.856  14.608 -0.9412  1.1899 -0.6453
 5059SOL     OW26812   2.097   0.435  12.938 -0.0905  0.2391 -0.1420
 5059SOL    HW126813   2.128   0.348  12.912  1.7114  0.0715  2.6592
 5059SOL    HW226814   2.042   0.453  12.861 -1.1057 -1.2494  0.2444
 5060SOL     OW26815   0.980   0.095  17.626 -0.1358  0.4482 -0.3124
 5060SOL    HW126816   0.992   0.000  17.631  0.3211  0.4643 -1.0470
 5060SOL    HW226817   0.916   0.087  17.555  0.2203 -1.4106 -0.4239
 5061SOL     OW26818   4.024   0.814  12.235 -0.0507  0.4176 -0.3462
 5061SOL    HW126819   4.079   0.753  12.186  1.0333  0.1237  1.2140
 5061SOL    HW226820   4.036   0.893  12.182  0.1884  0.3378 -0.4097
 5062SOL     OW26821   1.066   4.511   9.151  0.3506 -0.3920 -0.0189
 5062SOL    HW126822   1.106   4.424   9.155 -0.5816 -0.8387 -0.4556
 5062SOL    HW226823   0.999   4.516   9.083  1.9383  0.4570 -1.5174
 5063SOL     OW26824   2.074   0.369   8.109 -0.6902 -0.0469 -0.2850
 5063SOL    HW126825   2.014   0.315   8.161 -0.5300 -0.4418 -0.5118
 5063SOL    HW226826   2.026   0.429   8.052  0.7080  1.0728 -0.2852
 5064SOL     OW26827   2.327   1.201   1.405  0.3351  0.6231  0.1372
 5064SOL    HW126828   2.287   1.253   1.335 -0.2658  2.7850  2.0946
 5064SOL    HW226829   2.419   1.226   1.402  0.8922 -1.2928  1.4629
 5065SOL     OW26830   3.629   0.615  12.819 -0.3570  0.6358 -0.1179
 5065SOL    HW126831   3.637   0.660  12.903 -0.8476 -0.9465  0.7743
 5065SOL    HW226832   3.589   0.530  12.838  0.4856  0.2872  0.1014
 5066SOL     OW26833   3.308   1.121  11.243 -0.3488  0.5790  0.3865
 5066SOL    HW126834   3.371   1.081  11.303 -0.4301 -1.1168 -0.6560
 5066SOL    HW226835   3.282   1.202  11.287  1.8316  1.1943  0.5432
 5067SOL     OW26836   3.422   3.191   2.169  0.2242  0.3407 -0.2517
 5067SOL    HW126837   3.508   3.160   2.139 -0.5993 -0.4800 -1.7441
 5067SOL    HW226838   3.445   3.226   2.255 -1.1926 -0.9008  0.6193
 5068SOL     OW26839   1.646   3.208   8.412 -0.3347  0.4019  0.6131
 5068SOL    HW126840   1.721   3.246   8.365  0.7540 -1.6343  0.7129
 5068SOL    HW226841   1.584   3.280   8.408 -0.2916  0.3767 -0.6532
 5069SOL     OW26842   3.460   0.475   2.553 -0.2202 -0.0458  0.0757
 5069SOL    HW126843   3.457   0.468   2.649  1.8428 -1.0707  0.0683
 5069SOL    HW226844   3.366   0.469   2.534 -0.9418  2.4820  2.7682
 5070SOL     OW26845   0.735   3.464   7.458  0.1396 -0.0485  0.9136
 5070SOL    HW126846   0.737   3.480   7.364 -1.9323 -2.8034  0.4128
 5070SOL    HW226847   0.704   3.550   7.488  2.4055  0.9449  0.3565
 5071SOL     OW26848   4.213   0.064   7.536 -0.0782  0.1546 -0.2197
 5071SOL    HW126849   4.185   0.018   7.456  4.1172  0.3751 -1.8211
 5071SOL    HW226850   4.242   4.733   7.595 -0.8473 -0.7434 -0.9069
 5072SOL     OW26851   0.467   1.852   8.802  0.2983 -0.7370  0.2280
 5072SOL    HW126852   0.554   1.813   8.804  0.3805 -0.6359 -0.9863
 5072SOL    HW226853   0.421   1.785   8.852  0.0410  0.1337  1.1431
 5073SOL     OW26854   0.266   0.335   1.746  0.2061 -0.2198  0.1013
 5073SOL    HW126855   0.295   0.255   1.788 -2.2211  1.6266  5.3279
 5073SOL    HW226856   0.333   0.402   1.759 -0.8698  1.0788 -1.0089
 5074SOL     OW26857   4.545   3.674   5.027 -0.3965  0.4440  0.1147
 5074SOL    HW126858   4.459   3.715   5.028 -0.5275  0.1614  0.4641
 5074SOL    HW226859   4.522   3.596   4.976 -1.0779 -0.0611  1.1995
 5075SOL     OW26860   3.659   1.145  14.729  0.5550 -0.8647  0.2191
 5075SOL    HW126861   3.747   1.109  14.720  0.8304 -0.1313 -0.0405
 5075SOL    HW226862   3.602   1.077  14.693  0.4529 -0.4558 -0.3908
 5076SOL     OW26863   2.134   2.914   8.020 -0.2441  0.7350  0.1726
 5076SOL    HW126864   2.073   2.850   7.982 -1.5139  2.2029 -0.2480
 5076SOL    HW226865   2.095   2.933   8.105  1.6522  1.7557  0.8136
 5077SOL     OW26866   0.486   2.765  17.243 -0.3708 -0.3345  0.3835
 5077SOL    HW126867   0.503   2.847  17.291 -0.6137  0.2318 -0.4986
 5077SOL    HW226868   0.394   2.780  17.224 -0.0962  0.2630 -0.4664
 5078SOL     OW26869   2.869   2.960   4.219 -0.3050 -0.4029 -0.2740
 5078SOL    HW126870   2.811   2.908   4.275 -0.8538 -0.4531 -0.8800
 5078SOL    HW226871   2.839   3.051   4.217  1.7643  0.2337 -2.0079
 5079SOL     OW26872   1.952   3.481   8.102  1.2101  0.3521 -0.4499
 5079SOL    HW126873   2.045   3.464   8.115  0.9692 -2.0392 -1.8437
 5079SOL    HW226874   1.965   3.566   8.061 -0.9545 -0.2504 -2.3794
 5080SOL     OW26875   4.687   0.925  16.506 -0.4371 -0.3729  0.1993
 5080SOL    HW126876   4.713   1.009  16.545 -0.5329 -0.6602  0.8708
 5080SOL    HW226877   4.638   0.893  16.581 -0.0288  0.5814  0.8827
 5081SOL     OW26878   1.256   0.948   4.458 -0.5384  0.0928 -0.1377
 5081SOL    HW126879   1.302   0.872   4.422  2.5770  1.6506  0.5036
 5081SOL    HW226880   1.230   0.983   4.373  3.9782  1.7239 -0.8769
 5082SOL     OW26881   4.514   1.555   7.561  0.0509 -0.4625  0.0619
 5082SOL    HW126882   4.604   1.526   7.550  0.0875 -0.4832  0.3977
 5082SOL    HW226883   4.506   1.541   7.656 -1.6958 -1.9502 -0.2900
 5083SOL     OW26884   4.304   3.177   8.785 -0.3192  0.1052 -0.2487
 5083SOL    HW126885   4.213   3.150   8.794 -0.2921 -0.3297 -1.2329
 5083SOL    HW226886   4.297   3.210   8.695  0.7246  0.2869 -0.2708
 5084SOL     OW26887   2.639   1.777  13.042  0.2552 -0.3504  0.0864
 5084SOL    HW126888   2.554   1.741  13.067 -0.8737  0.3787 -2.6351
 5084SOL    HW226889   2.622   1.869  13.061  0.1557 -0.0953 -1.2507
 5085SOL     OW26890   1.805   0.764   0.049 -0.1654 -0.1386 -0.6123
 5085SOL    HW126891   1.795   0.669   0.059  0.4503 -0.0948  0.4347
 5085SOL    HW226892   1.752   0.773  17.722 -0.5651 -1.7140 -0.5213
 5086SOL     OW26893   1.934   0.794   4.827 -0.9848  0.0532 -0.0201
 5086SOL    HW126894   1.907   0.773   4.917  1.9034  2.2790  1.3702
 5086SOL    HW226895   2.028   0.781   4.832 -0.8652  0.4770 -1.1209
 5087SOL     OW26896   3.722   1.777   5.449 -0.1531  0.3843  0.1052
 5087SOL    HW126897   3.760   1.832   5.518 -0.6401  0.0567  0.6288
 5087SOL    HW226898   3.657   1.830   5.404  0.5073 -0.3303 -1.6891
 5088SOL     OW26899   3.103   1.077   2.188 -0.1087  0.2242  0.1942
 5088SOL    HW126900   3.121   1.049   2.278 -1.9019 -2.1247 -0.1786
 5088SOL    HW226901   3.151   1.160   2.192  2.2262 -1.0711 -1.4273
 5089SOL     OW26902   1.390   2.356   8.208 -0.1949  0.0618  0.2440
 5089SOL    HW126903   1.303   2.395   8.216 -0.7032 -1.4401  2.0709
 5089SOL    HW226904   1.429   2.409   8.138  0.4935  2.0420  2.1315
 5090SOL     OW26905   0.069   2.406   2.533  0.2862  0.3982 -0.1275
 5090SOL    HW126906   0.149   2.407   2.585 -0.0956 -0.2563  0.4784
 5090SOL    HW226907   0.005   2.405   2.604  1.5635  1.3762  1.0220
 5091SOL     OW26908   3.475   2.884   6.626 -0.2482  0.0368  0.5341
 5091SOL    HW126909   3.506   2.839   6.547  1.0008 -0.5712  1.3693
 5091SOL    HW226910   3.523   2.843   6.697 -0.6613 -1.6493 -0.1596
 5092SOL     OW26911   0.500   3.757   3.461  0.1275 -0.0233 -0.0293
 5092SOL    HW126912   0.448   3.695   3.513  0.6849 -1.8482 -1.6387
 5092SOL    HW226913   0.556   3.790   3.531 -0.5900  0.2662  0.4154
 5093SOL     OW26914   3.758   4.590   0.679  0.2503 -0.9322 -0.3776
 5093SOL    HW126915   3.706   4.555   0.607 -0.4715  2.2325 -1.3696
 5093SOL    HW226916   3.772   4.518   0.741 -1.5279 -0.3215  0.7544
 5094SOL     OW26917   4.426   1.701   2.719  0.0466 -0.4194  0.2923
 5094SOL    HW126918   4.501   1.729   2.771  0.6043 -0.2302 -0.6013
 5094SOL    HW226919   4.380   1.647   2.783 -1.6530 -0.8914 -1.3260
 5095SOL     OW26920   3.248   3.075   6.095  0.7040 -0.2178  0.7521
 5095SOL    HW126921   3.308   3.067   6.170 -0.6964 -2.0245  1.6844
 5095SOL    HW226922   3.160   3.056   6.128  1.3030 -2.1829  1.2369
 5096SOL     OW26923   2.480   0.418   4.839 -0.5965 -0.5316 -0.5836
 5096SOL    HW126924   2.437   0.404   4.755  0.2470  0.9194 -1.2502
 5096SOL    HW226925   2.492   0.512   4.839 -0.3969 -0.5394  1.4612
 5097SOL     OW26926   3.032   4.356  12.522 -0.4258  0.1370  0.3124
 5097SOL    HW126927   2.981   4.422  12.569 -1.0134  0.8096 -1.2891
 5097SOL    HW226928   3.081   4.316  12.594 -0.2405  0.2669  0.2611
 5098SOL     OW26929   3.606   2.878   5.066 -0.5510  0.0110 -0.0246
 5098SOL    HW126930   3.593   2.844   4.978 -0.6605 -0.6172  0.2367
 5098SOL    HW226931   3.700   2.888   5.081 -0.8868  2.8223  0.1900
 5099SOL     OW26932   3.291   3.681  17.526 -0.6673  0.1703 -0.6640
 5099SOL    HW126933   3.374   3.635  17.537 -0.1710  1.2681  0.1919
 5099SOL    HW226934   3.322   3.732  17.452  3.0939  1.9137  2.0934
 5100SOL     OW26935   2.325   4.410  16.369 -0.2626 -0.4188 -0.9803
 5100SOL    HW126936   2.270   4.372  16.301 -1.7717 -3.0596  1.7086
 5100SOL    HW226937   2.408   4.407  16.321 -1.0539 -0.4326 -2.3584
 5101SOL     OW26938   3.243   0.530   4.064 -0.1958 -0.7685  0.1864
 5101SOL    HW126939   3.311   0.597   4.075 -0.1361 -0.8209  0.1355
 5101SOL    HW226940   3.162   0.579   4.048  0.7910  1.1961  1.1899
 5102SOL     OW26941   4.653   3.677   3.882 -0.5582 -0.3599 -0.1776
 5102SOL    HW126942   4.604   3.596   3.901 -0.4133  0.0367  1.9220
 5102SOL    HW226943   4.579   3.738   3.878  0.6899  1.1825  0.5555
 5103SOL     OW26944   2.555   4.206   8.631  0.1440 -0.2045  0.2787
 5103SOL    HW126945   2.485   4.228   8.692 -0.4031 -1.2338  0.0274
 5103SOL    HW226946   2.554   4.113   8.653 -2.4230 -0.4407 -0.7463
 5104SOL     OW26947   2.163   1.713  10.517  0.4803 -0.2812  0.0377
 5104SOL    HW126948   2.209   1.789  10.483 -0.9553  1.5246  2.1034
 5104SOL    HW226949   2.125   1.741  10.601 -0.3457 -0.5293 -0.2529
 5105SOL     OW26950   2.994   3.179   0.746  0.4104  0.0942  0.2453
 5105SOL    HW126951   3.077   3.221   0.769  1.0997 -1.0204 -0.1977
 5105SOL    HW226952   2.982   3.207   0.655 -0.6551 -1.3840 -0.0505
 5106SOL     OW26953   0.366   1.728   2.118  0.6902 -0.6968 -0.1431
 5106SOL    HW126954   0.403   1.645   2.149  1.4647 -0.9143 -1.6612
 5106SOL    HW226955   0.291   1.700   2.065  0.2516  0.5939 -0.1921
 5107SOL     OW26956   4.446   0.421   3.233 -0.1694 -0.0695  0.1728
 5107SOL    HW126957   4.527   0.447   3.190  0.4666  1.8511  2.5555
 5107SOL    HW226958   4.402   0.375   3.160  0.8227 -1.1054  0.2238
 5108SOL     OW26959   2.598   2.746   6.653  0.0279  0.3549  0.6827
 5108SOL    HW126960   2.544   2.739   6.574 -1.3272 -2.6720  1.8451
 5108SOL    HW226961   2.686   2.746   6.616 -0.0841 -0.0272  0.4171
 5109SOL     OW26962   4.034   0.242   4.195 -0.0473  0.1522 -0.1132
 5109SOL    HW126963   3.989   0.319   4.228  0.1353  0.1461  0.1527
 5109SOL    HW226964   4.086   0.226   4.274  0.5870 -0.6405 -0.6865
 5110SOL     OW26965   3.380   0.610   7.297  0.3731 -0.1093  0.6929
 5110SOL    HW126966   3.428   0.687   7.267 -1.6426  0.2515 -1.5984
 5110SOL    HW226967   3.325   0.652   7.363  0.3813  1.5487 -0.3654
 5111SOL     OW26968   3.113   2.868   4.097 -0.1224  0.1809  0.4608
 5111SOL    HW126969   3.024   2.883   4.129 -0.6359  0.9324 -1.3428
 5111SOL    HW226970   3.103   2.838   4.007  0.9020  2.2001 -0.3148
 5112SOL     OW26971   3.818   0.248   7.796 -0.2928  0.2769 -0.8025
 5112SOL    HW126972   3.804   0.154   7.808  1.2894  0.1554 -0.0169
 5112SOL    HW226973   3.782   0.283   7.877 -1.4131 -1.7676 -0.4081
 5113SOL     OW26974   4.299   1.571   6.343  0.1431 -0.0105  0.5102
 5113SOL    HW126975   4.258   1.541   6.261  0.9513  2.2674 -0.7182
 5113SOL    HW226976   4.338   1.658   6.343  0.7833 -0.3002 -0.4943
 5114SOL     OW26977   4.323   2.369   2.658 -0.0576  0.1890 -0.1944
 5114SOL    HW126978   4.296   2.323   2.578  1.2737 -1.4437  0.2941
 5114SOL    HW226979   4.352   2.451   2.618 -2.4960  0.9151 -0.5115
 5115SOL     OW26980   1.189   1.554   8.959 -0.3217 -0.6162 -0.1222
 5115SOL    HW126981   1.221   1.615   9.026 -1.2388  0.1176 -0.3581
 5115SOL    HW226982   1.094   1.565   8.964  0.0621  2.9219 -0.4885
 5116SOL     OW26983   2.301   1.230   8.891  0.5945  0.3277 -0.0900
 5116SOL    HW126984   2.286   1.286   8.967  0.9907  0.4744 -0.1212
 5116SOL    HW226985   2.319   1.292   8.820  0.0430  0.4851 -0.0987
 5117SOL     OW26986   0.991   4.221   1.781 -0.2985 -0.0861  0.3694
 5117SOL    HW126987   0.995   4.146   1.841  0.1272 -0.1261  0.2872
 5117SOL    HW226988   1.018   4.295   1.836  1.1019 -1.3188  1.3344
 5118SOL     OW26989   3.536   3.741   8.727 -0.1826 -0.0870  0.1014
 5118SOL    HW126990   3.453   3.773   8.692 -0.4719  1.0115  1.8114
 5118SOL    HW226991   3.584   3.824   8.728 -0.8592  0.3078 -0.2440
 5119SOL     OW26992   1.156   2.711   3.883  0.6196  0.4073 -0.3635
 5119SOL    HW126993   1.083   2.651   3.868  0.0278  0.6799  1.4109
 5119SOL    HW226994   1.110   2.794   3.895 -2.1956 -0.9812 -1.5701
 5120SOL     OW26995   3.356   1.657   8.405 -0.0996 -0.3119  0.8428
 5120SOL    HW126996   3.291   1.601   8.364  1.2512  0.4681 -2.3539
 5120SOL    HW226997   3.341   1.738   8.356  1.4563  0.3879  1.5177
 5121SOL     OW26998   0.024   4.091  12.249  0.0124  0.5546 -0.2294
 5121SOL    HW126999   4.734   4.164  12.304 -1.5508 -1.1788  1.2601
 5121SOL    HW227000   4.681   4.040  12.251 -0.5401  1.3758 -1.5780
 5122SOL     OW27001   2.587   1.479   6.504 -0.5214 -0.1291  0.0903
 5122SOL    HW127002   2.622   1.423   6.573 -0.9457  0.5857  0.8934
 5122SOL    HW227003   2.642   1.452   6.430  0.2307 -0.1120  0.6468
 5123SOL     OW27004   3.037   3.000   2.354  0.0520  0.3756 -0.1942
 5123SOL    HW127005   3.132   2.993   2.358 -0.0427 -0.5997  0.5670
 5123SOL    HW227006   3.024   2.965   2.442  0.3506 -1.8276 -1.0319
 5124SOL     OW27007   2.158   0.801   2.352 -0.3511 -0.1839  0.4955
 5124SOL    HW127008   2.090   0.842   2.299 -0.2145 -1.4554 -0.6525
 5124SOL    HW227009   2.177   0.719   2.307 -0.5768 -0.0776  0.2087
 5125SOL     OW27010   2.353   4.329   6.299 -0.4058  0.3243  0.1939
 5125SOL    HW127011   2.389   4.348   6.212 -0.5664 -0.2932 -0.0109
 5125SOL    HW227012   2.265   4.297   6.281 -0.8082  0.1192  2.5362
 5126SOL     OW27013   0.384   0.449   0.882 -0.2877  0.4738 -0.2808
 5126SOL    HW127014   0.412   0.541   0.883 -1.0100  0.6929 -0.1570
 5126SOL    HW227015   0.431   0.424   0.802  0.7384 -1.0240  0.8025
 5127SOL     OW27016   3.214   4.350   3.695 -0.2132  0.2377 -0.4242
 5127SOL    HW127017   3.207   4.443   3.672 -2.0208  0.1503 -0.2465
 5127SOL    HW227018   3.204   4.351   3.791 -0.4522 -2.3460 -0.4305
 5128SOL     OW27019   1.968   2.688   2.883  0.0049  0.3741  0.3794
 5128SOL    HW127020   1.923   2.672   2.966 -0.9180 -2.3695 -0.6492
 5128SOL    HW227021   2.039   2.625   2.885 -0.3547 -0.0341  0.4054
 5129SOL     OW27022   1.257   4.497   8.457 -0.6323  0.7180 -0.1952
 5129SOL    HW127023   1.269   4.588   8.428  2.2097  0.4185  0.0270
 5129SOL    HW227024   1.347   4.486   8.489  0.1918  0.4464 -2.5906
 5130SOL     OW27025   0.411   1.879   2.396 -0.4115  0.3914 -0.0619
 5130SOL    HW127026   0.423   1.969   2.427 -0.4884  0.0548  0.9469
 5130SOL    HW227027   0.344   1.889   2.328 -2.6266 -0.1839  2.0339
 5131SOL     OW27028   0.310   0.129   1.910 -0.0690  0.3973  0.2024
 5131SOL    HW127029   0.310   0.042   1.950  0.8504  0.5779  0.5711
 5131SOL    HW227030   0.253   0.180   1.968 -1.5729  1.1083 -1.8908
 5132SOL     OW27031   2.526   2.588   4.564  0.0653  0.1439  0.0978
 5132SOL    HW127032   2.574   2.517   4.522  0.8025  0.7263 -0.0489
 5132SOL    HW227033   2.461   2.607   4.496 -1.5179  1.4255  1.9957
 5133SOL     OW27034   1.049   0.226   8.772 -0.3384  0.3028  0.7335
 5133SOL    HW127035   1.121   0.207   8.711 -1.2426 -3.0900  0.6990
 5133SOL    HW227036   0.982   0.261   8.713  1.6927  1.4590 -0.9005
 5134SOL     OW27037   2.542   2.478  16.682  0.1009 -0.4694  0.5719
 5134SOL    HW127038   2.499   2.549  16.731 -1.0298 -1.2524  0.6998
 5134SOL    HW227039   2.516   2.483  16.590  0.6071 -0.7919  0.4118
 5135SOL     OW27040   1.697   2.457   4.504  0.0889  0.1348  0.4376
 5135SOL    HW127041   1.694   2.370   4.465 -0.8719 -0.1972  1.2496
 5135SOL    HW227042   1.607   2.468   4.535 -0.1887  0.2884 -0.4337
 5136SOL     OW27043   3.623   0.131   0.248 -0.1786 -0.0967 -0.2382
 5136SOL    HW127044   3.576   0.063   0.295 -0.9589  1.1523  0.7789
 5136SOL    HW227045   3.711   0.107   0.278  0.2520 -0.3085 -1.6241
 5137SOL     OW27046   3.938   2.176   4.531 -0.0894  0.0313  0.1405
 5137SOL    HW127047   3.901   2.207   4.448  2.3683  0.4081 -0.8190
 5137SOL    HW227048   3.949   2.258   4.579  1.2438 -0.2648  0.3543
 5138SOL     OW27049   1.465   2.400   6.200  0.2532  0.0906  0.2372
 5138SOL    HW127050   1.545   2.356   6.229 -0.1338  0.1682  1.4304
 5138SOL    HW227051   1.396   2.338   6.225 -0.2324 -0.8753 -3.4141
 5139SOL     OW27052   2.084   4.003   4.246  0.0348 -0.0185 -0.0378
 5139SOL    HW127053   2.134   4.082   4.227 -0.9547  0.8627  0.9712
 5139SOL    HW227054   2.152   3.936   4.243 -1.0545 -1.0585 -1.4068
 5140SOL     OW27055   2.589   1.560  10.239  0.1473  0.0409  0.0139
 5140SOL    HW127056   2.645   1.486  10.264  0.4616  0.3291  0.1658
 5140SOL    HW227057   2.528   1.562  10.313 -0.8639  0.9535 -0.8464
 5141SOL     OW27058   2.352   3.540  16.228 -0.0149  0.2836 -0.1431
 5141SOL    HW127059   2.363   3.580  16.314 -0.8373  0.7293 -0.2486
 5141SOL    HW227060   2.258   3.553  16.218 -0.0856  1.3233  1.9415
 5142SOL     OW27061   1.563   1.569  15.305 -1.0868 -0.0542 -0.8555
 5142SOL    HW127062   1.588   1.552  15.395  0.5709  2.9503 -0.7319
 5142SOL    HW227063   1.532   1.487  15.268 -0.4753 -0.4907 -0.3842
 5143SOL     OW27064   3.849   4.103   4.659  0.5387 -0.6960  0.1026
 5143SOL    HW127065   3.916   4.160   4.695 -0.4852  0.1295  0.6763
 5143SOL    HW227066   3.906   4.050   4.603  0.5433  0.5735 -1.0858
 5144SOL     OW27067   1.422   4.295   1.521  0.3739 -0.0260  0.3384
 5144SOL    HW127068   1.393   4.352   1.450  1.1121  1.1751  1.0060
 5144SOL    HW227069   1.412   4.357   1.593 -1.5516  1.2860 -1.0764
 5145SOL     OW27070   2.561   3.598  16.999  0.2171 -0.1819  0.2444
 5145SOL    HW127071   2.533   3.550  16.921 -5.2406  0.8794  1.5025
 5145SOL    HW227072   2.480   3.644  17.022  0.4024 -0.4525  1.4448
 5146SOL     OW27073   2.976   1.252   7.188 -0.5521  0.2490 -0.6098
 5146SOL    HW127074   2.989   1.158   7.199  1.2451  0.5166 -0.4119
 5146SOL    HW227075   2.911   1.270   7.255  0.8212  1.4139  0.4083
 5147SOL     OW27076   1.093   4.004   9.683 -0.2297  0.7385  0.1002
 5147SOL    HW127077   1.096   3.973   9.773 -1.4567 -0.2597 -0.1960
 5147SOL    HW227078   1.042   3.934   9.642 -2.7900  2.0361  1.0230
 5148SOL     OW27079   2.899   0.655   2.243 -0.9745 -0.2828 -0.3170
 5148SOL    HW127080   2.818   0.671   2.194  0.0685 -0.4025 -2.0830
 5148SOL    HW227081   2.949   0.728   2.207 -2.0911  0.0152 -1.2775
 5149SOL     OW27082   0.789   3.241   8.332  0.2333  0.2673  0.2317
 5149SOL    HW127083   0.726   3.237   8.260  1.4681  0.2040 -0.8517
 5149SOL    HW227084   0.726   3.249   8.404  2.0487 -1.6677  2.0176
 5150SOL     OW27085   0.045   0.296   5.081  0.3552  0.3936 -0.1660
 5150SOL    HW127086   0.090   0.321   5.162  0.0281 -1.8826  0.7017
 5150SOL    HW227087   0.113   0.243   5.039 -0.7050  1.4531 -3.1701
 5151SOL     OW27088   2.479   0.775   8.964 -0.6483  0.2176  0.1956
 5151SOL    HW127089   2.390   0.740   8.968 -0.6653  0.2166 -0.1242
 5151SOL    HW227090   2.475   0.866   8.993  2.1096  0.5424 -0.4718
 5152SOL     OW27091   2.143   0.848  15.879 -0.5208 -0.1851 -0.3068
 5152SOL    HW127092   2.094   0.834  15.798  2.9946  2.5854 -2.9029
 5152SOL    HW227093   2.151   0.944  15.873  2.6445 -0.3561  1.4428
 5153SOL     OW27094   0.015   1.926   6.151 -0.4567  0.2959  0.2418
 5153SOL    HW127095   4.724   2.003   6.103 -0.0569 -0.6693 -1.5248
 5153SOL    HW227096   0.066   1.883   6.083  0.1578 -0.8199  1.3976
 5154SOL     OW27097   3.716   4.525   7.988  0.0751  0.0627 -0.0168
 5154SOL    HW127098   3.629   4.510   7.951  0.8940 -0.9888 -1.5136
 5154SOL    HW227099   3.703   4.504   8.080 -0.4347  0.4764  0.0124
 5155SOL     OW27100   2.816   2.209  16.468  0.1850 -0.5948 -0.4752
 5155SOL    HW127101   2.879   2.257  16.521  0.7165 -0.2186 -1.4325
 5155SOL    HW227102   2.791   2.278  16.407  2.0313 -1.2524 -1.9773
 5156SOL     OW27103   3.796   1.002   2.588  0.5039 -0.3060  0.0146
 5156SOL    HW127104   3.744   1.019   2.510 -1.8936 -3.8827  0.8339
 5156SOL    HW227105   3.872   1.060   2.579 -1.3099  1.7540 -1.9056
 5157SOL     OW27106   1.221   0.110  13.247 -0.0240 -0.1259  0.1973
 5157SOL    HW127107   1.131   0.078  13.248  0.0757 -0.3987  0.5866
 5157SOL    HW227108   1.271   0.045  13.197  0.0424 -0.9611  1.3405
 5158SOL     OW27109   1.451   2.301  12.687 -0.0186 -0.0241  0.2231
 5158SOL    HW127110   1.504   2.380  12.688  0.3373 -0.2440 -1.0107
 5158SOL    HW227111   1.493   2.260  12.611 -1.6104 -0.3953 -0.4563
 5159SOL     OW27112   4.475   0.930   7.038  0.2329  0.2281 -0.2106
 5159SOL    HW127113   4.562   0.895   7.021 -0.0845 -2.2433  3.2162
 5159SOL    HW227114   4.497   1.022   7.029  0.8116  0.1253  0.1500
 5160SOL     OW27115   2.504   1.449  10.991 -0.3066  0.1703  0.5573
 5160SOL    HW127116   2.557   1.501  10.930  1.3901 -1.3706  0.6955
 5160SOL    HW227117   2.563   1.373  10.998  0.4812  0.8659  1.6138
 5161SOL     OW27118   1.231   0.409  15.773  0.0341 -0.2002  0.3605
 5161SOL    HW127119   1.319   0.408  15.737  0.3048  0.2621  1.0186
 5161SOL    HW227120   1.191   0.325  15.748 -0.9887 -0.1003  1.6959
 5162SOL     OW27121   2.592   4.726   9.646  0.3838 -0.3627 -0.1031
 5162SOL    HW127122   2.626   0.077   9.649 -0.6759 -0.0041  1.4406
 5162SOL    HW227123   2.515   4.725   9.704  0.4319 -1.1345 -0.0525
 5163SOL     OW27124   2.208   4.300   4.696 -1.2164 -0.4007  0.0442
 5163SOL    HW127125   2.176   4.332   4.780 -2.5187  0.7502 -0.8940
 5163SOL    HW227126   2.159   4.218   4.693 -1.9992 -0.0979  4.4208
 5164SOL     OW27127   3.230   1.307  11.674  0.2125  0.5099 -0.1741
 5164SOL    HW127128   3.260   1.338  11.588  0.7903  4.0128  1.2790
 5164SOL    HW227129   3.282   1.232  11.702 -0.9532 -0.4965 -0.6769
 5165SOL     OW27130   2.477   0.391   8.883  0.5139 -0.4263  0.2452
 5165SOL    HW127131   2.459   0.337   8.960 -0.2963  0.2874  0.5526
 5165SOL    HW227132   2.414   0.350   8.822  0.7140 -0.1002 -0.1795
 5166SOL     OW27133   0.291   1.047   6.322 -0.9834  0.2068  0.6001
 5166SOL    HW127134   0.271   1.104   6.248 -0.0252 -1.0078 -0.6066
 5166SOL    HW227135   0.299   0.965   6.273 -0.0700  1.4190 -1.2481
 5167SOL     OW27136   0.329   3.533   6.949  0.0876 -0.2814  0.2843
 5167SOL    HW127137   0.320   3.449   6.905  0.0357  0.8878 -1.9313
 5167SOL    HW227138   0.281   3.595   6.894 -0.3395  0.3403  1.3647
 5168SOL     OW27139   1.911   2.351   4.146 -0.3444 -0.7668  0.2980
 5168SOL    HW127140   1.928   2.399   4.227  0.8828  0.3834 -0.6405
 5168SOL    HW227141   1.872   2.271   4.181  0.2113  0.1778  3.0238
 5169SOL     OW27142   0.362   4.636   2.067 -0.3504 -0.7206 -0.3129
 5169SOL    HW127143   0.439   4.586   2.042  1.6156  2.0943  0.0371
 5169SOL    HW227144   0.316   4.570   2.118 -0.7661 -1.1335 -1.2250
 5170SOL     OW27145   2.036   2.950  13.137  0.1459  0.2036  0.2675
 5170SOL    HW127146   1.961   2.903  13.172  0.9776  0.1014  1.9146
 5170SOL    HW227147   2.100   2.911  13.197  0.5829  0.0162 -0.3144
 5171SOL     OW27148   4.604   1.332   6.480 -0.3801 -0.4504  0.2821
 5171SOL    HW127149   4.637   1.399   6.420 -4.2799  0.8503 -0.3960
 5171SOL    HW227150   4.638   1.346   6.569 -5.4606 -0.3659  2.2272
 5172SOL     OW27151   0.599   2.809   3.543 -0.5891  0.0491  0.0665
 5172SOL    HW127152   0.603   2.810   3.447  0.4407 -2.3358  0.0761
 5172SOL    HW227153   0.590   2.901   3.568  1.7574  1.2813 -3.5363
 5173SOL     OW27154   4.224   4.556   2.869 -0.0748  0.3008 -0.3407
 5173SOL    HW127155   4.231   4.620   2.940  2.6773 -0.9249  0.4847
 5173SOL    HW227156   4.248   4.472   2.909  0.9877  0.9294  0.3324
 5174SOL     OW27157   0.974   1.643   3.616  0.5575 -0.4465  0.2372
 5174SOL    HW127158   0.893   1.613   3.575 -0.0759  1.3215  0.1803
 5174SOL    HW227159   0.998   1.718   3.561 -0.5345  0.3803  0.8824
 5175SOL     OW27160   1.126   1.680   7.270 -0.0021  0.4280  0.6882
 5175SOL    HW127161   1.101   1.736   7.344 -1.7065  1.0162 -0.3416
 5175SOL    HW227162   1.042   1.673   7.226  1.2337  0.5292 -1.6557
 5176SOL     OW27163   2.275   1.433   2.125  0.2402  0.2111  0.5412
 5176SOL    HW127164   2.316   1.501   2.178  0.0630  0.6905  0.0612
 5176SOL    HW227165   2.286   1.471   2.038  0.1009  0.2156  0.5257
 5177SOL     OW27166   3.035   3.251   6.353  0.6464 -0.3490  0.3129
 5177SOL    HW127167   3.098   3.242   6.425  0.9055 -1.3193 -0.0394
 5177SOL    HW227168   2.978   3.177   6.371 -0.2876  0.6168  1.3465
 5178SOL     OW27169   0.410   0.420  11.238 -0.1805 -0.0832  0.2403
 5178SOL    HW127170   0.456   0.464  11.167 -1.4785 -2.1941 -1.8891
 5178SOL    HW227171   0.328   0.470  11.240 -0.2273 -0.1356 -0.6400
 5179SOL     OW27172   2.066   0.464   3.349  0.4244  0.4488  0.5870
 5179SOL    HW127173   2.051   0.440   3.257 -1.3404 -0.0368  1.0255
 5179SOL    HW227174   2.162   0.473   3.340  0.4491  0.2504  0.6784
 5180SOL     OW27175   2.072   2.665   2.609 -0.4174 -0.3364  0.2028
 5180SOL    HW127176   2.056   2.719   2.687 -3.4818  0.8867 -1.2769
 5180SOL    HW227177   2.055   2.729   2.540  0.7265  0.0684  0.3024
 5181SOL     OW27178   0.645   1.541   6.321  0.1237 -0.1976  0.6891
 5181SOL    HW127179   0.573   1.595   6.287  2.0641  0.3976 -2.5408
 5181SOL    HW227180   0.711   1.610   6.331 -1.1660  0.9703  1.0851
 5182SOL     OW27181   0.956   4.620  11.963  0.4273  0.1924 -0.3289
 5182SOL    HW127182   0.920   4.709  11.955  1.3508  0.3847 -2.2820
 5182SOL    HW227183   0.879   4.567  11.945 -0.8213  1.7376  0.4869
 5183SOL     OW27184   1.293   2.135   3.339  0.0769 -0.6313  0.2022
 5183SOL    HW127185   1.274   2.061   3.282 -1.5414 -0.2005  0.1954
 5183SOL    HW227186   1.221   2.196   3.326 -1.4974 -1.7510  3.5224
 5184SOL     OW27187   1.337   1.479  16.120 -0.2094 -0.7115 -0.2326
 5184SOL    HW127188   1.246   1.479  16.091 -0.0754 -1.9432 -0.6858
 5184SOL    HW227189   1.359   1.386  16.128  1.7747 -0.0696  2.0013
 5185SOL     OW27190   2.521   3.735   5.049  0.4379 -0.0957  0.4114
 5185SOL    HW127191   2.613   3.758   5.064 -0.0159  1.2193  1.1563
 5185SOL    HW227192   2.488   3.823   5.030  0.5472 -0.0825  0.2776
 5186SOL     OW27193   3.011   2.780   5.075 -0.7681  0.0151 -0.4129
 5186SOL    HW127194   2.949   2.755   5.144  0.6387 -2.2149  0.0474
 5186SOL    HW227195   3.004   2.875   5.084 -0.5685  0.0531 -0.6723
 5187SOL     OW27196   2.647   0.712   2.100 -0.1949 -0.1696  0.2392
 5187SOL    HW127197   2.692   0.776   2.045  2.3851 -2.2622 -0.0670
 5187SOL    HW227198   2.566   0.755   2.129 -1.0021 -1.8513  0.4945
 5188SOL     OW27199   2.545   1.087   2.319  0.1337  0.0330 -0.8494
 5188SOL    HW127200   2.554   1.158   2.382  0.6868 -0.2323 -0.6325
 5188SOL    HW227201   2.486   1.132   2.259  1.2465  2.3271 -0.1815
 5189SOL     OW27202   3.419   0.015   3.127  0.4328 -0.0746  0.6200
 5189SOL    HW127203   3.458   0.070   3.060 -1.1438 -0.4595 -0.6137
 5189SOL    HW227204   3.447   4.669   3.093  0.1696  0.1480 -0.1349
 5190SOL     OW27205   4.617   3.301   2.456  0.0380  0.2446  0.3163
 5190SOL    HW127206   4.630   3.231   2.520 -0.5127  0.3776  0.5686
 5190SOL    HW227207   4.580   3.378   2.499  0.5307  0.8131 -0.2885
 5191SOL     OW27208   3.358   3.021   8.077 -0.1239  0.2128 -0.0245
 5191SOL    HW127209   3.277   3.056   8.040 -0.0853 -0.7565 -1.0119
 5191SOL    HW227210   3.344   2.936   8.036 -2.6133  1.3809 -1.6150
 5192SOL     OW27211   3.602   1.752   4.254  0.5826 -0.0372  0.1514
 5192SOL    HW127212   3.580   1.705   4.335 -1.5957  2.4552  0.9979
 5192SOL    HW227213   3.659   1.685   4.216 -0.1506 -0.1745 -0.6920
 5193SOL     OW27214   2.214   1.453  12.714  0.4526  0.1183 -0.2389
 5193SOL    HW127215   2.197   1.498  12.631  0.2081  0.6692  0.1063
 5193SOL    HW227216   2.125   1.449  12.751  1.0765  1.4001  1.3883
 5194SOL     OW27217   4.393   2.074  15.050  0.3473 -0.0012 -0.2454
 5194SOL    HW127218   4.374   1.988  15.088 -1.8577  0.1063 -1.0698
 5194SOL    HW227219   4.433   2.053  14.966  0.0921 -0.4148 -0.2608
 5195SOL     OW27220   0.655   1.387   9.270 -0.3679 -0.5358  0.0756
 5195SOL    HW127221   0.564   1.412   9.250  0.2956  0.1913 -2.0478
 5195SOL    HW227222   0.639   1.344   9.354  0.4034 -1.5798 -0.3096
 5196SOL     OW27223   3.962   0.532  12.023 -0.3957  0.9163 -0.3662
 5196SOL    HW127224   3.906   0.566  12.092 -2.5991  0.0635 -1.7217
 5196SOL    HW227225   3.909   0.455  12.004 -0.1840  0.1415  2.2512
 5197SOL     OW27226   3.548   1.539   4.981  0.0878  0.3215 -0.3589
 5197SOL    HW127227   3.610   1.524   4.909  1.0864 -2.0535  1.0010
 5197SOL    HW227228   3.572   1.628   5.005  0.5264  0.3672 -0.9537
 5198SOL     OW27229   0.290   2.992  16.915 -0.1270 -0.1145 -0.4116
 5198SOL    HW127230   0.206   3.018  16.951  0.5600 -0.4019  1.4384
 5198SOL    HW227231   0.344   3.037  16.981  1.1299 -0.6105 -1.1013
 5199SOL     OW27232   0.837   2.782   0.789  0.3686  0.2222  0.5807
 5199SOL    HW127233   0.862   2.701   0.744 -0.4135  0.8193 -0.9288
 5199SOL    HW227234   0.926   2.810   0.808  0.8193 -0.6842 -0.1660
 5200SOL     OW27235   4.232   1.201   2.434 -0.6071 -0.3363  0.8533
 5200SOL    HW127236   4.183   1.251   2.368  2.0738  2.1989  0.7876
 5200SOL    HW227237   4.294   1.268   2.463  0.8602 -1.6568  0.7707
 5201SOL     OW27238   3.344   3.298   6.864  0.2959  0.3928 -0.0208
 5201SOL    HW127239   3.263   3.292   6.916  0.6114  0.6559  0.5015
 5201SOL    HW227240   3.316   3.255   6.784  2.1431 -1.1099  0.1441
 5202SOL     OW27241   2.631   2.355  17.399 -0.2165  0.1354  0.1073
 5202SOL    HW127242   2.542   2.324  17.383  1.5482 -3.5469 -2.3836
 5202SOL    HW227243   2.681   2.274  17.390 -1.7739 -1.1146  2.8120
 5203SOL     OW27244   1.125   1.607   7.944  0.0247  0.6982  0.0780
 5203SOL    HW127245   1.143   1.638   7.855  0.5736 -0.1036 -0.0888
 5203SOL    HW227246   1.191   1.539   7.956 -1.0757 -0.2608  0.6570
 5204SOL     OW27247   0.245   0.085   6.542 -0.3777  0.1332  0.5630
 5204SOL    HW127248   0.305   0.158   6.534 -1.9278  1.4335  0.8163
 5204SOL    HW227249   0.165   0.138   6.549 -0.9212 -0.5033 -0.8837
 5205SOL     OW27250   2.549   2.287   0.535  1.2057 -0.1620 -0.1543
 5205SOL    HW127251   2.573   2.256   0.622 -0.8738  0.8901  0.8092
 5205SOL    HW227252   2.545   2.200   0.495 -0.4912 -1.1926  2.2661
 5206SOL     OW27253   3.742   2.751  14.491 -0.3857  0.1700  0.1467
 5206SOL    HW127254   3.755   2.784  14.402 -1.3249 -0.6181 -0.2874
 5206SOL    HW227255   3.647   2.746  14.496 -0.2463  0.1324  3.0260
 5207SOL     OW27256   2.071   3.886   3.743  0.2492  0.0688  0.0885
 5207SOL    HW127257   2.021   3.957   3.782 -3.1567 -2.3206 -0.0172
 5207SOL    HW227258   2.076   3.829   3.820  2.4755 -0.9855 -0.8198
 5208SOL     OW27259   3.396   4.424  14.420  0.1129 -0.6132  0.3308
 5208SOL    HW127260   3.476   4.385  14.384  0.9123  1.0070  0.3604
 5208SOL    HW227261   3.362   4.338  14.445  1.4512 -0.8618  1.3249
 5209SOL     OW27262   3.592   0.590   3.617 -0.4566 -0.0733 -0.6284
 5209SOL    HW127263   3.588   0.500   3.649  0.8689  0.1504  0.1621
 5209SOL    HW227264   3.686   0.600   3.605 -0.5788  0.5174 -1.0887
 5210SOL     OW27265   2.570   0.761  12.935 -0.2786 -0.2785 -0.3373
 5210SOL    HW127266   2.540   0.848  12.963  1.0753 -0.3509  1.3663
 5210SOL    HW227267   2.540   0.697  13.000  0.1145  0.4193  0.5396
 5211SOL     OW27268   1.244   2.234  12.843  0.4900  0.0421  0.6482
 5211SOL    HW127269   1.290   2.215  12.924 -0.2942 -5.4083 -0.1786
 5211SOL    HW227270   1.316   2.249  12.781 -0.9660 -0.3472 -1.1210
 5212SOL     OW27271   2.638   0.230  12.334  0.2436  0.4104 -0.2248
 5212SOL    HW127272   2.650   0.211  12.427  1.3737 -4.9294 -1.4988
 5212SOL    HW227273   2.624   0.325  12.335  0.4378  0.4289  0.3013
 5213SOL     OW27274   2.889   3.754   3.753  0.4827  0.3794 -0.0397
 5213SOL    HW127275   2.919   3.780   3.841  0.9279  1.2256 -0.4421
 5213SOL    HW227276   2.929   3.668   3.741 -1.2572 -0.5158  0.6124
 5214SOL     OW27277   4.409   3.920   3.943 -0.2792  0.8794 -0.3035
 5214SOL    HW127278   4.503   3.933   3.951 -0.2185  0.2908 -0.1069
 5214SOL    HW227279   4.386   3.982   3.874 -0.8056  2.4984  1.3178
 5215SOL     OW27280   3.666   0.143  10.840  0.3305 -0.3634 -0.6193
 5215SOL    HW127281   3.623   0.228  10.837 -1.2231 -1.0627  1.3321
 5215SOL    HW227282   3.652   0.121  10.748  1.3854  0.0838 -0.8846
 5216SOL     OW27283   0.285   1.358   5.319 -0.0712 -0.3520 -0.1437
 5216SOL    HW127284   0.340   1.304   5.261  1.0556  0.8688 -0.2102
 5216SOL    HW227285   0.200   1.314   5.317 -1.0132  1.4820  0.1938
 5217SOL     OW27286   0.099   0.243   3.570  0.2188 -0.2675  0.5332
 5217SOL    HW127287   0.107   0.315   3.632 -1.0310 -1.1883  1.7684
 5217SOL    HW227288   0.073   0.291   3.492 -1.6381  0.4024  1.5688
 5218SOL     OW27289   1.592   4.075   5.314 -0.8036  0.5785 -0.5672
 5218SOL    HW127290   1.496   4.079   5.312 -0.7630  1.6528 -0.1558
 5218SOL    HW227291   1.604   4.169   5.306 -1.1630  0.7831  1.3908
 5219SOL     OW27292   2.778   4.178  10.833  0.4277  0.3612 -0.2719
 5219SOL    HW127293   2.700   4.225  10.860  0.6613  0.2155  0.6387
 5219SOL    HW227294   2.853   4.219  10.876 -1.0670 -0.3557  2.9754
 5220SOL     OW27295   3.328   2.989   5.086 -0.0645  0.2456  0.5183
 5220SOL    HW127296   3.410   2.944   5.107  1.1574  2.1963 -0.0490
 5220SOL    HW227297   3.305   2.953   5.000  0.0972  0.8214  0.2336
 5221SOL     OW27298   1.953   4.261  12.870  0.4036 -0.3376  0.0632
 5221SOL    HW127299   2.000   4.178  12.861 -1.6145 -1.6349  1.5744
 5221SOL    HW227300   1.921   4.255  12.959 -2.6223  0.6710 -0.9672
 5222SOL     OW27301   0.467   3.002   6.207 -0.1550 -0.0557  0.8938
 5222SOL    HW127302   0.372   2.991   6.196  0.4435 -2.2093 -2.0019
 5222SOL    HW227303   0.484   2.919   6.252 -0.0738 -0.1887  0.6183
 5223SOL     OW27304   2.615   3.808   8.046  0.6024 -0.4123 -0.7145
 5223SOL    HW127305   2.688   3.860   8.078  0.8433 -0.1929 -1.6272
 5223SOL    HW227306   2.658   3.726   8.024 -0.3624 -1.2024  0.2830
 5224SOL     OW27307   3.941   0.018   3.014 -0.0056 -0.4779 -0.1887
 5224SOL    HW127308   3.928   4.729   2.923 -3.1519 -0.0187  0.1126
 5224SOL    HW227309   3.853   4.732   3.044 -0.8810  0.4353 -2.0003
 5225SOL     OW27310   3.387   0.990   8.649  0.6995  0.0059  0.1297
 5225SOL    HW127311   3.353   0.987   8.560  1.0434  0.9912 -0.0347
 5225SOL    HW227312   3.469   0.942   8.638  0.8567  0.3747 -0.2791
 5226SOL     OW27313   3.022   1.256  16.370  0.1287  0.2156 -0.1672
 5226SOL    HW127314   3.106   1.301  16.366 -0.2526  0.8929 -0.7701
 5226SOL    HW227315   2.964   1.333  16.368 -1.6713 -1.0985  1.7377
 5227SOL     OW27316   3.783   1.366  15.399 -0.0022 -0.0489  0.3656
 5227SOL    HW127317   3.755   1.452  15.369  1.2342  0.1273 -0.2726
 5227SOL    HW227318   3.767   1.368  15.493 -1.4522 -1.3259  0.1519
 5228SOL     OW27319   0.982   3.942   6.100 -0.2198 -0.0130  0.5244
 5228SOL    HW127320   0.928   3.880   6.050  0.7728 -0.0425 -0.5134
 5228SOL    HW227321   0.995   3.901   6.185  0.2090  2.0188  1.4355
 5229SOL     OW27322   2.988   3.997  11.435 -0.4744  0.2761 -0.5918
 5229SOL    HW127323   2.893   4.010  11.440 -0.5080 -0.4071  0.4208
 5229SOL    HW227324   3.018   4.079  11.476 -0.5661  1.2284 -2.4343
 5230SOL     OW27325   1.803   4.133   4.342 -0.0464 -0.2417 -0.5751
 5230SOL    HW127326   1.860   4.057   4.330 -1.4007 -1.1857 -0.9644
 5230SOL    HW227327   1.807   4.157   4.249  1.2703  0.3210 -0.3856
 5231SOL     OW27328   1.637   2.183   5.439 -0.0791 -0.6255  0.4381
 5231SOL    HW127329   1.590   2.160   5.519  1.7706  0.0387  1.7117
 5231SOL    HW227330   1.586   2.261   5.417 -1.2149 -1.2038  1.0403
 5232SOL     OW27331   3.310   0.127   2.815 -0.1132 -0.2985 -0.6966
 5232SOL    HW127332   3.261   0.122   2.732  0.3824 -0.0803 -1.0036
 5232SOL    HW227333   3.288   0.217   2.841  2.1889 -0.4007  1.5285
 5233SOL     OW27334   0.426   1.807   6.822  0.4186 -0.4541  0.1480
 5233SOL    HW127335   0.387   1.892   6.801  2.2807  0.4765  0.5271
 5233SOL    HW227336   0.471   1.781   6.741 -0.7156 -0.7964 -0.3785
 5234SOL     OW27337   3.156   3.641   4.364  0.0403  0.6344  0.1417
 5234SOL    HW127338   3.165   3.657   4.270 -2.5547  0.5531 -0.1380
 5234SOL    HW227339   3.070   3.684   4.370  0.1958  1.0321 -0.4976
 5235SOL     OW27340   3.755   0.276  16.760 -0.1187  0.0616 -0.2772
 5235SOL    HW127341   3.767   0.299  16.668 -1.8960  1.1916 -0.2132
 5235SOL    HW227342   3.780   0.184  16.747  0.2265  0.4691 -2.3956
 5236SOL     OW27343   1.925   2.470   4.670 -0.3128 -0.1057  0.3268
 5236SOL    HW127344   1.837   2.488   4.636 -0.3235 -0.6819  0.0443
 5236SOL    HW227345   1.929   2.544   4.730 -0.8053  0.7482 -0.6871
 5237SOL     OW27346   0.976   1.138   7.947  0.2500 -0.2778  0.4762
 5237SOL    HW127347   0.904   1.087   7.910  1.7281 -2.4658  0.6548
 5237SOL    HW227348   0.946   1.151   8.037 -0.0405  1.4765  0.1281
 5238SOL     OW27349   2.415   0.669  13.621  0.1315  0.3102  0.4445
 5238SOL    HW127350   2.483   0.605  13.644  0.2950  0.6500  0.9044
 5238SOL    HW227351   2.424   0.693  13.529 -0.2790 -0.5590  0.1773
 5239SOL     OW27352   1.350   0.768   5.851  0.2263  0.3326  0.2926
 5239SOL    HW127353   1.261   0.794   5.875  0.4953 -0.2164  1.9084
 5239SOL    HW227354   1.330   0.674   5.847 -0.5772  0.5542 -0.8516
 5240SOL     OW27355   2.089   0.063  10.051 -0.1678 -0.3595  0.0425
 5240SOL    HW127356   2.175   0.086  10.084 -0.4633  0.8524 -0.0108
 5240SOL    HW227357   2.032   0.067  10.128 -2.0730  0.5189 -1.3797
 5241SOL     OW27358   2.043   3.574  13.591  0.4067  0.4010  0.8739
 5241SOL    HW127359   2.097   3.515  13.643 -0.8518 -0.6281  1.0189
 5241SOL    HW227360   1.956   3.555  13.626  0.3855  1.8101  1.5930
 5242SOL     OW27361   0.756   4.261   3.537 -0.3404 -0.6133  0.4360
 5242SOL    HW127362   0.751   4.234   3.629 -1.3008  0.9619  0.8454
 5242SOL    HW227363   0.681   4.219   3.496  0.7102 -1.6278 -0.4396
 5243SOL     OW27364   2.514   0.041  16.694  0.3145 -0.2429 -0.3229
 5243SOL    HW127365   2.438   0.099  16.690 -0.2557 -0.8448  1.5096
 5243SOL    HW227366   2.480   4.713  16.754 -0.8352  0.8454  0.2349
 5244SOL     OW27367   1.115   2.283   1.714 -0.0599  0.3430  0.1755
 5244SOL    HW127368   1.099   2.327   1.630 -1.5584 -0.9408 -0.2026
 5244SOL    HW227369   1.063   2.204   1.705 -0.7548  0.8659 -0.3674
 5245SOL     OW27370   1.034   3.961  10.922 -0.5757  0.8607  0.0876
 5245SOL    HW127371   1.081   4.038  10.889 -0.9326  1.1104  0.1667
 5245SOL    HW227372   0.946   3.998  10.921 -1.1872 -0.5905 -0.9101
 5246SOL     OW27373   4.141   4.574   6.220  0.3836 -0.2374  0.2077
 5246SOL    HW127374   4.222   4.619   6.196  1.2706 -1.3273  1.1852
 5246SOL    HW227375   4.068   4.630   6.192  0.7761  0.7881  1.1953
 5247SOL     OW27376   0.936   0.754   6.737 -0.0147 -0.6265 -0.1364
 5247SOL    HW127377   0.954   0.676   6.790 -1.2048  0.5999  2.1072
 5247SOL    HW227378   0.923   0.818   6.807 -2.4526 -2.0700  0.7427
 5248SOL     OW27379   4.522   1.547   3.066  0.7021  0.2638  0.0928
 5248SOL    HW127380   4.503   1.502   2.984 -1.2771 -0.4678  0.9688
 5248SOL    HW227381   4.435   1.540   3.104  1.0766  3.3231  1.5161
 5249SOL     OW27382   1.709   4.016   6.568 -0.4225 -0.4632 -0.1734
 5249SOL    HW127383   1.629   3.967   6.547  1.2000 -2.9614 -0.5259
 5249SOL    HW227384   1.731   3.992   6.658  3.1359  0.6639 -0.7596
 5250SOL     OW27385   2.699   3.605   4.230 -0.6822 -0.1607 -0.1518
 5250SOL    HW127386   2.693   3.535   4.294  1.7942 -0.5324 -0.3200
 5250SOL    HW227387   2.790   3.635   4.242 -0.4731 -0.2395 -1.4686
 5251SOL     OW27388   1.739   0.957   9.181  0.0366  0.2281  0.5522
 5251SOL    HW127389   1.733   0.967   9.276 -2.1427 -3.6334  0.8007
 5251SOL    HW227390   1.715   1.043   9.146 -1.7040  0.2332  1.7534
 5252SOL     OW27391   1.375   2.418   5.824  0.4804 -0.2226  0.7568
 5252SOL    HW127392   1.335   2.397   5.740 -0.2728  1.6525  0.6478
 5252SOL    HW227393   1.345   2.334   5.859  1.4944 -1.6099 -1.7419
 5253SOL     OW27394   2.853   3.426   4.389  0.1962  0.3021 -0.0396
 5253SOL    HW127395   2.836   3.336   4.417  1.7841 -0.2991 -0.9560
 5253SOL    HW227396   2.934   3.445   4.437  0.2241  0.5159 -0.1716
 5254SOL     OW27397   3.951   4.344  13.298  0.0477 -0.6362 -0.3367
 5254SOL    HW127398   3.955   4.405  13.224  3.9737 -0.4372  0.0329
 5254SOL    HW227399   3.936   4.262  13.250 -0.9376 -0.3076 -0.5857
 5255SOL     OW27400   1.651   0.206  11.528  0.0299 -0.3580 -0.1476
 5255SOL    HW127401   1.634   0.114  11.547  0.2841 -0.1809  0.9194
 5255SOL    HW227402   1.687   0.202  11.440  0.5248  0.9760 -0.0114
 5256SOL     OW27403   0.623   2.561  12.483 -0.4409  0.7156  0.3764
 5256SOL    HW127404   0.592   2.558  12.574 -1.4067 -3.2226 -0.1062
 5256SOL    HW227405   0.642   2.654  12.493  0.2165  0.7502 -1.2207
 5257SOL     OW27406   2.840   1.059   2.627  0.9283 -0.0430  0.0331
 5257SOL    HW127407   2.903   1.028   2.691  0.9746  3.0645  1.4753
 5257SOL    HW227408   2.897   1.117   2.576  1.4808  0.9145  1.7389
 5258SOL     OW27409   3.982   0.158   2.651 -0.0295  0.3497 -0.3249
 5258SOL    HW127410   3.922   0.201   2.712  1.1117  0.0949  0.9715
 5258SOL    HW227411   3.955   0.070   2.678 -0.3623  0.4862 -0.2098
 5259SOL     OW27412   3.927   1.827   6.720 -0.1800  0.0729  0.2979
 5259SOL    HW127413   3.944   1.793   6.632 -0.0135  1.0173 -0.0366
 5259SOL    HW227414   3.879   1.756   6.762 -0.3574 -0.7833 -1.3392
 5260SOL     OW27415   3.036   3.158  13.671 -0.4355  0.5719 -0.0810
 5260SOL    HW127416   3.042   3.070  13.707  0.3591  1.1093  1.0724
 5260SOL    HW227417   3.006   3.212  13.744  1.5010  0.4414  0.7890
 5261SOL     OW27418   3.298   0.170   4.356  0.3868 -0.0009 -0.1515
 5261SOL    HW127419   3.228   0.120   4.398 -0.0803  1.9807  1.4410
 5261SOL    HW227420   3.328   0.233   4.422  3.2452  1.0559 -2.4485
 5262SOL     OW27421   2.864   0.220   9.169 -0.3966 -0.3053 -0.0458
 5262SOL    HW127422   2.930   0.158   9.139 -0.6822  0.5258 -2.4393
 5262SOL    HW227423   2.904   0.297   9.128  1.9939 -1.4465  0.1792
 5263SOL     OW27424   2.476   0.070   4.335 -0.1341  0.4007 -0.4229
 5263SOL    HW127425   2.428   0.053   4.254 -0.3716 -1.1603  0.0430
 5263SOL    HW227426   2.563   0.031   4.326 -0.7327 -0.7152 -1.4376
 5264SOL     OW27427   3.952   1.146  15.439 -0.9029  0.0787  0.0232
 5264SOL    HW127428   3.915   1.101  15.514 -1.5202  1.2272  0.4094
 5264SOL    HW227429   3.883   1.206  15.411 -0.3521  0.1461 -1.1829
 5265SOL     OW27430   4.212   1.415  11.876  0.0641 -0.3779 -0.1992
 5265SOL    HW127431   4.139   1.477  11.882 -1.8689 -2.6934  0.4023
 5265SOL    HW227432   4.279   1.478  11.850  1.8639 -1.8225  0.9487
 5266SOL     OW27433   2.990   2.387   4.713 -0.2142 -0.1333  0.1989
 5266SOL    HW127434   3.045   2.453   4.670 -0.6352  0.4806  0.6169
 5266SOL    HW227435   3.043   2.307   4.708 -1.0369 -0.5985 -1.0426
 5267SOL     OW27436   1.532   3.570   8.595  0.1969  0.1690 -0.0006
 5267SOL    HW127437   1.581   3.488   8.589 -0.5938 -0.2387 -0.7925
 5267SOL    HW227438   1.455   3.553   8.542  0.1207  0.4923  0.0080
 5268SOL     OW27439   0.933   3.744  17.574  0.2529 -0.2281 -0.3695
 5268SOL    HW127440   0.996   3.674  17.593 -0.8936 -1.5318 -1.2933
 5268SOL    HW227441   0.945   3.806  17.646  1.6631 -1.5285  0.5178
 5269SOL     OW27442   2.144   0.371   9.282  0.2228 -0.2392 -0.4001
 5269SOL    HW127443   2.101   0.437   9.228  1.8204 -1.5666 -3.3120
 5269SOL    HW227444   2.219   0.414   9.323 -0.3166 -0.3837  0.7173
 5270SOL     OW27445   2.748   3.064  17.281  0.2141 -0.3557 -0.7525
 5270SOL    HW127446   2.692   3.125  17.233  1.1925  1.3357  0.2279
 5270SOL    HW227447   2.797   3.128  17.334  0.6034 -2.0719  0.9450
 5271SOL     OW27448   3.488   1.903  10.773  0.4167 -0.3056  0.4682
 5271SOL    HW127449   3.575   1.877  10.804  0.0892 -1.2284  0.6189
 5271SOL    HW227450   3.500   1.971  10.706 -0.1478 -0.5028  0.1664
 5272SOL     OW27451   0.699   0.905   7.079  0.7266  0.8669 -0.3466
 5272SOL    HW127452   0.740   0.934   6.998 -1.7823  2.4051 -1.0700
 5272SOL    HW227453   0.682   0.992   7.115  2.2762  0.7166  0.7361
 5273SOL     OW27454   4.534   0.032   6.717  0.6410  0.5494 -0.5003
 5273SOL    HW127455   4.497   0.113   6.681 -0.1320  0.8497  0.9226
 5273SOL    HW227456   4.456   4.716   6.710  1.0283 -0.0793  0.0338
 5274SOL     OW27457   2.531   1.626   9.684  0.0654  0.2888 -0.2601
 5274SOL    HW127458   2.622   1.597   9.676 -0.1568 -0.7252  0.9531
 5274SOL    HW227459   2.488   1.541   9.687  0.1524  0.1857 -2.1296
 5275SOL     OW27460   3.027   0.680   4.497 -0.0212 -0.1793 -0.0455
 5275SOL    HW127461   3.091   0.619   4.460  0.3909  0.0377  0.3103
 5275SOL    HW227462   2.957   0.618   4.518 -2.0345  1.7006 -1.2063
 5276SOL     OW27463   1.129   4.456   7.379 -0.5452  0.3589 -0.1733
 5276SOL    HW127464   1.105   4.496   7.295 -4.0050  1.5465  1.3590
 5276SOL    HW227465   1.149   4.540   7.422  1.9034  0.2504 -1.0801
 5277SOL     OW27466   2.127   2.205   0.508  0.2015  0.0719  0.0905
 5277SOL    HW127467   2.142   2.146   0.582  1.7621 -1.2861 -1.3035
 5277SOL    HW227468   2.040   2.180   0.479  0.0776  0.4294  0.1509
 5278SOL     OW27469   3.200   3.697   3.798 -0.2192 -0.2618  0.1848
 5278SOL    HW127470   3.169   3.609   3.821 -1.9601  0.7548  1.7562
 5278SOL    HW227471   3.228   3.693   3.707 -0.3819 -0.1426  0.1298
 5279SOL     OW27472   2.779   0.633  11.381  0.6461  0.0744 -0.5339
 5279SOL    HW127473   2.841   0.645  11.453  1.4580 -1.6383 -0.9455
 5279SOL    HW227474   2.718   0.706  11.392  1.1589  0.5576 -0.8657
 5280SOL     OW27475   0.675   2.069   8.511  0.6753  0.6331  0.0416
 5280SOL    HW127476   0.732   2.054   8.586 -1.4540 -3.1727  0.8958
 5280SOL    HW227477   0.629   2.148   8.540 -0.8308 -0.2187 -0.0452
 5281SOL     OW27478   3.248   2.702   4.683 -0.1906 -0.1476 -0.1473
 5281SOL    HW127479   3.297   2.775   4.722  0.1415 -0.4612  0.0208
 5281SOL    HW227480   3.171   2.698   4.739 -0.8016  0.7294 -0.9174
 5282SOL     OW27481   0.271   3.764   1.678  0.0670  0.3750 -0.5083
 5282SOL    HW127482   0.321   3.840   1.708  2.2536 -2.2279  2.3305
 5282SOL    HW227483   0.338   3.737   1.615  0.0126 -1.0746  0.0620
 5283SOL     OW27484   3.953   1.827  14.281  0.2821  0.3519 -0.3883
 5283SOL    HW127485   3.970   1.921  14.277 -1.8720  0.7572 -0.1027
 5283SOL    HW227486   3.887   1.817  14.349  0.3235  0.8763 -0.2724
 5284SOL     OW27487   1.004   4.660   6.335 -0.0907 -0.5161  0.5744
 5284SOL    HW127488   0.964   4.694   6.255  0.5715 -0.1073  0.4184
 5284SOL    HW227489   0.953   4.585   6.365 -1.1532 -0.1225 -0.2349
 5285SOL     OW27490   3.397   3.865   8.518 -0.6009 -0.0380  0.3043
 5285SOL    HW127491   3.329   3.799   8.502 -1.4715  1.4022 -1.8502
 5285SOL    HW227492   3.372   3.948   8.478 -1.3647 -0.5247 -0.2317
 5286SOL     OW27493   3.075   0.916   8.992 -0.2230  0.1977  0.5338
 5286SOL    HW127494   3.051   0.926   8.900 -1.1696  1.4992  0.9161
 5286SOL    HW227495   3.094   1.008   9.010 -0.3114  0.6790 -1.9244
 5287SOL     OW27496   3.758   1.167   8.013  0.5777 -0.4634  0.5519
 5287SOL    HW127497   3.766   1.218   7.933 -0.3192 -0.9197  0.1752
 5287SOL    HW227498   3.788   1.082   7.980  1.9927 -0.0376  0.7258
 5288SOL     OW27499   1.070   2.645  16.195 -0.3312 -0.5105  0.1347
 5288SOL    HW127500   1.013   2.570  16.210  1.3038 -1.2728  2.4421
 5288SOL    HW227501   1.123   2.641  16.274  0.1772  0.3900 -0.1596
 5289SOL     OW27502   4.467   2.072  10.366  0.8336  0.7931  0.0389
 5289SOL    HW127503   4.384   2.047  10.407 -0.0250  0.7923 -1.7119
 5289SOL    HW227504   4.498   1.989  10.330  0.2458  1.9547 -3.2048
 5290SOL     OW27505   1.552   4.730   4.996 -0.4006 -0.4270  0.7211
 5290SOL    HW127506   1.574   0.083   4.980  1.2684 -1.0312 -0.4624
 5290SOL    HW227507   1.632   4.681   5.016 -0.8157 -1.1621  0.5682
 5291SOL     OW27508   4.487   1.930   2.503 -0.8199  0.0809 -0.0330
 5291SOL    HW127509   4.506   2.014   2.543 -0.6827  0.4883 -0.9520
 5291SOL    HW227510   4.513   1.871   2.574 -0.5209 -0.1396 -0.3244
 5292SOL     OW27511   3.937   2.070   2.653 -0.0738 -1.0427 -0.2766
 5292SOL    HW127512   3.864   2.108   2.603 -0.0034 -0.9260 -0.2894
 5292SOL    HW227513   3.889   2.070   2.736  1.1039 -0.2338  0.3934
 5293SOL     OW27514   4.502   0.103  16.733 -0.3783 -0.2756  0.1958
 5293SOL    HW127515   4.550   0.026  16.763  0.3850  0.2848  0.4244
 5293SOL    HW227516   4.576   0.163  16.724 -0.9983 -0.1299 -4.2369
 5294SOL     OW27517   2.384   2.814   5.285 -0.8523  0.1001 -0.0323
 5294SOL    HW127518   2.382   2.868   5.206  2.3569  1.9054  1.1399
 5294SOL    HW227519   2.317   2.749   5.265 -0.3850 -0.3087 -0.2801
 5295SOL     OW27520   1.668   1.683  16.589 -0.1140 -0.1878 -0.0031
 5295SOL    HW127521   1.741   1.623  16.574  1.3558  1.7933 -0.7172
 5295SOL    HW227522   1.691   1.762  16.540 -2.2890  0.1375 -0.4939
 5296SOL     OW27523   3.949   2.555  10.308 -0.3313  0.6211 -0.1367
 5296SOL    HW127524   4.021   2.502  10.273 -1.2660 -0.4920 -0.3731
 5296SOL    HW227525   3.876   2.501  10.277 -2.3429  4.6217 -2.2483
 5297SOL     OW27526   1.462   3.428   7.471  0.1045  0.6172 -0.0666
 5297SOL    HW127527   1.487   3.520   7.457  0.2311  0.7587  1.1211
 5297SOL    HW227528   1.384   3.431   7.526  1.2954  0.2602  1.6577
 5298SOL     OW27529   4.464   2.986   7.050 -0.1044 -0.1475  1.2152
 5298SOL    HW127530   4.386   2.956   7.005  0.3166  1.6915 -0.7483
 5298SOL    HW227531   4.528   2.917   7.030  0.6475  1.1270 -0.6906
 5299SOL     OW27532   2.376   0.334  15.137  0.2584  0.3534 -0.0735
 5299SOL    HW127533   2.344   0.259  15.086  0.1709 -0.0221  0.5263
 5299SOL    HW227534   2.346   0.407  15.083  0.0096  0.7928  0.6640
 5300SOL     OW27535   3.662   4.642   7.135  0.4142 -0.3516  0.3333
 5300SOL    HW127536   3.597   4.658   7.067 -0.4461 -2.3045  0.6895
 5300SOL    HW227537   3.677   4.549   7.117  0.1167  0.2745 -3.1473
 5301SOL     OW27538   4.101   3.402   7.365  0.1661 -0.3073 -0.4059
 5301SOL    HW127539   4.138   3.405   7.453 -0.3849  0.5407 -0.2021
 5301SOL    HW227540   4.172   3.444   7.315  1.2219  0.1645  1.4731
 5302SOL     OW27541   3.535   4.191   5.509  0.0921 -0.1324 -0.4463
 5302SOL    HW127542   3.546   4.188   5.414  0.8302 -2.2799 -0.2958
 5302SOL    HW227543   3.604   4.245   5.547 -0.3166 -0.1833  0.3655
 5303SOL     OW27544   1.128   0.070   4.190 -0.2511 -0.0335  0.0333
 5303SOL    HW127545   1.167   0.142   4.139 -0.6922 -1.5525 -2.4473
 5303SOL    HW227546   1.035   0.088   4.177 -0.7912 -1.1452  2.3432
 5304SOL     OW27547   4.587   0.221   3.012 -0.2644 -0.5479  0.3092
 5304SOL    HW127548   4.563   0.144   3.063 -0.8731 -1.2993 -1.1148
 5304SOL    HW227549   4.533   0.209   2.934  1.4552  0.6266 -1.0559
 5305SOL     OW27550   0.533   2.452   1.499  0.3430 -0.0439  0.2407
 5305SOL    HW127551   0.449   2.441   1.543  0.7933 -0.3658  1.0287
 5305SOL    HW227552   0.588   2.412   1.567  2.0037  1.1331 -0.4135
 5306SOL     OW27553   0.665   2.974  16.108 -0.0554  0.5123  0.5190
 5306SOL    HW127554   0.731   2.932  16.162  0.9989 -1.2492 -2.1219
 5306SOL    HW227555   0.591   2.994  16.165 -0.0059  0.2184  0.6841
 5307SOL     OW27556   3.218   2.446   2.443  0.1884  0.6247 -0.6929
 5307SOL    HW127557   3.233   2.498   2.522  0.2839  0.4366 -0.5861
 5307SOL    HW227558   3.278   2.486   2.380 -1.1751  0.7577 -1.8971
 5308SOL     OW27559   2.480   4.517   8.162  0.3744  0.0639 -0.2312
 5308SOL    HW127560   2.487   4.457   8.237 -3.6338  0.3698  0.3695
 5308SOL    HW227561   2.501   4.600   8.206  1.2232 -1.3607  2.0759
 5309SOL     OW27562   2.850   3.056  17.635 -0.3970 -0.0019  0.4873
 5309SOL    HW127563   2.825   3.148  17.641 -0.1174  0.1285 -0.4521
 5309SOL    HW227564   2.808   3.040  17.550  0.5342  1.4961 -0.2601
 5310SOL     OW27565   1.685   0.111   7.081 -0.4864  0.3597  0.0182
 5310SOL    HW127566   1.754   0.150   7.028 -1.9240  0.7703 -1.5214
 5310SOL    HW227567   1.689   0.161   7.163  0.3346  0.8079 -0.2893
 5311SOL     OW27568   0.544   3.487   5.636 -0.5167  0.1541 -0.3314
 5311SOL    HW127569   0.584   3.571   5.660 -1.5187  0.5711 -0.1312
 5311SOL    HW227570   0.570   3.475   5.544  0.4336 -1.6651  0.1820
 5312SOL     OW27571   3.448   2.164   2.245 -0.3107 -0.3967 -0.1466
 5312SOL    HW127572   3.393   2.191   2.171 -0.4316  1.3373  0.5838
 5312SOL    HW227573   3.375   2.134   2.300  0.8970  0.0059  1.6626
 5313SOL     OW27574   0.383   4.484   2.619  0.3724 -0.7145  0.2066
 5313SOL    HW127575   0.330   4.535   2.681  0.3845 -1.5530  0.9188
 5313SOL    HW227576   0.440   4.552   2.583 -2.2186 -0.8884 -4.1570
 5314SOL     OW27577   3.287   0.782   6.661  0.7031 -0.0116  0.0964
 5314SOL    HW127578   3.336   0.823   6.732  0.3130  2.5460 -1.1026
 5314SOL    HW227579   3.329   0.825   6.586 -0.5383 -0.3396 -0.7865
 5315SOL     OW27580   4.509   4.296   7.109  0.4143  0.2948  0.2583
 5315SOL    HW127581   4.529   4.361   7.043  0.0421 -0.8642 -1.0027
 5315SOL    HW227582   4.415   4.278   7.099  0.6223 -0.2128 -0.7994
 5316SOL     OW27583   0.443   0.486  14.554 -0.0567 -0.0480  0.5694
 5316SOL    HW127584   0.414   0.574  14.531 -1.2765 -0.6047  0.0002
 5316SOL    HW227585   0.491   0.464  14.474  1.7851  2.1182  1.1016
 5317SOL     OW27586   4.705   0.745   7.678  0.1701  0.0091  0.1942
 5317SOL    HW127587   4.670   0.656   7.675  1.9498 -0.6771 -0.0217
 5317SOL    HW227588   0.027   0.746   7.604  0.4675 -1.6185  0.4181
 5318SOL     OW27589   0.611   4.541   5.123  0.0245  0.4603  0.5606
 5318SOL    HW127590   0.636   4.485   5.196 -1.8364 -3.0183 -1.4794
 5318SOL    HW227591   0.528   4.572   5.160  0.0419 -0.0601  1.0318
 5319SOL     OW27592   0.548   0.160   4.133 -0.3814 -0.0236 -0.2991
 5319SOL    HW127593   0.574   0.211   4.056 -1.2281  2.6424  1.1876
 5319SOL    HW227594   0.528   0.239   4.183  0.5962  0.3654 -0.5230
 5320SOL     OW27595   1.260   1.699  16.623 -0.1305  0.5533  0.5225
 5320SOL    HW127596   1.333   1.703  16.684  2.9067  0.0510 -3.0982
 5320SOL    HW227597   1.196   1.642  16.665  1.3122 -0.0793  1.8688
 5321SOL     OW27598   2.436   0.911   9.283 -0.2010 -0.2141  0.3204
 5321SOL    HW127599   2.440   0.969   9.360  2.8596  0.1974 -0.1587
 5321SOL    HW227600   2.451   0.973   9.212  0.8366  1.3247  1.8607
 5322SOL     OW27601   4.340   3.024  13.295  0.1234 -0.1550 -0.3934
 5322SOL    HW127602   4.420   3.058  13.335 -0.4890 -0.8058  1.4068
 5322SOL    HW227603   4.345   2.932  13.320  2.0011 -0.7555 -2.9822
 5323SOL     OW27604   2.203   0.980   3.941 -0.4005 -0.3137  0.1586
 5323SOL    HW127605   2.203   0.959   3.848 -0.0795  2.9083 -0.5872
 5323SOL    HW227606   2.279   1.039   3.945 -0.3121 -0.3204 -1.5304
 5324SOL     OW27607   2.497   3.149   2.303  0.1475  0.0418  0.4154
 5324SOL    HW127608   2.454   3.080   2.252  0.5628  0.8005 -0.9590
 5324SOL    HW227609   2.575   3.161   2.250  0.7325  1.5385  1.6137
 5325SOL     OW27610   1.589   4.717   9.461  0.3590  1.1617 -0.1244
 5325SOL    HW127611   1.516   0.010   9.514 -0.1178 -0.1578  0.0066
 5325SOL    HW227612   1.654   0.047   9.480 -0.3340  1.8244 -0.1527
 5326SOL     OW27613   1.437   1.600   8.738 -0.1074 -0.1748  0.1400
 5326SOL    HW127614   1.520   1.633   8.704  0.2173 -2.2683 -1.0864
 5326SOL    HW227615   1.398   1.681   8.770 -0.9016  0.1526 -1.6966
 5327SOL     OW27616   2.534   2.909  13.254 -0.4750 -0.2221  0.4021
 5327SOL    HW127617   2.528   2.819  13.286 -0.6487 -0.5501 -0.5440
 5327SOL    HW227618   2.533   2.883  13.162 -1.8727  1.1011  0.0386
 5328SOL     OW27619   0.475   2.214   7.858  0.0502 -0.7342 -0.0617
 5328SOL    HW127620   0.384   2.189   7.844 -0.0477  0.5080 -1.7528
 5328SOL    HW227621   0.505   2.143   7.914  2.5511  0.5787  0.2643
 5329SOL     OW27622   0.789   1.558   3.924 -0.1185  0.0536 -0.0896
 5329SOL    HW127623   0.831   1.504   3.992  0.1639  0.0089 -0.2998
 5329SOL    HW227624   0.853   1.539   3.855 -1.1088 -1.1627 -0.6745
 5330SOL     OW27625   0.915   3.775   8.076 -0.2071 -0.2130 -0.1024
 5330SOL    HW127626   0.930   3.723   8.155  0.5968 -0.2867 -0.2953
 5330SOL    HW227627   0.889   3.862   8.105  1.7767 -0.6666  3.0562
 5331SOL     OW27628   2.888   0.265  17.332 -0.0055  1.1517 -0.0260
 5331SOL    HW127629   2.850   0.344  17.371 -0.3175  0.7137  0.5700
 5331SOL    HW227630   2.943   0.242  17.407  1.0062  1.5863 -0.6320
 5332SOL     OW27631   2.484   2.946   5.784 -0.8856 -0.3051  0.2023
 5332SOL    HW127632   2.514   2.898   5.706 -0.7627  0.2267 -0.0758
 5332SOL    HW227633   2.547   3.017   5.792  0.8565 -1.5130 -2.5055
 5333SOL     OW27634   4.453   3.771   2.763 -0.0778 -0.1074  0.5484
 5333SOL    HW127635   4.366   3.740   2.787  0.7937 -2.2050  0.9814
 5333SOL    HW227636   4.471   3.718   2.685 -0.6399  2.8580 -1.5622
 5334SOL     OW27637   3.265   3.933   5.749  0.4461 -0.0351 -0.1264
 5334SOL    HW127638   3.251   3.969   5.662  0.0705 -1.9478 -0.8580
 5334SOL    HW227639   3.361   3.933   5.752  0.4764  1.1113 -1.4130
 5335SOL     OW27640   1.726   1.484  10.831  0.0817 -0.1742  0.2946
 5335SOL    HW127641   1.778   1.428  10.888  0.7427  0.5574  0.4076
 5335SOL    HW227642   1.682   1.550  10.885 -1.0239 -1.9509  1.5720
 5336SOL     OW27643   4.510   4.137   8.106 -0.0040 -0.1720  0.5689
 5336SOL    HW127644   4.601   4.139   8.135 -0.3604 -2.2989  1.7917
 5336SOL    HW227645   4.521   4.047   8.078  1.8794  0.1262  0.3063
 5337SOL     OW27646   2.297   4.501   9.831  0.3303  0.0171 -0.0956
 5337SOL    HW127647   2.355   4.578   9.832 -0.4605  0.5824  0.9762
 5337SOL    HW227648   2.213   4.543   9.813  0.5428  0.7364  0.5877
 5338SOL     OW27649   4.229   0.456   7.160  0.1906 -0.1083 -0.1720
 5338SOL    HW127650   4.309   0.505   7.142  0.7239 -0.1661  2.1237
 5338SOL    HW227651   4.256   0.365   7.169  1.9552  0.3287 -1.2061
 5339SOL     OW27652   0.027   1.819   6.408 -0.1791  0.6482 -0.0820
 5339SOL    HW127653   0.026   1.878   6.483 -0.6742  1.1896 -0.5178
 5339SOL    HW227654   4.735   1.878   6.340  1.6434  0.6711 -0.8770
 5340SOL     OW27655   0.445   2.000  10.908  0.3818  0.3158 -0.6522
 5340SOL    HW127656   0.405   1.927  10.955  0.6747  1.3911  1.2497
 5340SOL    HW227657   0.520   2.014  10.966  1.3406  1.0584 -2.0578
 5341SOL     OW27658   2.312   3.399  12.980  0.4241  0.6426 -0.3065
 5341SOL    HW127659   2.260   3.427  12.905 -1.5946 -1.2799  0.3543
 5341SOL    HW227660   2.382   3.338  12.957 -0.4262  0.1338 -1.5443
 5342SOL     OW27661   2.875   3.290  17.400  0.1161 -0.1282 -0.0286
 5342SOL    HW127662   2.899   3.342  17.477 -2.8521  0.1329  0.7245
 5342SOL    HW227663   2.824   3.359  17.357 -1.7478 -0.3832  1.8207
 5343SOL     OW27664   3.398   2.519   3.642 -0.1507 -0.1800 -0.1081
 5343SOL    HW127665   3.352   2.464   3.579 -1.2176  1.8723 -1.0947
 5343SOL    HW227666   3.434   2.590   3.588 -0.1922  0.3333  0.5375
 5344SOL     OW27667   3.584   0.903  12.936 -0.4408  0.1513  0.8678
 5344SOL    HW127668   3.499   0.943  12.954 -1.0045 -0.0126 -1.4087
 5344SOL    HW227669   3.563   0.877  12.846  1.7126  0.7375  0.2046
 5345SOL     OW27670   1.504   2.794   7.665  0.6482  0.2235 -0.0820
 5345SOL    HW127671   1.487   2.861   7.731  2.0200 -0.5877  1.0915
 5345SOL    HW227672   1.464   2.835   7.589  3.1220  1.2403 -0.8118
 5346SOL     OW27673   3.859   2.644   0.786 -0.3653 -0.1705  0.7967
 5346SOL    HW127674   3.892   2.564   0.745  0.4793  0.3401  0.4698
 5346SOL    HW227675   3.785   2.657   0.727 -0.6351 -1.0391  0.9535
 5347SOL     OW27676   0.562   1.666   5.427  0.3869 -0.2873  0.6011
 5347SOL    HW127677   0.656   1.655   5.414 -0.1917 -1.9017 -2.2383
 5347SOL    HW227678   0.539   1.729   5.359  0.5984 -0.9672 -0.1059
 5348SOL     OW27679   3.214   1.443   8.266 -0.0619 -0.4982  0.0081
 5348SOL    HW127680   3.133   1.490   8.248  0.2076 -0.5566 -1.3314
 5348SOL    HW227681   3.239   1.424   8.176  1.3991  0.0344  0.2906
 5349SOL     OW27682   4.704   3.456  17.059  0.1514  0.0138 -0.0225
 5349SOL    HW127683   4.678   3.540  17.020 -3.1934 -0.2665  1.6176
 5349SOL    HW227684   4.624   3.403  17.064 -0.6985  1.3854  1.2220
 5350SOL     OW27685   0.968   0.769  17.534 -0.1933  0.4605 -0.0997
 5350SOL    HW127686   0.873   0.783  17.528 -0.1325  0.4921 -1.0330
 5350SOL    HW227687   0.991   0.834  17.601  2.7887  0.3877 -1.0728
 5351SOL     OW27688   2.441   3.586   7.823  0.3712  0.2031  0.2943
 5351SOL    HW127689   2.387   3.521   7.778  0.4869 -0.4710  1.1191
 5351SOL    HW227690   2.479   3.636   7.751  0.3192  0.0503  0.1637
 5352SOL     OW27691   1.432   3.359  10.078 -0.4981 -0.3494  0.0553
 5352SOL    HW127692   1.459   3.350   9.987  0.0283 -1.6547  0.3388
 5352SOL    HW227693   1.345   3.397  10.068 -0.1019  0.8739  1.2235
 5353SOL     OW27694   1.938   1.177   3.418  0.2837 -0.3097  0.1361
 5353SOL    HW127695   1.860   1.131   3.449  0.1023 -0.7666 -1.0183
 5353SOL    HW227696   2.003   1.107   3.411 -0.1402 -0.5606 -1.2945
 5354SOL     OW27697   0.183   3.214   1.931 -0.0580 -0.0089  0.3745
 5354SOL    HW127698   0.277   3.230   1.933  0.5435 -3.5592  0.4427
 5354SOL    HW227699   0.177   3.142   1.869 -0.8313 -0.6129  1.1428
 5355SOL     OW27700   3.662   1.717   7.519 -0.2295  0.3718 -0.3620
 5355SOL    HW127701   3.627   1.770   7.590  0.1779  0.0736  0.0563
 5355SOL    HW227702   3.606   1.640   7.532  3.5980 -2.0315  1.8870
 5356SOL     OW27703   1.240   0.915   1.302  0.1659  0.3040  0.0976
 5356SOL    HW127704   1.199   0.867   1.373 -0.2410 -0.6282 -0.7612
 5356SOL    HW227705   1.160   0.954   1.267  0.7014  0.6448 -0.7689
 5357SOL     OW27706   0.059   4.349   4.930  0.5017  0.1995  0.2961
 5357SOL    HW127707   0.012   4.310   5.003 -0.9033  1.8760  0.2758
 5357SOL    HW227708   0.102   4.274   4.889 -0.1164 -0.5501  1.0290
 5358SOL     OW27709   0.883   3.322   1.561 -0.5599 -0.2818 -0.3666
 5358SOL    HW127710   0.912   3.257   1.626  0.3333  0.4054 -0.0722
 5358SOL    HW227711   0.950   3.325   1.493  0.2074  0.3614  0.4052
 5359SOL     OW27712   3.243   0.792  17.288  0.1463 -0.2908 -0.3507
 5359SOL    HW127713   3.294   0.803  17.368  0.1326 -1.9667 -0.1160
 5359SOL    HW227714   3.202   0.709  17.312  2.2372 -0.9994  0.7322
 5360SOL     OW27715   3.672   1.254   6.061  0.3026  0.3542  0.0596
 5360SOL    HW127716   3.691   1.277   6.152 -0.4757  1.1490  0.0187
 5360SOL    HW227717   3.707   1.332   6.018  1.9037 -0.2984  0.1845
 5361SOL     OW27718   1.656   2.533   5.580 -0.0790 -0.4379 -0.9495
 5361SOL    HW127719   1.633   2.449   5.539 -0.1934 -1.2438  0.7735
 5361SOL    HW227720   1.747   2.516   5.604 -0.4300 -0.1200  0.5945
 5362SOL     OW27721   0.777   1.474  13.362 -0.1077  0.5398 -0.3744
 5362SOL    HW127722   0.819   1.476  13.276  0.0839 -2.0981 -0.3433
 5362SOL    HW227723   0.773   1.567  13.385 -0.6924 -0.1541  2.3760
 5363SOL     OW27724   0.943   4.670   7.805  0.3176 -0.2683 -0.7120
 5363SOL    HW127725   0.876   4.601   7.808 -0.2489  0.3457  0.7615
 5363SOL    HW227726   0.929   4.720   7.885 -1.9595  0.1311 -1.3674
 5364SOL     OW27727   3.607   1.055   2.388 -0.3328  0.1677 -0.7399
 5364SOL    HW127728   3.571   1.144   2.394  0.2684  0.2369  2.2180
 5364SOL    HW227729   3.527   1.006   2.407 -0.2553  0.4903  0.4517
 5365SOL     OW27730   1.819   0.724   7.686  0.7501  0.2320 -0.2235
 5365SOL    HW127731   1.797   0.774   7.765  1.0971 -0.8410  0.5475
 5365SOL    HW227732   1.837   0.798   7.628 -0.7070 -1.1190 -2.3942
 5366SOL     OW27733   4.088   2.218  12.150  0.1986 -0.1253  0.4354
 5366SOL    HW127734   4.092   2.204  12.245  0.2368  2.7880  0.8779
 5366SOL    HW227735   4.065   2.140  12.101 -1.8396 -0.9379  2.6689
 5367SOL     OW27736   0.996   1.380  10.750 -0.0814 -0.4586  0.3585
 5367SOL    HW127737   0.902   1.367  10.738 -0.2822  0.6812  0.7508
 5367SOL    HW227738   1.032   1.296  10.720  2.3402  1.6629 -2.7448
 5368SOL     OW27739   3.826   2.924   7.203 -0.8817  0.6371  0.3151
 5368SOL    HW127740   3.890   2.916   7.274 -1.0933  0.5391  0.4947
 5368SOL    HW227741   3.867   2.980   7.137 -1.6478  2.6750  1.5588
 5369SOL     OW27742   0.444   0.193   0.490  0.0280  0.1810 -0.0009
 5369SOL    HW127743   0.364   0.158   0.530  0.7735 -0.1232  1.2164
 5369SOL    HW227744   0.468   0.261   0.553  2.1862  0.9802 -1.7147
 5370SOL     OW27745   0.982   1.282   2.319 -0.2804  0.9728 -0.1228
 5370SOL    HW127746   0.975   1.191   2.290  2.2315  0.0498  2.1563
 5370SOL    HW227747   0.892   1.293   2.351  0.8837 -0.7352  3.8271
 5371SOL     OW27748   0.933   4.062   1.985 -0.1717 -0.1147 -0.5111
 5371SOL    HW127749   0.981   4.016   2.054  0.4634  0.0431 -0.8445
 5371SOL    HW227750   0.911   3.981   1.938  2.4018  0.2270 -2.3395
 5372SOL     OW27751   1.694   2.119  13.130  0.7701  0.1710 -0.0316
 5372SOL    HW127752   1.694   2.024  13.145  1.7450 -0.0311 -1.3507
 5372SOL    HW227753   1.785   2.138  13.108  0.8413 -1.2390 -0.9428
 5373SOL     OW27754   4.215   0.727  10.100 -0.0244  0.3284 -0.0756
 5373SOL    HW127755   4.243   0.745  10.190 -3.3671  1.0891  0.8404
 5373SOL    HW227756   4.285   0.664  10.083  0.4873  0.2730  2.2029
 5374SOL     OW27757   4.133   2.808  15.412  0.3204 -0.0034 -0.0054
 5374SOL    HW127758   4.116   2.782  15.503 -0.3381  0.6342  0.0586
 5374SOL    HW227759   4.173   2.727  15.381 -1.3821 -1.8083  2.4848
 5375SOL     OW27760   4.286   2.974   6.588 -0.0148  0.2538  0.0015
 5375SOL    HW127761   4.329   2.964   6.502  0.3739 -0.3277  0.2673
 5375SOL    HW227762   4.204   2.925   6.581  0.8842 -0.8462 -3.1218
 5376SOL     OW27763   3.130   0.959  12.167 -0.8201  0.1781 -0.4841
 5376SOL    HW127764   3.141   1.014  12.089  1.4177  1.2109  0.5739
 5376SOL    HW227765   3.210   0.907  12.168 -1.3060 -0.6152 -3.1100
 5377SOL     OW27766   3.535   3.155   4.928  0.5134  0.0465  0.2159
 5377SOL    HW127767   3.491   3.070   4.934  2.1988 -0.8305  0.1963
 5377SOL    HW227768   3.455   3.205   4.916  0.5029 -0.9627 -4.1770
 5378SOL     OW27769   4.447   3.115  17.365 -0.1944 -0.0153  0.1307
 5378SOL    HW127770   4.446   3.042  17.427  1.4645  0.2333  0.4538
 5378SOL    HW227771   4.439   3.192  17.422  2.9657  0.8537 -0.6036
 5379SOL     OW27772   4.709   4.149   0.901 -0.4015  0.1841 -0.0567
 5379SOL    HW127773   4.658   4.170   0.979 -1.6088  0.3040 -0.8872
 5379SOL    HW227774   0.006   4.067   0.934 -0.2139  0.5704  0.7115
 5380SOL     OW27775   2.662   4.702   7.240  0.5177  0.0387 -0.0548
 5380SOL    HW127776   2.576   4.661   7.228  0.9810 -0.7741 -0.5679
 5380SOL    HW227777   2.631   0.033   7.298 -0.1172  0.3045 -0.7013
 5381SOL     OW27778   2.235   0.449  13.696 -0.0270 -0.0837 -0.0922
 5381SOL    HW127779   2.255   0.534  13.658 -0.0197 -0.0486 -0.0104
 5381SOL    HW227780   2.148   0.477  13.726  0.6130  1.4402  0.3524
 5382SOL     OW27781   0.236   0.714   2.328  0.0921 -0.2035 -0.1417
 5382SOL    HW127782   0.155   0.678   2.363 -0.1674  0.6824  0.1826
 5382SOL    HW227783   0.213   0.750   2.243 -0.6377  1.2268  0.6554
 5383SOL     OW27784   3.422   2.573   2.344  0.4430 -0.5099  0.3736
 5383SOL    HW127785   3.479   2.550   2.418 -0.2894 -0.5485  0.9300
 5383SOL    HW227786   3.436   2.667   2.336  0.3222 -0.4838  0.4693
 5384SOL     OW27787   0.507   0.834   8.487  0.8031 -0.4352  0.6186
 5384SOL    HW127788   0.509   0.781   8.408 -0.8026  0.2469  0.1217
 5384SOL    HW227789   0.500   0.763   8.551 -0.8768 -2.3910 -1.7584
 5385SOL     OW27790   2.915   3.879   3.492 -0.6669 -0.1178 -0.6297
 5385SOL    HW127791   2.897   3.870   3.586 -3.7085 -0.0795 -1.1924
 5385SOL    HW227792   2.994   3.932   3.481  0.0523 -1.1965 -0.6600
 5386SOL     OW27793   1.338   3.887   8.445 -0.5285 -0.2955  0.6161
 5386SOL    HW127794   1.398   3.837   8.390  1.2833  0.5824  1.7900
 5386SOL    HW227795   1.340   3.972   8.403  2.2417 -0.0144  1.3388
 5387SOL     OW27796   4.393   2.076   6.733  0.5122 -0.2312 -0.1320
 5387SOL    HW127797   4.426   2.166   6.735  1.6162 -0.6434  0.0008
 5387SOL    HW227798   4.420   2.038   6.650 -1.2495 -0.7255 -0.4609
 5388SOL     OW27799   3.239   1.941   9.830  0.1062 -0.0176  0.7825
 5388SOL    HW127800   3.181   1.977   9.897 -2.7195 -0.9809 -1.1928
 5388SOL    HW227801   3.256   1.857   9.872 -0.0763 -1.6270 -2.3999
 5389SOL     OW27802   2.564   2.648   8.627  0.0517 -0.2335  0.3069
 5389SOL    HW127803   2.479   2.617   8.596  1.8375  0.7978 -5.5617
 5389SOL    HW227804   2.577   2.583   8.696 -1.6882 -1.0891 -0.1494
 5390SOL     OW27805   1.734   4.352   4.538 -0.3699 -0.5269 -0.0603
 5390SOL    HW127806   1.708   4.444   4.531  0.7284 -0.1612  0.7503
 5390SOL    HW227807   1.807   4.351   4.475  2.3117 -1.2966  3.0776
 5391SOL     OW27808   3.524   3.318  17.452  0.0364 -0.6344 -0.1556
 5391SOL    HW127809   3.585   3.279  17.515  2.0140  2.5604 -0.0988
 5391SOL    HW227810   3.461   3.246  17.456 -2.1227  1.1745 -2.4356
 5392SOL     OW27811   0.164   1.589  10.208 -0.6137  0.3163  0.2677
 5392SOL    HW127812   0.154   1.570  10.114  0.2260  2.5517 -0.2901
 5392SOL    HW227813   0.251   1.552  10.225 -0.3392  0.4441 -0.8445
 5393SOL     OW27814   4.028   0.231   6.183  0.3600 -0.4104 -0.3060
 5393SOL    HW127815   4.060   0.299   6.123 -1.2625 -1.0421 -1.8674
 5393SOL    HW227816   4.033   0.286   6.261  2.0101 -0.3734 -0.4365
 5394SOL     OW27817   3.504   0.481   7.017 -0.1567  0.8165  0.2080
 5394SOL    HW127818   3.536   0.498   7.106  0.4231  1.1668 -0.0668
 5394SOL    HW227819   3.564   0.535   6.965  1.3472 -0.3452  0.7033
 5395SOL     OW27820   3.627   1.777   7.056 -0.6497 -0.0885  0.4276
 5395SOL    HW127821   3.541   1.800   7.093 -1.6080 -0.9479 -1.2436
 5395SOL    HW227822   3.609   1.692   7.016 -0.3432 -0.2557  0.6551
 5396SOL     OW27823   0.346   0.096   2.255 -0.4542  0.0931 -0.7458
 5396SOL    HW127824   0.422   0.140   2.218  0.6999  0.1510  1.6390
 5396SOL    HW227825   0.347   0.026   2.190  2.3757  0.0940 -0.6996
 5397SOL     OW27826   2.634   3.543   7.181  0.0291 -0.1510 -0.2009
 5397SOL    HW127827   2.696   3.615   7.171  0.5409 -0.9779 -3.2349
 5397SOL    HW227828   2.591   3.546   7.095  0.9184 -2.1648 -0.7284
 5398SOL     OW27829   1.301   0.290   4.962  0.0054  0.2824 -0.4836
 5398SOL    HW127830   1.254   0.209   4.942  0.1187  0.2995 -0.8215
 5398SOL    HW227831   1.232   0.345   5.000  0.7746 -0.4947  2.0796
 5399SOL     OW27832   4.535   4.341   2.331  0.1767  0.2050  0.8214
 5399SOL    HW127833   4.546   4.406   2.261 -2.6512  1.3039  1.4102
 5399SOL    HW227834   4.586   4.265   2.300 -1.1676 -0.5215  0.3911
 5400SOL     OW27835   1.688   2.881   5.407 -0.2719  0.0725  1.0100
 5400SOL    HW127836   1.691   2.796   5.364  0.3531 -1.4820  4.1445
 5400SOL    HW227837   1.728   2.948   5.351 -0.2475 -0.8100 -0.0320
 5401SOL     OW27838   1.802   3.429   2.778 -0.4088 -0.3326 -0.0704
 5401SOL    HW127839   1.765   3.435   2.690 -1.5916 -0.7031  0.4016
 5401SOL    HW227840   1.895   3.430   2.754 -0.4015 -0.6189 -0.0459
 5402SOL     OW27841   0.651   4.343   5.316 -0.7174  0.3881 -0.0085
 5402SOL    HW127842   0.700   4.271   5.357 -1.0825  0.9451  1.3770
 5402SOL    HW227843   0.612   4.299   5.240 -0.7069 -1.9969  1.3559
 5403SOL     OW27844   3.788   3.682   6.546 -0.3115  0.3974  0.1911
 5403SOL    HW127845   3.858   3.740   6.517 -0.9093  0.9937 -0.0539
 5403SOL    HW227846   3.725   3.743   6.585 -0.2196  0.0186  0.9386
 5404SOL     OW27847   4.067   1.123   8.634 -0.0389  0.4335 -0.1777
 5404SOL    HW127848   3.981   1.114   8.595 -0.1230 -1.1386  0.3719
 5404SOL    HW227849   4.114   1.147   8.554 -0.2623 -1.6118 -0.8999
 5405SOL     OW27850   2.725   4.518  11.885 -0.6369 -0.9058  0.3975
 5405SOL    HW127851   2.807   4.469  11.888  0.9728  1.8385  1.6485
 5405SOL    HW227852   2.682   4.494  11.967 -2.3540  0.4868 -0.1027
 5406SOL     OW27853   1.241   1.379   2.688 -0.0053  0.7043  0.5237
 5406SOL    HW127854   1.260   1.328   2.610 -2.2840  0.9656 -0.2103
 5406SOL    HW227855   1.328   1.413   2.708  0.1384  0.7309 -0.1731
 5407SOL     OW27856   3.994   1.444  17.697  0.0775  0.2890 -0.2052
 5407SOL    HW127857   4.087   1.441  17.676  0.6886  1.4519  2.2487
 5407SOL    HW227858   3.968   1.355  17.675 -2.3206  1.3326 -1.6191
 5408SOL     OW27859   4.209   0.903   8.024 -0.5131  0.2791  0.4802
 5408SOL    HW127860   4.137   0.919   7.963 -2.1837  0.3926  2.4430
 5408SOL    HW227861   4.208   0.808   8.018  0.6047  0.4284 -2.0013
 5409SOL     OW27862   2.936   3.875   4.313  0.0411  0.8267 -0.6936
 5409SOL    HW127863   2.843   3.875   4.336 -0.1891  0.9801 -1.6432
 5409SOL    HW227864   2.982   3.931   4.375 -1.0705  0.3092  0.6132
 5410SOL     OW27865   0.687   0.908   9.386  0.0129 -0.2287 -0.9151
 5410SOL    HW127866   0.611   0.950   9.424 -0.8834 -2.3687 -0.3281
 5410SOL    HW227867   0.658   0.890   9.296 -2.4272  2.0813 -0.5939
 5411SOL     OW27868   4.289   0.483   6.622  0.5162 -0.4793  0.0663
 5411SOL    HW127869   4.196   0.506   6.626  0.5400 -0.4601  0.5397
 5411SOL    HW227870   4.328   0.557   6.668  0.8150  0.2696 -1.3861
 5412SOL     OW27871   4.070   0.704  16.441 -0.1824  0.2022  0.2519
 5412SOL    HW127872   4.124   0.722  16.518 -2.9651  2.4402  1.6801
 5412SOL    HW227873   4.137   0.673  16.381 -1.3832 -1.2889 -0.3503
 5413SOL     OW27874   1.674   2.625   5.295  0.6308  0.0718 -0.8295
 5413SOL    HW127875   1.622   2.551   5.328  0.1360  0.3736 -0.9273
 5413SOL    HW227876   1.685   2.611   5.201  2.0649  0.8371 -0.7722
 5414SOL     OW27877   1.682   3.454   4.417  0.1899  0.3744 -0.7591
 5414SOL    HW127878   1.634   3.397   4.477  0.4491 -0.1304 -1.0346
 5414SOL    HW227879   1.673   3.541   4.455 -2.6207 -0.3321  0.1997
 5415SOL     OW27880   3.720   2.905   1.879 -0.0441  0.4772  0.2190
 5415SOL    HW127881   3.808   2.936   1.858 -0.4504  1.2700 -0.3081
 5415SOL    HW227882   3.729   2.816   1.843 -2.0539  0.5504 -0.4485
 5416SOL     OW27883   2.808   1.712  11.136  0.2493  0.4963 -0.5068
 5416SOL    HW127884   2.903   1.706  11.151 -0.1687 -0.5098  1.8749
 5416SOL    HW227885   2.802   1.807  11.127  0.5290  0.3255 -2.3662
 5417SOL     OW27886   4.492   2.436  12.790  0.7668 -0.0582  0.2555
 5417SOL    HW127887   4.437   2.450  12.867  0.1220 -1.9747  0.1406
 5417SOL    HW227888   4.575   2.439  12.837 -0.1073  0.7584  1.7698
 5418SOL     OW27889   2.822   4.326  16.210 -0.0900  0.1609 -0.1390
 5418SOL    HW127890   2.868   4.384  16.149  3.6538 -2.3461  0.2635
 5418SOL    HW227891   2.835   4.244  16.162 -0.6918  0.2943 -0.5265
 5419SOL     OW27892   3.685   1.208   3.574 -0.2700  0.2155 -0.4821
 5419SOL    HW127893   3.622   1.142   3.546 -0.9610  0.4718  0.4730
 5419SOL    HW227894   3.726   1.231   3.491  2.8442 -1.0657  0.7058
 5420SOL     OW27895   1.167   2.370   2.218  0.0725  0.3319 -0.4198
 5420SOL    HW127896   1.094   2.309   2.209  0.5963 -0.5758  1.6976
 5420SOL    HW227897   1.143   2.439   2.156 -2.9998 -0.9900 -0.6988
 5421SOL     OW27898   0.304   3.895   8.338  0.4665 -0.2438 -0.5011
 5421SOL    HW127899   0.392   3.919   8.310  0.9619 -0.9026  0.4760
 5421SOL    HW227900   0.267   3.869   8.253 -2.0376  0.1301  0.4886
 5422SOL     OW27901   0.732   2.282   7.288 -0.0063 -0.6618 -0.4371
 5422SOL    HW127902   0.693   2.351   7.234  4.3186  0.7102 -1.7815
 5422SOL    HW227903   0.678   2.205   7.272 -0.2785 -0.5122 -0.2456
 5423SOL     OW27904   1.306   2.891   2.307  0.8804  0.3997 -0.3309
 5423SOL    HW127905   1.314   2.980   2.340  0.2155 -0.4560  2.1593
 5423SOL    HW227906   1.308   2.898   2.211 -2.9384  0.8330 -0.3504
 5424SOL     OW27907   2.828   2.364  16.239 -0.1112 -0.7525 -0.1521
 5424SOL    HW127908   2.838   2.285  16.187  1.8032 -0.0537 -0.8610
 5424SOL    HW227909   2.834   2.428  16.168 -0.3169 -0.9221 -0.3211
 5425SOL     OW27910   4.485   2.314   6.074  0.0724  0.4353  0.2126
 5425SOL    HW127911   4.568   2.266   6.063  0.0179  0.9348 -2.3799
 5425SOL    HW227912   4.519   2.398   6.043  2.9368 -0.9356 -0.4161
 5426SOL     OW27913   4.184   2.305   1.871 -0.1386  0.4339 -0.4301
 5426SOL    HW127914   4.193   2.213   1.895  1.4284  1.1401  1.6417
 5426SOL    HW227915   4.144   2.340   1.951 -2.7115 -0.0852 -1.4948
 5427SOL     OW27916   3.854   2.516   7.228  0.0852  0.2457  0.5087
 5427SOL    HW127917   3.759   2.511   7.236 -0.4303  4.6505 -2.6709
 5427SOL    HW227918   3.867   2.430   7.188 -0.2502  0.0446  0.8395
 5428SOL     OW27919   3.579   1.072  14.448  0.1281  0.1331 -0.6040
 5428SOL    HW127920   3.506   1.013  14.429 -0.0466 -0.0204  0.5116
 5428SOL    HW227921   3.575   1.122  14.367 -1.7849  2.0313  0.6514
 5429SOL     OW27922   3.349   2.173   8.265  0.3097  0.1406  0.1348
 5429SOL    HW127923   3.366   2.225   8.187 -0.9354 -1.5887 -1.2929
 5429SOL    HW227924   3.433   2.189   8.307  1.5273 -0.3637 -2.0881
 5430SOL     OW27925   2.184   2.126   8.465  0.2011 -0.2004 -0.1735
 5430SOL    HW127926   2.245   2.197   8.485 -1.1186  0.1893  2.4192
 5430SOL    HW227927   2.104   2.176   8.478  1.0567  1.3065 -0.6130
 5431SOL     OW27928   2.808   4.438   4.483  0.3133 -0.5249 -0.2968
 5431SOL    HW127929   2.898   4.443   4.452  0.5478  0.2501  0.5062
 5431SOL    HW227930   2.774   4.514   4.434  1.2274 -0.0728 -0.2222
 5432SOL     OW27931   1.160   1.883   9.133 -0.0085 -0.1784  0.0717
 5432SOL    HW127932   1.180   1.964   9.087  0.0980  0.7781  1.7995
 5432SOL    HW227933   1.230   1.867   9.197  1.7119  1.9117 -1.2996
 5433SOL     OW27934   3.022   2.247  17.186  0.2682 -0.1447  0.6671
 5433SOL    HW127935   3.106   2.283  17.215  0.8330 -0.6422 -0.3429
 5433SOL    HW227936   3.014   2.160  17.224 -0.0942 -0.2744  0.3006
 5434SOL     OW27937   1.820   3.115   3.949 -0.4137  0.5657  0.4854
 5434SOL    HW127938   1.728   3.127   3.970 -0.9611  1.5617 -2.5127
 5434SOL    HW227939   1.840   3.208   3.935  1.4388  0.2684  1.1183
 5435SOL     OW27940   2.967   1.554   1.501 -0.7285  0.1874  0.3253
 5435SOL    HW127941   3.048   1.578   1.546 -1.0205  0.1989  0.8556
 5435SOL    HW227942   2.964   1.461   1.524  2.6432 -0.4058 -1.6717
 5436SOL     OW27943   4.302   4.287  10.414 -0.1659  0.5564  0.2133
 5436SOL    HW127944   4.252   4.264  10.335  1.2956  0.4481 -0.6791
 5436SOL    HW227945   4.245   4.244  10.478  0.3185  2.3032  1.8171
 5437SOL     OW27946   3.711   1.631   9.521  0.6576  0.0982  0.1575
 5437SOL    HW127947   3.752   1.548   9.498 -2.4135 -0.9943 -1.3717
 5437SOL    HW227948   3.732   1.689   9.449  0.7123  0.5642  0.5463
 5438SOL     OW27949   4.128   1.960   7.960  0.2935 -0.7639  0.4921
 5438SOL    HW127950   4.165   1.993   7.878 -2.0143  1.8020  0.4921
 5438SOL    HW227951   4.073   2.035   7.983  0.1698 -0.4369 -0.8456
 5439SOL     OW27952   1.993   4.210   8.287 -0.2601 -0.1836 -0.6597
 5439SOL    HW127953   1.926   4.278   8.294  1.2307  1.0183  1.9568
 5439SOL    HW227954   1.966   4.165   8.206  1.1771 -1.4441 -0.4485
 5440SOL     OW27955   3.739   4.652   2.518  0.6003 -0.3571  0.2038
 5440SOL    HW127956   3.810   4.658   2.454 -0.9439 -0.6630 -1.5511
 5440SOL    HW227957   3.682   4.594   2.467  0.7577 -0.6900  0.4013
 5441SOL     OW27958   0.714   3.164   4.464 -0.2935 -0.1771  0.4013
 5441SOL    HW127959   0.758   3.248   4.451  0.1489 -0.6169 -0.9750
 5441SOL    HW227960   0.789   3.105   4.468 -1.2186 -1.1972  2.4097
 5442SOL     OW27961   3.839   4.118   5.168 -0.0400  0.2820  0.2594
 5442SOL    HW127962   3.925   4.112   5.127  0.5625 -0.7758  1.6730
 5442SOL    HW227963   3.808   4.196   5.123 -3.5696 -0.0244  2.1725
 5443SOL     OW27964   1.182   3.713   5.966  0.8334  0.0024  0.4178
 5443SOL    HW127965   1.208   3.622   5.981 -0.4997  0.0276  2.7235
 5443SOL    HW227966   1.088   3.704   5.958  0.6852  1.5920  0.2462
 5444SOL     OW27967   2.004   2.163   1.971  0.1160  0.3902  0.6892
 5444SOL    HW127968   2.046   2.133   2.052 -0.2350 -2.8929 -0.3391
 5444SOL    HW227969   1.997   2.258   1.982  1.3309  0.3974  1.3652
 5445SOL     OW27970   0.309   1.641   8.941  0.4224 -0.3247 -0.1496
 5445SOL    HW127971   0.348   1.649   9.028  0.4251  0.2570 -0.2085
 5445SOL    HW227972   0.253   1.565   8.959 -0.0011  0.6928  2.7613
 5446SOL     OW27973   1.940   1.441   8.171 -0.2293  0.2621  0.0603
 5446SOL    HW127974   2.019   1.405   8.211 -0.3504 -0.2738 -0.1744
 5446SOL    HW227975   1.983   1.487   8.099  0.7174  0.0075  0.4687
 5447SOL     OW27976   0.037   2.940   3.069  0.2112 -0.0853  0.2017
 5447SOL    HW127977   0.077   2.980   2.992  0.5539  1.7098  1.2976
 5447SOL    HW227978   4.690   2.919   3.032 -0.4716 -1.2273  2.4277
 5448SOL     OW27979   2.052   4.340   6.468 -0.7210  0.1258 -0.4097
 5448SOL    HW127980   2.144   4.349   6.494 -1.4364  0.6291  1.9763
 5448SOL    HW227981   2.001   4.355   6.547  0.1657 -2.2420  0.6180
 5449SOL     OW27982   3.870   0.918   8.168  0.1967  0.2007 -0.0171
 5449SOL    HW127983   3.873   0.919   8.072  0.8836  1.1412  0.0167
 5449SOL    HW227984   3.824   1.001   8.180 -1.9255 -1.1139  0.9210
 5450SOL     OW27985   2.551   0.345   3.243 -0.0156  0.0048 -0.2911
 5450SOL    HW127986   2.559   0.315   3.153  1.4187  2.7641 -1.0931
 5450SOL    HW227987   2.613   0.288   3.289 -0.6451  0.1356  0.7306
 5451SOL     OW27988   1.551   4.135   1.307  0.4986 -0.3340  0.2675
 5451SOL    HW127989   1.483   4.120   1.372  2.1096 -3.1444  1.2957
 5451SOL    HW227990   1.508   4.090   1.234  2.0693 -4.4665  1.8737
 5452SOL     OW27991   1.992   2.083   4.882 -0.7680  0.2539  0.8467
 5452SOL    HW127992   1.909   2.114   4.919 -1.9970 -1.7309 -0.2576
 5452SOL    HW227993   2.043   2.163   4.871  0.8663 -1.1072 -1.5230
 5453SOL     OW27994   0.523   4.638  12.967  0.0441 -0.0691  0.3277
 5453SOL    HW127995   0.463   4.698  13.010  0.0437  2.0479 -2.6149
 5453SOL    HW227996   0.572   4.705  12.918 -0.9348  0.7724  0.5186
 5454SOL     OW27997   0.747   2.356   6.656  0.2781 -0.5815  0.6829
 5454SOL    HW127998   0.767   2.312   6.739  0.1105  0.8669  1.4944
 5454SOL    HW227999   0.810   2.314   6.598 -0.6474 -0.8942 -0.1000
 5455SOL     OW28000   3.768   4.701   7.794 -0.5680 -0.1667  0.0660
 5455SOL    HW128001   3.705   4.674   7.727 -1.0943  1.4697 -0.0874
 5455SOL    HW228002   3.740   4.646   7.867  1.1812  0.6451  1.3336
 5456SOL     OW28003   0.908   2.174   9.189 -0.4121 -0.0821 -0.4873
 5456SOL    HW128004   0.903   2.241   9.257 -1.4944 -0.5479 -0.1231
 5456SOL    HW228005   0.915   2.102   9.251  1.3706  0.2814 -0.2519
 5457SOL     OW28006   3.776   4.375   5.032 -0.3453 -0.0106 -0.1429
 5457SOL    HW128007   3.690   4.411   5.010 -1.3989 -2.2449  0.3169
 5457SOL    HW228008   3.800   4.435   5.101  1.6187  1.0539 -1.7529
 5458SOL     OW28009   1.019   3.397   8.344 -0.0643 -0.6991 -0.1357
 5458SOL    HW128010   0.969   3.317   8.328 -0.2391 -0.5999 -0.0860
 5458SOL    HW228011   1.019   3.403   8.440 -2.7194  0.7987 -0.2548
 5459SOL     OW28012   0.725   3.899  17.493 -0.3904 -0.2107  0.1213
 5459SOL    HW128013   0.678   3.818  17.516 -1.8520  0.3700 -0.8274
 5459SOL    HW228014   0.813   3.878  17.524  0.1141 -1.0928 -1.8840
 5460SOL     OW28015   3.689   1.656   3.872 -0.5136  0.0258 -0.1033
 5460SOL    HW128016   3.727   1.589   3.928  1.4114  0.2710 -1.1177
 5460SOL    HW228017   3.749   1.658   3.797 -0.6742 -1.1088 -0.2719
 5461SOL     OW28018   1.162   3.290   3.238  0.5873  0.2756 -0.2499
 5461SOL    HW128019   1.115   3.218   3.196 -0.9984  2.5161 -2.3183
 5461SOL    HW228020   1.198   3.334   3.161  0.7099  3.4084  1.6044
 5462SOL     OW28021   2.600   0.006  11.971  0.4949  0.4706 -0.9380
 5462SOL    HW128022   2.656   4.687  11.918  0.3138 -0.3578 -0.2318
 5462SOL    HW228023   2.563   4.682  12.033  0.1353 -0.3613 -1.9959
 5463SOL     OW28024   0.467   2.575   6.113 -0.0647 -0.0922  0.2387
 5463SOL    HW128025   0.388   2.522   6.127 -0.8867  1.2164  0.6594
 5463SOL    HW228026   0.447   2.612   6.027  2.5559 -0.2142 -0.3968
 5464SOL     OW28027   4.428   1.526   9.648 -0.0290 -0.4547 -0.1050
 5464SOL    HW128028   4.412   1.619   9.663  2.6884 -0.2260  1.3955
 5464SOL    HW228029   4.517   1.514   9.683 -0.4151  0.4591  1.1908
 5465SOL     OW28030   4.631   2.346   5.488  0.0801  0.9036  0.2905
 5465SOL    HW128031   4.649   2.288   5.414  2.4779 -0.5162  1.9535
 5465SOL    HW228032   4.537   2.362   5.491 -0.1746 -0.3917 -0.7710
 5466SOL     OW28033   1.224   3.831   7.590 -0.2272  0.3506  0.1687
 5466SOL    HW128034   1.139   3.873   7.583 -0.6067 -0.1832  1.6641
 5466SOL    HW228035   1.277   3.900   7.550  1.4958 -0.1987  1.4581
 5467SOL     OW28036   3.726   2.003   7.949 -0.1789 -0.1760 -0.2211
 5467SOL    HW128037   3.799   2.064   7.961  0.5226 -1.1000  0.1967
 5467SOL    HW228038   3.748   1.966   7.864 -0.8524 -0.7407 -0.1494
 5468SOL     OW28039   3.532   3.154   7.011  0.9393  0.2310 -0.2780
 5468SOL    HW128040   3.482   3.218   6.959  1.2843 -0.0057 -0.9073
 5468SOL    HW228041   3.615   3.163   6.963  0.6658  0.4404 -0.7153
 5469SOL     OW28042   3.278   1.910   2.991  0.0836 -0.3518 -0.3796
 5469SOL    HW128043   3.242   1.824   2.967 -1.6510  0.4987 -0.8159
 5469SOL    HW228044   3.266   1.952   2.906 -0.0097 -0.4778 -0.4292
 5470SOL     OW28045   2.981   2.333  10.902  0.3429 -0.5958  0.0665
 5470SOL    HW128046   3.052   2.382  10.860  0.4294  2.2434  3.5227
 5470SOL    HW228047   2.905   2.391  10.892  2.7347  2.5135 -0.3224
 5471SOL     OW28048   4.564   2.076   7.108 -0.3635  0.0537 -0.1951
 5471SOL    HW128049   4.540   2.168   7.116 -0.7005  0.0228 -0.8869
 5471SOL    HW228050   4.622   2.087   7.033  0.2515 -0.0071  0.2672
 5472SOL     OW28051   2.873   0.456   4.431  0.2552  0.0659  0.7555
 5472SOL    HW128052   2.799   0.440   4.491  2.6500  0.6659  3.8810
 5472SOL    HW228053   2.836   0.425   4.349  0.3475 -2.4615  1.6562
 5473SOL     OW28054   3.723   4.018  15.630  0.2626 -0.2524 -0.5083
 5473SOL    HW128055   3.698   3.933  15.667 -1.4452  0.0442 -0.9966
 5473SOL    HW228056   3.722   3.997  15.536 -5.0555  3.7083 -1.3377
 5474SOL     OW28057   2.136   4.622   7.906 -0.1847 -0.6901  0.3107
 5474SOL    HW128058   2.111   4.676   7.981 -0.5491  0.7943 -0.8797
 5474SOL    HW228059   2.198   4.561   7.946 -1.6666 -1.8322  0.8614
 5475SOL     OW28060   1.113   0.994  14.430  0.1018  0.3622 -0.2962
 5475SOL    HW128061   1.147   0.929  14.369 -4.2500 -2.1289 -0.0645
 5475SOL    HW228062   1.031   1.016  14.388 -0.2735 -1.1037 -0.3263
 5476SOL     OW28063   3.647   3.896  11.541  0.4201  0.2432  0.0013
 5476SOL    HW128064   3.661   3.822  11.482  1.1008  1.0337 -0.8167
 5476SOL    HW228065   3.723   3.883  11.598 -0.4209 -0.3581  0.9876
 5477SOL     OW28066   1.124   1.033   2.140 -0.6448  0.1912  0.5447
 5477SOL    HW128067   1.218   1.038   2.120 -0.6880  1.0783  0.5768
 5477SOL    HW228068   1.093   0.983   2.065  2.5016 -1.6715  0.4609
 5478SOL     OW28069   0.367   1.826   3.043  0.3432 -0.0103 -0.4012
 5478SOL    HW128070   0.317   1.900   3.009 -0.0796 -0.2709 -0.3443
 5478SOL    HW228071   0.433   1.869   3.097  0.3479 -0.7623  0.1873
 5479SOL     OW28072   0.805   4.728   2.588  0.6182 -0.1534 -0.1019
 5479SOL    HW128073   0.752   0.068   2.578  3.2912  1.7990  1.2654
 5479SOL    HW228074   0.757   4.684   2.658  0.8504  0.3438  0.3653
 5480SOL     OW28075   3.461   3.989  10.780 -0.6363  0.5991 -0.4187
 5480SOL    HW128076   3.444   4.000  10.687 -0.0078 -0.6818 -0.6757
 5480SOL    HW228077   3.433   4.077  10.807  1.1970  1.6081 -1.8073
 5481SOL     OW28078   1.650   3.553   8.975 -0.0042 -0.0296 -0.3499
 5481SOL    HW128079   1.732   3.597   8.993  0.0117 -0.4239  0.5267
 5481SOL    HW228080   1.626   3.520   9.062  0.0003 -0.1207 -0.3825
 5482SOL     OW28081   1.231   0.361   9.067 -0.1427 -0.1197 -0.4485
 5482SOL    HW128082   1.262   0.272   9.047 -0.4936 -0.5681  0.9519
 5482SOL    HW228083   1.138   0.350   9.050 -0.1458 -1.2982  0.3331
 5483SOL     OW28084   3.799   2.315   6.451  0.4776  0.1480 -0.3127
 5483SOL    HW128085   3.811   2.252   6.522 -1.8748  0.1807  0.1415
 5483SOL    HW228086   3.704   2.302   6.442  0.5934  0.6785 -2.1653
 5484SOL     OW28087   3.705   3.786  14.553  0.0481  0.3825 -0.4340
 5484SOL    HW128088   3.671   3.796  14.465 -1.1229 -1.3688 -0.1770
 5484SOL    HW228089   3.709   3.879  14.573 -0.7405  0.2802  0.2306
 5485SOL     OW28090   1.474   3.718   1.290  0.3262 -0.0625 -0.5802
 5485SOL    HW128091   1.503   3.798   1.247  2.0464 -0.2314  0.2766
 5485SOL    HW228092   1.510   3.736   1.377  0.2353 -2.6095  0.0063
 5486SOL     OW28093   1.368   1.885  16.866  0.4905 -0.4075 -0.1825
 5486SOL    HW128094   1.460   1.902  16.849 -0.1136  1.8635 -1.1644
 5486SOL    HW228095   1.382   1.823  16.938 -2.5934 -2.5470 -1.4402
 5487SOL     OW28096   3.480   1.055  17.658  0.4989 -0.0221 -0.1198
 5487SOL    HW128097   3.462   1.139  17.616  1.7854 -0.1082 -0.8530
 5487SOL    HW228098   3.549   1.084  17.717 -0.3512 -0.2948  1.0143
 5488SOL     OW28099   1.587   3.896  14.264 -0.1559 -0.7946  0.2335
 5488SOL    HW128100   1.682   3.887  14.269 -0.1080 -0.2999  0.1947
 5488SOL    HW228101   1.579   3.956  14.338  1.0536 -0.4334  0.0610
 5489SOL     OW28102   1.625   2.557   5.006  0.7229 -0.1689 -0.4030
 5489SOL    HW128103   1.548   2.613   4.997  1.3023  1.0097  1.8765
 5489SOL    HW228104   1.591   2.468   5.009 -2.8249  1.2699  2.7347
 5490SOL     OW28105   0.550   3.693   8.290  0.1456 -0.1148 -0.1104
 5490SOL    HW128106   0.590   3.773   8.323 -1.3025  0.0999  1.1419
 5490SOL    HW228107   0.474   3.698   8.349  0.6909  0.0267  0.5763
 5491SOL     OW28108   0.082   1.585   4.288  0.2531 -0.0438  0.4313
 5491SOL    HW128109   0.163   1.535   4.302  0.5722  0.3455  0.0062
 5491SOL    HW228110   0.029   1.547   4.358 -1.8138  1.3407 -0.3801
 5492SOL     OW28111   3.689   1.189   5.533  0.3566  0.3904 -0.1803
 5492SOL    HW128112   3.657   1.145   5.612  0.4771  0.4531 -0.0975
 5492SOL    HW228113   3.661   1.130   5.462 -1.8152 -1.4751  2.2358
 5493SOL     OW28114   1.016   4.346  14.547 -0.1134 -0.0748 -0.0236
 5493SOL    HW128115   0.990   4.355  14.638 -1.5854 -0.9987 -0.3517
 5493SOL    HW228116   1.102   4.386  14.556  0.6056 -1.5748 -0.2598
 5494SOL     OW28117   3.203   1.247   0.435 -0.2153  0.2186 -0.6969
 5494SOL    HW128118   3.188   1.154   0.421  1.5352 -0.2011  0.2368
 5494SOL    HW228119   3.214   1.277   0.345 -0.4968  2.4677  0.0197
 5495SOL     OW28120   2.408   0.947   4.938  0.8090 -0.2740  0.2700
 5495SOL    HW128121   2.427   0.988   5.023 -0.9152  1.6124 -0.2503
 5495SOL    HW228122   2.317   0.974   4.923 -0.0770 -3.5302 -0.1231
 5496SOL     OW28123   2.698   0.415   5.350  0.3258  0.3710  0.4163
 5496SOL    HW128124   2.625   0.355   5.367  1.2233 -0.1127  2.6270
 5496SOL    HW228125   2.761   0.391   5.418  1.3712  2.6472  0.2473
 5497SOL     OW28126   2.019   2.155   3.707  0.4774  0.2588  0.3851
 5497SOL    HW128127   2.071   2.209   3.766  1.6777  0.4159 -0.8011
 5497SOL    HW228128   2.069   2.073   3.710  0.2217  0.0892  0.1108
 5498SOL     OW28129   1.089   1.392   5.258 -0.2637  0.8305  0.3023
 5498SOL    HW128130   1.078   1.380   5.164  2.8206  1.2504 -0.0806
 5498SOL    HW228131   1.102   1.486   5.272 -1.0457  1.3385 -2.5063
 5499SOL     OW28132   2.660   2.316  16.900 -0.0574 -0.4026 -0.2676
 5499SOL    HW128133   2.575   2.347  16.930 -0.6107 -2.4790  0.2839
 5499SOL    HW228134   2.652   2.305  16.806  1.8841 -0.4416 -0.4247
 5500SOL     OW28135   0.036   4.621   7.367  0.4967  1.0799  0.2098
 5500SOL    HW128136   0.085   4.650   7.290  0.6432 -0.6618 -0.3617
 5500SOL    HW228137   0.075   4.533   7.373  0.8499  0.9856 -3.4188
 5501SOL     OW28138   0.410   4.084  10.452 -0.4975 -0.5152 -0.3395
 5501SOL    HW128139   0.323   4.111  10.422  0.7187  0.5429 -2.8431
 5501SOL    HW228140   0.396   4.022  10.523  0.1486  0.5188  0.6902
 5502SOL     OW28141   0.788   0.943   8.243  0.3078 -0.0463 -0.2511
 5502SOL    HW128142   0.709   0.969   8.194  0.8268 -0.9768 -1.5834
 5502SOL    HW228143   0.837   1.026   8.248  0.7432 -0.2809 -0.5961
 5503SOL     OW28144   1.731   1.804  17.633 -0.1854  0.0891  0.7076
 5503SOL    HW128145   1.730   1.896  17.604 -2.9948 -0.3146 -0.4971
 5503SOL    HW228146   1.771   1.814  17.719 -0.4315 -0.7703  0.9211
 5504SOL     OW28147   3.217   4.603   2.911 -0.4462 -0.4701  0.2012
 5504SOL    HW128148   3.294   4.547   2.925  0.5967  1.2098  1.1469
 5504SOL    HW228149   3.259   4.681   2.875  0.2695 -0.6393  0.6529
 5505SOL     OW28150   1.905   1.432   1.257  0.1147  0.3035 -0.1337
 5505SOL    HW128151   1.932   1.422   1.166  0.3727  0.4884 -0.0773
 5505SOL    HW228152   1.811   1.428   1.243  0.6433  0.0976 -3.5910
 5506SOL     OW28153   1.143   3.234   1.835  0.1003  0.2438 -0.7200
 5506SOL    HW128154   1.220   3.237   1.779 -1.6785  2.0678 -3.0546
 5506SOL    HW228155   1.114   3.326   1.833 -0.6938  0.0801  1.9788
 5507SOL     OW28156   0.441   3.237   9.303  0.4916  0.2264  0.0401
 5507SOL    HW128157   0.476   3.150   9.324 -3.0546 -1.6425 -1.7025
 5507SOL    HW228158   0.366   3.225   9.245 -2.1284  2.8128  2.8748
 5508SOL     OW28159   1.606   1.997  14.013  0.0987 -0.4285  0.0843
 5508SOL    HW128160   1.670   1.971  13.947 -0.4290  1.8915 -1.3254
 5508SOL    HW228161   1.544   1.924  14.007 -1.5158  1.2043 -2.9352
 5509SOL     OW28162   0.076   3.379  14.678 -0.2416 -0.5955 -0.1125
 5509SOL    HW128163   0.151   3.411  14.727 -0.5239 -0.5802  0.3144
 5509SOL    HW228164   0.032   3.328  14.746 -1.6391 -1.1571 -1.4311
 5510SOL     OW28165   3.951   2.183   7.943  0.0764  0.6148  0.3414
 5510SOL    HW128166   4.012   2.236   7.995  1.3365  0.9796 -1.5047
 5510SOL    HW228167   3.967   2.215   7.855 -2.2291  0.6535 -0.0558
 5511SOL     OW28168   1.759   0.099   3.839  0.2584  0.1294  0.2300
 5511SOL    HW128169   1.669   0.081   3.866 -0.2761 -0.2486 -1.8029
 5511SOL    HW228170   1.811   0.025   3.871  1.9008  2.4567  2.9837
 5512SOL     OW28171   0.240   1.317   8.997 -0.0566  0.7236 -0.1705
 5512SOL    HW128172   0.293   1.302   9.076  1.0321 -1.9123 -1.4238
 5512SOL    HW228173   0.178   1.245   9.001  0.1103  0.4730 -2.5698
 5513SOL     OW28174   0.115   3.040   3.932  0.0212  0.7558  0.7456
 5513SOL    HW128175   0.050   2.971   3.941 -0.5390  0.8299 -2.6065
 5513SOL    HW228176   0.092   3.111   3.992  2.5703  0.3218  2.2667
 5514SOL     OW28177   0.701   4.105  13.485  0.1890 -0.3280 -0.1523
 5514SOL    HW128178   0.767   4.037  13.488  0.2713 -0.2433 -0.0548
 5514SOL    HW228179   0.620   4.070  13.523  1.1277 -1.9001  0.3623
 5515SOL     OW28180   1.960   2.495  11.876 -0.2384  0.3544  0.2992
 5515SOL    HW128181   1.888   2.491  11.813  0.7700 -0.1469 -0.8396
 5515SOL    HW228182   1.981   2.401  11.877 -0.9181  0.1532 -3.5217
 5516SOL     OW28183   3.056   3.421   5.093 -0.1119  0.2799 -0.2173
 5516SOL    HW128184   3.093   3.503   5.126  1.3726 -0.7110  0.5590
 5516SOL    HW228185   3.112   3.359   5.140 -1.0075 -0.2769  0.1133
 5517SOL     OW28186   2.663   1.139  14.087  0.6363 -0.3683  0.1996
 5517SOL    HW128187   2.589   1.126  14.147 -2.1076  1.4198 -2.7976
 5517SOL    HW228188   2.642   1.090  14.008  1.4153 -2.2573  1.1721
 5518SOL     OW28189   2.695   0.070  17.580 -0.1636  0.5934 -0.3087
 5518SOL    HW128190   2.685   4.729  17.527  3.1632 -0.7674  1.0940
 5518SOL    HW228191   2.783   0.048  17.612 -0.3749 -1.1001 -0.8786
 5519SOL     OW28192   3.963   1.279  11.941 -0.0047  0.4110 -0.1668
 5519SOL    HW128193   4.010   1.335  11.879  0.1303 -0.6207 -0.9994
 5519SOL    HW228194   3.969   1.339  12.016 -3.2976 -0.4322  0.7311
 5520SOL     OW28195   0.108   4.474   9.676 -0.1875  0.0750  0.5903
 5520SOL    HW128196   0.187   4.496   9.726  0.2511  0.6794 -0.3537
 5520SOL    HW228197   0.081   4.399   9.729 -0.1846  0.2696  0.8657
 5521SOL     OW28198   2.589   0.933   3.870  0.6208 -0.0668 -0.0536
 5521SOL    HW128199   2.574   0.863   3.806  0.5972 -0.0787 -0.0349
 5521SOL    HW228200   2.679   0.907   3.890  0.0899 -1.2755  0.7784
 5522SOL     OW28201   2.547   0.674  10.890 -0.3656 -0.0466 -0.1815
 5522SOL    HW128202   2.613   0.723  10.937 -0.0950  0.0522 -0.6621
 5522SOL    HW228203   2.493   0.647  10.964  0.1826 -2.6068 -0.6956
 5523SOL     OW28204   4.293   4.208   8.780 -0.0682 -0.0636 -0.4210
 5523SOL    HW128205   4.331   4.126   8.750  0.5027 -0.0736  0.3311
 5523SOL    HW228206   4.234   4.231   8.708 -0.1817 -0.4659 -0.4560
 5524SOL     OW28207   3.619   3.773  12.076 -0.2292  0.0102 -0.7612
 5524SOL    HW128208   3.668   3.853  12.056  0.4105 -0.0532  0.5515
 5524SOL    HW228209   3.639   3.720  11.999  2.2838 -2.5754  1.6518
 5525SOL     OW28210   4.179   1.908   5.077 -0.1968  0.3409 -0.4055
 5525SOL    HW128211   4.216   1.977   5.022  1.7425 -0.5532 -0.2476
 5525SOL    HW228212   4.088   1.915   5.051 -0.4006 -0.7690 -0.0146
 5526SOL     OW28213   2.343   0.903   8.470 -0.1500  0.0811  0.3562
 5526SOL    HW128214   2.388   0.952   8.540  0.7406  0.1722 -0.2865
 5526SOL    HW228215   2.360   0.967   8.401 -2.2158  0.0140 -0.1885
 5527SOL     OW28216   1.333   3.006   3.981 -0.2444  0.2369  0.6251
 5527SOL    HW128217   1.354   3.029   3.890  1.7881 -0.1576  0.9932
 5527SOL    HW228218   1.247   3.039   4.006  0.1258  1.3642  0.4392
 5528SOL     OW28219   3.238   1.529  11.833  0.0148 -0.5365  0.2859
 5528SOL    HW128220   3.242   1.502  11.924 -0.2600 -1.5713 -0.0016
 5528SOL    HW228221   3.258   1.443  11.797 -0.0863  0.2212 -1.6076
 5529SOL     OW28222   4.678   4.163   1.189 -0.4775  0.4296  0.1890
 5529SOL    HW128223   4.711   4.102   1.255  2.4120  1.1200 -0.6102
 5529SOL    HW228224   4.614   4.209   1.243 -1.3205 -0.5685  0.0473
 5530SOL     OW28225   3.671   1.798   9.215 -0.0495 -0.0676 -0.3588
 5530SOL    HW128226   3.737   1.730   9.231 -0.0623 -0.3259 -1.3924
 5530SOL    HW228227   3.722   1.871   9.250  0.2260 -0.2779 -0.3231
 5531SOL     OW28228   3.931   3.860  15.274  0.8031  0.3320  0.4705
 5531SOL    HW128229   3.957   3.770  15.291 -0.2158  0.3331  2.0476
 5531SOL    HW228230   3.856   3.864  15.335  0.1988 -2.2288 -0.1249
 5532SOL     OW28231   2.539   3.769   2.196 -0.0208  0.6066 -0.0315
 5532SOL    HW128232   2.494   3.754   2.279  1.2939  0.2886  0.6127
 5532SOL    HW228233   2.472   3.804   2.137 -2.1086 -1.1467  1.3051
 5533SOL     OW28234   2.149   1.745  11.926  0.0636  0.1413 -0.7274
 5533SOL    HW128235   2.234   1.702  11.920  0.6416  1.4212 -1.5671
 5533SOL    HW228236   2.191   1.820  11.968  1.1216  0.3531 -2.1634
 5534SOL     OW28237   1.921   2.884  13.504 -0.2750  0.1920  0.4892
 5534SOL    HW128238   1.882   2.909  13.421 -1.6961  1.1205  1.4381
 5534SOL    HW228239   1.986   2.951  13.524 -0.7450  0.6652  0.4033
 5535SOL     OW28240   3.840   1.323   5.315 -0.5265  0.3470  0.0330
 5535SOL    HW128241   3.799   1.408   5.299 -0.2529  0.8975  2.2739
 5535SOL    HW228242   3.776   1.284   5.375  0.3446  1.0645  1.4425
 5536SOL     OW28243   1.671   0.675   9.206  0.4721 -0.4448  0.2793
 5536SOL    HW128244   1.730   0.681   9.131 -0.2752 -0.3319 -0.2928
 5536SOL    HW228245   1.633   0.762   9.214  0.8375 -0.2077 -0.5955
 5537SOL     OW28246   4.679   3.424   7.155 -0.8906  0.2988 -0.3448
 5537SOL    HW128247   4.646   3.505   7.193 -0.0148  0.7302 -0.5233
 5537SOL    HW228248   4.603   3.398   7.102  0.2413 -4.0771  0.1582
 5538SOL     OW28249   1.996   1.509   6.417 -0.5146 -0.5067  0.0188
 5538SOL    HW128250   2.085   1.473   6.415 -0.2773  0.0536  0.8927
 5538SOL    HW228251   2.000   1.559   6.498 -1.9700  1.8760 -1.3680
 5539SOL     OW28252   1.557   2.792   6.211 -0.1142  0.4504 -0.1452
 5539SOL    HW128253   1.607   2.843   6.147  2.2262 -2.4210 -0.6205
 5539SOL    HW228254   1.583   2.826   6.297  0.5030 -0.0553 -0.1362
 5540SOL     OW28255   0.388   3.231   6.343  0.2824 -0.1857  0.4011
 5540SOL    HW128256   0.443   3.170   6.294 -0.4622 -1.7102  1.4891
 5540SOL    HW228257   0.310   3.202   6.296 -2.1574  4.6873  1.4381
 5541SOL     OW28258   2.956   1.342   7.569 -0.0997  0.5923 -0.0142
 5541SOL    HW128259   2.908   1.425   7.574 -0.7402  0.2715 -0.7606
 5541SOL    HW228260   2.916   1.300   7.493  1.5646 -0.7532 -0.1435
 5542SOL     OW28261   0.751   3.333   6.345  0.0293  0.4806  0.2215
 5542SOL    HW128262   0.677   3.358   6.401  0.5840 -1.3894  1.7992
 5542SOL    HW228263   0.803   3.287   6.410  0.4531  0.5468 -0.0733
 5543SOL     OW28264   2.198   0.913  10.784 -0.5079 -0.1022  0.4571
 5543SOL    HW128265   2.250   0.907  10.864  0.3740  0.3238 -0.0864
 5543SOL    HW228266   2.167   1.003  10.794  1.9155  0.7584  0.2178
 5544SOL     OW28267   3.543   3.026  14.313 -0.2103  0.3490  0.5581
 5544SOL    HW128268   3.464   2.972  14.311 -0.5914  0.8847  1.1695
 5544SOL    HW228269   3.609   2.967  14.277  1.0558  0.8834  2.0288
 5545SOL     OW28270   1.683   1.616  13.777 -0.6591  0.3610 -0.0217
 5545SOL    HW128271   1.662   1.576  13.861 -0.4374  1.8243  0.7130
 5545SOL    HW228272   1.711   1.706  13.792  1.0127  0.0254 -1.1109
 5546SOL     OW28273   2.410   1.132   6.776 -0.1214  0.0373  0.2220
 5546SOL    HW128274   2.489   1.183   6.758 -0.1220  0.3541  1.1449
 5546SOL    HW228275   2.426   1.121   6.869  0.5516  0.9436  0.2147
 5547SOL     OW28276   0.850   2.585   8.404 -0.3451 -0.0709 -0.4348
 5547SOL    HW128277   0.760   2.614   8.419 -0.6382 -1.1961 -0.0353
 5547SOL    HW228278   0.837   2.535   8.324  1.4203 -0.6697 -0.3407
 5548SOL     OW28279   0.118   3.739  13.708  0.3317 -0.0918  0.5024
 5548SOL    HW128280   0.070   3.656  13.703  0.7412 -0.2786 -0.3762
 5548SOL    HW228281   0.199   3.719  13.660 -0.7327 -0.1270 -1.2923
 5549SOL     OW28282   2.720   1.283   7.812 -0.3216  0.3657 -0.1372
 5549SOL    HW128283   2.776   1.207   7.819 -0.4437  0.3792  0.9877
 5549SOL    HW228284   2.781   1.356   7.822  0.5887 -0.3602 -0.4169
 5550SOL     OW28285   2.881   0.603   5.669 -0.0597  0.5168 -0.6221
 5550SOL    HW128286   2.921   0.548   5.737  0.0944  0.9538 -0.3598
 5550SOL    HW228287   2.852   0.537   5.606 -2.1229  1.1486 -0.3412
 5551SOL     OW28288   1.212   3.606   9.081  0.1860  0.0219  0.5962
 5551SOL    HW128289   1.190   3.698   9.091  0.0361  0.0774 -0.2552
 5551SOL    HW228290   1.281   3.613   9.015 -0.1518 -0.3247  0.2044
 5552SOL     OW28291   2.835   3.978   4.793 -0.6849 -0.3200 -0.0191
 5552SOL    HW128292   2.893   4.052   4.775 -0.8308  0.2767  2.0137
 5552SOL    HW228293   2.887   3.900   4.772 -1.2516 -0.4405 -0.9573
 5553SOL     OW28294   1.986   1.091   7.598 -0.5726 -0.0736  0.1741
 5553SOL    HW128295   1.960   1.181   7.617 -2.3513  0.0214 -2.7322
 5553SOL    HW228296   1.908   1.053   7.558  0.8227  1.0705 -3.6644
 5554SOL     OW28297   2.965   3.481  16.441  0.1209 -0.0746 -0.2909
 5554SOL    HW128298   2.972   3.553  16.378  3.1789 -1.1999 -1.2750
 5554SOL    HW228299   3.056   3.453  16.427 -0.4204 -1.5032 -0.8589
 5555SOL     OW28300   2.737   1.334  12.402  0.4887  0.5780  0.4275
 5555SOL    HW128301   2.692   1.250  12.411 -2.8798  2.1368 -2.0016
 5555SOL    HW228302   2.825   1.306  12.376 -0.5817 -1.9846 -0.3660
 5556SOL     OW28303   4.404   2.416   7.362  0.0135 -0.0281 -0.1501
 5556SOL    HW128304   4.321   2.375   7.340  1.1843 -3.7523  2.2039
 5556SOL    HW228305   4.380   2.500   7.400 -1.2416 -0.5972  0.2951
 5557SOL     OW28306   3.673   3.974  10.296 -0.4675  0.0846 -0.6339
 5557SOL    HW128307   3.757   3.938  10.323  1.0085  1.9363 -2.7275
 5557SOL    HW228308   3.675   3.971  10.201 -2.7760  1.6064 -0.7363
 5558SOL     OW28309   0.455   0.009   7.296 -0.1689  0.0712  1.0947
 5558SOL    HW128310   0.495   4.669   7.332 -0.8779 -0.8494 -0.1720
 5558SOL    HW228311   0.402   0.042   7.369 -0.1834 -0.1802  1.1958
 5559SOL     OW28312   3.247   1.240  13.898  0.0166 -0.0536  0.2209
 5559SOL    HW128313   3.241   1.158  13.849 -1.1169 -0.9132  1.8006
 5559SOL    HW228314   3.272   1.212  13.986  2.0396  2.5954  0.4891
 5560SOL     OW28315   2.771   4.396  13.040 -0.4094 -0.3213 -0.5495
 5560SOL    HW128316   2.735   4.452  12.971  1.2479 -2.0680 -2.8313
 5560SOL    HW228317   2.715   4.319  13.039 -0.7244 -0.0819 -1.2266
 5561SOL     OW28318   1.522   4.149   4.421 -0.0483 -0.4318  0.1039
 5561SOL    HW128319   1.613   4.178   4.417 -0.2349  0.1160 -0.1494
 5561SOL    HW228320   1.502   4.118   4.333  2.5844 -1.5647 -0.1159
 5562SOL     OW28321   2.791   0.471  11.973 -0.0542  0.0363 -0.1782
 5562SOL    HW128322   2.770   0.389  12.018 -1.8064 -0.2114 -1.4564
 5562SOL    HW228323   2.702   0.504  11.986 -0.3355 -1.1021  0.7365
 5563SOL     OW28324   4.587   3.458   1.576 -0.5590  0.2474 -0.4036
 5563SOL    HW128325   4.614   3.547   1.553 -1.9882  0.7533 -0.1402
 5563SOL    HW228326   4.662   3.429   1.627  1.6159 -0.0222 -3.7604
 5564SOL     OW28327   3.643   2.254  17.169 -0.2720 -0.0208  0.3278
 5564SOL    HW128328   3.585   2.192  17.213 -0.4725 -1.1316 -1.5033
 5564SOL    HW228329   3.596   2.336  17.154  0.4762  0.2882 -0.3540
 5565SOL     OW28330   1.780   1.696   7.797  0.1739 -0.0209  0.5902
 5565SOL    HW128331   1.838   1.661   7.730  0.6728  0.5289  0.7297
 5565SOL    HW228332   1.742   1.616   7.834 -0.5995  0.5053  0.9505
 5566SOL     OW28333   2.860   3.559   1.249 -0.7095  0.0681 -0.0945
 5566SOL    HW128334   2.899   3.486   1.297 -2.4162 -0.6907  0.1259
 5566SOL    HW228335   2.767   3.545   1.263 -0.5977  0.0116  0.5639
 5567SOL     OW28336   3.210   4.510  10.958  0.0510  0.5935 -0.4047
 5567SOL    HW128337   3.278   4.564  10.998  1.1483  0.3839 -1.9876
 5567SOL    HW228338   3.261   4.470  10.888  0.3298 -0.8352  0.6403
 5568SOL     OW28339   3.115   2.057  15.794 -0.5042  0.1998 -0.2351
 5568SOL    HW128340   3.130   2.043  15.888  1.5446 -2.5948 -1.0099
 5568SOL    HW228341   3.202   2.088  15.770 -0.7988  1.7124  0.6451
 5569SOL     OW28342   2.995   0.964   8.284  0.1491  0.0496 -0.2810
 5569SOL    HW128343   2.907   0.932   8.266  0.5111 -0.6697 -0.8124
 5569SOL    HW228344   3.049   0.898   8.240  0.2793 -1.6530  2.4079
 5570SOL     OW28345   4.638   1.050   6.493 -0.2548 -0.0426  0.3755
 5570SOL    HW128346   4.660   1.143   6.501 -1.1266  0.0096  2.1114
 5570SOL    HW228347   4.642   1.031   6.399  1.3126  2.5450 -0.0675
 5571SOL     OW28348   2.368   0.412  15.398  0.1933  0.2626  0.3355
 5571SOL    HW128349   2.371   0.382  15.307  0.1055 -0.8718  0.7160
 5571SOL    HW228350   2.441   0.363  15.436  0.2412 -1.8515 -2.5074
 5572SOL     OW28351   3.699   0.592   6.838 -0.2307  0.3699 -0.2620
 5572SOL    HW128352   3.725   0.538   6.764 -0.9129 -0.5029  0.1342
 5572SOL    HW228353   3.635   0.650   6.797 -0.5513 -0.8577 -1.4743
 5573SOL     OW28354   0.971   0.271   9.024 -0.1029 -0.3800 -0.6269
 5573SOL    HW128355   0.989   0.179   9.042  1.0803  0.4148  2.3202
 5573SOL    HW228356   0.996   0.278   8.932  0.9879  1.8845 -0.1712
 5574SOL     OW28357   3.616   0.616  17.680 -0.4178 -0.0022 -0.5673
 5574SOL    HW128358   3.641   0.525  17.699 -1.3111 -0.2813 -0.7546
 5574SOL    HW228359   3.556   0.601  17.607 -0.7068  0.1213 -0.3519
 5575SOL     OW28360   4.704   4.405   2.547 -0.1963 -0.0154  0.2365
 5575SOL    HW128361   4.731   4.465   2.477  2.5557 -2.7569 -1.0222
 5575SOL    HW228362   4.618   4.375   2.518  0.9132 -1.0029 -2.0320
 5576SOL     OW28363   0.702   0.248  12.279  0.8104  0.2382  0.1679
 5576SOL    HW128364   0.756   0.174  12.249 -0.2473 -0.5732  0.2494
 5576SOL    HW228365   0.621   0.196  12.288 -0.7635  2.3097 -1.8896
 5577SOL     OW28366   2.228   4.045   5.945 -0.7995 -0.4915  0.1563
 5577SOL    HW128367   2.215   4.047   5.850  0.6617 -1.5528 -0.0651
 5577SOL    HW228368   2.138   4.027   5.971 -0.9346 -0.4446 -0.2878
 5578SOL     OW28369   1.932   4.558   9.589 -0.2486 -0.5687  0.2525
 5578SOL    HW128370   1.959   4.589   9.675 -0.9415  2.1988 -0.5215
 5578SOL    HW228371   2.011   4.529   9.544  0.4826  0.7191  0.7358
 5579SOL     OW28372   2.041   4.345   3.392 -0.2610  0.0480  0.4697
 5579SOL    HW128373   1.985   4.299   3.329 -0.7401  3.0279 -1.3008
 5579SOL    HW228374   2.122   4.294   3.384 -0.3195  0.2581 -1.4455
 5580SOL     OW28375   3.094   2.676   7.768  0.2993  0.1047  0.2982
 5580SOL    HW128376   3.145   2.595   7.775  0.4113  0.0000 -1.7866
 5580SOL    HW228377   3.026   2.657   7.703  0.6333 -2.5071  0.7088
 5581SOL     OW28378   3.688   0.574  11.787 -0.3792  0.0890 -0.0100
 5581SOL    HW128379   3.722   0.611  11.868 -1.6520  0.8850  0.1531
 5581SOL    HW228380   3.741   0.619  11.722  1.7669  0.2034  1.8277
 5582SOL     OW28381   0.544   4.598   0.522 -0.3937 -0.1851  0.3734
 5582SOL    HW128382   0.528   4.633   0.435  0.5236 -1.6084 -0.3571
 5582SOL    HW228383   0.637   4.578   0.515 -0.3083 -0.6177  2.5301
 5583SOL     OW28384   0.834   3.965   4.844  0.4772 -0.2124  0.0399
 5583SOL    HW128385   0.836   3.998   4.934  0.0141 -0.8739  0.2885
 5583SOL    HW228386   0.816   4.047   4.798  0.1532 -0.1399  0.2977
 5584SOL     OW28387   0.290   2.964  13.810  0.5505 -0.0020  0.2511
 5584SOL    HW128388   0.359   2.902  13.835 -0.6422 -0.7201  1.7766
 5584SOL    HW228389   0.326   2.973  13.722 -0.3153  0.7853 -0.0152
 5585SOL     OW28390   1.147   4.330  16.794  0.2152  0.2632 -0.6317
 5585SOL    HW128391   1.146   4.425  16.803  1.3995  0.3444 -1.3618
 5585SOL    HW228392   1.220   4.319  16.733 -0.8031 -0.3702 -1.7342
 5586SOL     OW28393   3.553   2.748   2.512 -0.2319 -0.4298  0.3929
 5586SOL    HW128394   3.619   2.768   2.446 -1.1173 -2.4495 -1.1109
 5586SOL    HW228395   3.608   2.713   2.583  1.3832  2.0268  0.3354
 5587SOL     OW28396   0.276   4.423   9.131 -0.0937  0.4366  0.0694
 5587SOL    HW128397   0.214   4.352   9.148  0.9529 -0.2735  0.9662
 5587SOL    HW228398   0.273   4.442   9.038 -1.5657  0.5724  0.1525
 5588SOL     OW28399   3.080   1.969   8.075 -0.3262 -0.5348  0.4385
 5588SOL    HW128400   3.055   1.896   8.131 -1.2920 -0.1933  0.4476
 5588SOL    HW228401   3.080   2.040   8.140  2.2722  0.5208 -0.6828
 5589SOL     OW28402   0.597   3.718  17.636 -0.0733  0.7720  0.0649
 5589SOL    HW128403   0.519   3.761  17.670 -0.1515  0.9927 -0.3836
 5589SOL    HW228404   0.649   3.724  17.716  0.1952  2.2534 -0.2223
 5590SOL     OW28405   1.471   1.201   1.208  0.7229 -0.2581 -0.1654
 5590SOL    HW128406   1.414   1.227   1.280 -1.4645 -0.0326 -1.9804
 5590SOL    HW228407   1.513   1.286   1.194 -0.5012  0.2197 -1.0111
 5591SOL     OW28408   0.154   3.113   3.410 -0.2109 -0.3459 -0.4705
 5591SOL    HW128409   0.123   3.141   3.496  1.8909 -0.0791  0.2000
 5591SOL    HW228410   0.081   3.110   3.348 -2.0480 -1.8120  1.7713
 5592SOL     OW28411   3.462   2.231   5.199  0.2481 -0.0706  0.3002
 5592SOL    HW128412   3.508   2.244   5.116 -0.1287  1.9746  0.4130
 5592SOL    HW228413   3.447   2.137   5.190 -1.4575  0.3383 -1.0595
 5593SOL     OW28414   0.769   1.151   6.151 -0.6564  0.1740  0.3183
 5593SOL    HW128415   0.804   1.143   6.240  0.0794  0.7941  0.0852
 5593SOL    HW228416   0.781   1.066   6.107 -4.0731 -0.0180 -0.2460
 5594SOL     OW28417   3.785   2.942   6.454  0.4034 -0.5240  0.5548
 5594SOL    HW128418   3.787   3.014   6.392  1.0569  0.2733  1.4990
 5594SOL    HW228419   3.777   2.865   6.397  0.5370 -0.8240  0.9425
 5595SOL     OW28420   1.269   3.135   4.327  0.2553 -0.0603  0.3298
 5595SOL    HW128421   1.260   3.055   4.378  0.9428  0.4423  1.2341
 5595SOL    HW228422   1.230   3.197   4.388  0.3066 -0.1742  0.4761
 5596SOL     OW28423   4.240   2.228  15.578 -0.2401 -0.0212 -0.4160
 5596SOL    HW128424   4.260   2.219  15.484 -0.0233 -1.6381 -0.2213
 5596SOL    HW228425   4.161   2.282  15.577  0.5790  1.1633  0.7568
 5597SOL     OW28426   0.151   3.442   4.860 -0.0291 -0.8501 -0.1085
 5597SOL    HW128427   0.240   3.453   4.893 -0.6148  0.5904  0.9909
 5597SOL    HW228428   0.107   3.418   4.942 -1.1374  0.8372 -0.2052
 5598SOL     OW28429   2.462   2.333   2.134 -0.5216  0.0105  0.3128
 5598SOL    HW128430   2.440   2.281   2.211 -0.4785  1.4576  1.3091
 5598SOL    HW228431   2.487   2.271   2.065  0.8290 -0.2753  1.0668
 5599SOL     OW28432   3.300   2.262   8.561 -0.0241 -0.1425  0.3410
 5599SOL    HW128433   3.306   2.179   8.514  2.0982  0.1654  0.0831
 5599SOL    HW228434   3.288   2.238   8.653  1.4837  1.6893  1.0191
 5600SOL     OW28435   4.391   1.074   2.242  0.2768 -0.0698  0.0900
 5600SOL    HW128436   4.404   0.990   2.287  2.2648 -0.7037 -1.6520
 5600SOL    HW228437   4.324   1.107   2.301  0.3012 -1.0100  0.6559
 5601SOL     OW28438   2.648   1.772  16.878  0.0025 -0.2006  0.3620
 5601SOL    HW128439   2.686   1.725  16.952  0.3487  1.9006  1.5248
 5601SOL    HW228440   2.711   1.842  16.859 -1.6161  1.2861  0.4110
 5602SOL     OW28441   2.715   0.352  11.331 -0.7917  0.8764  0.4085
 5602SOL    HW128442   2.722   0.446  11.350  0.4995  1.0224 -0.8501
 5602SOL    HW228443   2.639   0.329  11.385 -1.5541 -0.1762 -1.1158
 5603SOL     OW28444   2.486   0.883   7.534 -0.6482 -0.1612 -0.1581
 5603SOL    HW128445   2.491   0.822   7.461  1.9698 -0.6814  0.4712
 5603SOL    HW228446   2.565   0.936   7.522 -0.2577 -0.7721 -0.2477
 5604SOL     OW28447   0.384   0.318   6.838  0.0737 -0.0801 -0.1227
 5604SOL    HW128448   0.418   0.248   6.782  1.3241  0.9536 -0.6321
 5604SOL    HW228449   0.438   0.392   6.811 -2.2056  1.0405 -1.6412
 5605SOL     OW28450   2.314   4.373   6.566 -0.3299 -0.4664 -1.0977
 5605SOL    HW128451   2.334   4.379   6.472 -0.6535 -1.3501 -1.2255
 5605SOL    HW228452   2.396   4.404   6.603 -1.0557  0.0130  0.0976
 5606SOL     OW28453   3.108   1.578   4.804  0.1045 -0.6902 -0.0588
 5606SOL    HW128454   3.094   1.511   4.871 -0.0053  0.9934  1.6068
 5606SOL    HW228455   3.058   1.535   4.735 -0.3551  1.0834 -0.8315
 5607SOL     OW28456   1.392   0.795   6.141  0.6555  0.1155  0.1393
 5607SOL    HW128457   1.359   0.796   6.051 -0.4365 -0.0850  0.5314
 5607SOL    HW228458   1.476   0.753   6.126 -0.1665 -0.8854 -1.6034
 5608SOL     OW28459   1.613   0.601   0.710  0.1232 -0.3448 -0.2676
 5608SOL    HW128460   1.671   0.677   0.717 -0.8131  0.4600 -1.3516
 5608SOL    HW228461   1.573   0.595   0.796 -2.1343 -3.1761 -1.5274
 5609SOL     OW28462   0.638   2.412  13.628 -0.6043  0.2407 -0.4536
 5609SOL    HW128463   0.711   2.429  13.688 -1.0316  1.9111 -0.4154
 5609SOL    HW228464   0.573   2.383  13.691  0.5442 -1.4693 -0.0438
 5610SOL     OW28465   2.911   3.498   9.616  0.8663 -0.1182  0.1171
 5610SOL    HW128466   2.929   3.499   9.710 -0.0919  2.6456  0.2767
 5610SOL    HW228467   2.855   3.575   9.603  0.5157 -0.2645  0.7183
 5611SOL     OW28468   0.407   1.023   6.902 -0.2746  0.0291  0.4528
 5611SOL    HW128469   0.429   1.086   6.971  2.8706  1.7716 -2.1020
 5611SOL    HW228470   0.340   1.070   6.853  0.4449 -0.7703 -1.3232
 5612SOL     OW28471   3.504   2.038   6.513  0.1354  0.3483 -0.1582
 5612SOL    HW128472   3.417   2.062   6.545  0.3388  1.1352 -0.1962
 5612SOL    HW228473   3.548   2.045   6.598  1.1540  2.2555 -0.8526
 5613SOL     OW28474   2.191   2.126   2.612 -0.2452 -0.3916  0.1177
 5613SOL    HW128475   2.215   2.217   2.594 -1.0097 -0.3728 -0.8249
 5613SOL    HW228476   2.238   2.080   2.542 -0.7386 -0.0224 -0.4528
 5614SOL     OW28477   3.342   1.802  13.301 -0.0352  0.4392  0.0162
 5614SOL    HW128478   3.431   1.836  13.292 -1.3687  4.0735  0.4199
 5614SOL    HW228479   3.312   1.808  13.210  0.1311  1.5100  0.0332
 5615SOL     OW28480   3.816   0.430  14.517 -0.2890  0.1113 -0.3115
 5615SOL    HW128481   3.860   0.392  14.592 -0.2922  0.2724 -0.2287
 5615SOL    HW228482   3.738   0.473  14.553 -0.6506  0.8670 -1.9871
 5616SOL     OW28483   4.680   2.725   9.869 -0.2781 -0.1945  0.4432
 5616SOL    HW128484   4.594   2.698   9.900  0.2699  2.1792  4.0204
 5616SOL    HW228485   4.717   2.645   9.906  0.4456  0.5463  1.3189
 5617SOL     OW28486   2.259   1.511   6.158  0.3558  0.6701  0.0074
 5617SOL    HW128487   2.294   1.599   6.172 -2.6614  2.1057 -1.6678
 5617SOL    HW228488   2.238   1.491   6.249 -1.0904  0.9274 -0.2777
 5618SOL     OW28489   0.302   3.923   8.058  0.5196 -0.1639  0.4819
 5618SOL    HW128490   0.389   3.965   8.059  0.3998  0.0874  0.4770
 5618SOL    HW228491   0.296   3.866   7.982 -1.2339 -0.2062  0.6620
 5619SOL     OW28492   2.755   1.576   4.946 -0.3395  0.1058 -0.1028
 5619SOL    HW128493   2.671   1.589   4.902  0.4694  0.4395 -1.5609
 5619SOL    HW228494   2.770   1.482   4.934 -0.2917  0.4042 -2.4542
 5620SOL     OW28495   2.196   3.155   7.902 -0.0269 -0.3859  0.6987
 5620SOL    HW128496   2.253   3.185   7.972 -0.3230 -0.0457  0.7953
 5620SOL    HW228497   2.175   3.064   7.924  0.3808 -0.9314 -1.1773
 5621SOL     OW28498   1.494   2.451   2.405 -0.5052  0.1305 -0.5656
 5621SOL    HW128499   1.424   2.402   2.448 -0.9541  1.8042  0.6142
 5621SOL    HW228500   1.443   2.511   2.350 -1.6539 -0.9842 -0.7001
 5622SOL     OW28501   2.419   1.376   9.719  0.4236 -0.1551 -0.3359
 5622SOL    HW128502   2.327   1.402   9.714 -0.0142 -1.7706 -0.5746
 5622SOL    HW228503   2.412   1.281   9.716  0.8316 -0.1846 -0.2767
 5623SOL     OW28504   4.617   2.785   3.726  0.0003 -0.1356  0.1480
 5623SOL    HW128505   4.649   2.790   3.636 -0.0150 -3.1656 -0.0333
 5623SOL    HW228506   4.701   2.766   3.767  0.9098  0.3224 -1.5173
 5624SOL     OW28507   4.421   1.562   0.308  0.1020 -0.0796  0.2534
 5624SOL    HW128508   4.499   1.506   0.307  0.7407  0.8087  1.2611
 5624SOL    HW228509   4.354   1.495   0.324 -1.3598  1.5867  1.1009
 5625SOL     OW28510   3.489   0.892   5.371  0.6195  0.6423 -0.2104
 5625SOL    HW128511   3.401   0.866   5.344  0.0406 -1.2692  3.5319
 5625SOL    HW228512   3.523   0.946   5.299  0.2473  0.6814 -0.3556
 5626SOL     OW28513   1.466   3.227   1.769 -0.3105  0.1049 -0.0676
 5626SOL    HW128514   1.557   3.256   1.778 -0.3867 -0.8994  3.7023
 5626SOL    HW228515   1.425   3.306   1.733 -2.7642 -1.2055 -0.1618
 5627SOL     OW28516   2.494   4.484  13.862  0.1544  0.6464 -0.6334
 5627SOL    HW128517   2.579   4.442  13.848 -0.1977 -0.1110 -0.4948
 5627SOL    HW228518   2.432   4.416  13.834  2.3624 -0.9252 -1.7482
 5628SOL     OW28519   3.380   0.537  15.280 -0.1198  0.1605 -0.5076
 5628SOL    HW128520   3.294   0.580  15.285  0.6318  1.4877  1.0440
 5628SOL    HW228521   3.357   0.453  15.241 -1.4185  0.6207 -0.7366
 5629SOL     OW28522   4.198   3.952   5.708 -0.2122  0.5436  0.4667
 5629SOL    HW128523   4.138   3.881   5.684  0.1431  0.5331 -0.3744
 5629SOL    HW228524   4.137   4.014   5.750 -0.8049 -0.8651  1.7038
 5630SOL     OW28525   2.809   3.807   8.802 -0.0539  0.0335  0.0603
 5630SOL    HW128526   2.817   3.849   8.888  0.8890 -1.7741  0.8435
 5630SOL    HW228527   2.894   3.817   8.760 -1.3087 -0.2706 -2.4983
 5631SOL     OW28528   3.551   1.625   8.907  0.3962  0.0944 -0.1254
 5631SOL    HW128529   3.567   1.586   8.821  0.2999  1.4810 -0.7723
 5631SOL    HW228530   3.605   1.573   8.966  0.8858  2.8329  1.8522
 5632SOL     OW28531   0.178   2.071  10.094 -0.4463  0.8807 -0.7162
 5632SOL    HW128532   0.257   2.039  10.050 -1.4160  1.3522 -2.8143
 5632SOL    HW228533   0.127   1.992  10.108 -0.8563  0.9171 -1.9800
 5633SOL     OW28534   0.738   2.716   3.771 -0.1343  0.7241 -0.3909
 5633SOL    HW128535   0.712   2.743   3.683 -0.6523 -1.7334 -0.9979
 5633SOL    HW228536   0.824   2.757   3.764  0.6110 -0.6465  0.8466
 5634SOL     OW28537   4.716   0.995   3.547  1.1049 -0.0011 -0.7172
 5634SOL    HW128538   0.007   1.026   3.461  0.7619 -1.3128 -1.2987
 5634SOL    HW228539   0.003   0.904   3.532  1.9975  0.4832 -2.1805
 5635SOL     OW28540   3.399   4.693   4.198  0.0170 -0.1499 -0.4946
 5635SOL    HW128541   3.374   0.036   4.240 -0.5724 -1.7392  2.2500
 5635SOL    HW228542   3.319   4.669   4.152 -1.4624  4.7385 -0.4327
 5636SOL     OW28543   1.544   3.090   8.134  0.1675  0.2461  0.4988
 5636SOL    HW128544   1.529   3.087   8.229  1.3112  1.2757  0.7124
 5636SOL    HW228545   1.459   3.122   8.102 -0.2749 -1.5431 -0.0898
 5637SOL     OW28546   0.226   3.308  16.613 -0.0045 -0.0052 -0.1694
 5637SOL    HW128547   0.205   3.360  16.535 -1.6409  0.8516  0.8462
 5637SOL    HW228548   0.207   3.220  16.578  1.8520  0.4693 -2.3801
 5638SOL     OW28549   0.877   2.441   4.470  0.2561 -0.3177  0.0757
 5638SOL    HW128550   0.932   2.435   4.548  0.1237 -0.4111  0.1610
 5638SOL    HW228551   0.842   2.352   4.466  1.2479 -0.5787 -2.6440
 5639SOL     OW28552   3.357   3.711  10.726  0.0011  0.1653  0.3316
 5639SOL    HW128553   3.264   3.733  10.720  0.8426  3.1501 -1.5454
 5639SOL    HW228554   3.389   3.799  10.743  3.6735 -0.9624 -0.9450
 5640SOL     OW28555   1.980   3.175  13.007 -0.5534  0.3014  0.6081
 5640SOL    HW128556   1.893   3.209  13.025 -0.5472  0.8447 -0.3963
 5640SOL    HW228557   1.975   3.099  13.065 -2.1736 -0.6759 -0.8260
 5641SOL     OW28558   4.141   4.733   8.212 -0.6666  0.1867  0.1225
 5641SOL    HW128559   4.217   0.028   8.260  0.2309 -2.1914  0.3587
 5641SOL    HW228560   4.114   0.071   8.161 -0.7612 -1.0962 -1.7704
 5642SOL     OW28561   2.233   0.937   2.585 -0.2921 -0.2082 -0.2350
 5642SOL    HW128562   2.218   0.883   2.508  0.9813 -2.2371  0.9429
 5642SOL    HW228563   2.237   0.872   2.655 -1.1671  0.9987  0.9529
 5643SOL     OW28564   2.223   1.850   5.927  0.3457 -0.0991  0.2668
 5643SOL    HW128565   2.184   1.777   5.975 -2.9835  3.3612  2.8153
 5643SOL    HW228566   2.315   1.833   5.948  0.7664  0.7584 -0.8548
 5644SOL     OW28567   2.811   2.751   8.009  0.6006  0.7226  0.4679
 5644SOL    HW128568   2.907   2.753   8.016  0.7729 -0.6455 -1.5217
 5644SOL    HW228569   2.793   2.771   8.101  2.3643 -0.3557  1.0428
 5645SOL     OW28570   4.100   4.717  14.712  0.0175  0.4683 -0.8884
 5645SOL    HW128571   4.061   0.049  14.763  0.7232 -0.1655  0.5222
 5645SOL    HW228572   4.066   4.729  14.623 -0.2080 -1.4778 -1.0704
 5646SOL     OW28573   0.362   3.867   6.358 -0.4532 -0.5859  0.1487
 5646SOL    HW128574   0.398   3.949   6.323  0.8562 -1.8879 -1.5223
 5646SOL    HW228575   0.281   3.893   6.402 -2.0331  0.4976 -3.4253
 5647SOL     OW28576   3.186   0.792   5.940 -0.6993 -0.1157 -0.0327
 5647SOL    HW128577   3.140   0.708   5.948  2.4373 -1.9887 -1.4974
 5647SOL    HW228578   3.249   0.782   5.868  0.5189  1.2830  0.8537
 5648SOL     OW28579   0.650   3.965   3.962  0.6489  0.1571  0.0899
 5648SOL    HW128580   0.687   3.890   4.008 -1.3869  0.6893  2.6138
 5648SOL    HW228581   0.660   4.043   4.016  2.4259 -1.3903  1.9877
 5649SOL     OW28582   0.902   0.423   5.328  0.1215 -0.7737 -0.7397
 5649SOL    HW128583   0.828   0.424   5.267  1.2252  2.5486 -2.0159
 5649SOL    HW228584   0.930   0.332   5.327  3.7667  0.3319  0.1955
 5650SOL     OW28585   1.993   1.804   4.979  0.5500  0.0318  0.3181
 5650SOL    HW128586   2.019   1.879   4.925 -1.6593  0.5113 -0.0969
 5650SOL    HW228587   1.906   1.837   5.002  0.8696 -1.5049  3.5799
 5651SOL     OW28588   4.487   3.751  12.670  0.0709 -0.5481  0.2912
 5651SOL    HW128589   4.539   3.818  12.715 -0.3479 -2.0726  3.0463
 5651SOL    HW228590   4.547   3.679  12.692  0.0798 -0.6960 -0.2096
 5652SOL     OW28591   3.092   0.629   7.470 -0.2189 -0.1096  0.5924
 5652SOL    HW128592   3.062   0.674   7.549 -2.7448 -3.0002  1.2683
 5652SOL    HW228593   3.125   0.556   7.522  0.8567 -1.7679 -2.4005
 5653SOL     OW28594   4.369   3.788   7.400  0.4560 -0.3795  0.0675
 5653SOL    HW128595   4.308   3.753   7.464  0.9688 -0.1622  0.6757
 5653SOL    HW228596   4.308   3.829   7.339  0.3926 -0.2136  0.2425
 5654SOL     OW28597   0.898   2.030   5.299 -0.3160 -0.0004 -0.4313
 5654SOL    HW128598   0.832   2.098   5.288 -0.4777  0.0096  0.6666
 5654SOL    HW228599   0.906   2.011   5.392  0.5264  1.7213 -0.1526
 5655SOL     OW28600   3.247   1.633   2.987  0.2701  0.0747  0.5159
 5655SOL    HW128601   3.292   1.617   2.905  0.1910 -0.5265  0.5852
 5655SOL    HW228602   3.158   1.607   2.961  0.2365 -0.4880  1.1853
 5656SOL     OW28603   3.538   1.876   2.568 -0.1635 -0.0964  0.2546
 5656SOL    HW128604   3.498   1.876   2.481 -0.0661  1.9437  0.2008
 5656SOL    HW228605   3.604   1.945   2.554 -0.4177  0.2946  1.0271
 5657SOL     OW28606   3.703   1.328  10.750  0.3876  0.5265 -0.4460
 5657SOL    HW128607   3.659   1.406  10.783  0.8850  1.9466 -3.1050
 5657SOL    HW228608   3.636   1.262  10.764 -0.0031  1.0312  0.0626
 5658SOL     OW28609   3.490   2.447   3.360 -0.4729  0.6587  0.2607
 5658SOL    HW128610   3.536   2.531   3.351  3.4998 -1.7497 -1.9572
 5658SOL    HW228611   3.554   2.385   3.395 -2.9883 -3.1581 -1.9908
 5659SOL     OW28612   3.820   3.230   1.789  0.4557 -0.0297  0.2703
 5659SOL    HW128613   3.891   3.192   1.737  1.1125 -0.0078  1.1357
 5659SOL    HW228614   3.748   3.188   1.743  0.6886  1.0560 -1.0648
 5660SOL     OW28615   2.495   4.435  10.873 -0.2664  0.2264  0.1413
 5660SOL    HW128616   2.519   4.377  10.801 -1.0430  0.6781 -0.4877
 5660SOL    HW228617   2.401   4.428  10.859 -0.3724  0.7266  0.5828
 5661SOL     OW28618   1.833   0.136   9.211 -0.3057 -0.2089  0.2924
 5661SOL    HW128619   1.854   0.143   9.304  0.8731  2.9909 -0.2227
 5661SOL    HW228620   1.836   0.041   9.200  0.8040 -0.2761  1.1702
 5662SOL     OW28621   4.649   0.592   3.999 -0.1884 -0.5062  0.2171
 5662SOL    HW128622   4.629   0.622   3.910  0.3449 -1.3090 -0.1802
 5662SOL    HW228623   4.568   0.619   4.042  1.4901  1.8542  1.8776
 5663SOL     OW28624   2.243   2.925   6.928  0.0305  0.1478  0.8993
 5663SOL    HW128625   2.198   3.008   6.910  0.5752  0.5794  1.4897
 5663SOL    HW228626   2.191   2.903   7.005 -1.5256 -0.6507 -0.3944
 5664SOL     OW28627   3.087   2.536   4.527  0.5157 -0.2223 -0.0681
 5664SOL    HW128628   3.044   2.542   4.441 -1.2965  3.3360  1.0615
 5664SOL    HW228629   3.132   2.619   4.542  2.5362 -1.4866  0.8391
 5665SOL     OW28630   3.766   0.691  16.596 -0.2472  0.0357  0.1182
 5665SOL    HW128631   3.673   0.670  16.602 -0.4872  1.1771  0.4825
 5665SOL    HW228632   3.779   0.733  16.681  1.0355 -0.0695 -0.0182
 5666SOL     OW28633   0.054   0.353  15.504 -0.7287  0.0456 -0.4270
 5666SOL    HW128634   0.111   0.430  15.510 -1.7115  0.7895 -0.7233
 5666SOL    HW228635   0.071   0.312  15.419  0.9271  0.7763 -0.4423
 5667SOL     OW28636   0.819   2.157   2.619  0.2154  0.2773 -0.0303
 5667SOL    HW128637   0.805   2.250   2.604  0.4803  0.2373 -0.5277
 5667SOL    HW228638   0.754   2.146   2.689  0.5670 -1.1459  0.0812
 5668SOL     OW28639   4.482   2.141   8.096 -0.1518 -0.2370  0.0308
 5668SOL    HW128640   4.453   2.080   8.163  1.3592 -1.6229 -0.5856
 5668SOL    HW228641   4.533   2.211   8.137  0.4814 -0.0428 -1.0677
 5669SOL     OW28642   1.015   3.670   2.309  0.1256 -0.1226 -0.4740
 5669SOL    HW128643   0.938   3.619   2.286  0.8249 -0.7925 -1.3722
 5669SOL    HW228644   0.986   3.689   2.398  0.2100 -0.4517 -0.3765
 5670SOL     OW28645   2.402   0.308   7.642 -0.2783  0.0102  0.0550
 5670SOL    HW128646   2.361   0.280   7.724 -0.3523 -1.8438 -0.6271
 5670SOL    HW228647   2.435   0.394   7.668 -0.2149 -0.9946  3.2181
 5671SOL     OW28648   2.087   2.773   5.147  0.2989  0.5036  0.3851
 5671SOL    HW128649   2.085   2.828   5.225  2.2356  0.1894  0.6442
 5671SOL    HW228650   1.999   2.789   5.112 -0.4763 -3.1548  0.5873
 5672SOL     OW28651   3.834   0.891   6.431 -0.3240 -0.4801  0.3067
 5672SOL    HW128652   3.784   0.961   6.388 -2.2786 -3.1185 -1.7275
 5672SOL    HW228653   3.760   0.832   6.441  1.0401 -2.0147  1.2857
 5673SOL     OW28654   3.065   2.711   0.506 -0.3914  0.5715 -0.0738
 5673SOL    HW128655   3.034   2.792   0.546  0.8034  0.7495  0.5097
 5673SOL    HW228656   3.016   2.650   0.561 -0.7141  0.8792 -0.0288
 5674SOL     OW28657   0.681   2.804   4.249 -1.0066  0.0381  0.0255
 5674SOL    HW128658   0.599   2.786   4.204 -1.0276 -0.3205  0.2029
 5674SOL    HW228659   0.743   2.742   4.210 -0.1375 -0.5723  2.3642
 5675SOL     OW28660   2.206   2.492   7.994 -0.2952 -0.2229  0.0639
 5675SOL    HW128661   2.285   2.522   8.038 -0.6929  1.3733 -0.2977
 5675SOL    HW228662   2.189   2.568   7.938  1.6142  0.2284  0.1124
 5676SOL     OW28663   4.595   3.673  14.002 -0.0741 -0.1501 -0.0240
 5676SOL    HW128664   4.690   3.666  14.007 -0.0796 -0.3833 -0.2943
 5676SOL    HW228665   4.567   3.718  14.082 -0.6934 -0.8605  0.1607
 5677SOL     OW28666   2.232   2.835   3.152  0.2380 -0.1452  0.3659
 5677SOL    HW128667   2.180   2.912   3.176 -1.3466 -1.3067  0.6676
 5677SOL    HW228668   2.319   2.874   3.140 -0.1209  0.8196  0.8604
 5678SOL     OW28669   1.932   3.294  17.067  0.6084  0.0722  0.0549
 5678SOL    HW128670   1.965   3.372  17.021 -0.9250 -0.8576 -2.6051
 5678SOL    HW228671   1.842   3.294  17.036  1.1955 -0.3530 -1.6470
 5679SOL     OW28672   0.193   2.387   2.979 -0.0974  0.2511 -0.4488
 5679SOL    HW128673   0.143   2.466   2.998  0.5650  1.0481 -1.9936
 5679SOL    HW228674   0.262   2.414   3.040 -0.8958  0.7035  0.2657
 5680SOL     OW28675   2.952   0.971   3.007  0.3996 -0.5503 -0.4399
 5680SOL    HW128676   3.003   0.992   2.929 -1.1182 -1.9250 -1.7847
 5680SOL    HW228677   2.886   1.040   3.009  0.4273 -0.5182 -0.7484
 5681SOL     OW28678   3.558   0.202  10.577 -0.0386  0.0498 -0.3775
 5681SOL    HW128679   3.541   0.294  10.598  1.3000  0.4344 -0.9566
 5681SOL    HW228680   3.559   0.194  10.481  0.3534 -1.6298 -0.2240
 5682SOL     OW28681   0.398   0.628  13.604  0.1407  0.0444  0.1294
 5682SOL    HW128682   0.348   0.704  13.576 -0.6413 -0.8793 -0.9513
 5682SOL    HW228683   0.474   0.672  13.642 -0.8031 -1.8546  4.3356
 5683SOL     OW28684   4.061   3.124   7.270 -0.4227  0.0397 -0.6217
 5683SOL    HW128685   3.998   3.138   7.199 -0.6670 -0.1408 -0.4440
 5683SOL    HW228686   4.067   3.212   7.306  1.6589 -0.9278  1.3389
 5684SOL     OW28687   2.105   1.295   3.012  0.0985 -0.1276 -0.1253
 5684SOL    HW128688   2.057   1.227   3.059 -0.8148  1.3553  1.0944
 5684SOL    HW228689   2.100   1.365   3.078  0.0144  0.5466 -0.8526
 5685SOL     OW28690   4.626   2.836  16.632  0.9261  0.1778  0.1720
 5685SOL    HW128691   4.584   2.896  16.571  2.5536  1.8593  0.7065
 5685SOL    HW228692   4.711   2.818  16.591  0.5241  0.6968 -0.8946
 5686SOL     OW28693   0.011   4.409   9.397  0.0754 -0.0119 -0.0347
 5686SOL    HW128694   0.026   4.428   9.489  1.5153  2.2305 -0.7416
 5686SOL    HW228695   0.003   4.314   9.407 -0.7256  0.1974  1.2973
 5687SOL     OW28696   1.372   0.325  10.550 -0.9011  0.3230  0.8190
 5687SOL    HW128697   1.328   0.397  10.594 -0.7585  0.9764 -0.1120
 5687SOL    HW228698   1.298   0.272  10.520 -0.4152 -1.1952  2.2743
 5688SOL     OW28699   4.695   2.038  11.631 -0.4759 -0.1378 -0.7028
 5688SOL    HW128700   0.004   2.089  11.565 -3.5824  1.2317 -1.8801
 5688SOL    HW228701   0.027   2.023  11.694  0.2116 -0.2206 -1.4965
 5689SOL     OW28702   1.014   0.182   5.366  0.6910 -0.2529  0.1632
 5689SOL    HW128703   1.084   0.121   5.391  0.2557 -1.0253 -0.5059
 5689SOL    HW228704   1.010   0.161   5.273 -3.2852 -2.0127  0.7595
 5690SOL     OW28705   0.157   0.754  11.940 -0.7219 -0.1503  0.4107
 5690SOL    HW128706   0.191   0.840  11.964 -0.5144 -0.9654  2.9550
 5690SOL    HW228707   0.132   0.706  12.019  1.4542 -1.2343  0.4254
 5691SOL     OW28708   0.162   1.479   6.936  0.1474  0.4112  0.1429
 5691SOL    HW128709   0.174   1.386   6.955 -0.8808  0.3535  0.4956
 5691SOL    HW228710   0.094   1.479   6.869 -0.5853  1.2292  0.8823
 5692SOL     OW28711   2.444   0.185   7.962  0.3358  0.5866  0.0462
 5692SOL    HW128712   2.530   0.192   7.920 -0.3071  0.2204 -1.3481
 5692SOL    HW228713   2.469   0.178   8.054  0.9807 -1.9933 -0.3344
 5693SOL     OW28714   1.898   1.970   2.267  0.3827 -0.4163 -0.2050
 5693SOL    HW128715   1.847   2.050   2.251 -0.5582 -1.4223 -2.3171
 5693SOL    HW228716   1.843   1.938   2.338  1.7519  0.3029  1.1810
 5694SOL     OW28717   3.228   3.348   0.757  0.5456  0.4257  0.4062
 5694SOL    HW128718   3.228   3.356   0.852  0.9745  0.3528  0.4126
 5694SOL    HW228719   3.211   3.440   0.736 -0.9984  0.2801  1.0822
 5695SOL     OW28720   4.132   1.545   3.516 -0.7649  0.8097  0.1147
 5695SOL    HW128721   4.074   1.544   3.440  1.2585  0.3620 -1.4130
 5695SOL    HW228722   4.204   1.490   3.485 -1.4339  1.5291 -2.7145
 5696SOL     OW28723   0.261   2.644   7.366 -0.0915  0.0569  0.3611
 5696SOL    HW128724   0.340   2.609   7.406  0.4386 -1.5024 -2.0834
 5696SOL    HW228725   0.215   2.670   7.446  1.1788  2.1583  0.3904
 5697SOL     OW28726   3.667   3.342  15.137 -0.1705  0.2339  0.0820
 5697SOL    HW128727   3.753   3.314  15.106 -1.1784  1.2065 -3.6259
 5697SOL    HW228728   3.644   3.275  15.201  0.7928  0.9079  1.1250
 5698SOL     OW28729   3.048   3.017   0.069 -0.4974  0.2745 -0.3397
 5698SOL    HW128730   3.075   2.931   0.100  0.2918  0.0774 -1.5825
 5698SOL    HW228731   2.966   3.012   0.021 -1.7652 -1.0142  1.9427
 5699SOL     OW28732   0.393   2.935  10.978 -0.2943 -0.2871  0.0321
 5699SOL    HW128733   0.417   3.020  10.942  0.8444  0.2503  2.0917
 5699SOL    HW228734   0.309   2.948  11.022  0.6467 -0.5977  1.8990
 5700SOL     OW28735   3.572   0.675   5.999  0.0546  0.3564  0.4248
 5700SOL    HW128736   3.607   0.762   6.015 -0.1421  0.6057 -0.5052
 5700SOL    HW228737   3.505   0.676   6.066  1.4372 -3.7394  1.9147
 5701SOL     OW28738   1.913   1.299   6.571 -0.3522  0.1284 -0.0460
 5701SOL    HW128739   1.954   1.352   6.503  0.3712  1.0231  1.0795
 5701SOL    HW228740   1.991   1.275   6.621  0.5978  0.2787 -1.4700
 5702SOL     OW28741   1.376   3.557   9.510  0.6896  0.2092  0.2455
 5702SOL    HW128742   1.281   3.567   9.514  0.4645 -0.3221 -3.7475
 5702SOL    HW228743   1.400   3.596   9.426 -0.7550  0.5990  0.0228
 5703SOL     OW28744   1.099   4.116   4.620  0.0473  0.1858  0.0006
 5703SOL    HW128745   1.072   4.192   4.567  1.1569  0.3409 -0.3486
 5703SOL    HW228746   1.093   4.154   4.707 -0.3699 -0.5348  0.2816
 5704SOL     OW28747   2.217   0.292   7.864 -0.4759 -0.5055 -0.3986
 5704SOL    HW128748   2.159   0.325   7.932 -0.5638  0.6498 -1.0363
 5704SOL    HW228749   2.295   0.265   7.912 -1.9494 -0.1661  2.1952
 5705SOL     OW28750   3.575   0.628   9.213  0.2260  0.2522  0.4022
 5705SOL    HW128751   3.490   0.586   9.198  1.4985 -2.0313 -0.4112
 5705SOL    HW228752   3.558   0.691   9.283  0.0486 -1.1587  1.6463
 5706SOL     OW28753   2.791   0.683   4.694  0.1019  0.5108  0.0049
 5706SOL    HW128754   2.776   0.764   4.645  1.9252  0.2361 -1.0044
 5706SOL    HW228755   2.745   0.709   4.774 -0.7152 -2.0320  0.3817
 5707SOL     OW28756   4.253   0.275  17.249 -0.5683  0.5548  0.0366
 5707SOL    HW128757   4.230   0.296  17.159 -2.9285 -0.2099  0.4398
 5707SOL    HW228758   4.308   0.198  17.239 -1.7462 -0.4970  1.5577
 5708SOL     OW28759   2.781   1.558   7.576  0.3286  0.2855 -0.2172
 5708SOL    HW128760   2.719   1.534   7.508 -0.2746  0.2925  0.3284
 5708SOL    HW228761   2.728   1.619   7.627  0.9750  0.7854 -0.1353
 5709SOL     OW28762   0.164   2.431   2.076 -0.2211  0.0201 -0.0381
 5709SOL    HW128763   0.214   2.500   2.121  2.8151 -2.6609  0.7224
 5709SOL    HW228764   0.105   2.400   2.144  1.4989 -0.0760  1.4179
 5710SOL     OW28765   2.043   4.603   9.834  0.2891 -0.1523  0.5370
 5710SOL    HW128766   1.993   4.543   9.890 -0.8018  0.4878  0.2396
 5710SOL    HW228767   2.060   4.675   9.895 -0.0613 -1.6668  2.4165
 5711SOL     OW28768   3.370   0.033   4.975 -0.0171  0.2013 -0.0248
 5711SOL    HW128769   3.307   0.079   4.919 -0.2286 -1.4439 -1.1675
 5711SOL    HW228770   3.423   0.106   5.006 -1.3996  0.5124  1.5808
 5712SOL     OW28771   1.677   3.014   1.905 -0.6214  0.2194  0.5497
 5712SOL    HW128772   1.597   3.060   1.880  0.4481  1.2952 -0.8992
 5712SOL    HW228773   1.734   3.045   1.835  0.4672 -0.4027  1.1576
 5713SOL     OW28774   1.709   0.961  16.669 -0.4453 -0.0454 -0.1926
 5713SOL    HW128775   1.618   0.986  16.684 -0.6577 -0.2256 -1.1669
 5713SOL    HW228776   1.762   1.040  16.678 -0.0173 -0.5262  1.5002
 5714SOL     OW28777   4.292   4.522   7.206  0.1108  0.0618  0.1092
 5714SOL    HW128778   4.294   4.531   7.111 -0.3537  1.8612  0.2516
 5714SOL    HW228779   4.386   4.528   7.223  0.4003  0.1371 -1.5394
 5715SOL     OW28780   3.484   0.078   0.013  0.4322 -0.0528  0.3474
 5715SOL    HW128781   3.552   0.080   0.081 -1.7475 -0.5218  2.5437
 5715SOL    HW228782   3.441   4.731   0.017  1.1600 -0.5042 -1.6153
 5716SOL     OW28783   0.256   0.651   6.629 -0.1943  0.0899 -0.0971
 5716SOL    HW128784   0.177   0.676   6.582 -1.1268 -2.0157  0.3520
 5716SOL    HW228785   0.290   0.736   6.659 -2.0661  0.1492  1.8393
 5717SOL     OW28786   1.002   4.455   1.969 -0.3353 -0.2862 -0.1831
 5717SOL    HW128787   0.991   4.549   1.958 -0.2614 -0.3991 -1.2022
 5717SOL    HW228788   0.941   4.429   2.038 -0.2393  2.4384  0.9311
 5718SOL     OW28789   1.426   2.221   8.785  0.0454 -0.5455  0.2709
 5718SOL    HW128790   1.399   2.292   8.726 -0.4902 -0.2699  0.8484
 5718SOL    HW228791   1.518   2.243   8.798 -0.4106  1.8833 -0.4718
 5719SOL     OW28792   0.991   1.956   3.975  0.0950  0.1626 -0.1273
 5719SOL    HW128793   1.075   1.984   3.936 -0.2660  1.6458  0.1729
 5719SOL    HW228794   0.948   1.914   3.900 -0.3673 -0.3134  0.4129
 5720SOL     OW28795   2.704   3.501  14.558 -0.6407 -0.6418 -0.6699
 5720SOL    HW128796   2.688   3.408  14.572 -0.6142 -0.8397 -1.8821
 5720SOL    HW228797   2.751   3.523  14.638  1.5577  0.4544 -2.2610
 5721SOL     OW28798   4.104   2.894   7.708 -0.0195 -0.0174 -0.5443
 5721SOL    HW128799   4.098   2.883   7.613  0.9337  0.0932 -0.6199
 5721SOL    HW228800   4.086   2.988   7.713  0.8495  0.1879 -1.1815
 5722SOL     OW28801   4.109   3.922   2.229 -0.2743 -0.0074 -0.0979
 5722SOL    HW128802   4.034   3.866   2.212  0.1465  0.1027 -2.2676
 5722SOL    HW228803   4.114   3.985   2.158  0.6831 -0.8045 -0.7484
 5723SOL     OW28804   3.247   1.679   3.582  0.1558  0.2281 -0.3839
 5723SOL    HW128805   3.305   1.723   3.644 -0.7251  0.1906  0.4691
 5723SOL    HW228806   3.263   1.589   3.608  1.6909  0.5290 -0.2864
 5724SOL     OW28807   1.073   0.283   8.308 -0.5550 -0.2879  0.4700
 5724SOL    HW128808   1.139   0.315   8.245 -0.0616 -1.7927  0.2162
 5724SOL    HW228809   0.998   0.304   8.252 -0.4748 -2.0017 -0.2905
 5725SOL     OW28810   0.578   2.792  10.500  0.2892 -0.2884 -1.0666
 5725SOL    HW128811   0.620   2.819  10.582  1.6027 -2.0977 -1.1460
 5725SOL    HW228812   0.488   2.808  10.528 -1.0128 -1.7338 -4.4253
 5726SOL     OW28813   2.264   3.782   4.225  0.4158 -0.6518  0.1316
 5726SOL    HW128814   2.271   3.778   4.130 -0.4316 -0.8418  0.0777
 5726SOL    HW228815   2.354   3.773   4.257  0.8560 -1.9139 -1.4551
 5727SOL     OW28816   3.256   0.967   1.789  0.1696 -0.1361 -0.0685
 5727SOL    HW128817   3.179   0.995   1.839  0.8137  0.8935  0.3546
 5727SOL    HW228818   3.320   1.033   1.816 -1.6951  1.8127 -0.3809
 5728SOL     OW28819   0.344   4.512   7.601  0.0989  0.0617 -0.3159
 5728SOL    HW128820   0.318   4.503   7.510 -1.5181 -3.5990  0.5237
 5728SOL    HW228821   0.368   4.604   7.593 -0.8600  0.3236 -0.1749
 5729SOL     OW28822   2.856   0.385   3.840 -0.4976  0.6924 -0.4210
 5729SOL    HW128823   2.809   0.310   3.804 -1.8428  2.0847 -1.5471
 5729SOL    HW228824   2.942   0.371   3.800  0.9003 -1.5812  3.3428
 5730SOL     OW28825   1.333   2.562  15.694 -0.2103  0.0443  0.1021
 5730SOL    HW128826   1.325   2.653  15.720 -1.5466 -0.1595  0.3791
 5730SOL    HW228827   1.392   2.574  15.619 -1.8779  4.6212 -0.4752
 5731SOL     OW28828   2.335   0.602   5.599  0.3384 -0.0698  0.0749
 5731SOL    HW128829   2.249   0.562   5.608  0.2870  0.3127  1.4247
 5731SOL    HW228830   2.329   0.629   5.507  2.6262 -0.6875 -0.2374
 5732SOL     OW28831   1.839   1.302   1.498 -0.6115 -0.0547 -1.0653
 5732SOL    HW128832   1.862   1.384   1.454 -3.3719 -0.1954 -2.7903
 5732SOL    HW228833   1.924   1.262   1.514 -0.2324  0.5909 -1.4496
 5733SOL     OW28834   1.107   3.730   6.573 -0.3454  0.4054 -0.2192
 5733SOL    HW128835   1.094   3.688   6.658 -0.7114  1.3899  0.2134
 5733SOL    HW228836   1.181   3.785   6.599  0.5481  0.1187 -2.2136
 5734SOL     OW28837   4.010   1.947   3.385  0.0152  0.4199  0.0799
 5734SOL    HW128838   4.041   2.032   3.415 -0.5085  0.1090  1.5060
 5734SOL    HW228839   4.091   1.902   3.364 -1.1826 -2.1964  0.9876
 5735SOL     OW28840   1.427   3.005   5.845  0.4478  0.0029  0.2727
 5735SOL    HW128841   1.515   2.997   5.883  1.4008 -0.0170 -1.9414
 5735SOL    HW228842   1.461   2.971   5.762  1.8196  0.0971  0.7829
 5736SOL     OW28843   0.171   4.181   7.020 -0.2879 -0.0435  0.2659
 5736SOL    HW128844   0.187   4.182   7.114  0.7076  0.5335  0.0890
 5736SOL    HW228845   0.205   4.266   6.992  1.2962 -1.0891 -1.0275
 5737SOL     OW28846   2.003   0.795   3.696  0.0115  0.1714  0.2980
 5737SOL    HW128847   2.095   0.818   3.684 -0.9116  3.4462 -0.6573
 5737SOL    HW228848   1.978   0.761   3.610  1.7370  4.2995 -1.8384
 5738SOL     OW28849   4.267   1.325   7.740 -0.2953  0.6182 -0.5521
 5738SOL    HW128850   4.346   1.325   7.793 -0.4569  1.4394 -0.3097
 5738SOL    HW228851   4.202   1.291   7.803 -0.1341  3.9283  1.4256
 5739SOL     OW28852   3.130   0.876  15.895  0.0979  0.0490 -0.1416
 5739SOL    HW128853   3.143   0.966  15.867 -2.4112  0.9920  1.7614
 5739SOL    HW228854   3.080   0.901  15.972 -0.6349 -1.3574 -0.1694
 5740SOL     OW28855   3.463   2.364  17.580 -0.6799  0.8662 -0.2289
 5740SOL    HW128856   3.543   2.313  17.592 -0.5513  0.4052 -2.9599
 5740SOL    HW228857   3.400   2.302  17.543 -0.6115 -0.9171  2.7038
 5741SOL     OW28858   4.052   3.852   5.020  0.1089  0.2444 -0.3581
 5741SOL    HW128859   4.084   3.810   5.100  1.9385  0.8812 -0.7405
 5741SOL    HW228860   4.042   3.938   5.060  1.7639  1.0917 -1.7329
 5742SOL     OW28861   2.308   1.528  16.766 -0.2630  0.7184 -0.0124
 5742SOL    HW128862   2.394   1.558  16.736  0.1009  0.1820  0.4982
 5742SOL    HW228863   2.255   1.608  16.763 -0.2534  0.5951 -3.9523
 5743SOL     OW28864   4.235   0.844   6.917  0.3763 -0.2925 -0.2740
 5743SOL    HW128865   4.303   0.855   6.983 -0.7383  1.9303  0.4991
 5743SOL    HW228866   4.163   0.808   6.968  0.5593 -0.3370 -0.0478
 5744SOL     OW28867   1.597   4.681  14.469  0.6710  0.2625 -0.0739
 5744SOL    HW128868   1.650   0.002  14.416 -1.0400  0.3872 -1.6702
 5744SOL    HW228869   1.509   4.718  14.464  0.6612  0.4534  1.5045
 5745SOL     OW28870   4.008   2.677   2.769  0.0455 -0.0510  0.4517
 5745SOL    HW128871   4.047   2.589   2.769  0.5643  0.1815  0.2194
 5745SOL    HW228872   4.074   2.721   2.823 -0.8867 -0.9165  2.3015
 5746SOL     OW28873   0.191   3.082   2.839  0.4499  0.0737  0.7024
 5746SOL    HW128874   0.204   3.089   2.744 -0.4535 -1.6021  0.4502
 5746SOL    HW228875   0.225   3.169   2.859  0.3191  0.2329  0.2218
 5747SOL     OW28876   2.456   1.640   7.008  0.1890 -0.0358 -0.0339
 5747SOL    HW128877   2.366   1.641   6.975  0.3286  1.0868 -0.3506
 5747SOL    HW228878   2.483   1.723   6.968  0.1586  0.1965  0.4294
 5748SOL     OW28879   0.460   2.138   6.186  0.7144  0.3843 -0.2206
 5748SOL    HW128880   0.412   2.199   6.130  0.3159  0.7652  0.5351
 5748SOL    HW228881   0.381   2.099   6.225  0.3531  2.3336  0.9819
 5749SOL     OW28882   4.465   4.702  11.702  0.5250 -0.8697 -0.1426
 5749SOL    HW128883   4.549   4.698  11.657  1.3940  0.2366  1.3520
 5749SOL    HW228884   4.477   4.648  11.780 -1.5072 -1.3398 -0.1486
 5750SOL     OW28885   4.183   0.281   9.014  0.0326 -0.5927  0.0259
 5750SOL    HW128886   4.137   0.365   9.004 -0.1482 -0.7497 -0.4685
 5750SOL    HW228887   4.250   0.324   9.068 -0.8105 -0.3194  0.8542
 5751SOL     OW28888   1.559   4.424   8.841 -0.1016 -0.0431 -0.4829
 5751SOL    HW128889   1.568   4.517   8.821 -0.1817  0.5201  2.0221
 5751SOL    HW228890   1.498   4.440   8.913 -0.9605  0.1448 -1.2626
 5752SOL     OW28891   1.411   3.364   3.944  0.5858 -0.1199  0.6263
 5752SOL    HW128892   1.366   3.285   3.915 -1.0716  0.7882  0.7587
 5752SOL    HW228893   1.351   3.432   3.915  1.1803  0.8071  1.5219
 5753SOL     OW28894   1.922   2.421   2.658 -0.2366  0.1606 -0.4597
 5753SOL    HW128895   1.846   2.427   2.717 -0.2184 -2.1781 -0.1816
 5753SOL    HW228896   1.963   2.505   2.640  0.2778  0.6921  3.1334
 5754SOL     OW28897   2.810   0.870   7.994  0.8113  0.1007 -0.1136
 5754SOL    HW128898   2.834   0.781   8.021  0.4852  0.6411  1.9145
 5754SOL    HW228899   2.717   0.879   8.015  1.1110  0.7477  0.9556
 5755SOL     OW28900   3.134   0.063   2.225  0.8720 -0.1499 -0.0366
 5755SOL    HW128901   3.156   0.079   2.133  0.3489  1.8531  0.1897
 5755SOL    HW228902   3.160   0.148   2.260  0.1262  0.0014  0.1538
 5756SOL     OW28903   0.259   0.076   7.810  0.2306 -0.7935  0.0274
 5756SOL    HW128904   0.281   0.133   7.884 -0.6959 -1.0533  0.5090
 5756SOL    HW228905   0.190   0.026   7.853  0.0048 -0.6119 -0.1227
 5757SOL     OW28906   0.296   4.183  17.533 -0.1936  0.1250 -0.0692
 5757SOL    HW128907   0.384   4.149  17.518  0.1757  0.4606  1.2596
 5757SOL    HW228908   0.333   4.252  17.588 -0.4094 -0.0010  0.2383
 5758SOL     OW28909   4.731   3.944   0.705  0.1047 -0.5058 -0.0865
 5758SOL    HW128910   4.684   3.861   0.701 -0.9189  0.0901 -0.2707
 5758SOL    HW228911   4.655   4.001   0.694  1.1280  0.4961 -1.9871
 5759SOL     OW28912   0.807   2.735   5.558  0.0614 -0.2663  0.1251
 5759SOL    HW128913   0.777   2.823   5.533  0.1121 -0.2588  0.0926
 5759SOL    HW228914   0.791   2.752   5.652  0.1142 -0.8251  0.2313
 5760SOL     OW28915   0.095   0.560   7.149 -0.2850  0.0932 -0.3412
 5760SOL    HW128916   0.121   0.581   7.059  1.6505  1.0211  0.4342
 5760SOL    HW228917   0.006   0.526   7.145  0.4135 -1.8997  1.4214
 5761SOL     OW28918   4.584   3.363   5.583 -0.1172 -0.0819  0.5225
 5761SOL    HW128919   4.533   3.292   5.622  0.2751 -0.1277  0.9449
 5761SOL    HW228920   4.512   3.418   5.552 -0.3830 -0.6282  0.1578
 5762SOL     OW28921   4.243   3.823   3.460 -0.5413 -0.2547 -0.1537
 5762SOL    HW128922   4.251   3.770   3.381  1.6910 -1.2453  0.7421
 5762SOL    HW228923   4.208   3.904   3.424  2.4383  1.0942 -0.0324
 5763SOL     OW28924   0.506   0.616  17.574 -0.5423  0.0336  0.1276
 5763SOL    HW128925   0.497   0.540  17.632 -1.4398 -0.3985 -0.5825
 5763SOL    HW228926   0.416   0.651  17.572 -0.7720 -0.6639 -1.7541
 5764SOL     OW28927   3.119   2.764   3.834  0.0448 -0.2153  0.1391
 5764SOL    HW128928   3.028   2.793   3.829 -0.1388 -0.3649  2.4661
 5764SOL    HW228929   3.153   2.788   3.748  0.8990  0.1023  0.5612
 5765SOL     OW28930   1.216   0.909   9.961  0.1754  0.4612 -0.4205
 5765SOL    HW128931   1.274   0.839   9.932 -0.5559 -0.5142  0.4390
 5765SOL    HW228932   1.190   0.946   9.877  0.9682  1.5431 -0.1949
 5766SOL     OW28933   1.974   4.164   6.797  0.0911 -0.7477  0.3654
 5766SOL    HW128934   1.945   4.167   6.888  1.1876 -0.0401  0.6879
 5766SOL    HW228935   1.999   4.073   6.783 -2.8512 -1.5068  0.0813
 5767SOL     OW28936   4.522   2.018  17.361 -0.4024 -0.1222  0.4705
 5767SOL    HW128937   4.573   2.099  17.366 -0.2101 -0.2886  1.2476
 5767SOL    HW228938   4.532   1.986  17.272  1.3321  0.8457  0.3250
 5768SOL     OW28939   3.399   1.656  17.716 -0.2226 -0.7016 -0.3139
 5768SOL    HW128940   3.488   1.677  17.687 -1.7054  4.1747 -1.2443
 5768SOL    HW228941   3.400   1.671   0.058 -2.6644 -1.6994 -0.1326
 5769SOL     OW28942   2.184   4.477  16.001  0.1032  0.1288 -0.2542
 5769SOL    HW128943   2.237   4.445  15.928 -0.4121  0.2481 -0.6730
 5769SOL    HW228944   2.176   4.572  15.991  1.1895  0.4571  1.8612
 5770SOL     OW28945   3.796   0.251   9.570 -0.0846  0.1615  0.0226
 5770SOL    HW128946   3.843   0.181   9.616  0.6392  1.2981  1.0126
 5770SOL    HW228947   3.725   0.270   9.631  0.6080 -0.6388  1.0863
 5771SOL     OW28948   0.499   4.480   8.154 -0.1384  0.5480 -0.1865
 5771SOL    HW128949   0.481   4.483   8.060  3.8166 -2.6282 -1.0401
 5771SOL    HW228950   0.593   4.493   8.160 -0.5018  2.0128  2.5834
 5772SOL     OW28951   4.039   0.790   3.461 -0.0436 -0.4154  0.4058
 5772SOL    HW128952   4.123   0.769   3.501  0.6514  0.5139 -0.5914
 5772SOL    HW228953   3.991   0.809   3.542 -1.4934 -0.4987 -0.4199
 5773SOL     OW28954   1.415   3.122   7.511  0.0985  0.3053 -0.1840
 5773SOL    HW128955   1.493   3.072   7.487  0.5529  1.4956 -1.1728
 5773SOL    HW228956   1.455   3.191   7.564 -2.1460  0.4181  1.3466
 5774SOL     OW28957   3.241   1.212   5.516 -0.6153 -0.8963 -0.4192
 5774SOL    HW128958   3.264   1.185   5.605  0.1837 -3.1852 -1.3160
 5774SOL    HW228959   3.146   1.218   5.522 -0.6408 -1.5853 -0.1576
 5775SOL     OW28960   3.401   0.462   8.387  0.7805  0.1616  0.7735
 5775SOL    HW128961   3.442   0.488   8.470  0.6056  1.1290  0.5561
 5775SOL    HW228962   3.329   0.412   8.426 -0.0410  2.2679  1.9891
 5776SOL     OW28963   3.173   2.023   6.908  0.0241  0.1749 -0.1459
 5776SOL    HW128964   3.129   2.054   6.987 -0.4857 -1.6301  0.2834
 5776SOL    HW228965   3.112   1.957   6.873 -1.1740  1.7059 -0.9418
 5777SOL     OW28966   2.220   2.497   1.207 -0.2622 -0.3637  0.4192
 5777SOL    HW128967   2.231   2.445   1.286  0.9763  1.2334  1.3079
 5777SOL    HW228968   2.166   2.442   1.151  0.3135 -1.1624  0.6526
 5778SOL     OW28969   3.078   1.896   6.286 -0.7403 -0.0418  0.0398
 5778SOL    HW128970   3.049   1.806   6.272  0.8235 -0.9079  2.5132
 5778SOL    HW228971   3.143   1.918   6.219 -1.1515  1.8382  0.2664
 5779SOL     OW28972   4.078   1.883   9.332 -0.4710 -0.8096 -0.3417
 5779SOL    HW128973   4.127   1.887   9.249 -0.3466  1.1895 -0.1523
 5779SOL    HW228974   4.022   1.960   9.338  2.3655  1.1592  0.3667
 5780SOL     OW28975   2.777   3.873   5.041  0.3597  0.0914 -0.0371
 5780SOL    HW128976   2.804   3.953   5.086 -2.5702 -0.4699  2.7864
 5780SOL    HW228977   2.789   3.897   4.949  0.2724  1.0414  0.1970
 5781SOL     OW28978   1.530   4.417   7.245  0.0300  0.3070  0.0320
 5781SOL    HW128979   1.446   4.383   7.215 -0.2878  1.1929 -0.1088
 5781SOL    HW228980   1.500   4.491   7.298 -0.8034 -1.1566  1.5914
 5782SOL     OW28981   4.473   3.026   9.102  0.8189 -0.6767 -0.2409
 5782SOL    HW128982   4.382   3.003   9.080  0.1690 -0.4741  2.1686
 5782SOL    HW228983   4.488   2.967   9.176  3.5083 -1.3841 -1.3896
 5783SOL     OW28984   4.644   4.012   5.189  0.1915  0.2090  0.0037
 5783SOL    HW128985   4.656   3.971   5.103 -0.1141  0.2605 -0.0635
 5783SOL    HW228986   4.722   3.987   5.238  0.1733  0.5950  0.2272
 5784SOL     OW28987   0.986   2.551   5.483  0.0011  0.8399 -0.2082
 5784SOL    HW128988   0.933   2.614   5.531 -0.1848  0.8680 -0.4486
 5784SOL    HW228989   1.073   2.588   5.497  0.3022 -1.0464  2.9200
 5785SOL     OW28990   0.421   1.755   9.221  0.1631  0.2810  0.0223
 5785SOL    HW128991   0.513   1.747   9.247 -0.2134  1.0382  1.6023
 5785SOL    HW228992   0.428   1.831   9.164 -1.3125 -0.8615 -1.6582
 5786SOL     OW28993   3.183   4.449   5.337 -0.5380 -0.0216  0.0185
 5786SOL    HW128994   3.212   4.536   5.308  2.3874 -0.6769  1.0084
 5786SOL    HW228995   3.196   4.458   5.431 -0.5545 -0.5910  0.0756
 5787SOL     OW28996   1.095   0.976  15.848  0.2777 -0.4673 -0.2331
 5787SOL    HW128997   1.116   0.892  15.889  0.0796 -0.7840 -0.7824
 5787SOL    HW228998   1.032   0.951  15.781 -0.4565 -1.4320  0.8217
 5788SOL     OW28999   2.923   4.349  12.271  0.6385 -0.0051  0.3310
 5788SOL    HW129000   2.995   4.298  12.235 -0.1408 -0.5252 -0.4780
 5788SOL    HW229001   2.952   4.355  12.362  0.5933  1.1127  0.2740
 5789SOL     OW29002   1.716   1.157   8.458  0.4428 -0.1466  0.5219
 5789SOL    HW129003   1.692   1.189   8.371  0.4021 -0.5062  0.4032
 5789SOL    HW229004   1.782   1.092   8.434 -0.2744 -0.4452 -0.6303
 5790SOL     OW29005   0.599   1.884   3.489 -0.2262  0.2156 -0.6395
 5790SOL    HW129006   0.519   1.873   3.540 -1.8990  2.1360 -2.8543
 5790SOL    HW229007   0.629   1.970   3.516 -0.1464 -0.2521  0.7641
 5791SOL     OW29008   4.244   2.090   6.139 -0.1352  0.4432 -0.0652
 5791SOL    HW129009   4.183   2.087   6.213 -1.7247 -0.8219 -1.4144
 5791SOL    HW229010   4.195   2.143   6.076  0.6160  0.1522 -0.8859
 5792SOL     OW29011   0.719   4.273   4.414 -0.2319 -0.6826 -0.7324
 5792SOL    HW129012   0.802   4.267   4.461  1.0360  2.5029 -2.5422
 5792SOL    HW229013   0.727   4.354   4.364  0.9560 -2.9142 -4.1818
 5793SOL     OW29014   4.690   1.579   5.313  0.5979 -0.3810 -0.5354
 5793SOL    HW129015   4.680   1.595   5.407  3.3315  2.4561 -0.7173
 5793SOL    HW229016   0.047   1.589   5.305  0.6078 -0.4477 -0.5028
 5794SOL     OW29017   2.604   2.627   5.285  0.3586  0.3314  0.3543
 5794SOL    HW129018   2.543   2.660   5.221 -0.8579  1.0831  1.9065
 5794SOL    HW229019   2.555   2.602   5.363  0.1457 -1.3600 -0.3272
 5795SOL     OW29020   4.163   2.282   3.722  0.0767 -0.1379 -0.1227
 5795SOL    HW129021   4.247   2.285   3.677  0.5833 -0.9923  0.7824
 5795SOL    HW229022   4.189   2.286   3.814 -2.2110 -0.5608  0.5351
 5796SOL     OW29023   3.250   1.693   6.389  0.2003  0.1013 -0.0722
 5796SOL    HW129024   3.174   1.641   6.362  0.9529 -0.6235 -0.7834
 5796SOL    HW229025   3.205   1.777   6.398  0.6958  0.1897  1.7259
 5797SOL     OW29026   3.520   2.288  10.859 -0.0398  0.2019 -0.3198
 5797SOL    HW129027   3.428   2.267  10.876 -0.6725  1.7872 -1.7919
 5797SOL    HW229028   3.559   2.335  10.932 -1.2525  0.9723 -0.1748
 5798SOL     OW29029   4.044   3.017   5.401 -0.2080  0.1266  0.3487
 5798SOL    HW129030   4.054   2.998   5.308 -0.2510 -1.2188  0.6132
 5798SOL    HW229031   4.131   3.047   5.427 -0.5669 -0.8403  2.7296
 5799SOL     OW29032   4.238   1.986  15.718  0.0269 -0.1886 -0.2080
 5799SOL    HW129033   4.235   2.073  15.677 -0.6203 -0.7024 -1.2461
 5799SOL    HW229034   4.293   1.930  15.664  0.8320  3.0779 -2.7969
 5800SOL     OW29035   2.298   2.796  12.282  0.3433  0.0784  0.1809
 5800SOL    HW129036   2.368   2.832  12.338  0.7348  1.0232 -0.9123
 5800SOL    HW229037   2.259   2.743  12.352  1.4515  0.7457  1.3088
 5801SOL     OW29038   2.541   0.615   8.205  0.2466  0.0133  0.3376
 5801SOL    HW129039   2.619   0.560   8.211 -0.9271 -1.5621  1.0417
 5801SOL    HW229040   2.500   0.609   8.291  1.2315  2.3015  0.9797
 5802SOL     OW29041   1.962   0.572  16.311 -0.3191  0.0568  0.3858
 5802SOL    HW129042   1.926   0.576  16.223  0.8132  1.5899 -0.0101
 5802SOL    HW229043   2.054   0.594  16.295 -0.8495  0.5713 -1.9034
 5803SOL     OW29044   4.376   2.881   2.487  0.1519  0.5772 -0.3319
 5803SOL    HW129045   4.365   2.916   2.575 -1.0108 -0.4134 -0.0895
 5803SOL    HW229046   4.458   2.922   2.458  1.1708 -1.3927 -0.2755
 5804SOL     OW29047   1.536   4.691  13.996  0.3589 -0.4653  0.0810
 5804SOL    HW129048   1.546   4.596  13.997  1.4434 -0.3526 -0.4577
 5804SOL    HW229049   1.548   4.709  13.903 -0.2303 -0.9650 -0.0920
 5805SOL     OW29050   0.649   2.759   4.520  0.2450  0.3674 -0.3613
 5805SOL    HW129051   0.566   2.718   4.494  0.6285  0.2023 -1.3490
 5805SOL    HW229052   0.697   2.765   4.437 -0.1953 -0.7182 -0.6997
 5806SOL     OW29053   0.590   4.114   5.096  0.1160 -0.1519  0.5904
 5806SOL    HW129054   0.559   4.027   5.121 -3.0012  1.0899  1.0478
 5806SOL    HW229055   0.547   4.116   5.010 -0.7557  0.6610  1.0447
 5807SOL     OW29056   0.469   1.510   2.205  0.2466 -0.7114 -0.1853
 5807SOL    HW129057   0.448   1.424   2.167 -1.6851  0.6195 -2.1378
 5807SOL    HW229058   0.430   1.493   2.291  2.5519 -3.0923  0.4124
 5808SOL     OW29059   3.296   3.249   3.445 -0.0861 -0.2221  0.1802
 5808SOL    HW129060   3.290   3.207   3.359  1.0706  0.7963 -0.3982
 5808SOL    HW229061   3.312   3.173   3.500 -1.2479 -0.8797 -0.3926
 5809SOL     OW29062   3.308   1.065  11.746  0.5024  0.9825  0.1014
 5809SOL    HW129063   3.333   1.052  11.655 -1.4936 -1.3513 -0.1104
 5809SOL    HW229064   3.221   1.025  11.749 -0.1924  2.5622  1.0692
 5810SOL     OW29065   0.291   4.592   9.861 -0.0209  0.3163  0.0595
 5810SOL    HW129066   0.327   4.677   9.834  1.7252 -0.5552 -0.3670
 5810SOL    HW229067   0.321   4.611   9.949 -2.1424  0.1174  0.8316
 5811SOL     OW29068   1.412   4.696   3.141  0.4546  0.0788  0.2038
 5811SOL    HW129069   1.436   4.612   3.180  2.8083 -0.6389 -2.7790
 5811SOL    HW229070   1.499   4.735   3.149 -0.6999  2.9600 -1.1807
 5812SOL     OW29071   1.663   0.863  15.043  0.3656  0.0816  0.1007
 5812SOL    HW129072   1.712   0.902  14.970 -1.1060  2.7181  0.5223
 5812SOL    HW229073   1.734   0.819  15.089  0.8450  3.0613  2.1659
 5813SOL     OW29074   0.334   1.058   8.676  0.2352  0.0910  0.3602
 5813SOL    HW129075   0.276   1.012   8.736  0.4050  0.3345  0.7170
 5813SOL    HW229076   0.279   1.079   8.601 -0.2257  0.5853  0.8371
 5814SOL     OW29077   2.802   2.756   1.533  0.1705 -0.8672  0.3242
 5814SOL    HW129078   2.885   2.796   1.506  0.2541 -2.4954 -1.7959
 5814SOL    HW229079   2.819   2.756   1.627 -0.5255 -0.3890  0.4495
 5815SOL     OW29080   1.556   4.632   7.672 -0.3594 -0.0381 -0.6082
 5815SOL    HW129081   1.600   4.712   7.701 -0.7751 -0.4345  1.1373
 5815SOL    HW229082   1.617   4.567   7.706 -0.2020 -0.0825 -0.9803
 5816SOL     OW29083   2.522   2.930   4.134  0.0059  0.1809  0.0165
 5816SOL    HW129084   2.479   2.847   4.156 -1.4221  0.9648  0.1571
 5816SOL    HW229085   2.518   2.923   4.039  0.7852 -1.4760  0.1006
 5817SOL     OW29086   2.143   2.722   3.564  0.2027 -0.4631 -0.3471
 5817SOL    HW129087   2.106   2.691   3.482  1.3074  0.5106 -1.2217
 5817SOL    HW229088   2.171   2.810   3.537 -1.1661  0.1530  0.1989
 5818SOL     OW29089   1.027   4.030   4.363 -0.2586 -0.3107  0.0195
 5818SOL    HW129090   1.083   3.953   4.360 -0.8945 -0.8067  0.5954
 5818SOL    HW229091   1.038   4.057   4.454 -0.2404  0.3214 -0.1698
 5819SOL     OW29092   2.634   2.040   4.928 -0.2709  0.1122  0.2395
 5819SOL    HW129093   2.684   2.119   4.908 -1.2284  0.1024 -2.2095
 5819SOL    HW229094   2.649   2.029   5.021 -3.4960  0.0520  0.7497
 5820SOL     OW29095   4.292   2.444   6.396  0.2871  0.0992 -0.4276
 5820SOL    HW129096   4.201   2.472   6.397  0.7983  1.6685  1.2811
 5820SOL    HW229097   4.279   2.365   6.448  0.5976 -0.8465 -1.7711
 5821SOL     OW29098   4.095   0.773   0.298 -0.1971 -0.0583  0.2556
 5821SOL    HW129099   4.072   0.708   0.363 -0.5164 -0.9543 -0.7496
 5821SOL    HW229100   4.079   0.856   0.344  1.2611  0.1895  0.3190
 5822SOL     OW29101   1.084   1.110   9.160  0.1442  0.4550 -0.5402
 5822SOL    HW129102   1.104   1.154   9.243  0.5043 -1.0161  0.1348
 5822SOL    HW229103   1.127   1.159   9.089 -0.0650 -1.5598 -2.0487
 5823SOL     OW29104   1.715   2.918   0.300 -0.2229  0.1716 -0.3404
 5823SOL    HW129105   1.698   3.003   0.340 -2.4142 -0.4085 -0.0490
 5823SOL    HW229106   1.781   2.931   0.231 -1.1589  0.0205 -1.2719
 5824SOL     OW29107   2.964   0.795  11.102 -0.4685 -0.2191  0.2885
 5824SOL    HW129108   2.970   0.826  11.012 -1.8045  1.3139  0.7307
 5824SOL    HW229109   3.045   0.745  11.112  0.3059  1.0129  0.2201
 5825SOL     OW29110   3.801   2.202  14.633 -0.1302  0.4159 -0.5384
 5825SOL    HW129111   3.790   2.263  14.705 -1.2856  0.6687 -0.9235
 5825SOL    HW229112   3.896   2.187  14.631  0.0733  1.6580  0.4541
 5826SOL     OW29113   3.484   3.353   1.697 -1.1578  0.1168  0.1357
 5826SOL    HW129114   3.436   3.393   1.770 -2.0015 -1.0129  0.2172
 5826SOL    HW229115   3.489   3.266   1.737 -1.8938 -0.4682 -1.0474
 5827SOL     OW29116   0.386   2.808  13.542  0.5233  0.3924 -0.0970
 5827SOL    HW129117   0.459   2.764  13.497 -1.5749 -1.7790 -1.3980
 5827SOL    HW229118   0.372   2.746  13.613 -0.2724  2.3239  1.4231
 5828SOL     OW29119   4.442   2.563   3.500 -0.6025 -0.0769 -0.0593
 5828SOL    HW129120   4.360   2.607   3.521  0.1893  0.8749  0.9981
 5828SOL    HW229121   4.509   2.628   3.520  0.0370 -0.8399  0.3092
 5829SOL     OW29122   1.271   1.158   7.129 -1.1434  0.7132  0.5363
 5829SOL    HW129123   1.239   1.160   7.039 -1.2201 -2.1643  0.5037
 5829SOL    HW229124   1.265   1.249   7.160 -2.1307  0.7327  0.2810
 5830SOL     OW29125   0.773   2.053  16.036  0.3560 -0.6611 -0.1367
 5830SOL    HW129126   0.860   2.015  16.021  1.0706  0.4723  1.0871
 5830SOL    HW229127   0.726   1.987  16.087 -1.2128  1.1237  0.7510
 5831SOL     OW29128   4.052   3.656  14.201 -0.5465 -0.3661  0.2434
 5831SOL    HW129129   4.119   3.713  14.240 -1.5993  0.7791  0.3601
 5831SOL    HW229130   4.049   3.670  14.106 -2.1288 -2.9588 -0.0992
 5832SOL     OW29131   0.552   1.492   3.689 -0.4737  0.4246  0.3209
 5832SOL    HW129132   0.491   1.561   3.717 -0.7206 -0.2880  1.5337
 5832SOL    HW229133   0.607   1.551   3.637  0.5085 -1.1315 -0.3913
 5833SOL     OW29134   0.468   1.851  13.315  1.1306  0.2436  0.6881
 5833SOL    HW129135   0.551   1.831  13.358 -0.2125 -1.9635  2.2811
 5833SOL    HW229136   0.452   1.769  13.268  0.9018  0.9503 -0.4766
 5834SOL     OW29137   0.441   4.631   4.118 -0.7730  0.1509  0.1069
 5834SOL    HW129138   0.484   4.715   4.133  0.6371 -0.3140 -1.2995
 5834SOL    HW229139   0.372   4.653   4.055 -2.0006  1.8219  2.0382
 5835SOL     OW29140   2.497   1.340  16.849  0.1492 -0.0865  0.0098
 5835SOL    HW129141   2.418   1.393  16.840  0.1714  0.6019  4.0195
 5835SOL    HW229142   2.481   1.297  16.765  0.3498 -0.9133  0.4015
 5836SOL     OW29143   2.333   0.438  15.827 -0.3618 -0.0204  0.5424
 5836SOL    HW129144   2.422   0.460  15.853 -0.8785 -0.0013  2.3109
 5836SOL    HW229145   2.286   0.477  15.901  0.7584  0.8647  0.7665
 5837SOL     OW29146   0.109   2.701  13.469  0.0223  0.3306  0.2145
 5837SOL    HW129147   0.175   2.769  13.453 -0.3563  1.1466  2.1587
 5837SOL    HW229148   0.033   2.721  13.415  0.7044 -0.2014 -0.9612
 5838SOL     OW29149   4.597   0.237   0.577  0.5300  0.2382 -0.3728
 5838SOL    HW129150   4.544   0.206   0.504  0.3401 -1.4786  0.4735
 5838SOL    HW229151   4.641   0.157   0.606  1.0693  0.9662  0.8052
 5839SOL     OW29152   2.290   1.982   4.901 -0.2953  0.1781 -0.2013
 5839SOL    HW129153   2.208   2.026   4.925 -0.7877  0.5779 -2.5968
 5839SOL    HW229154   2.339   2.059   4.871  1.5323 -1.0836 -0.4244
 5840SOL     OW29155   2.639   0.378   8.480  0.4213 -0.4117 -0.0196
 5840SOL    HW129156   2.655   0.413   8.393 -0.2651  1.4647  0.6199
 5840SOL    HW229157   2.726   0.360   8.516 -0.1460 -2.4569  0.3417
 5841SOL     OW29158   0.265   2.882   3.639  0.5800 -0.9758  0.3654
 5841SOL    HW129159   0.358   2.884   3.661  0.5968 -1.2875  0.3188
 5841SOL    HW229160   0.234   2.970   3.661  0.1929 -0.8266 -0.7937
 5842SOL     OW29161   3.447   3.524  14.786  0.2381  0.5634 -0.1223
 5842SOL    HW129162   3.405   3.566  14.712 -1.5129  2.9622  2.2178
 5842SOL    HW229163   3.440   3.433  14.756  0.1516  1.1292 -1.8145
 5843SOL     OW29164   2.022   0.599   8.585  0.6399  0.5165 -0.2736
 5843SOL    HW129165   1.930   0.573   8.581  0.9259 -0.9677  2.5340
 5843SOL    HW229166   2.034   0.596   8.680 -0.8273 -1.0074 -0.1249
 5844SOL     OW29167   4.501   1.485   4.001  0.1048 -0.3777  0.0285
 5844SOL    HW129168   4.546   1.402   4.019 -0.2596 -0.8140 -1.0868
 5844SOL    HW229169   4.499   1.517   4.091 -1.0640 -2.7562  0.8588
 5845SOL     OW29170   3.459   2.830   1.162  0.2786  0.4303  0.3374
 5845SOL    HW129171   3.508   2.903   1.123  1.0972  0.2190  0.9688
 5845SOL    HW229172   3.491   2.817   1.251 -0.3148 -0.2603  0.4472
 5846SOL     OW29173   1.577   2.735   4.765  0.6082 -0.6059  0.0379
 5846SOL    HW129174   1.635   2.764   4.694 -0.0228  0.1229 -0.1772
 5846SOL    HW229175   1.597   2.792   4.839  1.4101  0.4072 -0.9433
 5847SOL     OW29176   0.321   3.947   6.765 -0.6033 -0.9731 -0.3096
 5847SOL    HW129177   0.287   4.029   6.728  1.7033 -0.1457 -0.6010
 5847SOL    HW229178   0.416   3.952   6.752 -0.7839 -1.6200 -1.8535
 5848SOL     OW29179   3.527   1.620   9.922 -0.4292 -0.3808 -0.2597
 5848SOL    HW129180   3.584   1.580   9.987  0.6803  1.8532  0.1400
 5848SOL    HW229181   3.591   1.655   9.859 -1.0958 -0.1524 -0.8059
 5849SOL     OW29182   2.722   2.071   4.306 -0.3179  0.3563  0.3545
 5849SOL    HW129183   2.809   2.078   4.266 -0.9847  2.6200 -0.7298
 5849SOL    HW229184   2.730   2.156   4.349 -2.8312  1.0461 -0.5125
 5850SOL     OW29185   1.202   1.549  14.429  0.6638 -0.2996  0.2477
 5850SOL    HW129186   1.168   1.547  14.519 -2.6850  0.2584 -1.0170
 5850SOL    HW229187   1.150   1.621  14.393  1.8642 -0.4619 -1.8176
 5851SOL     OW29188   4.707   2.844  10.836 -0.3052 -0.5732  0.2110
 5851SOL    HW129189   0.058   2.854  10.803 -0.8682 -1.6313 -1.6622
 5851SOL    HW229190   4.659   2.890  10.767 -0.0248 -0.2155  0.2516
 5852SOL     OW29191   1.786   1.421   3.307  0.2248  0.1766 -0.3623
 5852SOL    HW129192   1.830   1.442   3.224  0.0260  0.7999 -0.3105
 5852SOL    HW229193   1.847   1.364   3.354  0.2704  0.9048  0.4633
 5853SOL     OW29194   0.276   3.798   5.116 -0.0546 -0.0317 -0.0683
 5853SOL    HW129195   0.181   3.795   5.129  0.0834 -2.6170  0.4389
 5853SOL    HW229196   0.282   3.808   5.022 -0.1843  0.4718 -0.0186
 5854SOL     OW29197   2.980   0.808   4.266 -0.0017 -0.4770 -0.4909
 5854SOL    HW129198   2.928   0.744   4.217 -2.2500  1.1165 -0.2019
 5854SOL    HW229199   2.995   0.769   4.352  1.3843 -1.6800 -1.2795
 5855SOL     OW29200   0.961   4.240  10.537 -0.6305 -0.1971 -0.4877
 5855SOL    HW129201   0.931   4.236  10.627 -0.7679 -2.0832 -0.6116
 5855SOL    HW229202   1.043   4.286  10.553 -1.5014  1.6637 -1.3939
 5856SOL     OW29203   1.268   0.651   8.706  0.5212 -0.0486  0.0719
 5856SOL    HW129204   1.212   0.674   8.780 -1.5538  0.1182 -1.5728
 5856SOL    HW229205   1.350   0.664   8.753  0.4822  1.1480 -0.1928
 5857SOL     OW29206   4.124   0.634   7.990 -0.5815  0.1106  0.0531
 5857SOL    HW129207   4.035   0.610   8.015 -0.4745 -1.3765 -0.9587
 5857SOL    HW229208   4.166   0.549   7.999 -0.1630  0.4492  1.2428
 5858SOL     OW29209   4.524   3.712   2.287  0.2192  0.4793  0.7825
 5858SOL    HW129210   4.614   3.687   2.264  0.2626 -0.4025  1.9355
 5858SOL    HW229211   4.502   3.774   2.217 -0.3316  1.2759  1.6702
 5859SOL     OW29212   4.501   4.563   4.534  0.0835  0.0370 -0.2756
 5859SOL    HW129213   4.579   4.604   4.573 -0.4635  1.1185 -0.3285
 5859SOL    HW229214   4.513   4.480   4.581  0.2652 -0.2583 -0.8404
 5860SOL     OW29215   1.906   3.554   1.840 -0.2953 -0.2377 -0.5979
 5860SOL    HW129216   1.853   3.631   1.857  0.2068  0.4286 -2.0309
 5860SOL    HW229217   1.925   3.514   1.924  2.2459  2.1018 -0.0530
 5861SOL     OW29218   2.775   2.428   1.984 -0.6816 -0.2510 -0.2589
 5861SOL    HW129219   2.747   2.479   2.060 -0.5764  0.6895 -0.8502
 5861SOL    HW229220   2.784   2.342   2.024  0.3037 -0.6874 -1.4013
 5862SOL     OW29221   1.923   1.565   5.654  0.1110  0.2403  0.6168
 5862SOL    HW129222   1.983   1.633   5.624 -0.1428  0.5453  0.8064
 5862SOL    HW229223   1.925   1.576   5.749  1.1792  1.4124  0.4638
 5863SOL     OW29224   1.422   3.033  15.812  0.1151 -0.1157  0.5235
 5863SOL    HW129225   1.369   2.956  15.794 -0.6775  0.0156  2.3089
 5863SOL    HW229226   1.482   3.025  15.737 -0.7851 -1.5835 -0.0311
 5864SOL     OW29227   1.385   0.416   1.135  0.4692  0.4418  0.3862
 5864SOL    HW129228   1.307   0.376   1.174 -0.4580  2.0612  0.1820
 5864SOL    HW229229   1.387   0.507   1.163  1.7326  0.2508  0.9458
 5865SOL     OW29230   0.280   1.943  14.262 -0.0517  0.2457  0.5660
 5865SOL    HW129231   0.285   2.018  14.322 -0.8461 -0.1007  1.0571
 5865SOL    HW229232   0.352   1.966  14.204  0.7108  0.8985  1.7448
 5866SOL     OW29233   2.319   4.037   3.756  0.0917 -0.1091  0.5547
 5866SOL    HW129234   2.325   4.132   3.770 -0.3847 -0.1067  0.7576
 5866SOL    HW229235   2.227   4.011   3.756  0.2244 -0.5664 -0.6747
 5867SOL     OW29236   2.764   3.060   8.860  0.4347 -0.3195  0.4001
 5867SOL    HW129237   2.730   3.068   8.949 -2.9209  0.8357 -0.9655
 5867SOL    HW229238   2.684   3.081   8.811 -0.3038  1.0547  2.1807
 5868SOL     OW29239   0.971   4.113  13.170 -0.5606 -0.2910 -0.2309
 5868SOL    HW129240   0.941   4.022  13.163  0.3777 -0.7653  1.8572
 5868SOL    HW229241   0.883   4.148  13.183 -0.5517  0.0009 -0.9768
 5869SOL     OW29242   3.032   4.321   3.061 -0.0598 -0.0685 -0.2359
 5869SOL    HW129243   3.065   4.284   2.980 -1.2491 -0.1392 -0.6842
 5869SOL    HW229244   2.940   4.313   3.036 -0.5422  0.1283  1.4844
 5870SOL     OW29245   4.264   2.718   3.266  0.0627  0.0096  0.0910
 5870SOL    HW129246   4.226   2.654   3.205 -0.7011 -0.5314  1.1455
 5870SOL    HW229247   4.236   2.689   3.353 -0.2839  0.5709  0.1611
 5871SOL     OW29248   3.028   1.187  13.301  0.2071 -0.3274 -0.2923
 5871SOL    HW129249   2.965   1.246  13.261  1.1775  1.9527  1.5940
 5871SOL    HW229250   2.985   1.102  13.285  0.3035 -1.1256  3.8148
 5872SOL     OW29251   3.929   1.964   4.976 -0.3242  0.3311 -0.1494
 5872SOL    HW129252   3.936   2.056   5.002  1.3656 -0.2374  1.3881
 5872SOL    HW229253   3.889   1.915   5.049  2.3792 -2.1149 -0.3428
 5873SOL     OW29254   2.269   4.651   4.210  0.0425  0.9530  0.0578
 5873SOL    HW129255   2.238   4.717   4.149 -0.3997 -0.6931 -1.4971
 5873SOL    HW229256   2.185   4.606   4.220  0.6561 -0.3507 -0.5176
 5874SOL     OW29257   2.240   1.517   7.512 -0.2307 -0.2959  0.4313
 5874SOL    HW129258   2.163   1.508   7.456 -1.1047  0.3688  1.5398
 5874SOL    HW229259   2.277   1.429   7.517  1.8492  0.5369 -0.5597
 5875SOL     OW29260   1.937   3.908   8.575  0.5185 -0.3552 -0.1128
 5875SOL    HW129261   1.912   4.000   8.578  0.8237 -0.2519 -0.6198
 5875SOL    HW229262   1.847   3.876   8.579 -0.6499  2.9653 -0.3150
 5876SOL     OW29263   2.799   1.380  13.437  0.1123 -0.2502  0.0835
 5876SOL    HW129264   2.807   1.329  13.518 -1.7645 -1.1683 -0.3078
 5876SOL    HW229265   2.756   1.319  13.376  0.4407  0.3029 -0.6929
 5877SOL     OW29266   2.560   1.571   9.335 -0.6422  0.2774 -0.5477
 5877SOL    HW129267   2.620   1.545   9.266 -0.4313  0.2056 -0.3367
 5877SOL    HW229268   2.616   1.531   9.402  1.1687  3.1881 -0.3284
 5878SOL     OW29269   3.506   3.847   5.230  0.4043 -0.0283  0.1503
 5878SOL    HW129270   3.445   3.777   5.252  0.5103 -0.4389 -0.8458
 5878SOL    HW229271   3.557   3.849   5.310 -0.4464  1.9604  0.6269
 5879SOL     OW29272   3.892   1.650   9.283  0.9841 -0.2571 -0.8020
 5879SOL    HW129273   3.942   1.730   9.299 -0.6607  0.3139  1.3531
 5879SOL    HW229274   3.961   1.598   9.242  0.7436  0.7154 -2.4480
 5880SOL     OW29275   3.863   3.086   3.989 -0.2527 -0.3044  0.2567
 5880SOL    HW129276   3.779   3.042   3.980 -0.2130 -0.7289  1.8681
 5880SOL    HW229277   3.890   3.089   3.898 -0.5214 -0.0596  0.1853
 5881SOL     OW29278   2.524   2.567  17.148 -0.4201  0.0177 -0.2241
 5881SOL    HW129279   2.599   2.627  17.152 -0.1122 -0.4895  1.6245
 5881SOL    HW229280   2.479   2.602  17.071 -0.3107 -0.0332 -0.3119
 5882SOL     OW29281   3.543   0.203   2.959  0.2503 -0.2576  0.1106
 5882SOL    HW129282   3.464   0.203   2.906  1.5555  0.7098 -1.8145
 5882SOL    HW229283   3.517   0.280   3.009  0.7490 -0.4424  0.6542
 5883SOL     OW29284   3.337   2.709   8.891 -0.1505 -0.5742  0.1328
 5883SOL    HW129285   3.382   2.656   8.956  0.1263 -1.3915 -0.7226
 5883SOL    HW229286   3.361   2.657   8.814 -3.8504 -0.5376 -1.0344
 5884SOL     OW29287   1.671   4.133   8.356  0.4104  0.0950  0.7349
 5884SOL    HW129288   1.656   4.083   8.436 -1.7620  0.0438  0.3139
 5884SOL    HW229289   1.708   4.212   8.396  0.2027  0.2933  0.5363
 5885SOL     OW29290   2.621   4.596  12.483  0.6359  0.5666 -0.0725
 5885SOL    HW129291   2.552   4.656  12.454 -0.9965 -1.0161  0.5258
 5885SOL    HW229292   2.566   4.520  12.501 -2.5220  2.0729 -3.4473
 5886SOL     OW29293   2.109   3.695  17.570  0.2306  0.5506  0.3141
 5886SOL    HW129294   2.136   3.653  17.488 -0.1548 -0.9169  0.9373
 5886SOL    HW229295   2.035   3.639  17.593 -0.6221  2.6712  2.7345
 5887SOL     OW29296   4.261   3.415   2.680  0.0969 -0.0971 -0.2580
 5887SOL    HW129297   4.276   3.326   2.649  0.4956 -0.8399  2.0845
 5887SOL    HW229298   4.175   3.430   2.640  0.4587  1.1480 -0.5858
 5888SOL     OW29299   3.213   4.011   5.508  0.6939  0.2778  0.5523
 5888SOL    HW129300   3.245   4.021   5.418 -1.8246 -1.0492 -0.4947
 5888SOL    HW229301   3.120   4.022   5.485  0.8367  2.3927  0.9615
 5889SOL     OW29302   2.416   3.164  12.805 -0.5997 -0.0250  0.1828
 5889SOL    HW129303   2.390   3.126  12.889  0.2532  0.0712  0.4890
 5889SOL    HW229304   2.426   3.087  12.748 -0.0454 -0.2626  0.5949
 5890SOL     OW29305   4.607   1.460   5.586 -0.1420 -0.0269 -0.0062
 5890SOL    HW129306   4.523   1.440   5.544  1.2117 -0.8934 -2.2880
 5890SOL    HW229307   4.580   1.471   5.677  2.0594  0.4226  0.5933
 5891SOL     OW29308   0.917   3.101   9.266  0.2058 -0.0627 -0.2273
 5891SOL    HW129309   0.906   3.066   9.178  0.2806 -0.6548 -0.0020
 5891SOL    HW229310   1.011   3.118   9.265 -0.0121  0.9558 -3.3703
 5892SOL     OW29311   3.108   2.403   8.033 -0.1268  0.4871 -0.0470
 5892SOL    HW129312   3.156   2.478   8.066 -2.8748  2.0918  0.3197
 5892SOL    HW229313   3.143   2.394   7.944  0.6272 -1.7107  0.4835
 5893SOL     OW29314   4.009   3.468   2.863  0.4019 -0.5962 -0.4983
 5893SOL    HW129315   3.952   3.393   2.879 -0.3221  0.2043  0.6784
 5893SOL    HW229316   3.972   3.494   2.779 -0.5878 -1.1478 -0.2261
 5894SOL     OW29317   2.812   4.395   1.805  0.3562 -0.0781 -0.3927
 5894SOL    HW129318   2.875   4.462   1.778  0.8637 -0.8733 -1.1642
 5894SOL    HW229319   2.869   4.319   1.808 -1.5459 -1.5663 -2.2230
 5895SOL     OW29320   3.212   3.225   5.200  0.1142  0.4436 -0.2493
 5895SOL    HW129321   3.278   3.294   5.189  0.7336 -0.2580 -0.9469
 5895SOL    HW229322   3.253   3.159   5.144  1.2000  0.3638  0.6397
 5896SOL     OW29323   4.323   3.582   6.610  0.4138 -0.2092  0.4251
 5896SOL    HW129324   4.404   3.552   6.568  0.9414  0.7138  0.7654
 5896SOL    HW229325   4.355   3.634   6.684  1.8076 -0.6341  0.1189
 5897SOL     OW29326   0.419   4.698   4.388 -0.0252  0.5498 -0.3296
 5897SOL    HW129327   0.433   4.685   4.294  0.6967 -2.4580  0.1882
 5897SOL    HW229328   0.370   4.617   4.401  2.0519 -0.7851 -0.8091
 5898SOL     OW29329   2.473   0.787  11.961  0.1742  0.3595 -0.6312
 5898SOL    HW129330   2.467   0.691  11.961 -1.3182  0.4461  1.2787
 5898SOL    HW229331   2.412   0.811  11.891 -1.5412  1.8051  1.3600
 5899SOL     OW29332   2.793   1.208  14.844  0.5224  0.8245  0.7289
 5899SOL    HW129333   2.720   1.256  14.883  1.4989  0.1766  3.2947
 5899SOL    HW229334   2.826   1.270  14.779  1.8583 -1.5608 -0.8420
 5900SOL     OW29335   2.767   4.474  14.596  0.5343 -0.0836  0.1599
 5900SOL    HW129336   2.788   4.518  14.678  1.1615 -0.3436  0.1381
 5900SOL    HW229337   2.822   4.527  14.539  2.3250 -0.5270  1.4875
 5901SOL     OW29338   1.321   0.875   0.762 -0.9340 -0.0639  0.0134
 5901SOL    HW129339   1.370   0.876   0.844  2.1359 -0.8214 -1.8184
 5901SOL    HW229340   1.350   0.788   0.735 -1.1576 -0.4381  1.0069
 5902SOL     OW29341   3.010   4.578   5.801 -0.8866  0.4622  0.3507
 5902SOL    HW129342   3.046   4.652   5.850 -0.8413  0.8325 -0.2373
 5902SOL    HW229343   3.035   4.504   5.857 -0.8404  0.6047  0.5188
 5903SOL     OW29344   1.561   0.994   3.974  0.2915 -0.4424  0.0541
 5903SOL    HW129345   1.537   1.059   3.908  0.6195 -0.5733 -0.1949
 5903SOL    HW229346   1.626   0.941   3.927  0.4051 -1.6465  1.5700
 5904SOL     OW29347   1.455   3.561   6.143 -0.8877  0.2008 -0.0025
 5904SOL    HW129348   1.424   3.563   6.234 -0.0166  1.8384  0.2595
 5904SOL    HW229349   1.382   3.517   6.100 -0.2799 -2.5629  1.7889
 5905SOL     OW29350   0.700   3.947  13.048  0.2453  0.2226  0.2316
 5905SOL    HW129351   0.759   3.901  13.107 -3.0453 -2.0371  1.7773
 5905SOL    HW229352   0.681   4.023  13.102  0.2371 -0.6825  1.4903
 5906SOL     OW29353   4.441   4.042   6.909  0.2323 -0.3115 -0.2221
 5906SOL    HW129354   4.401   4.108   6.852  0.8831 -1.0191 -1.5024
 5906SOL    HW229355   4.438   4.087   6.994  1.0926  0.4261 -0.5772
 5907SOL     OW29356   1.281   2.755  15.989 -0.1950 -0.1732  0.0966
 5907SOL    HW129357   1.259   2.751  15.895 -0.5214 -1.4721  0.2344
 5907SOL    HW229358   1.228   2.683  16.022  2.4747 -0.5876  3.3734
 5908SOL     OW29359   4.392   2.264   2.154 -0.7892 -0.2396  0.1014
 5908SOL    HW129360   4.449   2.233   2.224  1.4042  1.0239 -1.1076
 5908SOL    HW229361   4.456   2.275   2.083  0.9611  0.6589  1.8099
 5909SOL     OW29362   1.837   4.598   7.192 -0.4520 -0.1214  0.0313
 5909SOL    HW129363   1.919   4.633   7.157 -0.7397  0.7680  0.2496
 5909SOL    HW229364   1.776   4.658   7.151  1.4509  1.5210 -0.4178
 5910SOL     OW29365   0.773   1.172  11.922  0.1718 -1.0009 -0.1916
 5910SOL    HW129366   0.711   1.219  11.978 -0.8671 -0.4933 -1.7536
 5910SOL    HW229367   0.721   1.091  11.917 -0.1089 -0.8567  0.3785
 5911SOL     OW29368   1.466   2.926   2.645  0.4126  0.2415  0.3699
 5911SOL    HW129369   1.454   2.955   2.735  0.4289  0.7134  0.2220
 5911SOL    HW229370   1.484   3.002   2.590  2.6157 -1.7836 -1.7049
 5912SOL     OW29371   2.249   0.344   4.574  0.0386 -0.8098  0.1127
 5912SOL    HW129372   2.209   0.335   4.661 -0.1151  0.2080  0.1398
 5912SOL    HW229373   2.253   0.251   4.550 -1.0556 -1.0570  0.9072
 5913SOL     OW29374   3.923   0.550   3.359 -0.1863 -0.3498  0.0857
 5913SOL    HW129375   3.957   0.544   3.270 -1.9529 -1.2078 -0.5168
 5913SOL    HW229376   3.942   0.643   3.372 -0.9817 -0.2604  0.5830
 5914SOL     OW29377   3.535   3.152   7.302  0.0267  0.0151 -0.2930
 5914SOL    HW129378   3.527   3.144   7.207  1.7551 -3.0804 -0.1861
 5914SOL    HW229379   3.500   3.238   7.323  1.3867  0.3528  0.6233
 5915SOL     OW29380   3.197   3.499   2.533  0.0727 -0.3432 -0.1628
 5915SOL    HW129381   3.239   3.570   2.581  0.8620 -0.7390 -0.2668
 5915SOL    HW229382   3.133   3.542   2.477  0.5371  0.1456 -0.3229
 5916SOL     OW29383   0.824   4.181  12.624 -1.1935  1.1458 -0.1630
 5916SOL    HW129384   0.760   4.125  12.669 -1.1550  2.9954  2.1430
 5916SOL    HW229385   0.816   4.140  12.538 -2.4493 -0.1701  0.5594
 5917SOL     OW29386   0.300   4.529   4.926  0.2896  0.2855 -0.6124
 5917SOL    HW129387   0.232   4.462   4.926  2.7000 -2.1627  1.3520
 5917SOL    HW229388   0.244   4.603   4.903 -0.6930  0.4047  2.2330
 5918SOL     OW29389   2.270   3.581   6.486 -0.1057  0.4056 -0.2533
 5918SOL    HW129390   2.329   3.653   6.504 -1.3271  0.7496  2.3974
 5918SOL    HW229391   2.192   3.619   6.527 -0.7568  0.5566 -1.6573
 5919SOL     OW29392   1.835   1.476  16.887  0.3525 -0.2853 -0.5622
 5919SOL    HW129393   1.914   1.486  16.940 -0.0038 -0.9161  0.0892
 5919SOL    HW229394   1.809   1.384  16.892 -1.3198  0.2437  0.4203
 5920SOL     OW29395   1.409   3.672   8.847 -0.5652  0.0370 -0.5632
 5920SOL    HW129396   1.478   3.608   8.827 -0.5866 -0.1628 -0.0018
 5920SOL    HW229397   1.407   3.723   8.766 -0.6627  1.1386  0.1272
 5921SOL     OW29398   1.234   2.191   7.979  0.3087  0.2957  0.6170
 5921SOL    HW129399   1.155   2.199   8.033  0.0389  1.5200  0.0466
 5921SOL    HW229400   1.288   2.249   8.033 -0.5773  0.2951  1.5112
 5922SOL     OW29401   3.807   3.714   0.580 -0.3407 -0.3356 -0.4473
 5922SOL    HW129402   3.850   3.769   0.514 -1.0713  1.6329  0.7301
 5922SOL    HW229403   3.824   3.761   0.662  0.7468 -2.4931  0.5547
 5923SOL     OW29404   2.714   3.804   5.617  1.1195  0.3123 -0.0424
 5923SOL    HW129405   2.692   3.716   5.588 -1.5625  1.1675 -0.6471
 5923SOL    HW229406   2.628   3.844   5.602  0.1960 -1.5963  0.1406
 5924SOL     OW29407   3.654   3.697  16.442 -0.3616  0.1732 -0.7218
 5924SOL    HW129408   3.748   3.711  16.453 -0.6045  0.1167  1.4162
 5924SOL    HW229409   3.641   3.699  16.347  1.9610 -2.6831 -1.0905
 5925SOL     OW29410   0.913   2.029   8.707  0.4146  0.1590  0.5216
 5925SOL    HW129411   0.995   2.073   8.686  0.3752 -0.8323 -1.6601
 5925SOL    HW229412   0.945   1.963   8.770 -1.0692  0.6431  1.7915
 5926SOL     OW29413   0.268   1.726   1.644  0.2407  0.4165  0.3838
 5926SOL    HW129414   0.235   1.654   1.698 -1.6301  0.5105 -0.6401
 5926SOL    HW229415   0.209   1.794   1.676 -0.6578 -0.0150 -0.3520
 5927SOL     OW29416   1.651   4.222   7.589 -0.0618 -0.0602 -0.1267
 5927SOL    HW129417   1.587   4.251   7.653 -0.5500  0.5376 -0.8823
 5927SOL    HW229418   1.696   4.146   7.625  0.8143  0.9734  0.9484
 5928SOL     OW29419   2.475   3.655   5.581 -0.5163 -0.4715 -0.0248
 5928SOL    HW129420   2.480   3.703   5.499  1.7431  0.6010  0.7240
 5928SOL    HW229421   2.475   3.564   5.550 -0.5380  0.3772 -2.5399
 5929SOL     OW29422   3.633   3.237  12.808 -0.0339  0.2569 -0.5304
 5929SOL    HW129423   3.543   3.245  12.776 -1.0201 -0.0210  2.2008
 5929SOL    HW229424   3.624   3.189  12.890  0.5511  1.4830  0.2462
 5930SOL     OW29425   3.600   4.440   2.761  0.3678  0.6640  0.1454
 5930SOL    HW129426   3.569   4.525   2.728 -0.9856 -1.2282 -3.4668
 5930SOL    HW229427   3.588   4.380   2.688  3.2615 -1.3627  1.3476
 5931SOL     OW29428   0.391   1.085  14.309  0.0516  0.0233 -0.1472
 5931SOL    HW129429   0.472   1.128  14.283  0.9516 -1.9735 -0.6536
 5931SOL    HW229430   0.359   1.155  14.366 -1.7267 -0.4886 -0.4965
 5932SOL     OW29431   0.692   2.594   3.185 -0.2204  0.1150 -0.0115
 5932SOL    HW129432   0.746   2.559   3.114  0.7394 -0.8378  1.1893
 5932SOL    HW229433   0.631   2.656   3.146 -2.3560 -1.8770  0.1765
 5933SOL     OW29434   3.998   1.688   5.462  0.1797 -0.3905  0.0291
 5933SOL    HW129435   4.046   1.696   5.380  3.7409 -2.1858  1.9171
 5933SOL    HW229436   3.913   1.728   5.442  0.9781  0.2645 -2.0595
 5934SOL     OW29437   0.277   1.608   5.313  0.0143  0.2284 -0.0514
 5934SOL    HW129438   0.289   1.514   5.325 -1.2782  0.1216  0.3651
 5934SOL    HW229439   0.370   1.625   5.299  0.4065 -2.0523 -0.1302
 5935SOL     OW29440   3.960   3.796   5.565 -0.4093 -0.3947  0.1104
 5935SOL    HW129441   3.929   3.813   5.476 -0.6672 -0.5603  0.1678
 5935SOL    HW229442   3.986   3.704   5.557 -0.4317 -0.4936  1.0905
 5936SOL     OW29443   1.757   0.615  13.723 -0.8429 -0.1356  0.0791
 5936SOL    HW129444   1.712   0.567  13.654 -0.2552 -0.1994 -0.2608
 5936SOL    HW229445   1.842   0.571  13.716  0.2175  2.2214 -1.6989
 5937SOL     OW29446   3.217   3.218   6.559  0.6333  0.2935  0.1319
 5937SOL    HW129447   3.147   3.235   6.622 -0.9761 -0.8112 -1.3470
 5937SOL    HW229448   3.246   3.136   6.597 -0.5372 -0.0910  0.1998
 5938SOL     OW29449   3.743   2.522   1.405 -0.1660  0.8800 -0.1321
 5938SOL    HW129450   3.801   2.526   1.329 -1.6993  0.2801 -1.3300
 5938SOL    HW229451   3.804   2.480   1.466  2.3130  2.9116 -1.2327
 5939SOL     OW29452   1.924   4.355   8.018  0.4059  0.2001 -0.2150
 5939SOL    HW129453   2.014   4.355   8.050  0.5030 -0.7193 -0.4655
 5939SOL    HW229454   1.908   4.262   8.000 -1.3738  0.3867  0.4111
 5940SOL     OW29455   4.735   2.408  15.407  0.0619  0.0731 -0.0492
 5940SOL    HW129456   0.004   2.501  15.388 -0.0966  0.0678 -0.1347
 5940SOL    HW229457   4.661   2.410  15.468 -1.0153  2.4623 -1.4538
 5941SOL     OW29458   2.238   2.726   2.316  0.4033 -0.3377 -0.3508
 5941SOL    HW129459   2.182   2.702   2.241 -0.9530  0.2020  0.4819
 5941SOL    HW229460   2.186   2.773   2.382  2.6293  2.5958 -0.6972
 5942SOL     OW29461   2.244   1.138   9.158 -0.2487 -0.1031 -0.1847
 5942SOL    HW129462   2.291   1.218   9.135 -0.6227  0.9804  2.8154
 5942SOL    HW229463   2.158   1.172   9.183  1.3208  2.4675  1.8350
 5943SOL     OW29464   4.422   1.325   8.824  0.6451 -0.2437  0.1673
 5943SOL    HW129465   4.453   1.244   8.865  0.1368 -0.3709  0.2894
 5943SOL    HW229466   4.411   1.297   8.733 -0.9437  0.1958  0.2289
 5944SOL     OW29467   1.002   4.501   5.513 -0.3070 -0.6291 -0.3940
 5944SOL    HW129468   1.049   4.419   5.531  0.7426  0.2987  1.0193
 5944SOL    HW229469   0.966   4.483   5.426 -1.7506 -0.5598  0.1771
 5945SOL     OW29470   3.167   3.954   1.930  0.2031 -0.1605  0.1046
 5945SOL    HW129471   3.208   4.019   1.872 -0.6664  0.6461  0.3986
 5945SOL    HW229472   3.190   3.995   2.014  1.8376 -0.0162 -0.4093
 5946SOL     OW29473   2.679   1.727   8.255  0.0347 -1.1665  0.0921
 5946SOL    HW129474   2.634   1.780   8.321  1.1833 -0.0415 -0.0221
 5946SOL    HW229475   2.616   1.656   8.244 -1.3452 -0.0157  0.5627
 5947SOL     OW29476   1.886   0.328   1.093  0.0792 -0.1183 -0.2482
 5947SOL    HW129477   1.844   0.244   1.112  0.3908 -0.5819 -1.6089
 5947SOL    HW229478   1.943   0.305   1.019  0.2865  0.8767 -0.3914
 5948SOL     OW29479   3.225   0.209   5.570 -0.3445  0.0463  0.1787
 5948SOL    HW129480   3.231   0.292   5.522 -0.6611 -0.1879 -0.2752
 5948SOL    HW229481   3.198   0.155   5.496 -1.5660  0.1103  0.5768
 5949SOL     OW29482   2.185   2.861  15.290 -0.5987  0.1479  0.0169
 5949SOL    HW129483   2.153   2.826  15.372  0.5676 -1.6878 -0.3156
 5949SOL    HW229484   2.102   2.851  15.243 -0.6632 -0.5518  0.2892
 5950SOL     OW29485   4.426   2.011   7.855 -0.2634  0.0481  0.0461
 5950SOL    HW129486   4.503   1.956   7.870  1.6601  2.4036 -1.1573
 5950SOL    HW229487   4.424   2.064   7.934 -0.6088  2.0398 -1.2802
 5951SOL     OW29488   4.363   0.936  12.201  0.1156  0.0244 -0.0542
 5951SOL    HW129489   4.323   0.930  12.114 -0.4872 -0.9426  0.2805
 5951SOL    HW229490   4.420   0.859  12.194  1.5485  1.2432 -1.8200
 5952SOL     OW29491   1.633   0.815   8.203 -0.6298 -0.3449 -0.0271
 5952SOL    HW129492   1.573   0.842   8.133 -0.7471 -1.7817 -0.4877
 5952SOL    HW229493   1.595   0.869   8.272  0.6860  0.4656  0.0464
 5953SOL     OW29494   4.564   4.128   1.823  0.5678  0.1145 -0.0416
 5953SOL    HW129495   4.611   4.155   1.744  0.0600  1.0428 -0.0223
 5953SOL    HW229496   4.636   4.117   1.885  0.1159  1.8450  0.8054
 5954SOL     OW29497   3.263   0.355   2.922  0.1174  0.0543  0.5117
 5954SOL    HW129498   3.304   0.395   2.999 -1.1533  0.5435  0.9323
 5954SOL    HW229499   3.192   0.417   2.903  0.3780 -0.4227 -2.0635
 5955SOL     OW29500   4.317   3.338   6.301  0.0871 -0.1487 -0.5333
 5955SOL    HW129501   4.241   3.381   6.340 -0.3894 -0.5357 -1.0272
 5955SOL    HW229502   4.286   3.249   6.283  0.3876 -0.0956 -1.3173
 5956SOL     OW29503   2.253   0.570  16.303 -0.1813 -0.2711  0.1248
 5956SOL    HW129504   2.292   0.488  16.333  0.4541 -0.2261 -0.5705
 5956SOL    HW229505   2.330   0.626  16.307  0.3866 -0.9843 -0.7465
 5957SOL     OW29506   2.125   1.141  12.783  0.3897 -0.3042  0.0588
 5957SOL    HW129507   2.088   1.206  12.842 -0.9543 -0.5110 -0.5649
 5957SOL    HW229508   2.093   1.167  12.697  0.3575  2.2656  0.8407
 5958SOL     OW29509   2.476   2.337   4.258  0.0092  0.1147  0.3451
 5958SOL    HW129510   2.449   2.248   4.237 -0.9152  1.1946 -3.0973
 5958SOL    HW229511   2.405   2.394   4.228  0.5940  0.4394 -0.4267
 5959SOL     OW29512   0.301   3.044  11.308 -0.3425 -0.4218 -0.2821
 5959SOL    HW129513   0.243   3.114  11.338 -0.3088 -1.0891  1.2939
 5959SOL    HW229514   0.263   3.013  11.225  2.8835  1.3239 -2.4318
 5960SOL     OW29515   1.225   2.899   3.240 -0.1214 -0.3299  0.2218
 5960SOL    HW129516   1.250   2.949   3.318 -1.8298  0.9845 -0.0833
 5960SOL    HW229517   1.153   2.952   3.205 -1.6646 -1.1284  2.1631
 5961SOL     OW29518   1.779   0.581   8.913  0.3977 -0.3356  0.4455
 5961SOL    HW129519   1.689   0.612   8.914  0.5672  0.1503  0.7527
 5961SOL    HW229520   1.825   0.658   8.878 -0.5322  1.0548  2.3212
 5962SOL     OW29521   2.212   3.297  16.931 -0.6336 -0.7260 -0.5861
 5962SOL    HW129522   2.143   3.358  16.957  0.0437  0.1333 -0.7987
 5962SOL    HW229523   2.183   3.273  16.843 -1.7861  1.1450 -0.7060
 5963SOL     OW29524   2.684   3.459   9.828  0.3368 -0.0020 -0.2420
 5963SOL    HW129525   2.775   3.459   9.859  0.1015 -1.7287  0.4379
 5963SOL    HW229526   2.648   3.512   9.899 -1.3490 -1.9886  0.4067
 5964SOL     OW29527   3.750   4.642  10.677  0.6003 -0.4277 -0.3173
 5964SOL    HW129528   3.669   4.641  10.626  0.7958  0.9982 -0.6542
 5964SOL    HW229529   3.809   4.605  10.611 -0.7407 -0.9277 -1.2454
 5965SOL     OW29530   0.468   1.551   4.893 -0.1241  0.0304 -0.5250
 5965SOL    HW129531   0.480   1.636   4.851 -0.9936  0.9564  1.0609
 5965SOL    HW229532   0.434   1.579   4.978  0.6851  0.3371 -0.3052
 5966SOL     OW29533   2.914   0.805  16.606 -0.3773  0.8170 -0.2320
 5966SOL    HW129534   2.930   0.892  16.643 -0.0945  0.4904  0.4173
 5966SOL    HW229535   2.946   0.750  16.678 -1.0727 -0.9806 -1.3097
 5967SOL     OW29536   2.091   3.036   9.600 -0.3959 -0.4045 -0.6088
 5967SOL    HW129537   2.087   2.953   9.646 -0.1056 -0.9378 -1.5283
 5967SOL    HW229538   2.158   3.096   9.632 -0.8897 -0.5117  0.5950
 5968SOL     OW29539   1.366   1.927   2.501 -0.0179  0.3696 -0.6500
 5968SOL    HW129540   1.430   1.992   2.472  2.5136 -1.8857 -0.1307
 5968SOL    HW229541   1.285   1.976   2.515  0.8215  1.4704  0.3764
 5969SOL     OW29542   1.486   4.672   5.877 -0.5808 -0.2534  0.4376
 5969SOL    HW129543   1.443   4.731   5.816  0.7259 -1.0488 -1.2680
 5969SOL    HW229544   1.570   4.714   5.895 -1.3021  0.5449  1.9420
 5970SOL     OW29545   1.653   3.248  13.812  0.0706  0.3997  0.3075
 5970SOL    HW129546   1.641   3.337  13.844  0.1609  1.3856 -2.3723
 5970SOL    HW229547   1.565   3.211  13.805 -0.4689  1.2926  2.4874
 5971SOL     OW29548   2.087   0.582   7.936  0.6678 -0.3171 -0.3215
 5971SOL    HW129549   2.132   0.665   7.950  1.1963 -0.7784  0.7674
 5971SOL    HW229550   2.118   0.564   7.848  2.8139 -1.3703  0.6403
 5972SOL     OW29551   2.337   1.055   0.587  0.2520 -0.3036  0.0648
 5972SOL    HW129552   2.354   1.125   0.523 -0.3741 -0.5426 -0.3716
 5972SOL    HW229553   2.256   1.075   0.634  0.1783  1.0629 -0.6327
 5973SOL     OW29554   2.126   1.063   7.344 -0.4228 -0.0183 -0.3948
 5973SOL    HW129555   2.101   0.977   7.309 -0.2814  0.2067 -1.0548
 5973SOL    HW229556   2.087   1.061   7.431  1.6075 -0.5557  0.4979
 5974SOL     OW29557   3.309   0.027   1.689 -0.0810 -0.2093  0.4789
 5974SOL    HW129558   3.289   0.006   1.597  0.8058  1.2078 -0.0366
 5974SOL    HW229559   3.279   0.118   1.694  1.4484  0.4301 -2.2464
 5975SOL     OW29560   0.538   1.225   5.173 -0.6623 -0.1265 -0.2774
 5975SOL    HW129561   0.493   1.223   5.088  0.4369 -2.9542 -0.8187
 5975SOL    HW229562   0.608   1.288   5.160 -1.7218  1.2256  0.5768
 5976SOL     OW29563   0.476   2.701   5.850 -0.1663  0.5135 -0.3759
 5976SOL    HW129564   0.467   2.773   5.787 -1.2148 -0.0564 -0.8735
 5976SOL    HW229565   0.563   2.714   5.888 -0.5392  0.7434  0.3762
 5977SOL     OW29566   4.200   4.599   5.719  0.1819  0.0386 -0.1199
 5977SOL    HW129567   4.215   4.554   5.802  1.7407  0.9590  0.1056
 5977SOL    HW229568   4.141   4.666   5.751  3.0671  2.0787  0.9013
 5978SOL     OW29569   3.499   0.937  11.908  0.5033 -0.3831  0.0250
 5978SOL    HW129570   3.517   0.865  11.848 -0.1108 -2.4299  2.2986
 5978SOL    HW229571   3.433   0.978  11.852  0.4113 -0.8391 -0.2020
 5979SOL     OW29572   3.914   0.239   3.182 -0.2582  0.2736  0.3418
 5979SOL    HW129573   3.923   0.169   3.247  3.1062 -2.0116 -2.5524
 5979SOL    HW229574   3.920   0.185   3.103  1.8199  0.3765  0.4291
 5980SOL     OW29575   1.440   0.265   8.249  0.7391 -0.2086 -0.7519
 5980SOL    HW129576   1.449   0.316   8.330  1.6187  0.5016 -1.2969
 5980SOL    HW229577   1.477   0.329   8.189 -1.4771  2.2479  0.5101
 5981SOL     OW29578   1.946   4.590   5.394  0.2818  0.2578  0.1348
 5981SOL    HW129579   1.924   4.620   5.482  0.8000  0.7083  0.1065
 5981SOL    HW229580   1.898   4.652   5.339  2.2607  1.2319 -0.4905
 5982SOL     OW29581   1.983   1.820   6.220 -0.2831  0.4563 -0.3470
 5982SOL    HW129582   1.933   1.758   6.166  1.5275  0.3105 -1.8640
 5982SOL    HW229583   2.065   1.771   6.227 -0.7783 -0.3830 -0.4676
 5983SOL     OW29584   4.282   1.960   0.883 -0.0613 -0.2799 -0.3884
 5983SOL    HW129585   4.234   1.957   0.800 -0.8880 -0.9646  0.1198
 5983SOL    HW229586   4.281   2.054   0.900 -2.4784 -0.5420  0.8610
 5984SOL     OW29587   1.069   3.370   1.358 -1.3536 -0.0566 -0.1800
 5984SOL    HW129588   1.152   3.418   1.355 -1.5016  0.3622  2.0361
 5984SOL    HW229589   1.036   3.390   1.270 -1.9969 -0.3841 -0.0129
 5985SOL     OW29590   0.419   0.670   0.596 -0.2254  0.0857 -0.2269
 5985SOL    HW129591   0.353   0.725   0.638 -0.5218 -0.2099 -0.3086
 5985SOL    HW229592   0.496   0.727   0.589 -0.4938  0.9230  3.4844
 5986SOL     OW29593   0.709   0.431  11.311 -0.3615  0.4400  0.8782
 5986SOL    HW129594   0.791   0.465  11.349  1.1862 -1.1261 -1.0808
 5986SOL    HW229595   0.667   0.516  11.299  0.8200  0.7337 -1.1669
 5987SOL     OW29596   4.163   1.719  14.166  0.0311 -0.5440  0.3425
 5987SOL    HW129597   4.081   1.753  14.202  0.6858 -0.9296  2.2193
 5987SOL    HW229598   4.201   1.804  14.144  0.2608 -0.3999  1.2946
 5988SOL     OW29599   2.099   1.983   5.239 -0.1047 -0.3098  0.1151
 5988SOL    HW129600   2.052   1.904   5.213 -1.7456  1.1556 -1.3291
 5988SOL    HW229601   2.038   2.051   5.266  0.1829 -0.3318  0.8168
 5989SOL     OW29602   1.301   1.424   7.171  0.4510 -0.2443  0.2093
 5989SOL    HW129603   1.333   1.473   7.247 -1.3687  0.0357  0.7811
 5989SOL    HW229604   1.360   1.449   7.100 -1.3391  0.8747 -0.8785
 5990SOL     OW29605   0.075   0.757   9.888  0.0918 -0.4641  0.1446
 5990SOL    HW129606   0.007   0.823   9.878 -0.5620 -1.3474 -1.2272
 5990SOL    HW229607   0.130   0.811   9.945  0.8817 -0.9821 -0.1239
 5991SOL     OW29608   1.772   0.570   4.443 -0.2578  0.2547  0.0423
 5991SOL    HW129609   1.794   0.663   4.436  2.3640 -0.4400 -0.8658
 5991SOL    HW229610   1.832   0.542   4.512  0.4481  0.1134 -0.6282
 5992SOL     OW29611   1.356   2.486   8.970  0.1960 -0.2506 -0.2723
 5992SOL    HW129612   1.443   2.482   9.009  0.8714 -0.3738 -1.8075
 5992SOL    HW229613   1.381   2.492   8.878 -0.6939 -1.2345 -0.5802
 5993SOL     OW29614   4.586   3.561  17.449  0.1411  0.1869  0.5493
 5993SOL    HW129615   4.575   3.467  17.466  0.2009  0.1334  0.2991
 5993SOL    HW229616   4.522   3.582  17.381  1.2100 -0.4179 -0.6595
 5994SOL     OW29617   3.287   2.464   8.348 -0.8125 -0.0274 -0.4446
 5994SOL    HW129618   3.234   2.521   8.403  0.7510  0.0274  1.0009
 5994SOL    HW229619   3.297   2.387   8.403 -2.0958 -0.9082 -1.4460
 5995SOL     OW29620   1.175   1.408  15.239 -0.6431 -0.4407 -0.2334
 5995SOL    HW129621   1.167   1.499  15.211 -2.0385 -0.1119  1.2389
 5995SOL    HW229622   1.265   1.380  15.226 -0.3366 -0.4027  1.8491
 5996SOL     OW29623   0.864   4.078   5.073  0.1585  0.0162 -0.1400
 5996SOL    HW129624   0.931   4.106   5.136 -1.0694 -0.4436  1.3602
 5996SOL    HW229625   0.780   4.116   5.100 -0.1949 -1.8409  1.3751
 5997SOL     OW29626   4.158   3.287   8.466  0.4419  0.2667 -0.9033
 5997SOL    HW129627   4.072   3.249   8.450  0.5502 -1.3330  2.2720
 5997SOL    HW229628   4.134   3.356   8.527  0.2605 -1.4144  0.9495
 5998SOL     OW29629   2.572   0.308   6.688 -0.3884 -0.0333  0.2823
 5998SOL    HW129630   2.539   0.368   6.621 -0.3067  1.7559  1.8631
 5998SOL    HW229631   2.665   0.296   6.665 -0.9826 -1.2415 -1.4838
 5999SOL     OW29632   1.694   2.611   8.460  0.0817 -0.1005  0.8423
 5999SOL    HW129633   1.601   2.593   8.446  0.2176 -1.4817  1.7890
 5999SOL    HW229634   1.732   2.544   8.403 -1.9822  1.0546 -1.9116
 6000SOL     OW29635   0.159   2.752   7.635 -0.4291 -0.1832  0.0199
 6000SOL    HW129636   0.145   2.813   7.708 -1.3839  0.7581 -0.9395
 6000SOL    HW229637   0.218   2.689   7.676  0.1643  1.1006  1.1504
 6001SOL     OW29638   0.908   1.592  11.943 -0.2058  0.7493 -0.0074
 6001SOL    HW129639   0.944   1.630  12.023 -0.6713 -0.2564  0.6657
 6001SOL    HW229640   0.951   1.638  11.870  1.4675 -0.0033  0.5032
 6002SOL     OW29641   4.005   1.515   7.341 -0.2667 -0.0518 -0.2623
 6002SOL    HW129642   4.094   1.492   7.368  0.3689 -1.0361 -3.1781
 6002SOL    HW229643   4.007   1.610   7.344  1.0011 -0.0935 -0.0391
 6003SOL     OW29644   3.299   3.926   8.193 -0.5657 -0.2197 -0.8144
 6003SOL    HW129645   3.328   3.840   8.224 -1.0236 -0.1283 -0.1510
 6003SOL    HW229646   3.339   3.990   8.252  0.8778  0.2443 -2.2869
 6004SOL     OW29647   1.910   0.894  13.957 -0.2709 -0.2496 -0.4723
 6004SOL    HW129648   1.931   0.987  13.953  1.4577 -0.5494  1.9226
 6004SOL    HW229649   1.831   0.895  13.902 -0.7651  0.2547  0.2536
 6005SOL     OW29650   2.116   2.986   5.346 -0.3767 -0.3050  0.1929
 6005SOL    HW129651   2.136   2.937   5.426  1.4007  0.3877  0.1681
 6005SOL    HW229652   2.097   3.071   5.386  2.9850 -0.0683  1.2440
 6006SOL     OW29653   2.088   4.438   2.825 -0.8638 -0.0880 -0.1235
 6006SOL    HW129654   2.021   4.432   2.892 -2.0433  2.5053 -1.0657
 6006SOL    HW229655   2.096   4.533   2.812  0.0313 -0.1249  0.1364
 6007SOL     OW29656   3.021   4.386  11.235  0.0249 -0.6056  0.6616
 6007SOL    HW129657   3.037   4.342  11.319 -2.0970 -0.8809  0.9265
 6007SOL    HW229658   3.082   4.458  11.253 -0.6258 -0.2421  1.4418
 6008SOL     OW29659   4.498   0.851  16.315 -0.2639  0.1529 -0.6147
 6008SOL    HW129660   4.519   0.915  16.246 -3.2954 -0.8109 -2.4085
 6008SOL    HW229661   4.573   0.875  16.369 -2.1523  0.7041  1.7277
 6009SOL     OW29662   2.502   2.698  16.896 -0.3525 -0.3125 -0.0676
 6009SOL    HW129663   2.557   2.776  16.909  0.0228 -1.0757  3.0799
 6009SOL    HW229664   2.425   2.747  16.867  0.0545  0.8305  0.7851
 6010SOL     OW29665   1.771   3.057   4.680 -0.1213 -0.0008  0.8535
 6010SOL    HW129666   1.761   2.966   4.650  0.5554  0.5085 -0.9355
 6010SOL    HW229667   1.857   3.048   4.721  1.0135  0.6559 -1.3665
 6011SOL     OW29668   0.951   3.829   6.384  0.4714 -0.1606  0.1067
 6011SOL    HW129669   1.005   3.801   6.458  0.7915  1.8997  0.6613
 6011SOL    HW229670   0.889   3.757   6.380  0.7524 -0.2102 -3.1635
 6012SOL     OW29671   1.294   4.376  16.564  0.0367  0.0458 -0.3282
 6012SOL    HW129672   1.356   4.448  16.571 -2.6711  1.9480  4.0611
 6012SOL    HW229673   1.317   4.343  16.477  0.7222 -0.9388  0.2209
 6013SOL     OW29674   2.463   4.368  12.445 -0.4045  0.2009  0.5584
 6013SOL    HW129675   2.373   4.350  12.470 -0.1172 -0.6157  1.0143
 6013SOL    HW229676   2.513   4.301  12.492  1.5558  1.4714  0.3318
 6014SOL     OW29677   4.443   4.644   9.890 -0.1572 -0.8635  0.2290
 6014SOL    HW129678   4.433   4.723   9.836 -1.6862 -1.7018 -0.7321
 6014SOL    HW229679   4.537   4.633   9.897  0.1574  2.6113  1.5728
 6015SOL     OW29680   3.603   3.420   0.904  0.7577  0.0658 -0.5474
 6015SOL    HW129681   3.624   3.467   0.823  3.2057  1.9276  1.1566
 6015SOL    HW229682   3.566   3.341   0.865 -2.7187  0.8271  1.2248
 6016SOL     OW29683   3.652   0.255   7.074  0.2300  0.7618  0.0474
 6016SOL    HW129684   3.606   0.173   7.054  1.2828  0.7141 -2.1515
 6016SOL    HW229685   3.603   0.323   7.028  0.4809 -0.3344 -1.8144
 6017SOL     OW29686   3.044   2.993   7.780 -0.2878  0.3776  0.1231
 6017SOL    HW129687   2.984   3.028   7.713 -0.1978 -1.5783 -0.9591
 6017SOL    HW229688   3.014   2.903   7.792  1.1924 -0.1114  0.1337
 6018SOL     OW29689   0.889   1.808  10.842  0.0698 -0.7217  0.3636
 6018SOL    HW129690   0.941   1.779  10.766 -0.2323 -0.4184  0.0385
 6018SOL    HW229691   0.804   1.766  10.829 -0.1116 -0.6741  1.4360
 6019SOL     OW29692   1.733   2.895   8.426 -0.4485 -0.2687  0.3264
 6019SOL    HW129693   1.679   2.953   8.480 -1.1901  0.2375 -0.9813
 6019SOL    HW229694   1.708   2.805   8.448 -1.6787  0.0907  0.4172
 6020SOL     OW29695   0.882   2.652   2.713  0.0651  0.1509 -0.4625
 6020SOL    HW129696   0.951   2.716   2.693  0.8706 -0.7920 -0.6795
 6020SOL    HW229697   0.907   2.581   2.653 -2.7122  0.2155 -1.6654
 6021SOL     OW29698   3.927   1.644   4.311  0.0687  0.4961 -0.4863
 6021SOL    HW129699   3.892   1.726   4.348  0.8167  0.7551 -0.3538
 6021SOL    HW229700   4.021   1.664   4.305  0.3203 -1.4806 -3.0743
 6022SOL     OW29701   0.630   4.506   5.543 -0.0824  0.0266  0.0174
 6022SOL    HW129702   0.669   4.462   5.468  0.8125 -0.8307  0.9825
 6022SOL    HW229703   0.626   4.423   5.592 -0.2974 -0.1307 -0.2711
 6023SOL     OW29704   1.995   3.525  11.737  0.2824  0.1034 -0.2794
 6023SOL    HW129705   1.981   3.454  11.674  2.6571 -1.5613  1.0462
 6023SOL    HW229706   2.050   3.588  11.692  0.5627 -0.9493 -1.4109
 6024SOL     OW29707   0.087   1.408   2.241 -0.7996 -0.1928 -0.5642
 6024SOL    HW129708   0.001   1.380   2.275 -1.1090  1.0346 -0.3529
 6024SOL    HW229709   0.121   1.459   2.314 -1.1895 -0.7990  0.0412
 6025SOL     OW29710   4.537   4.324   7.706 -0.3653  0.0781 -0.4106
 6025SOL    HW129711   4.584   4.299   7.626  0.3795  1.2577 -0.3433
 6025SOL    HW229712   4.599   4.295   7.773  0.8636 -0.6141 -1.8283
 6026SOL     OW29713   3.616   2.377   3.903  0.3486 -0.7500  0.0719
 6026SOL    HW129714   3.626   2.335   3.818 -0.8852  1.2554 -1.0566
 6026SOL    HW229715   3.622   2.467   3.871 -0.5199 -0.7094  0.0162
 6027SOL     OW29716   3.470   1.746   0.209 -0.0602  0.0255 -0.1242
 6027SOL    HW129717   3.468   1.654   0.234  0.2884  0.4451  1.5019
 6027SOL    HW229718   3.552   1.781   0.246  0.5085 -2.1388  0.6902
 6028SOL     OW29719   0.771   4.697   1.102  0.3408  0.4458  0.4684
 6028SOL    HW129720   0.738   4.618   1.059  0.2545  0.4845  0.4634
 6028SOL    HW229721   0.717   0.030   1.068  0.6390  1.2963  1.7752
 6029SOL     OW29722   0.710   2.099   3.780 -1.0093 -0.1575 -0.3506
 6029SOL    HW129723   0.728   2.010   3.810  1.2549  0.9849  1.6653
 6029SOL    HW229724   0.730   2.081   3.688  0.9190 -0.6693  0.1719
 6030SOL     OW29725   0.594   0.172   2.570  0.4617 -0.1672  0.3098
 6030SOL    HW129726   0.507   0.198   2.598 -0.4764 -0.7515 -2.0491
 6030SOL    HW229727   0.648   0.250   2.585  0.2316 -0.1441  0.9828
 6031SOL     OW29728   0.090   3.401  17.432 -0.2096  0.0743 -0.2678
 6031SOL    HW129729   0.052   3.486  17.454  0.1429  0.0445  0.4764
 6031SOL    HW229730   0.181   3.430  17.424  0.4735 -1.8859  0.2635
 6032SOL     OW29731   1.224   2.916   4.491  0.0717  0.3275 -0.3039
 6032SOL    HW129732   1.272   2.898   4.573 -1.5674  0.0122  0.5844
 6032SOL    HW229733   1.165   2.841   4.493 -1.4209  1.5268  0.2694
 6033SOL     OW29734   3.861   0.821   1.925 -0.1003 -0.1482 -0.5517
 6033SOL    HW129735   3.821   0.813   2.012 -0.1525  0.7648 -0.4996
 6033SOL    HW229736   3.883   0.914   1.917  0.6519 -0.2080  0.8338
 6034SOL     OW29737   2.256   3.058   7.238 -0.8973 -0.5245  0.0085
 6034SOL    HW129738   2.235   3.126   7.174  0.0773 -0.3063 -0.0858
 6034SOL    HW229739   2.345   3.084   7.263 -1.0841  1.0652 -0.9932
 6035SOL     OW29740   1.856   0.199   2.798 -0.3152  0.0976  0.5359
 6035SOL    HW129741   1.829   0.285   2.765 -1.6872 -0.7152 -0.4242
 6035SOL    HW229742   1.924   0.171   2.736 -0.9033 -1.5611  0.6570
 6036SOL     OW29743   2.493   1.005   0.800  0.1480  0.0760 -0.0683
 6036SOL    HW129744   2.438   1.014   0.723 -0.0094 -0.9676 -0.0826
 6036SOL    HW229745   2.513   1.096   0.820 -0.7282  0.3014 -0.2318
 6037SOL     OW29746   1.200   3.313   4.540  0.4322  0.3610  0.3081
 6037SOL    HW129747   1.186   3.242   4.603  1.2866  1.5122  1.7987
 6037SOL    HW229748   1.164   3.392   4.580  0.0864  0.9789 -1.2328
 6038SOL     OW29749   2.367   2.018   6.211 -0.1359  0.0643  0.2260
 6038SOL    HW129750   2.319   2.058   6.140  0.2504 -1.7798 -1.0788
 6038SOL    HW229751   2.448   1.996   6.164  0.0094  0.1754  0.4198
 6039SOL     OW29752   2.926   2.561   4.172 -0.0004  0.0763 -0.1261
 6039SOL    HW129753   2.909   2.636   4.115  1.0348 -0.9527 -1.7486
 6039SOL    HW229754   3.001   2.519   4.131 -0.1509  0.3618 -0.6885
 6040SOL     OW29755   1.349   1.106  13.727  0.1652 -0.3750 -0.1282
 6040SOL    HW129756   1.320   1.056  13.803 -0.9665 -1.6455 -1.3926
 6040SOL    HW229757   1.392   1.178  13.774  2.0303 -1.6263  0.1091
 6041SOL     OW29758   3.493   2.917  16.822  0.0078 -0.2403  0.1586
 6041SOL    HW129759   3.556   2.893  16.890  0.9500  1.9951  0.0927
 6041SOL    HW229760   3.432   2.978  16.864  0.4650 -0.4739  1.1566
 6042SOL     OW29761   2.981   1.884   7.836  0.2013  0.4747  0.9318
 6042SOL    HW129762   2.905   1.836   7.870 -1.1468  2.5115  0.7503
 6042SOL    HW229763   3.023   1.928   7.910 -0.4862 -1.0994  2.2737
 6043SOL     OW29764   4.485   4.522   5.680  0.2605  0.0838  0.1386
 6043SOL    HW129765   4.473   4.429   5.699  1.2967  0.4757  2.6605
 6043SOL    HW229766   4.396   4.551   5.701 -0.7876  0.2038 -4.3453
 6044SOL     OW29767   3.166   0.152   8.383 -0.5530 -0.5112 -0.2511
 6044SOL    HW129768   3.112   0.231   8.374 -0.6745 -0.5826 -0.1469
 6044SOL    HW229769   3.128   0.117   8.463  0.1986 -3.1638 -1.0665
 6045SOL     OW29770   2.721   2.790   0.098  0.5118 -0.2245  0.4939
 6045SOL    HW129771   2.733   2.724   0.029 -0.1766 -1.4268  1.5328
 6045SOL    HW229772   2.755   2.737   0.170  1.6699 -0.1280  0.0184
 6046SOL     OW29773   3.920   3.748   2.138  0.1000  0.0324 -0.1088
 6046SOL    HW129774   3.977   3.711   2.206  2.7820  2.8798 -0.8237
 6046SOL    HW229775   3.916   3.675   2.076  2.8636 -0.2295  0.0161
 6047SOL     OW29776   1.775   4.385   3.551 -0.1011  0.7150 -0.1492
 6047SOL    HW129777   1.730   4.350   3.474 -1.7963  2.1269  0.2065
 6047SOL    HW229778   1.862   4.395   3.512  1.0864 -2.5735  1.5960
 6048SOL     OW29779   3.598   4.443   3.535  0.2671 -0.1442 -0.1614
 6048SOL    HW129780   3.659   4.489   3.477  1.1882 -1.0254  0.0981
 6048SOL    HW229781   3.606   4.506   3.606 -0.5524 -1.3695  1.0177
 6049SOL     OW29782   3.704   2.426   6.765  0.2349 -0.3438 -0.0351
 6049SOL    HW129783   3.637   2.395   6.825  0.9547  0.2118  1.0653
 6049SOL    HW229784   3.751   2.343   6.759 -2.3878 -1.8563  0.4634
 6050SOL     OW29785   2.456   1.047   8.161  0.4673 -0.0233 -0.1537
 6050SOL    HW129786   2.486   0.966   8.120 -0.3719 -0.2957 -0.2245
 6050SOL    HW229787   2.532   1.104   8.144 -0.3655  0.7666 -1.2019
 6051SOL     OW29788   1.369   1.436   3.005 -0.2691  0.3796  0.1970
 6051SOL    HW129789   1.365   1.400   3.094  0.0131 -1.6982 -0.6189
 6051SOL    HW229790   1.313   1.513   3.006  1.5286  1.6735  0.0582
 6052SOL     OW29791   1.042   1.613   3.161  0.1004 -0.1885 -0.1127
 6052SOL    HW129792   1.116   1.654   3.116  1.6565 -1.7769  1.0310
 6052SOL    HW229793   1.088   1.545   3.210 -0.0873 -0.0778  0.2186
 6053SOL     OW29794   3.304   3.161   3.065  0.2853 -0.3765 -0.2841
 6053SOL    HW129795   3.322   3.075   3.103 -0.7446 -0.9862 -1.2026
 6053SOL    HW229796   3.392   3.185   3.034 -0.3082  1.5605 -0.4624
 6054SOL     OW29797   2.529   3.089   7.437 -0.2898 -0.2653 -0.1594
 6054SOL    HW129798   2.580   3.105   7.517 -0.5842  2.2577 -0.4726
 6054SOL    HW229799   2.592   3.126   7.375  0.0656  3.7245  2.5263
 6055SOL     OW29800   3.000   4.076  15.488 -0.1674  0.1195 -0.0906
 6055SOL    HW129801   3.003   4.153  15.431 -0.3635 -1.0198 -1.6155
 6055SOL    HW229802   3.090   4.052  15.509 -0.6754 -2.3098 -0.7273
 6056SOL     OW29803   0.289   3.762   6.102  0.1694 -0.6534 -0.4356
 6056SOL    HW129804   0.193   3.757   6.103  0.0959  1.1692  0.0284
 6056SOL    HW229805   0.304   3.785   6.194  3.1258 -3.7340 -0.1274
 6057SOL     OW29806   3.098   4.096   8.651 -0.2299 -0.0382 -0.0089
 6057SOL    HW129807   3.056   4.154   8.714  0.6369  0.9746 -0.3575
 6057SOL    HW229808   3.191   4.099   8.672 -0.1485  0.9628 -0.5279
 6058SOL     OW29809   4.409   0.248   7.931  0.8353  0.1053  0.8086
 6058SOL    HW129810   4.433   0.288   7.847 -0.3121  0.7362  0.7842
 6058SOL    HW229811   4.383   0.318   7.990  0.1856  0.5529 -0.0094
 6059SOL     OW29812   3.120   2.618   1.070 -0.4236 -0.1751 -0.9904
 6059SOL    HW129813   3.158   2.531   1.083 -1.1761 -0.1748  1.2781
 6059SOL    HW229814   3.137   2.633   0.977  0.5897 -0.7143 -0.8857
 6060SOL     OW29815   2.362   2.013   5.547  0.2948  0.2480 -0.3718
 6060SOL    HW129816   2.368   1.983   5.456 -0.9549  0.3148 -0.4817
 6060SOL    HW229817   2.298   2.084   5.554 -0.6622 -0.6239 -0.2194
 6061SOL     OW29818   3.817   3.548   4.461  0.3254  0.2522 -0.2587
 6061SOL    HW129819   3.739   3.594   4.429  0.5211 -0.9094 -2.3639
 6061SOL    HW229820   3.800   3.545   4.555 -0.0423  1.0637 -0.2933
 6062SOL     OW29821   1.053   2.230   8.959  0.1687  0.0089 -0.7036
 6062SOL    HW129822   1.040   2.196   9.048 -3.6390 -0.0247 -1.2688
 6062SOL    HW229823   1.013   2.316   8.975 -2.0285 -0.9996 -0.8504
 6063SOL     OW29824   2.114   2.990   3.466 -0.2085  0.1956  0.0042
 6063SOL    HW129825   2.129   3.011   3.373  0.3155  0.0417  0.0553
 6063SOL    HW229826   2.020   2.975   3.464 -0.6376  3.2672 -2.4907
 6064SOL     OW29827   0.573   1.933   5.716 -0.2135 -0.2232 -0.1480
 6064SOL    HW129828   0.651   1.888   5.749  0.3270  0.6795 -0.2015
 6064SOL    HW229829   0.596   1.967   5.630  2.5802 -0.9706  0.3035
 6065SOL     OW29830   3.271   3.274   4.861  0.1164 -0.1758  0.3934
 6065SOL    HW129831   3.305   3.363   4.851 -1.5998  0.3857 -0.5054
 6065SOL    HW229832   3.181   3.305   4.876  0.3683 -0.0676  1.7183
 6066SOL     OW29833   2.421   2.197   4.821  0.2692 -0.1625 -0.0137
 6066SOL    HW129834   2.500   2.170   4.867 -0.8140  0.0337  1.9516
 6066SOL    HW229835   2.396   2.269   4.879 -1.4439 -1.2756  0.5992
 6067SOL     OW29836   1.222   2.679   7.154  0.7323 -0.1798  0.7690
 6067SOL    HW129837   1.259   2.753   7.106 -2.5562  1.8203  1.3106
 6067SOL    HW229838   1.155   2.643   7.096 -0.0439  0.5414  1.2255
 6068SOL     OW29839   2.970   1.400   2.771 -0.2689  0.3214 -0.4095
 6068SOL    HW129840   2.974   1.489   2.807 -0.9970  0.7089 -1.2977
 6068SOL    HW229841   3.021   1.343   2.829 -1.3605  0.0399  0.2780
 6069SOL     OW29842   1.274   2.291   9.166 -0.1104  0.1796 -0.4132
 6069SOL    HW129843   1.273   2.370   9.113 -1.1761  0.1621 -0.4192
 6069SOL    HW229844   1.279   2.225   9.097  2.5038  0.3015 -0.3396
 6070SOL     OW29845   1.186   4.034   5.832 -0.6778 -0.4074 -0.2512
 6070SOL    HW129846   1.245   4.020   5.905 -2.0978 -0.6623  0.8546
 6070SOL    HW229847   1.185   3.944   5.798 -0.2196 -0.0006 -1.3399
 6071SOL     OW29848   1.675   1.532  12.999 -0.0172 -0.3376 -0.5312
 6071SOL    HW129849   1.640   1.490  13.078  1.4625  0.9293  0.8051
 6071SOL    HW229850   1.598   1.569  12.956  0.1269  0.1433 -0.3796
 6072SOL     OW29851   0.608   1.329   5.470 -0.0842  0.1233  0.0234
 6072SOL    HW129852   0.703   1.319   5.456  0.0059  0.1042  0.6548
 6072SOL    HW229853   0.585   1.351   5.380 -1.8266  1.9308  0.9273
 6073SOL     OW29854   4.571   0.724   3.784 -0.5643  0.3524  0.2010
 6073SOL    HW129855   4.562   0.705   3.691 -2.7232 -1.8811  0.8578
 6073SOL    HW229856   4.531   0.809   3.800  0.5733  0.7229  1.0809
 6074SOL     OW29857   2.683   2.773  17.203 -0.2055 -0.3211  0.4102
 6074SOL    HW129858   2.749   2.776  17.134 -1.5670  0.7007 -0.8418
 6074SOL    HW229859   2.696   2.860  17.241 -0.9231 -0.1686  0.3053
 6075SOL     OW29860   2.457   2.220   5.352 -0.0660  0.6318 -0.6195
 6075SOL    HW129861   2.428   2.141   5.306  0.4283  1.3055 -2.0852
 6075SOL    HW229862   2.385   2.225   5.415  0.4625 -1.2243  0.1357
 6076SOL     OW29863   1.186   0.953   5.565 -0.0351 -0.5273 -0.2192
 6076SOL    HW129864   1.216   0.865   5.542 -0.8414 -0.3301 -1.9768
 6076SOL    HW229865   1.098   0.938   5.599  0.4798 -0.6048  1.1038
 6077SOL     OW29866   4.275   4.682   5.322 -0.4662 -0.1024  0.1169
 6077SOL    HW129867   4.203   4.708   5.379 -1.2471 -1.4809 -0.2226
 6077SOL    HW229868   4.228   4.667   5.240 -1.0194  0.1284  0.3957
 6078SOL     OW29869   0.721   1.337   8.307 -0.2082 -0.4538 -0.4708
 6078SOL    HW129870   0.674   1.407   8.353 -3.7741 -1.4133 -2.6075
 6078SOL    HW229871   0.651   1.325   8.243 -1.0161 -0.1422  0.3553
 6079SOL     OW29872   4.113   1.917   0.670 -0.1635  0.0934  0.0555
 6079SOL    HW129873   4.026   1.958   0.671 -0.2923 -0.2062  0.9410
 6079SOL    HW229874   4.113   1.861   0.593 -0.9453 -0.8447  0.7392
 6080SOL     OW29875   1.274   3.728   2.985 -0.1902 -0.0688  0.1607
 6080SOL    HW129876   1.262   3.823   2.977  1.8013  0.1090 -0.8704
 6080SOL    HW229877   1.187   3.692   2.968  0.3865 -0.8554 -1.0788
 6081SOL     OW29878   1.135   3.162   4.091 -0.0482 -0.3623 -0.1326
 6081SOL    HW129879   1.174   3.144   4.176  0.3024 -1.6646 -0.5712
 6081SOL    HW229880   1.146   3.256   4.073 -1.6679 -0.5232 -1.9943
 6082SOL     OW29881   0.161   3.087   8.083  0.1995 -0.1986 -0.0520
 6082SOL    HW129882   0.098   3.055   8.148 -0.0583 -1.4603 -0.9272
 6082SOL    HW229883   0.214   3.145   8.137 -1.9738 -0.6731  2.6371
 6083SOL     OW29884   4.313   0.829   5.239  0.1693  0.0891  0.4352
 6083SOL    HW129885   4.298   0.775   5.162 -0.1366  1.0590 -0.1935
 6083SOL    HW229886   4.406   0.813   5.256  0.3579  0.8112  0.0892
 6084SOL     OW29887   1.400   2.122  10.302  0.1412 -0.4256  0.1904
 6084SOL    HW129888   1.476   2.064  10.310  1.0527  0.6824 -0.6010
 6084SOL    HW229889   1.422   2.162  10.218 -0.9014  0.8782  0.5332
 6085SOL     OW29890   3.253   1.705   8.963  0.1847  0.0447 -0.1803
 6085SOL    HW129891   3.340   1.668   8.944  0.1318  0.6091 -1.5170
 6085SOL    HW229892   3.239   1.732   8.872  2.5121  2.1822  0.0918
 6086SOL     OW29893   1.479   2.114   5.681 -0.4670 -0.4452 -0.7690
 6086SOL    HW129894   1.450   2.094   5.769  1.5225  0.1171  0.0215
 6086SOL    HW229895   1.393   2.101   5.640 -0.9448  0.7929 -0.1399
 6087SOL     OW29896   3.780   3.183   4.327 -0.0766 -0.2013  0.3048
 6087SOL    HW129897   3.761   3.095   4.293  0.8158 -0.0887 -0.4841
 6087SOL    HW229898   3.833   3.171   4.406  2.8747 -2.2754 -1.9782
 6088SOL     OW29899   4.467   1.109   1.221 -0.2303 -0.4342 -0.0365
 6088SOL    HW129900   4.488   1.199   1.200 -0.8532 -0.1596  0.5106
 6088SOL    HW229901   4.397   1.114   1.287 -0.4719 -0.3919 -0.2947
 6089SOL     OW29902   2.460   0.152   5.607  0.2164 -0.1503  0.3312
 6089SOL    HW129903   2.458   0.095   5.684  0.5464 -2.2466 -1.2384
 6089SOL    HW229904   2.512   0.220   5.651 -0.8031  0.6648  0.2600
 6090SOL     OW29905   4.724   3.497  13.767 -0.2120  0.8854  0.5948
 6090SOL    HW129906   4.631   3.479  13.773 -0.3703  1.4691 -0.0162
 6090SOL    HW229907   0.019   3.454  13.845 -1.5234  0.4997  0.9482
 6091SOL     OW29908   4.689   0.444  14.845  0.4772  0.2048  0.2875
 6091SOL    HW129909   4.619   0.502  14.816 -0.5882 -1.5732 -0.6597
 6091SOL    HW229910   4.663   0.449  14.937  1.0945  3.7865  0.2774
 6092SOL     OW29911   0.220   1.073   8.076 -0.0929  0.0258  0.0849
 6092SOL    HW129912   0.244   1.085   8.168  0.4585 -1.0643  0.0856
 6092SOL    HW229913   0.160   1.147   8.066 -1.4806 -1.1922 -0.5386
 6093SOL     OW29914   4.270   4.341   5.155  0.4898  0.2647  0.4797
 6093SOL    HW129915   4.323   4.363   5.231  0.8195  0.2514  0.2560
 6093SOL    HW229916   4.219   4.417   5.125 -2.3524 -2.7526 -2.3495
 6094SOL     OW29917   4.631   1.305  11.042 -0.3215  0.4022 -0.0004
 6094SOL    HW129918   4.601   1.236  11.101 -0.3894 -0.1916 -0.7309
 6094SOL    HW229919   4.700   1.344  11.096  0.4659 -0.6966 -0.2283
 6095SOL     OW29920   3.616   1.587   3.325  0.4512 -0.3094  0.0875
 6095SOL    HW129921   3.592   1.658   3.265 -0.2572 -1.3259 -0.8109
 6095SOL    HW229922   3.549   1.523   3.302 -0.9711  1.6082 -1.1606
 6096SOL     OW29923   1.140   1.833   1.659 -0.2535  0.0048  0.1375
 6096SOL    HW129924   1.122   1.878   1.742  0.6576  0.6280  0.0010
 6096SOL    HW229925   1.094   1.751   1.678 -2.1359  0.4859 -2.4204
 6097SOL     OW29926   1.654   4.651  11.551 -0.3187  0.3511  0.3674
 6097SOL    HW129927   1.662   4.604  11.469 -0.2080  1.0676 -0.0326
 6097SOL    HW229928   1.743   4.641  11.585 -0.0537  2.0395  0.1891
 6098SOL     OW29929   3.594   1.015   5.738  0.7620 -0.2351  0.2847
 6098SOL    HW129930   3.546   1.051   5.813 -0.7716 -2.0532  0.1988
 6098SOL    HW229931   3.541   0.940   5.710 -0.2052 -0.3409  2.3883
 6099SOL     OW29932   0.125   1.378   6.320 -0.3362 -0.0586 -0.5594
 6099SOL    HW129933   0.195   1.350   6.261 -0.6804 -1.7050 -0.1825
 6099SOL    HW229934   0.181   1.422   6.384 -0.1255 -1.6260  0.3467
 6100SOL     OW29935   1.651   4.598   4.560 -0.0252  0.0995  0.3420
 6100SOL    HW129936   1.590   4.613   4.488  2.4520  2.4258 -1.2771
 6100SOL    HW229937   1.691   4.684   4.569  0.0880 -0.3324  3.8858
 6101SOL     OW29938   4.138   2.838   2.346  0.1691 -0.2649  0.0731
 6101SOL    HW129939   4.212   2.870   2.398  0.4901 -1.0248  0.0741
 6101SOL    HW229940   4.183   2.779   2.286  0.4891  0.0559 -0.0024
 6102SOL     OW29941   3.940   4.568  10.501 -0.0929 -0.1944  0.2069
 6102SOL    HW129942   4.035   4.567  10.495 -0.0577  1.1643  0.6156
 6102SOL    HW229943   3.913   4.559  10.409 -0.0746  0.6209  0.1222
 6103SOL     OW29944   1.932   4.358   7.648 -0.4543 -0.7373 -0.3944
 6103SOL    HW129945   1.858   4.385   7.704 -0.4061 -0.0338 -0.6674
 6103SOL    HW229946   1.892   4.377   7.563 -1.4466 -2.2755 -0.2662
 6104SOL     OW29947   3.212   0.689   8.947 -0.1511  0.4439 -0.0922
 6104SOL    HW129948   3.157   0.699   8.870 -0.6688 -0.6054  0.1455
 6104SOL    HW229949   3.190   0.771   8.991 -3.5332 -0.3832 -0.2259
 6105SOL     OW29950   4.135   3.952   2.986  0.4860 -0.0410  0.1046
 6105SOL    HW129951   4.112   4.043   3.005  1.5148  0.0155  1.1031
 6105SOL    HW229952   4.156   3.963   2.893  0.4082  0.3218  0.1297
 6106SOL     OW29953   2.752   3.361   6.104 -0.8162  0.3959 -0.0555
 6106SOL    HW129954   2.759   3.333   6.012  1.5828 -0.8944  0.5328
 6106SOL    HW229955   2.840   3.391   6.126 -0.5821  0.6626 -1.3311
 6107SOL     OW29956   2.232   1.059  14.565  0.1274 -0.1720  0.3968
 6107SOL    HW129957   2.177   0.981  14.574 -0.2504  0.3163  2.3342
 6107SOL    HW229958   2.323   1.040  14.588 -0.1389  0.4264  1.9814
 6108SOL     OW29959   0.304   4.420  10.500 -0.5331  0.3319  0.0149
 6108SOL    HW129960   0.239   4.491  10.500  1.1564  1.8786 -0.1652
 6108SOL    HW229961   0.336   4.411  10.410 -2.5521 -0.3763 -0.6372
 6109SOL     OW29962   2.077   3.714  16.705 -0.2809 -0.1278 -0.4751
 6109SOL    HW129963   1.983   3.698  16.718 -0.0356 -1.2338 -0.0743
 6109SOL    HW229964   2.080   3.810  16.704 -0.9492 -0.0748  2.5380
 6110SOL     OW29965   3.181   1.217  11.994  0.0781 -0.1311 -0.0370
 6110SOL    HW129966   3.261   1.255  12.030  0.3122 -0.4565 -0.2148
 6110SOL    HW229967   3.197   1.201  11.901 -0.6843  0.4935 -0.2828
 6111SOL     OW29968   4.381   3.545   5.569  0.2175 -0.4530 -0.0131
 6111SOL    HW129969   4.286   3.540   5.575  0.0123 -0.4165 -2.8883
 6111SOL    HW229970   4.384   3.584   5.481  0.7352  1.9787  1.0829
 6112SOL     OW29971   2.053   1.408   3.659 -0.0553  0.0441  0.1112
 6112SOL    HW129972   2.104   1.358   3.722 -0.1366  2.2800  1.9342
 6112SOL    HW229973   1.996   1.342   3.619  1.1260 -0.3034 -0.9826
 6113SOL     OW29974   4.417   0.995   3.600 -0.1671 -0.8269 -0.0111
 6113SOL    HW129975   4.367   0.961   3.526 -0.7798 -0.1104  0.0778
 6113SOL    HW229976   4.500   0.950   3.587  0.5539  0.6292 -0.4448
 6114SOL     OW29977   4.454   1.332  10.801  0.0562  0.1215  0.3763
 6114SOL    HW129978   4.365   1.307  10.825  0.7024 -0.6506  1.9429
 6114SOL    HW229979   4.511   1.295  10.868 -0.2172 -1.8990 -0.5022
 6115SOL     OW29980   2.573   3.365   8.720  0.8924  0.2294  0.1793
 6115SOL    HW129981   2.582   3.453   8.756 -0.6718 -0.0800  1.3048
 6115SOL    HW229982   2.600   3.377   8.628 -1.2189 -3.5159 -0.9333
 6116SOL     OW29983   2.176   0.005  17.716 -0.6867  0.1560  0.7086
 6116SOL    HW129984   2.258   0.016   0.012  0.5522  0.8349 -1.5698
 6116SOL    HW229985   2.171   4.650  17.697 -1.3311  0.6098 -1.3316
 6117SOL     OW29986   4.258   0.863  11.974  0.2404  0.3736  0.8606
 6117SOL    HW129987   4.175   0.910  11.970  1.4429  2.4141 -0.4715
 6117SOL    HW229988   4.243   0.780  12.018 -1.4269  0.0894 -0.2588
 6118SOL     OW29989   0.273   2.402   6.507 -0.3922 -0.4250 -0.5183
 6118SOL    HW129990   0.232   2.471   6.559 -0.5683 -1.2314  0.4166
 6118SOL    HW229991   0.348   2.372   6.558 -0.4727  1.6313  0.8096
 6119SOL     OW29992   2.171   3.852   3.117 -0.4492  0.3567 -0.1895
 6119SOL    HW129993   2.243   3.789   3.122 -1.9039 -1.6284 -3.9722
 6119SOL    HW229994   2.169   3.865   3.212 -0.9430  2.7559 -0.5414
 6120SOL     OW29995   3.454   2.562   4.559 -0.0766 -0.4775  0.0623
 6120SOL    HW129996   3.487   2.491   4.613  1.5725  0.6489  0.5484
 6120SOL    HW229997   3.387   2.608   4.611  0.2449  0.6730 -0.5443
 6121SOL     OW29998   4.167   0.326  15.256 -0.0616  0.9717 -0.1560
 6121SOL    HW129999   4.102   0.299  15.320  0.2289 -0.4313 -0.4561
 6121SOL    HW230000   4.126   0.397  15.207 -1.7831 -0.2749 -0.5345
 6122SOL     OW30001   2.237   4.208  16.974 -0.2850 -0.4268 -0.8712
 6122SOL    HW130002   2.177   4.244  16.909 -1.0006  0.4532  0.2957
 6122SOL    HW230003   2.185   4.140  17.017 -2.6260  1.0177 -1.4234
 6123SOL     OW30004   2.528   2.010   8.642  0.0208  0.3838  0.0802
 6123SOL    HW130005   2.536   2.048   8.554 -1.5515 -1.5420 -0.8998
 6123SOL    HW230006   2.433   1.999   8.652  0.1169  0.4618  1.0224
 6124SOL     OW30007   2.284   2.918  14.518 -0.2019 -0.3219  0.3120
 6124SOL    HW130008   2.229   2.842  14.501  0.0356  0.1001 -2.3785
 6124SOL    HW230009   2.243   2.975  14.453  2.1838  0.2563 -0.7189
 6125SOL     OW30010   0.133   2.885   5.582 -0.3379  0.1301 -0.6554
 6125SOL    HW130011   0.102   2.973   5.559 -3.0005 -0.5419  0.3816
 6125SOL    HW230012   0.069   2.827   5.541  0.7586 -0.3565 -1.6905
 6126SOL     OW30013   4.514   4.040   2.275 -0.3857  0.0963  0.0167
 6126SOL    HW130014   4.439   4.016   2.331 -1.7487  1.0038 -1.4314
 6126SOL    HW230015   4.516   3.981   2.200 -1.6053 -1.3129  1.0903
 6127SOL     OW30016   4.518   3.953   8.973  0.8516  0.0766 -0.1287
 6127SOL    HW130017   4.531   3.884   9.038 -0.0879  0.9777  1.0124
 6127SOL    HW230018   4.436   4.000   8.990  0.8355  0.1490 -0.4133
 6128SOL     OW30019   3.577   4.217   6.083 -0.0798  0.2914 -0.2758
 6128SOL    HW130020   3.655   4.168   6.107 -0.9539 -0.9528 -0.0200
 6128SOL    HW230021   3.617   4.272   6.016  0.0936 -0.5156 -0.8328
 6129SOL     OW30022   4.610   1.805   7.917 -0.3170 -0.6013 -0.1889
 6129SOL    HW130023   4.667   1.732   7.941  1.4438  0.2706 -1.6772
 6129SOL    HW230024   4.530   1.751   7.915 -0.2288 -0.7388 -0.0304
 6130SOL     OW30025   1.319   1.360   3.421 -0.0511 -0.3231 -0.1784
 6130SOL    HW130026   1.260   1.383   3.348 -0.2008  3.4863  1.1681
 6130SOL    HW230027   1.378   1.298   3.377 -2.1783 -1.4096 -1.5056
 6131SOL     OW30028   1.924   3.811  11.658  0.6867  0.0582  0.4487
 6131SOL    HW130029   1.928   3.866  11.736  3.1814  0.6367 -0.0699
 6131SOL    HW230030   2.012   3.772  11.652  0.2705 -0.7417 -0.4552
 6132SOL     OW30031   3.547   4.260   4.135 -0.5715 -0.4969 -0.0598
 6132SOL    HW130032   3.635   4.277   4.169 -0.9453  2.2158 -0.4501
 6132SOL    HW230033   3.567   4.205   4.060 -2.6884 -0.3710 -0.7137
 6133SOL     OW30034   1.730   0.069   1.152  0.2135  0.1629 -0.6371
 6133SOL    HW130035   1.778   0.004   1.204  0.8123  0.4312 -0.8547
 6133SOL    HW230036   1.715   0.012   1.077 -0.9854  2.6281 -2.2583
 6134SOL     OW30037   4.653   1.965   9.707 -0.1505  0.3661  0.0555
 6134SOL    HW130038   4.591   1.912   9.656 -1.7505  2.3227 -0.0452
 6134SOL    HW230039   4.709   1.898   9.747  3.3341  2.3433 -1.5528
 6135SOL     OW30040   3.167   2.267   6.046  0.1606  0.0585  0.0878
 6135SOL    HW130041   3.150   2.318   5.967  0.3020 -1.0205 -0.6412
 6135SOL    HW230042   3.245   2.309   6.082 -1.0513  0.4904  2.2176
 6136SOL     OW30043   1.758   1.900   7.218  0.5769 -0.0441  0.3394
 6136SOL    HW130044   1.829   1.956   7.184  1.3559 -1.3358 -0.1556
 6136SOL    HW230045   1.688   1.964   7.206  2.3872  1.7038 -0.9410
 6137SOL     OW30046   4.322   4.242   3.557 -0.9839  0.4895  0.3618
 6137SOL    HW130047   4.253   4.306   3.578  0.0537  1.6449  0.2368
 6137SOL    HW230048   4.283   4.187   3.489  0.9043 -1.3119  0.7266
 6138SOL     OW30049   2.554   2.600   1.770  0.4062  0.6185  0.2900
 6138SOL    HW130050   2.524   2.648   1.694 -1.3745 -0.1654  0.5092
 6138SOL    HW230051   2.508   2.516   1.776  0.3083  0.7865  1.9991
 6139SOL     OW30052   2.166   3.573  17.316  0.0455  0.0263  0.2246
 6139SOL    HW130053   2.109   3.500  17.290 -0.9001 -0.3026  3.2623
 6139SOL    HW230054   2.128   3.641  17.261  0.8761  1.4997  1.4836
 6140SOL     OW30055   4.099   4.550   3.389 -0.4333  0.4804 -0.0678
 6140SOL    HW130056   4.090   4.503   3.472  3.0048 -0.4030 -0.2158
 6140SOL    HW230057   4.193   4.565   3.377  0.0359 -0.7541  2.1193
 6141SOL     OW30058   1.387   0.702   7.691  0.3676 -0.2744  0.4295
 6141SOL    HW130059   1.439   0.622   7.701  1.9954  1.1029  3.0342
 6141SOL    HW230060   1.311   0.655   7.658 -1.0339  1.9044  0.5681
 6142SOL     OW30061   3.931   4.112   2.737  0.1779 -0.3669  0.3198
 6142SOL    HW130062   3.844   4.116   2.777  0.3254 -0.0868  0.6111
 6142SOL    HW230063   3.940   4.208   2.740  1.7757 -0.5554  1.6418
 6143SOL     OW30064   0.621   0.500  14.773  0.0554  0.0594 -0.1271
 6143SOL    HW130065   0.551   0.503  14.709  1.7153 -0.7545 -1.9757
 6143SOL    HW230066   0.590   0.555  14.846 -1.2946 -1.5992  0.5259
 6144SOL     OW30067   2.761   1.352   8.236 -0.2860  0.2031 -0.2688
 6144SOL    HW130068   2.729   1.287   8.299  0.4948 -0.3864 -0.4769
 6144SOL    HW230069   2.716   1.324   8.156  0.9051 -0.5162 -0.6788
 6145SOL     OW30070   2.515   3.740  17.561  0.1564  0.3851  0.3027
 6145SOL    HW130071   2.433   3.746  17.609  1.2758 -0.4504  2.3124
 6145SOL    HW230072   2.505   3.787  17.478  0.6706 -0.1415 -0.0551
 6146SOL     OW30073   1.007   0.989   2.377  0.5205 -0.2088 -0.0590
 6146SOL    HW130074   1.056   1.019   2.300  1.8862  0.2800  0.9983
 6146SOL    HW230075   0.988   0.899   2.350  0.0322 -0.1698  0.1726
 6147SOL     OW30076   2.235   3.466   7.663  0.3864  0.1677 -0.0042
 6147SOL    HW130077   2.165   3.445   7.601  0.2530 -1.4331  0.7073
 6147SOL    HW230078   2.249   3.553   7.625 -1.1453 -0.2016 -1.4418
 6148SOL     OW30079   4.537   2.276   7.721  0.0556  0.4364  0.0310
 6148SOL    HW130080   4.474   2.241   7.784  0.1085  1.9521  0.9149
 6148SOL    HW230081   4.508   2.247   7.635 -0.1989  0.8234 -0.0125
 6149SOL     OW30082   3.376   2.927   4.039  0.2582 -0.1844  0.0465
 6149SOL    HW130083   3.383   2.833   4.028  0.9874  0.0802 -1.7514
 6149SOL    HW230084   3.281   2.938   4.046  0.2994  0.8912 -0.9383
 6150SOL     OW30085   2.572   0.390   4.310 -0.9158  0.5286  0.4636
 6150SOL    HW130086   2.627   0.368   4.234  0.8902 -2.1070  2.5398
 6150SOL    HW230087   2.531   0.303   4.309  1.2150 -0.4807  1.5572
 6151SOL     OW30088   0.964   1.886   8.399  0.2503 -0.4473 -0.2842
 6151SOL    HW130089   0.912   1.877   8.319  0.8995 -1.6897 -0.5729
 6151SOL    HW230090   0.919   1.820   8.451  1.4959 -0.0775  1.2513
 6152SOL     OW30091   0.504   0.331   3.120 -0.2909  0.4823 -0.2131
 6152SOL    HW130092   0.501   0.417   3.078 -0.6329  1.5591  2.0157
 6152SOL    HW230093   0.544   0.278   3.050  0.4330  0.7171  0.0212
 6153SOL     OW30094   1.748   4.125  16.803 -0.5587 -0.2845  0.1289
 6153SOL    HW130095   1.813   4.193  16.784  0.4681 -1.8963 -2.1375
 6153SOL    HW230096   1.669   4.176  16.789  0.1857  0.7860 -0.1852
 6154SOL     OW30097   4.536   3.894   4.464 -0.0037 -0.3973  0.3514
 6154SOL    HW130098   4.466   3.831   4.480 -1.9121  1.5953 -0.1322
 6154SOL    HW230099   4.617   3.843   4.468 -0.3346 -1.1472 -2.3856
 6155SOL     OW30100   0.305   2.297  12.072 -0.1805  0.1112  0.2828
 6155SOL    HW130101   0.268   2.320  12.158  1.6791  2.1504  0.5510
 6155SOL    HW230102   0.395   2.306  12.102  0.7293  0.5630 -2.5933
 6156SOL     OW30103   3.711   3.586   5.783 -0.3774 -0.1598 -0.3347
 6156SOL    HW130104   3.748   3.498   5.781 -0.8684 -0.4073  1.7284
 6156SOL    HW230105   3.780   3.635   5.738 -0.8589 -0.4031 -1.3462
 6157SOL     OW30106   0.042   0.709  15.614 -0.1583  0.1566  0.1582
 6157SOL    HW130107   0.007   0.670  15.694 -1.8061 -1.5191 -1.3998
 6157SOL    HW230108   0.118   0.650  15.609  0.2502  0.5813  1.3378
 6158SOL     OW30109   3.331   4.125   8.363 -0.0963 -0.3626  0.0747
 6158SOL    HW130110   3.262   4.189   8.377 -2.1326 -2.5330 -0.0305
 6158SOL    HW230111   3.404   4.180   8.333 -0.8445  1.0932  0.9326
 6159SOL     OW30112   0.355   3.531  13.858 -0.2997  0.3320 -0.6702
 6159SOL    HW130113   0.320   3.577  13.782  0.9392  1.0057 -0.8440
 6159SOL    HW230114   0.420   3.592  13.895 -0.1090 -0.5184  0.3914
 6160SOL     OW30115   3.166   2.754   4.326 -0.2370  0.1119 -0.2526
 6160SOL    HW130116   3.150   2.798   4.242  0.9404 -1.1790 -1.1486
 6160SOL    HW230117   3.197   2.678   4.278  0.4365 -1.3525  2.5323
 6161SOL     OW30118   3.323   3.872   7.894 -0.2174  0.1916 -0.8146
 6161SOL    HW130119   3.263   3.868   7.969 -1.7053  0.4495 -1.9796
 6161SOL    HW230120   3.289   3.948   7.846 -0.3195 -0.1068 -1.2142
 6162SOL     OW30121   4.597   1.239   3.519 -0.7009  0.1356 -0.5470
 6162SOL    HW130122   4.643   1.300   3.576  0.9840 -1.6656  0.0093
 6162SOL    HW230123   4.583   1.164   3.577  0.9950  0.7622  0.6803
 6163SOL     OW30124   4.302   1.111   5.221 -0.3844 -0.2603 -0.2186
 6163SOL    HW130125   4.329   1.021   5.205 -0.7207 -0.2278 -0.9535
 6163SOL    HW230126   4.214   1.100   5.257  0.0197 -2.3098  0.1422
 6164SOL     OW30127   3.706   0.555   0.610 -0.1857  0.1233 -0.2012
 6164SOL    HW130128   3.642   0.487   0.588  0.5941 -0.3309 -1.0394
 6164SOL    HW230129   3.794   0.524   0.591 -0.6888 -2.5319  1.7850
 6165SOL     OW30130   0.656   4.152  14.312 -0.5190  0.1461 -0.2738
 6165SOL    HW130131   0.583   4.105  14.351 -0.0969 -0.9972 -0.8789
 6165SOL    HW230132   0.667   4.096  14.235  0.9808 -0.1956  0.1960
 6166SOL     OW30133   2.918   3.736   5.261  0.5415 -0.1102  0.7749
 6166SOL    HW130134   2.884   3.655   5.223 -1.7456  0.5777  1.3578
 6166SOL    HW230135   2.882   3.798   5.197  0.7596 -1.2899 -0.4942
 6167SOL     OW30136   3.901   3.180   7.044 -0.9373 -0.0895  0.1877
 6167SOL    HW130137   3.978   3.177   6.986 -0.4293  0.3821  0.8447
 6167SOL    HW230138   3.844   3.224   6.981 -0.4186 -0.8344 -0.8110
 6168SOL     OW30139   2.366   1.738  13.145  0.6234  0.6740  0.0546
 6168SOL    HW130140   2.372   1.769  13.235 -1.1884 -0.1111  0.4645
 6168SOL    HW230141   2.271   1.725  13.142  0.4797  1.4036  1.5004
 6169SOL     OW30142   1.647   1.862  13.024 -0.6587  0.1070  0.4044
 6169SOL    HW130143   1.587   1.808  12.972 -0.6414  0.0024  0.4921
 6169SOL    HW230144   1.727   1.827  12.984  0.6523  0.9276  2.2910
 6170SOL     OW30145   0.857   0.301   8.607 -0.1596  0.0216  0.5978
 6170SOL    HW130146   0.796   0.236   8.572 -1.1804  1.1193  0.3509
 6170SOL    HW230147   0.811   0.385   8.603  0.6331  0.4392  0.2306
 6171SOL     OW30148   3.197   3.650   7.375  0.5531  0.8767 -0.4023
 6171SOL    HW130149   3.284   3.617   7.352  0.1447 -1.1296  0.8552
 6171SOL    HW230150   3.208   3.695   7.459 -0.1992 -1.4942  0.9871
 6172SOL     OW30151   1.861   0.255   6.951 -0.6474 -0.0537  0.0692
 6172SOL    HW130152   1.861   0.268   6.856  0.3716 -1.5100 -0.1257
 6172SOL    HW230153   1.835   0.339   6.990 -0.0597 -0.2019  0.7690
 6173SOL     OW30154   1.325   1.093  12.630  0.0220  0.0136  0.4186
 6173SOL    HW130155   1.241   1.056  12.603 -0.6614  0.5026  1.8836
 6173SOL    HW230156   1.338   1.053  12.716  0.1040  0.9626  0.8521
 6174SOL     OW30157   3.943   0.827   5.410 -0.2013 -0.2876 -0.3642
 6174SOL    HW130158   3.977   0.804   5.496 -0.7963  3.1509  0.7941
 6174SOL    HW230159   3.993   0.908   5.397  0.1347 -0.3711  0.3965
 6175SOL     OW30160   3.414   3.517   9.408 -0.1280  0.0366  0.0845
 6175SOL    HW130161   3.355   3.445   9.429  0.9044 -1.0262 -0.6864
 6175SOL    HW230162   3.459   3.480   9.333  2.0389  2.5550  0.1302
 6176SOL     OW30163   0.103   3.732   3.525 -0.2854  0.2702  0.4184
 6176SOL    HW130164   0.120   3.728   3.619  1.0783  0.7609  0.1834
 6176SOL    HW230165   0.021   3.688   3.504  0.0536  0.2121 -0.7520
 6177SOL     OW30166   2.060   3.772   0.942  0.0414 -0.6177 -0.4452
 6177SOL    HW130167   1.987   3.728   0.897  0.1137  1.0561 -2.1732
 6177SOL    HW230168   2.135   3.728   0.900  0.2945 -0.5472 -0.0604
 6178SOL     OW30169   3.098   1.028   2.792  0.2790  0.4055 -0.2851
 6178SOL    HW130170   3.129   1.118   2.805  1.6352 -0.5840  3.2657
 6178SOL    HW230171   3.178   0.982   2.768  0.8118  1.4456 -0.5035
 6179SOL     OW30172   4.649   4.637  16.857  0.2004 -0.3122  0.0099
 6179SOL    HW130173   4.689   4.563  16.813  1.7288  0.2344  0.4932
 6179SOL    HW230174   4.727   4.687  16.879  0.6229 -1.9899  2.2126
 6180SOL     OW30175   0.879   3.997  12.139 -0.0309 -0.2987 -0.1307
 6180SOL    HW130176   0.920   3.911  12.150 -0.0395 -0.3962 -0.8307
 6180SOL    HW230177   0.955   4.055  12.141 -0.7322  0.6269 -0.3491
 6181SOL     OW30178   0.182   2.105   7.797  0.4076 -0.2778  0.2444
 6181SOL    HW130179   0.171   2.011   7.780  1.9518 -0.1391 -1.4569
 6181SOL    HW230180   0.120   2.117   7.869  2.0626  0.8873  1.4669
 6182SOL     OW30181   3.024   2.469  17.749 -0.1598  0.0051  0.2020
 6182SOL    HW130182   3.116   2.496  17.750  0.0594 -0.7274  0.4961
 6182SOL    HW230183   3.015   2.439  17.659  0.0994 -1.5492  0.6837
 6183SOL     OW30184   2.964   3.424   0.993  0.1604  0.0239 -0.5857
 6183SOL    HW130185   2.998   3.429   1.082 -2.8097 -0.3905  0.5780
 6183SOL    HW230186   2.996   3.500   0.944  0.5718  0.0118 -0.3325
 6184SOL     OW30187   1.439   0.963   1.093 -0.3218  0.2206 -0.1728
 6184SOL    HW130188   1.468   1.047   1.129 -2.1945  0.8958 -0.2675
 6184SOL    HW230189   1.359   0.961   1.146  0.1416  1.5023  0.5809
 6185SOL     OW30190   3.779   3.055  17.040 -0.1945 -0.6718  0.9201
 6185SOL    HW130191   3.836   3.121  17.000 -0.2447 -0.7007  0.7991
 6185SOL    HW230192   3.708   3.112  17.072 -0.0162  0.2783 -0.3797
 6186SOL     OW30193   2.101   4.095   7.455  0.0653  0.0917 -0.2204
 6186SOL    HW130194   2.093   4.070   7.547  2.3504  1.7555  0.4337
 6186SOL    HW230195   2.190   4.127   7.442  0.1678 -0.7347 -1.5272
 6187SOL     OW30196   1.057   2.197   6.990 -0.2314  0.0170 -0.0225
 6187SOL    HW130197   1.152   2.200   6.990 -0.2362  0.4381  0.8778
 6187SOL    HW230198   1.040   2.110   7.024 -1.3025  0.3738  0.3855
 6188SOL     OW30199   2.775   2.891   6.992 -0.1554  0.2385 -0.3132
 6188SOL    HW130200   2.762   2.807   7.035  3.2026 -0.7513 -1.2089
 6188SOL    HW230201   2.696   2.899   6.939 -1.3906 -1.9724  1.1936
 6189SOL     OW30202   1.074   2.916  14.106 -0.3864  0.1689  0.5399
 6189SOL    HW130203   1.091   2.982  14.173 -0.1724 -0.4763  1.1183
 6189SOL    HW230204   1.147   2.854  14.120  1.5961  1.8752 -2.1437
 6190SOL     OW30205   3.013   3.688   3.299 -0.2461 -0.3601  0.1562
 6190SOL    HW130206   2.928   3.647   3.315 -1.3890  1.2518 -1.7354
 6190SOL    HW230207   2.987   3.758   3.359  0.7854  1.8667 -1.9691
 6191SOL     OW30208   4.436   4.298   9.173 -0.0596 -0.2176  0.2439
 6191SOL    HW130209   4.383   4.354   9.116  0.0375 -0.9858 -0.5936
 6191SOL    HW230210   4.483   4.361   9.228  1.4485  0.2541 -1.5916
 6192SOL     OW30211   0.155   0.168   7.359  0.1886 -0.2526  0.5821
 6192SOL    HW130212   0.088   0.137   7.298 -0.7277  3.2364 -0.2054
 6192SOL    HW230213   0.220   0.199   7.296  2.1850 -1.1694  2.1858
 6193SOL     OW30214   3.236   4.420   6.399  0.5708 -0.2339 -0.3939
 6193SOL    HW130215   3.278   4.438   6.483 -2.4391 -0.6049  1.2055
 6193SOL    HW230216   3.289   4.347   6.368 -0.2359 -0.9132 -0.1858
 6194SOL     OW30217   3.366   3.929   4.904  0.2346 -0.0031 -0.5774
 6194SOL    HW130218   3.349   3.933   4.999  0.6645 -1.1878 -0.4515
 6194SOL    HW230219   3.401   4.016   4.884  2.0215  0.1399  2.9679
 6195SOL     OW30220   2.853   2.504   6.609  0.2408 -0.9676  0.3437
 6195SOL    HW130221   2.825   2.581   6.559  1.3836  0.8382  2.4406
 6195SOL    HW230222   2.905   2.537   6.683 -0.3831 -2.0541  1.2693
 6196SOL     OW30223   2.665   2.608  12.385  0.1753  0.0396 -0.0212
 6196SOL    HW130224   2.632   2.521  12.408  0.6771 -0.3897 -0.9400
 6196SOL    HW230225   2.746   2.596  12.335  0.0671  0.2982 -0.2574
 6197SOL     OW30226   1.019   0.160   5.953  0.2533 -0.8038  0.0648
 6197SOL    HW130227   1.032   0.159   5.858  1.4088 -0.0134  0.2176
 6197SOL    HW230228   1.025   0.255   5.968 -0.0671 -1.1539  2.3379
 6198SOL     OW30229   3.923   3.906   7.827 -0.5590  0.1442  0.0115
 6198SOL    HW130230   3.837   3.930   7.793  0.3101  1.3529 -1.3261
 6198SOL    HW230231   3.955   3.993   7.851  0.5179 -0.5023  0.9558
 6199SOL     OW30232   0.451   4.314   6.867  0.1260 -0.2722  0.1184
 6199SOL    HW130233   0.376   4.358   6.907  0.3168 -0.1146  0.2995
 6199SOL    HW230234   0.413   4.263   6.796 -1.8554  1.0692  0.2051
 6200SOL     OW30235   4.621   0.026  17.482  0.2661 -0.2713 -0.0718
 6200SOL    HW130236   4.615   0.029  17.578 -0.6611 -1.1103 -0.0950
 6200SOL    HW230237   4.667   0.109  17.467  0.3268 -0.3462 -0.2919
 6201SOL     OW30238   3.868   0.921   7.882  0.3121  0.2654  0.1662
 6201SOL    HW130239   3.922   0.912   7.804  0.7597  2.6597  0.2121
 6201SOL    HW230240   3.811   0.844   7.870  1.9823 -0.6585 -1.7712
 6202SOL     OW30241   3.678   4.478   7.450 -0.4573 -0.1167  0.5258
 6202SOL    HW130242   3.635   4.517   7.526 -0.2032 -1.1250  1.1774
 6202SOL    HW230243   3.706   4.563   7.413 -0.0944 -0.9428 -1.0955
 6203SOL     OW30244   1.133   0.800  12.895  0.0225  0.6010  0.3077
 6203SOL    HW130245   1.089   0.756  12.822 -0.9354  1.8514  0.1208
 6203SOL    HW230246   1.104   0.752  12.972  2.0504 -0.1801  0.5787
 6204SOL     OW30247   2.180   4.187   9.459  0.1659 -0.2366  0.5473
 6204SOL    HW130248   2.259   4.169   9.408 -0.0954 -3.2984  1.2472
 6204SOL    HW230249   2.172   4.100   9.497 -1.0807 -0.0375  0.7412
 6205SOL     OW30250   1.651   3.952   3.887  0.1997 -0.2548  0.0323
 6205SOL    HW130251   1.637   3.972   3.979  1.5204  1.8245 -0.2249
 6205SOL    HW230252   1.729   3.897   3.879 -0.2594 -0.5406 -2.3877
 6206SOL     OW30253   2.775   0.758   6.222 -0.0769 -0.5468 -0.0918
 6206SOL    HW130254   2.696   0.706   6.234 -0.9125  0.5577 -0.7386
 6206SOL    HW230255   2.774   0.811   6.302 -0.7462  2.2135 -1.9267
 6207SOL     OW30256   2.450   3.145  11.004  0.2933  0.0055 -0.1856
 6207SOL    HW130257   2.381   3.199  11.042 -1.3152 -0.4846 -2.3547
 6207SOL    HW230258   2.528   3.197  11.025  1.9641 -2.1418 -1.0676
 6208SOL     OW30259   3.608   2.068   5.887  0.0400  0.2362  0.0081
 6208SOL    HW130260   3.605   2.011   5.810  1.0851  0.9509 -0.5625
 6208SOL    HW230261   3.563   2.148   5.859 -0.9480 -0.2695  0.1302
 6209SOL     OW30262   2.883   4.341   0.044 -0.3251 -0.1766  0.3500
 6209SOL    HW130263   2.815   4.277   0.069 -0.0436  0.7332  3.4431
 6209SOL    HW230264   2.951   4.278   0.020 -0.1210  0.4120 -0.5875
 6210SOL     OW30265   1.603   2.869   6.491  0.7781 -0.1053 -0.4134
 6210SOL    HW130266   1.654   2.809   6.546 -0.3036 -1.3519 -0.7488
 6210SOL    HW230267   1.655   2.948   6.489  1.2935 -0.4585 -0.8435
 6211SOL     OW30268   2.690   0.610   7.548  0.1309 -0.3591 -0.2443
 6211SOL    HW130269   2.629   0.568   7.609 -1.6278 -0.1387 -1.8838
 6211SOL    HW230270   2.668   0.572   7.464  1.3794 -0.2685 -0.6216
 6212SOL     OW30271   4.192   2.442   4.637 -0.6774  0.1383 -0.1688
 6212SOL    HW130272   4.105   2.453   4.599 -0.4132 -1.3264 -1.1819
 6212SOL    HW230273   4.226   2.365   4.592 -0.8196  0.6052 -1.0774
 6213SOL     OW30274   3.283   1.440   3.691  0.5829 -0.1454  0.4367
 6213SOL    HW130275   3.326   1.481   3.766 -0.7432  0.7656  0.6966
 6213SOL    HW230276   3.194   1.416   3.714  0.7823  0.0592  1.4501
 6214SOL     OW30277   1.250   0.094   2.555  0.6379 -0.4526  0.4100
 6214SOL    HW130278   1.228   0.001   2.551 -0.8023 -0.0507 -1.0803
 6214SOL    HW230279   1.345   0.104   2.560  0.4120  0.6679  2.1607
 6215SOL     OW30280   3.694   2.780  14.770 -0.2968  0.2362  0.1822
 6215SOL    HW130281   3.781   2.768  14.809 -0.3568 -0.3306  0.1381
 6215SOL    HW230282   3.720   2.805  14.682  1.0616  0.5689  0.6743
 6216SOL     OW30283   2.730   1.119   8.403 -0.2524 -0.5160  0.0002
 6216SOL    HW130284   2.656   1.134   8.462 -0.1161 -2.1223  0.5833
 6216SOL    HW230285   2.725   1.024   8.399 -3.3486 -0.3785  1.1521
 6217SOL     OW30286   1.087   2.493   2.541  0.2643  0.0559 -0.4643
 6217SOL    HW130287   1.148   2.532   2.604  1.6106 -0.1846 -1.6310
 6217SOL    HW230288   1.116   2.523   2.455  0.7729  1.7563  0.2977
 6218SOL     OW30289   4.346   0.169  10.811  0.2482  0.0363  0.4767
 6218SOL    HW130290   4.266   0.189  10.763  1.8366 -0.6825 -2.5240
 6218SOL    HW230291   4.317   0.100  10.870 -1.6297 -0.0437 -0.5350
 6219SOL     OW30292   3.066   0.734   4.001 -0.0097 -0.0284 -1.0547
 6219SOL    HW130293   2.981   0.709   4.037  0.5924 -0.3039  0.1829
 6219SOL    HW230294   3.077   0.814   4.052 -0.5289 -0.6157 -0.0120
 6220SOL     OW30295   4.236   0.246   0.351 -0.4795 -0.2865 -0.3639
 6220SOL    HW130296   4.144   0.222   0.337 -0.8967  1.1848 -0.0647
 6220SOL    HW230297   4.236   0.269   0.443  0.4028  0.6259 -0.5937
 6221SOL     OW30298   2.307   3.146  15.959  0.1198  0.2235  0.1633
 6221SOL    HW130299   2.357   3.218  15.998 -1.2356  0.4523  1.4873
 6221SOL    HW230300   2.225   3.189  15.935 -1.2949 -1.0164  2.7683
 6222SOL     OW30301   3.102   2.013  16.051 -0.0209  0.2339 -0.0785
 6222SOL    HW130302   3.031   2.032  16.112  0.8354 -0.4311  1.1272
 6222SOL    HW230303   3.162   1.961  16.104  0.7364  0.5033 -0.6771
 6223SOL     OW30304   1.800   3.712   3.898 -0.2518  0.0179 -0.0670
 6223SOL    HW130305   1.895   3.701   3.895 -0.7011 -3.7437 -0.6720
 6223SOL    HW230306   1.784   3.649   3.968  1.0578  1.3822  1.4441
 6224SOL     OW30307   3.905   4.159   3.395 -0.5776  0.3382 -0.4019
 6224SOL    HW130308   3.865   4.075   3.375 -1.4194  0.2135  1.7771
 6224SOL    HW230309   3.851   4.189   3.468  0.6407 -1.4962  1.2589
 6225SOL     OW30310   3.093   4.384   7.162  0.3404  0.0714 -0.2214
 6225SOL    HW130311   3.087   4.323   7.235  0.2061 -0.6038 -0.7888
 6225SOL    HW230312   3.008   4.427   7.166  0.5213  0.5348 -1.3170
 6226SOL     OW30313   0.924   0.826   7.250  0.0794  0.7118 -0.0483
 6226SOL    HW130314   0.833   0.826   7.223  0.4033  2.3796 -1.1148
 6226SOL    HW230315   0.952   0.794   7.164 -0.1708 -0.0570  0.1527
 6227SOL     OW30316   3.587   0.525   7.760  0.4393 -0.0073 -0.0034
 6227SOL    HW130317   3.592   0.430   7.769 -0.7146 -0.0585  0.0479
 6227SOL    HW230318   3.665   0.533   7.705 -0.1458  0.9216 -0.7107
 6228SOL     OW30319   2.592   1.562   2.081 -0.5902 -0.0767 -0.1404
 6228SOL    HW130320   2.576   1.490   2.019  1.2166 -0.2116 -0.4434
 6228SOL    HW230321   2.586   1.634   2.019  1.6061 -0.8006 -1.2086
 6229SOL     OW30322   1.261   1.453   5.611 -0.6123  0.0228 -0.4613
 6229SOL    HW130323   1.224   1.376   5.654 -2.8859  0.5227 -1.5353
 6229SOL    HW230324   1.298   1.420   5.529 -0.5644 -2.5208  0.5956
 6230SOL     OW30325   0.670   0.532   3.481 -0.5032  0.2182  0.1983
 6230SOL    HW130326   0.607   0.588   3.526 -0.3139  1.3358 -0.9320
 6230SOL    HW230327   0.746   0.586   3.461 -0.0203 -0.5419 -0.0112
 6231SOL     OW30328   3.990   3.938   7.543  0.2380  0.3949 -0.3757
 6231SOL    HW130329   4.057   3.989   7.499 -1.0012  1.9348 -0.5039
 6231SOL    HW230330   4.026   3.926   7.631 -1.1704  2.4998  0.4936
 6232SOL     OW30331   4.398   1.417  14.646  0.3125  0.2219 -0.3051
 6232SOL    HW130332   4.404   1.481  14.717 -1.5402  2.5901 -2.2971
 6232SOL    HW230333   4.345   1.465  14.582 -0.9606 -0.4295  0.2638
 6233SOL     OW30334   0.894   1.357   1.317  0.4457  0.4619  0.0576
 6233SOL    HW130335   0.941   1.354   1.233  1.4549 -0.1255  0.6408
 6233SOL    HW230336   0.930   1.273   1.346 -0.5072 -0.1282 -0.4458
 6234SOL     OW30337   1.017   2.984   5.549 -0.3685  0.2650  0.6660
 6234SOL    HW130338   1.047   2.932   5.623  2.0679 -0.0435 -0.5383
 6234SOL    HW230339   1.091   3.045   5.545 -0.0699 -0.1935 -0.9446
 6235SOL     OW30340   2.161   3.655   9.968  0.1738 -0.1291  0.7103
 6235SOL    HW130341   2.198   3.729  10.018  0.2426  1.4275 -1.6284
 6235SOL    HW230342   2.068   3.677   9.973 -0.2053 -1.2747 -1.5444
 6236SOL     OW30343   4.126   4.302   6.144 -0.7338 -0.2093  0.7397
 6236SOL    HW130344   4.102   4.390   6.173 -1.4058  1.0284 -3.6210
 6236SOL    HW230345   4.052   4.249   6.175 -0.8197 -0.4203  0.1837
 6237SOL     OW30346   3.970   0.786  15.205 -0.2396 -0.9501  0.1696
 6237SOL    HW130347   4.057   0.765  15.173  0.1171 -0.4449  0.8089
 6237SOL    HW230348   3.942   0.855  15.145  0.6737 -1.4462 -0.8151
 6238SOL     OW30349   2.086   0.966   2.948  0.3359 -0.3222 -0.2498
 6238SOL    HW130350   2.088   0.913   3.028  1.8437 -1.3504 -0.9603
 6238SOL    HW230351   2.017   1.029   2.969 -1.4687 -1.4998 -2.6828
 6239SOL     OW30352   4.615   0.219   7.703 -0.2115 -0.2250 -0.8102
 6239SOL    HW130353   4.561   0.239   7.627 -1.2372  0.7122  0.1448
 6239SOL    HW230354   4.644   0.130   7.685 -0.4286 -0.6472  0.8730
 6240SOL     OW30355   1.083   2.066   2.596  0.0453 -0.0375 -0.7116
 6240SOL    HW130356   1.050   1.980   2.620  0.2413 -0.0061 -0.3395
 6240SOL    HW230357   1.001   2.114   2.610 -0.6570 -1.1103 -1.2014
 6241SOL     OW30358   0.671   4.363   5.977 -0.5822 -0.4399  0.1678
 6241SOL    HW130359   0.730   4.292   6.001  1.2162 -0.2298 -3.6945
 6241SOL    HW230360   0.589   4.337   6.020 -0.7375  0.0231  0.1593
 6242SOL     OW30361   0.498   4.205  11.266  1.1174  0.4084 -0.1188
 6242SOL    HW130362   0.496   4.110  11.275  1.2895  0.3935 -0.2458
 6242SOL    HW230363   0.404   4.225  11.269  2.0843  4.3881  3.1478
 6243SOL     OW30364   4.435   2.909   6.350  0.1354 -0.6408  0.2813
 6243SOL    HW130365   4.456   2.866   6.267  1.0121  1.3219 -0.5024
 6243SOL    HW230366   4.525   2.901   6.383  0.2012 -1.0918 -0.0074
 6244SOL     OW30367   1.963   2.213  17.299  1.1059 -0.6196 -0.0520
 6244SOL    HW130368   1.941   2.286  17.356  1.0174 -0.1968 -0.6262
 6244SOL    HW230369   1.982   2.246  17.211 -2.6015  0.9199 -0.2794
 6245SOL     OW30370   0.946   2.853   7.810 -0.0697  0.2245  0.0811
 6245SOL    HW130371   0.950   2.775   7.755 -0.5659 -1.4664  2.4576
 6245SOL    HW230372   1.016   2.901   7.765 -0.1318 -0.2440 -0.5308
 6246SOL     OW30373   1.810   1.213  11.058 -0.4761  0.2834  0.6433
 6246SOL    HW130374   1.767   1.259  11.131 -0.6504  1.2892 -0.0950
 6246SOL    HW230375   1.869   1.285  11.037 -0.0688 -0.3561 -0.3949
 6247SOL     OW30376   3.164   2.311  10.330 -0.3828 -0.2365 -0.1137
 6247SOL    HW130377   3.154   2.300  10.425 -0.3212 -0.2661 -0.1109
 6247SOL    HW230378   3.072   2.318  10.303 -0.6804 -1.1170  0.6574
 6248SOL     OW30379   4.171   4.656   8.937 -0.2803 -0.0753  0.2214
 6248SOL    HW130380   4.128   4.647   8.852  1.6257  2.8302 -1.0625
 6248SOL    HW230381   4.109   4.709   8.986  0.7438  0.4753  0.9100
 6249SOL     OW30382   4.202   3.269  13.450  0.5949 -0.0880 -0.2801
 6249SOL    HW130383   4.287   3.254  13.410  0.8491  0.5979  0.0080
 6249SOL    HW230384   4.201   3.364  13.463  0.8514 -0.0622 -0.4612
 6250SOL     OW30385   2.632   3.903   5.966  0.4756 -0.0017 -0.2124
 6250SOL    HW130386   2.558   3.865   5.917 -0.6115  2.7515 -0.6912
 6250SOL    HW230387   2.586   3.985   5.982  1.9918  0.5706  1.2010
 6251SOL     OW30388   4.479   0.946   9.312 -0.2120 -0.4654 -0.2445
 6251SOL    HW130389   4.552   0.946   9.250 -0.4445 -1.9932 -0.5096
 6251SOL    HW230390   4.528   0.975   9.388 -1.7849 -0.6203  0.8195
 6252SOL     OW30391   2.707   3.335   1.003  0.3084 -0.2569  0.0014
 6252SOL    HW130392   2.792   3.358   0.965 -0.4624  1.4407 -0.7119
 6252SOL    HW230393   2.737   3.322   1.093 -0.3326 -1.8960 -0.0269
 6253SOL     OW30394   4.327   3.702   4.484 -0.0662  0.4178 -0.1798
 6253SOL    HW130395   4.304   3.627   4.429 -0.4631 -0.0745  0.6467
 6253SOL    HW230396   4.333   3.667   4.573 -1.0314  0.7935  0.0372
 6254SOL     OW30397   4.696   2.166   3.367 -0.6149  0.0140 -0.2459
 6254SOL    HW130398   0.031   2.228   3.366 -0.8493  0.2547 -3.6615
 6254SOL    HW230399   0.014   2.091   3.347  0.0468  1.1329 -2.6425
 6255SOL     OW30400   3.455   0.647  11.195 -0.1354  0.0035 -0.1792
 6255SOL    HW130401   3.447   0.653  11.100 -1.5150 -1.8429 -0.1809
 6255SOL    HW230402   3.378   0.689  11.232  0.4244 -0.4799  1.5357
 6256SOL     OW30403   2.792   2.047  11.610 -0.2499  0.5383 -0.4778
 6256SOL    HW130404   2.735   2.122  11.630  0.1043  1.4033 -2.6889
 6256SOL    HW230405   2.775   1.990  11.685 -0.5008  0.8224 -0.3195
 6257SOL     OW30406   1.527   3.728   0.407  0.1638  0.1145  0.4658
 6257SOL    HW130407   1.527   3.819   0.376  0.8827 -0.0461 -0.0158
 6257SOL    HW230408   1.613   3.726   0.449  0.4177  1.4794  0.0194
 6258SOL     OW30409   4.652   1.454   3.681 -0.1681 -0.2237 -0.1195
 6258SOL    HW130410   0.005   1.443   3.704 -1.2696 -2.0826  3.4432
 6258SOL    HW230411   4.624   1.525   3.740  1.5681 -0.2998  0.7946
 6259SOL     OW30412   3.534   0.664  13.089  0.8372 -0.1856  0.0416
 6259SOL    HW130413   3.561   0.747  13.049 -0.0027  0.0477 -0.0231
 6259SOL    HW230414   3.521   0.696  13.178  1.9032 -0.7610  0.4117
 6260SOL     OW30415   0.603   1.896   2.147 -0.0738 -0.3654  0.0702
 6260SOL    HW130416   0.629   1.894   2.239 -1.7028 -2.7852  0.4907
 6260SOL    HW230417   0.534   1.829   2.143  1.4214 -2.0286  2.1389
 6261SOL     OW30418   4.122   2.388   5.626 -0.3363  0.3682 -0.6025
 6261SOL    HW130419   4.146   2.350   5.711  0.2149  0.6732 -0.6214
 6261SOL    HW230420   4.083   2.472   5.649  1.2558  1.1456 -0.7882
 6262SOL     OW30421   2.712   0.131   3.348  0.5729  0.6888  0.3436
 6262SOL    HW130422   2.711   0.088   3.262 -0.1910  2.6167 -0.6130
 6262SOL    HW230423   2.797   0.100   3.380  0.6187 -0.2383 -0.6569
 6263SOL     OW30424   3.999   1.171   2.583  0.3086 -0.3143 -0.4202
 6263SOL    HW130425   4.085   1.132   2.573  1.7074  3.1593 -1.6848
 6263SOL    HW230426   4.013   1.253   2.631 -1.1638  0.2719 -0.9768
 6264SOL     OW30427   2.939   2.241   3.493  0.3762 -0.5215  0.2756
 6264SOL    HW130428   2.937   2.188   3.573  0.4918 -1.2907 -0.2364
 6264SOL    HW230429   3.013   2.203   3.446 -0.3441 -0.1640 -1.1340
 6265SOL     OW30430   4.560   0.364   5.513 -0.9238 -0.2656  0.2901
 6265SOL    HW130431   4.639   0.418   5.527  0.4998 -2.7705  1.7992
 6265SOL    HW230432   4.533   0.318   5.592 -2.4984  0.2053  0.0291
 6266SOL     OW30433   2.204   4.327   7.649  0.5675  0.4389  0.4386
 6266SOL    HW130434   2.110   4.348   7.645  0.4185  0.1116  2.2233
 6266SOL    HW230435   2.233   4.369   7.568 -0.6434  2.9491  1.2964
 6267SOL     OW30436   1.067   1.674   4.898 -0.0177 -0.2806  0.5858
 6267SOL    HW130437   1.046   1.734   4.970  1.1405 -2.6715  2.9242
 6267SOL    HW230438   1.069   1.589   4.942  0.9166  0.9955  3.0038
 6268SOL     OW30439   0.670   4.061  10.489  0.0691  0.0802 -0.3520
 6268SOL    HW130440   0.649   4.084  10.579  2.4626 -0.9691  0.4831
 6268SOL    HW230441   0.579   4.062  10.458 -0.2082  0.2563  0.4828
 6269SOL     OW30442   3.299   4.668  16.395  0.0040  0.2038 -0.4449
 6269SOL    HW130443   3.261   4.613  16.327  3.5557 -1.1524 -1.3233
 6269SOL    HW230444   3.381   4.622  16.413  0.0591  1.0281  1.4626
 6270SOL     OW30445   4.324   1.501   9.028 -0.0822 -0.4083  0.2632
 6270SOL    HW130446   4.359   1.437   8.966  0.3425 -0.8916  1.0110
 6270SOL    HW230447   4.367   1.472   9.108  1.9717  1.4573 -0.1609
 6271SOL     OW30448   2.966   3.601   8.306 -0.0690  0.6097  0.5968
 6271SOL    HW130449   3.033   3.533   8.312 -1.2002 -0.5668  0.0106
 6271SOL    HW230450   2.886   3.548   8.294 -0.6748  1.4713  0.8335
 6272SOL     OW30451   3.182   2.505   9.390  0.1883 -0.1333 -0.5245
 6272SOL    HW130452   3.241   2.462   9.451 -0.1096  2.1203  1.3289
 6272SOL    HW230453   3.238   2.561   9.337 -0.5199 -1.5461 -2.7579
 6273SOL     OW30454   0.795   1.226   0.077 -0.3288 -0.1529 -0.3009
 6273SOL    HW130455   0.814   1.314   0.046  0.6701 -0.3420 -0.2385
 6273SOL    HW230456   0.731   1.238   0.147  0.8217  2.7603  0.2506
 6274SOL     OW30457   2.343   2.548  10.898  0.1011 -0.2319  0.2528
 6274SOL    HW130458   2.410   2.524  10.833  1.5863  2.3037  0.8673
 6274SOL    HW230459   2.330   2.641  10.882 -0.7569 -0.3563  0.2185
 6275SOL     OW30460   3.527   1.075   3.259  0.3352 -0.5135 -0.9665
 6275SOL    HW130461   3.473   1.008   3.218 -0.6856 -0.6571  0.6294
 6275SOL    HW230462   3.526   1.039   3.347 -0.9826  0.1464 -0.6987
 6276SOL     OW30463   1.165   2.284  11.763  0.1655  0.1831 -0.0625
 6276SOL    HW130464   1.072   2.286  11.787  0.2885 -2.5603  0.6128
 6276SOL    HW230465   1.168   2.216  11.695  2.2183  0.9740 -0.7571
 6277SOL     OW30466   0.439   0.288   6.505 -0.4611  0.5035  0.3452
 6277SOL    HW130467   0.436   0.381   6.529 -1.6174 -0.0664  2.5020
 6277SOL    HW230468   0.491   0.288   6.425  1.6531  0.2607  1.7271
 6278SOL     OW30469   4.664   2.654  11.745  0.1218 -0.1490 -0.2145
 6278SOL    HW130470   4.712   2.580  11.706 -0.0145 -1.7934  2.7112
 6278SOL    HW230471   4.731   2.719  11.725 -1.3167  1.6147  0.7323
 6279SOL     OW30472   1.686   3.956   2.064 -0.1033 -0.2634  0.5107
 6279SOL    HW130473   1.646   4.017   2.002 -4.3017 -0.7147  2.7822
 6279SOL    HW230474   1.604   3.910   2.085 -1.3138  2.2850  1.3191
 6280SOL     OW30475   4.416   3.705  13.641  0.1980 -0.4143  0.3817
 6280SOL    HW130476   4.347   3.766  13.668 -0.1320 -1.0959  1.0773
 6280SOL    HW230477   4.496   3.735  13.684  0.1549 -2.1434  1.6689
 6281SOL     OW30478   3.065   2.221   3.027  0.2982  0.1795 -0.2432
 6281SOL    HW130479   3.012   2.287   2.982 -0.2668 -0.4928 -0.5638
 6281SOL    HW230480   3.006   2.154   3.063 -2.3320  2.0148 -1.1015
 6282SOL     OW30481   0.288   0.191   4.465  0.2714 -0.1866 -0.4364
 6282SOL    HW130482   0.204   0.156   4.436 -0.7558  0.9156  1.2088
 6282SOL    HW230483   0.331   0.105   4.465  2.3971  0.8844  2.2433
 6283SOL     OW30484   2.517   1.089  14.523 -0.2248 -0.0261 -0.0550
 6283SOL    HW130485   2.560   1.004  14.533 -1.5585 -1.0614 -3.2030
 6283SOL    HW230486   2.507   1.120  14.613 -2.1548 -0.6076 -0.0560
 6284SOL     OW30487   2.185   2.534  14.208  0.0681  0.2468 -0.5324
 6284SOL    HW130488   2.216   2.530  14.118 -1.0930  1.3462 -0.9811
 6284SOL    HW230489   2.268   2.508  14.248 -0.0497 -1.6780 -1.5390
 6285SOL     OW30490   2.390   0.273  12.116 -0.0756  0.5096  0.1871
 6285SOL    HW130491   2.310   0.252  12.163  0.6059 -0.0582  1.0836
 6285SOL    HW230492   2.447   0.198  12.130  0.0527 -0.1041 -3.5637
 6286SOL     OW30493   1.455   0.139  10.013 -0.2013  0.1166  0.3551
 6286SOL    HW130494   1.501   0.219  10.038  1.4591 -0.4300 -0.9460
 6286SOL    HW230495   1.371   0.147  10.058 -0.3069 -2.2153  0.5912
 6287SOL     OW30496   4.099   4.233  10.656  0.2018  0.2809 -0.7110
 6287SOL    HW130497   4.158   4.199  10.723 -3.0525 -0.8180  1.6185
 6287SOL    HW230498   4.024   4.223  10.715 -0.2561 -0.9379 -1.4995
 6288SOL     OW30499   3.486   2.110   6.124  0.1660  0.0968  0.1452
 6288SOL    HW130500   3.543   2.098   6.048 -0.3616  0.3269 -0.2837
 6288SOL    HW230501   3.462   2.202   6.115 -0.6098 -0.0288  0.9792
 6289SOL     OW30502   3.388   2.559   0.518  0.3135 -0.1123 -0.0142
 6289SOL    HW130503   3.367   2.601   0.435 -1.5805  0.4167  0.7495
 6289SOL    HW230504   3.378   2.637   0.572  2.2036  0.7280 -0.8611
 6290SOL     OW30505   0.395   1.183   7.215 -0.2973  0.5842 -0.0448
 6290SOL    HW130506   0.402   1.140   7.300 -0.1145  0.3954 -0.1568
 6290SOL    HW230507   0.490   1.191   7.205 -0.2681  0.8729  0.4557
 6291SOL     OW30508   1.091   0.906   1.905  0.1267 -0.3452 -0.1990
 6291SOL    HW130509   1.142   0.895   1.824  0.7695 -0.5487  0.2305
 6291SOL    HW230510   1.114   0.826   1.952 -0.6752 -0.2145  0.4185
 6292SOL     OW30511   0.153   0.088   5.754  0.2917  0.1179  0.0810
 6292SOL    HW130512   0.209   0.021   5.794  0.6442 -0.6299 -1.6733
 6292SOL    HW230513   0.084   0.035   5.714  1.1336 -0.5556 -0.4707
 6293SOL     OW30514   0.672   1.135   2.914 -0.2169  0.0975  0.1245
 6293SOL    HW130515   0.727   1.161   2.840  0.4679  0.8467  0.9192
 6293SOL    HW230516   0.606   1.080   2.870 -0.4585 -0.7895  1.6101
 6294SOL     OW30517   3.688   1.002   7.059 -0.4831 -0.0716 -0.3581
 6294SOL    HW130518   3.763   0.975   7.006 -0.2648  0.9091 -0.5416
 6294SOL    HW230519   3.715   1.090   7.085 -0.0613 -0.1979 -0.3589
 6295SOL     OW30520   0.077   0.043   4.436  0.4568  0.6164  0.0989
 6295SOL    HW130521   0.071   4.689   4.461 -2.4740  0.5784 -0.6731
 6295SOL    HW230522   0.022   0.038   4.357  1.9188 -0.5707 -0.8605
 6296SOL     OW30523   1.910   1.312  15.738 -0.1208 -0.5714  0.4868
 6296SOL    HW130524   1.920   1.217  15.732  0.4637 -0.4663 -0.3072
 6296SOL    HW230525   1.823   1.327  15.773 -0.6588  0.0292 -1.1078
 6297SOL     OW30526   1.085   1.905   8.034  0.0015  0.1573  0.1671
 6297SOL    HW130527   1.179   1.918   8.036 -0.0787  1.0015 -2.1043
 6297SOL    HW230528   1.072   1.811   8.016  0.2053 -0.1998  1.9032
 6298SOL     OW30529   1.632   1.417   1.298  0.4657  0.4980  0.0740
 6298SOL    HW130530   1.631   1.410   1.393  2.1584 -0.2045  0.0394
 6298SOL    HW230531   1.622   1.512   1.284  0.1276  0.5147  0.4222
 6299SOL     OW30532   1.137   2.937   5.807 -0.1137 -0.8764  0.8846
 6299SOL    HW130533   1.101   3.025   5.818 -0.5171 -0.9193 -0.0351
 6299SOL    HW230534   1.231   2.951   5.814 -0.3615  0.6786  1.1406
 6300SOL     OW30535   1.849   4.101   7.938 -0.2841 -0.6284  0.3528
 6300SOL    HW130536   1.759   4.106   7.970 -0.3627 -1.8996  0.3138
 6300SOL    HW230537   1.885   4.029   7.990 -1.3203 -0.4350  1.3295
 6301SOL     OW30538   4.475   0.121   0.367 -0.3243 -0.1956  0.1894
 6301SOL    HW130539   4.500   0.045   0.314 -1.5069  0.5496 -1.4363
 6301SOL    HW230540   4.381   0.128   0.347 -0.2790 -1.4496 -0.4511
 6302SOL     OW30541   4.372   1.468  10.583 -0.1548 -0.2263 -0.4742
 6302SOL    HW130542   4.414   1.434  10.662  0.9735 -0.0612 -0.9979
 6302SOL    HW230543   4.314   1.532  10.624 -0.9091 -2.7349  2.3134
 6303SOL     OW30544   3.933   1.776  14.724 -0.0637 -0.1735  0.4321
 6303SOL    HW130545   3.844   1.767  14.757  0.1101 -1.1783  0.6217
 6303SOL    HW230546   3.965   1.844  14.783  0.2420  0.5507 -0.5725
 6304SOL     OW30547   2.511   0.645   9.231  0.2493 -0.7873  0.7093
 6304SOL    HW130548   2.489   0.652   9.139 -0.6147  0.8849  1.0405
 6304SOL    HW230549   2.497   0.733   9.267 -2.1020 -1.4867  1.4697
 6305SOL     OW30550   0.502   0.033   0.756 -0.2523  0.1344 -0.3446
 6305SOL    HW130551   0.413   0.042   0.722 -0.2435  2.5250  0.2684
 6305SOL    HW230552   0.526   4.696   0.702  1.7008  0.4491  0.0672
 6306SOL     OW30553   3.492   1.021   7.405 -0.2729  0.3116  0.2585
 6306SOL    HW130554   3.583   1.025   7.375 -0.1144  0.9077  0.8198
 6306SOL    HW230555   3.489   0.950   7.469  0.1363  0.2369  0.2001
 6307SOL     OW30556   0.018   2.600   4.607 -0.0633  0.2207  0.5444
 6307SOL    HW130557   0.019   2.506   4.589 -0.8577  0.4179 -0.5547
 6307SOL    HW230558   4.720   2.606   4.696 -3.5563  0.2030 -0.8833
 6308SOL     OW30559   1.308   0.777  16.607  0.6890 -0.0131  0.1260
 6308SOL    HW130560   1.237   0.769  16.671 -0.1842 -0.6782 -0.9318
 6308SOL    HW230561   1.359   0.852  16.637 -0.9484  1.1940 -0.1057
 6309SOL     OW30562   0.806   2.028   2.022  0.1441 -0.2498 -0.0020
 6309SOL    HW130563   0.818   1.954   1.962  1.1099 -0.1992  0.1183
 6309SOL    HW230564   0.730   1.991   2.067 -1.2176  0.8180 -1.4316
 6310SOL     OW30565   0.852   3.636   3.178  0.1755 -0.6364 -0.2725
 6310SOL    HW130566   0.781   3.609   3.120 -1.3195  2.7146  0.0218
 6310SOL    HW230567   0.819   3.711   3.227  1.3756  0.4472 -1.1133
 6311SOL     OW30568   3.327   0.902   8.393 -0.1091 -0.4291 -0.2236
 6311SOL    HW130569   3.282   0.912   8.309 -1.8322  1.3074  0.9299
 6311SOL    HW230570   3.395   0.845   8.356 -0.4557 -0.3378 -1.0055
 6312SOL     OW30571   1.871   2.145   5.813  0.2145  0.3623 -0.4739
 6312SOL    HW130572   1.871   2.082   5.741  0.3073 -0.0295 -0.1289
 6312SOL    HW230573   1.963   2.154   5.837 -0.2832 -0.7809  1.8138
 6313SOL     OW30574   1.807   1.980   1.040 -0.1682  0.1145 -0.3923
 6313SOL    HW130575   1.827   1.989   1.133 -2.0490 -1.9662  0.2180
 6313SOL    HW230576   1.792   2.069   1.009  0.5025  0.4500  0.2642
 6314SOL     OW30577   0.855   1.126   6.548  0.3314 -0.1229  0.2624
 6314SOL    HW130578   0.939   1.080   6.546  0.6940  0.5331  0.4200
 6314SOL    HW230579   0.791   1.067   6.506 -0.5903  1.3417 -0.3860
 6315SOL     OW30580   4.042   1.099   5.357  0.0061 -0.0186  0.1760
 6315SOL    HW130581   4.075   1.116   5.445 -2.9702  4.1076  0.5095
 6315SOL    HW230582   3.996   1.178   5.327 -0.0178 -0.6171 -1.3758
 6316SOL     OW30583   3.433   2.916  10.941  0.2780  0.3596  0.2899
 6316SOL    HW130584   3.402   2.850  11.002 -1.1947 -0.2470 -1.0880
 6316SOL    HW230585   3.519   2.934  10.978  1.2666  1.5012 -2.5238
 6317SOL     OW30586   1.078   0.829   3.426  0.5192  0.0583 -0.9662
 6317SOL    HW130587   1.042   0.863   3.508 -0.5476 -0.0089 -1.4046
 6317SOL    HW230588   1.066   0.734   3.435  0.7200  0.0578 -0.6840
 6318SOL     OW30589   4.315   2.603   8.886  0.2903  0.0370 -0.2034
 6318SOL    HW130590   4.374   2.659   8.835 -0.2730  3.2732  2.6658
 6318SOL    HW230591   4.372   2.553   8.945  2.0763  2.5229  0.2030
 6319SOL     OW30592   3.259   3.184   8.840  0.2073  0.1556 -0.4166
 6319SOL    HW130593   3.180   3.195   8.893  1.2584 -1.4796  1.4670
 6319SOL    HW230594   3.288   3.098   8.870  1.3980  0.0595 -1.8732
 6320SOL     OW30595   4.475   2.818  11.558  0.0699  0.5775  0.1476
 6320SOL    HW130596   4.514   2.753  11.615 -0.8332 -0.1923 -0.1194
 6320SOL    HW230597   4.521   2.806  11.475  0.1623  1.0319  0.1316
 6321SOL     OW30598   4.032   1.894   1.100 -0.6559  0.5784  0.2173
 6321SOL    HW130599   4.106   1.846   1.062 -1.4645  0.6388 -1.3977
 6321SOL    HW230600   4.056   1.985   1.082  1.5259  0.0282  0.2827
 6322SOL     OW30601   0.013   1.204   7.464  0.1435  0.4478  0.1245
 6322SOL    HW130602   4.680   1.189   7.526 -0.3556 -0.0811 -0.5728
 6322SOL    HW230603   0.020   1.119   7.421 -1.9678 -1.2638  3.1256
 6323SOL     OW30604   3.568   3.470   3.433 -0.1552  0.1625  0.4432
 6323SOL    HW130605   3.552   3.388   3.481  0.4339  1.1132  2.2975
 6323SOL    HW230606   3.553   3.536   3.501 -0.2813  0.9349 -0.3330
 6324SOL     OW30607   2.471   1.074   7.021  0.2662  0.1841  0.4200
 6324SOL    HW130608   2.442   1.080   7.112  1.0040  1.8074  0.5457
 6324SOL    HW230609   2.566   1.074   7.023  0.2849  0.6920 -0.2898
 6325SOL     OW30610   4.456   0.735   7.858 -0.0900  0.2652 -0.4478
 6325SOL    HW130611   4.519   0.690   7.802 -1.5087 -0.2670 -1.6213
 6325SOL    HW230612   4.373   0.687   7.852 -0.5523  0.8247  1.7022
 6326SOL     OW30613   3.964   4.174   4.089  0.0665  0.0872 -0.2599
 6326SOL    HW130614   3.923   4.251   4.128 -0.7124  0.7705 -2.4159
 6326SOL    HW230615   4.020   4.139   4.158 -1.1937 -0.2251  0.6130
 6327SOL     OW30616   1.410   4.478   9.115  0.1131  0.1498  0.1824
 6327SOL    HW130617   1.323   4.474   9.156 -0.5218 -1.1942 -1.2645
 6327SOL    HW230618   1.437   4.558   9.160 -0.0354 -0.0689  0.6510
 6328SOL     OW30619   3.830   3.508   7.952 -0.0235  0.5207  0.0344
 6328SOL    HW130620   3.887   3.584   7.935 -0.7860  0.9499 -0.6024
 6328SOL    HW230621   3.831   3.505   8.048  1.6883 -0.9900 -0.0272
 6329SOL     OW30622   2.345   3.512   2.945 -0.2239  0.0361 -0.6721
 6329SOL    HW130623   2.438   3.501   2.962 -0.1024 -0.2361 -1.4787
 6329SOL    HW230624   2.319   3.535   3.034 -0.3773 -0.4460 -0.5912
 6330SOL     OW30625   4.394   3.631  17.223  0.0956 -0.3868  0.9089
 6330SOL    HW130626   4.452   3.631  17.147  0.1100  0.0173  0.9185
 6330SOL    HW230627   4.351   3.717  17.223  0.3291 -0.2683  1.7924
 6331SOL     OW30628   3.432   1.812  14.951 -0.9829  0.1476 -0.8861
 6331SOL    HW130629   3.394   1.725  14.937  0.1121  0.1509 -4.0365
 6331SOL    HW230630   3.363   1.876  14.932 -0.4692  0.7215 -0.8044
 6332SOL     OW30631   3.727   3.879   4.754  0.0333  0.6834 -0.1351
 6332SOL    HW130632   3.759   3.956   4.708 -0.9720  0.6485 -0.8947
 6332SOL    HW230633   3.738   3.906   4.845  1.4639  0.9860 -0.4041
 6333SOL     OW30634   2.814   2.076   2.249 -0.3212 -0.1230  0.1653
 6333SOL    HW130635   2.897   2.121   2.263 -0.7100  1.0596 -1.2587
 6333SOL    HW230636   2.846   1.986   2.257 -0.1788 -0.1154 -0.3247
 6334SOL     OW30637   4.404   0.125   1.751  0.1886  0.0203 -0.6895
 6334SOL    HW130638   4.469   0.095   1.688  1.2217 -0.5124  0.6241
 6334SOL    HW230639   4.343   0.052   1.741  1.5041 -0.6945 -3.5485
 6335SOL     OW30640   1.331   4.014   2.949 -0.3549  0.2642  0.5576
 6335SOL    HW130641   1.416   4.045   2.918 -0.4254  2.3003  2.3944
 6335SOL    HW230642   1.264   4.070   2.908 -0.2747  0.6512  0.9462
 6336SOL     OW30643   4.049   2.906   6.481 -0.4834 -0.2479 -0.1856
 6336SOL    HW130644   3.954   2.896   6.481 -0.4838 -0.3433 -2.7665
 6336SOL    HW230645   4.072   2.906   6.388  0.1629 -1.8801 -0.0372
 6337SOL     OW30646   1.467   1.187   3.283  0.3303 -0.1426  0.1400
 6337SOL    HW130647   1.511   1.140   3.212  0.2052 -0.6172  0.3821
 6337SOL    HW230648   1.410   1.115   3.309 -0.6284  0.0423 -1.4476
 6338SOL     OW30649   2.184   2.114   8.041 -0.3828  0.0155  0.1483
 6338SOL    HW130650   2.103   2.101   8.090 -0.0737 -4.7100 -0.6213
 6338SOL    HW230651   2.153   2.173   7.973  1.5238  0.3202 -0.4766
 6339SOL     OW30652   4.055   4.208   3.047 -0.6768  0.0158  0.3009
 6339SOL    HW130653   4.002   4.226   2.969 -1.0397  0.2919  0.6076
 6339SOL    HW230654   3.999   4.237   3.119  0.5328  1.0917  0.7945
 6340SOL     OW30655   2.705   4.127   3.541  0.2248  0.7080  0.7307
 6340SOL    HW130656   2.799   4.144   3.545  0.8503 -1.8412 -3.0234
 6340SOL    HW230657   2.681   4.149   3.631 -2.2470 -2.7748  0.9533
 6341SOL     OW30658   3.646   2.719   6.778  0.2553  0.1569 -0.2080
 6341SOL    HW130659   3.733   2.727   6.816  0.9266 -2.0893 -1.2259
 6341SOL    HW230660   3.645   2.624   6.770  0.8881 -0.1527  3.5019
 6342SOL     OW30661   3.871   2.865   5.035 -0.2116 -0.6299  0.1560
 6342SOL    HW130662   3.894   2.773   5.044 -0.2357 -0.7346 -0.8766
 6342SOL    HW230663   3.881   2.871   4.940  1.7545  1.2163  0.4637
 6343SOL     OW30664   3.268   0.336   7.104 -0.1224  0.2046  0.3628
 6343SOL    HW130665   3.344   0.376   7.062 -0.9191  0.4540 -0.8661
 6343SOL    HW230666   3.253   0.401   7.172  0.3042 -2.3252  2.8446
 6344SOL     OW30667   2.542   1.670  16.663  0.3089 -0.5703  0.3416
 6344SOL    HW130668   2.557   1.693  16.754  0.0003 -0.7164  0.4308
 6344SOL    HW230669   2.623   1.628  16.635  1.3011  0.0354  2.3097
 6345SOL     OW30670   4.144   0.011   2.487 -0.2518 -0.2622 -0.6604
 6345SOL    HW130671   4.083   0.077   2.519  1.8404  0.2004  2.3891
 6345SOL    HW230672   4.227   0.056   2.469 -0.0515 -0.0563  0.7153
 6346SOL     OW30673   1.509   3.576   2.981  0.1340 -0.2538 -0.0866
 6346SOL    HW130674   1.561   3.617   3.050  0.8668  0.0775 -0.8406
 6346SOL    HW230675   1.434   3.634   2.973 -1.6646 -2.7029 -0.9300
 6347SOL     OW30676   0.172   0.317   8.959  0.1027  0.5749  0.4184
 6347SOL    HW130677   0.157   0.231   8.999 -2.1384  1.4322  1.4125
 6347SOL    HW230678   0.089   0.336   8.916 -0.0297 -2.0949 -0.5154
 6348SOL     OW30679   3.140   4.037   3.460  0.3541 -0.0015 -0.3351
 6348SOL    HW130680   3.116   4.119   3.503  1.4123 -0.0647  0.3908
 6348SOL    HW230681   3.167   4.059   3.371 -0.1780 -1.1910 -0.7825
 6349SOL     OW30682   2.365   2.036   1.566  0.0168 -0.3876 -0.5392
 6349SOL    HW130683   2.288   2.083   1.598  1.0475  0.9846 -0.0817
 6349SOL    HW230684   2.341   1.947   1.592 -0.7375 -0.3073 -0.9732
 6350SOL     OW30685   0.028   3.736   4.496 -0.2452 -0.2174  0.4016
 6350SOL    HW130686   0.051   3.818   4.541 -0.7993 -0.6955  1.5724
 6350SOL    HW230687   0.009   3.676   4.568 -0.9667 -2.1049 -1.3531
 6351SOL     OW30688   4.579   2.682   8.669 -0.3277  0.1455  0.2550
 6351SOL    HW130689   4.596   2.776   8.664 -0.5767  0.1177 -1.1086
 6351SOL    HW230690   4.662   2.645   8.699 -0.2009 -0.8033 -1.2794
 6352SOL     OW30691   3.963   0.847   3.732 -0.6168  0.2034 -0.1885
 6352SOL    HW130692   3.921   0.896   3.802  0.0440  0.8884 -0.2823
 6352SOL    HW230693   3.987   0.771   3.785 -0.8778 -0.5953 -1.2093
 6353SOL     OW30694   3.376   2.273  14.035 -0.0585 -0.6817  0.0857
 6353SOL    HW130695   3.430   2.194  14.035  0.5655 -0.2597  0.1759
 6353SOL    HW230696   3.403   2.300  14.123  3.6897 -1.7297 -0.7078
 6354SOL     OW30697   1.453   1.864   8.829  0.5918  0.3364 -0.2110
 6354SOL    HW130698   1.529   1.834   8.879  0.4966  3.0158  1.5627
 6354SOL    HW230699   1.390   1.879   8.900 -0.0113 -2.4495 -0.1548
 6355SOL     OW30700   0.166   2.800   4.925  0.1378  0.6701  0.0676
 6355SOL    HW130701   0.194   2.791   5.016  2.5450  2.1596 -0.5138
 6355SOL    HW230702   0.105   2.871   4.942 -1.2922 -1.1979  2.7178
 6356SOL     OW30703   3.519   1.561   8.127  0.8290 -0.3357 -0.2432
 6356SOL    HW130704   3.496   1.653   8.109 -1.6995 -1.1981 -1.3943
 6356SOL    HW230705   3.443   1.513   8.095  0.2238  0.3639  0.1243
 6357SOL     OW30706   2.815   1.812   4.007  0.0519  0.1738  0.3341
 6357SOL    HW130707   2.879   1.772   3.948  0.8255  2.4071 -0.3563
 6357SOL    HW230708   2.862   1.815   4.090  0.5936 -0.4976  0.0514
 6358SOL     OW30709   4.729   0.629   3.328  0.6161 -0.9185 -0.9226
 6358SOL    HW130710   4.721   0.600   3.238  0.5535  0.3622 -1.3367
 6358SOL    HW230711   0.029   0.549   3.363  0.0652 -0.9249 -0.3089
 6359SOL     OW30712   1.028   1.262   6.318 -0.1804 -0.9318 -0.6359
 6359SOL    HW130713   0.997   1.334   6.263 -1.1085  1.1313  2.5984
 6359SOL    HW230714   1.099   1.299   6.371 -0.7588  0.1648 -0.6328
 6360SOL     OW30715   1.191   1.547   1.500  0.5467 -0.2675  0.0405
 6360SOL    HW130716   1.120   1.577   1.557  0.0561 -0.1359 -0.6342
 6360SOL    HW230717   1.249   1.623   1.500  1.4224 -0.9450 -3.0926
 6361SOL     OW30718   1.444   1.549   2.668 -0.0022  0.2343 -0.2411
 6361SOL    HW130719   1.538   1.533   2.671  0.0682  0.8792  1.0969
 6361SOL    HW230720   1.425   1.621   2.729 -2.2331 -0.2607 -0.3356
 6362SOL     OW30721   2.568   1.247  17.108  0.3343  0.2439  0.1734
 6362SOL    HW130722   2.539   1.164  17.071 -1.9259  0.6030  1.1596
 6362SOL    HW230723   2.553   1.294  17.027  0.2234  0.0851  0.1020
 6363SOL     OW30724   4.541   0.447   4.987 -0.1953 -0.2399  0.2746
 6363SOL    HW130725   4.573   0.500   4.914 -0.9555 -0.4970 -0.2371
 6363SOL    HW230726   4.625   0.415   5.018 -0.4100 -0.0908  1.0125
 6364SOL     OW30727   0.861   3.934   9.092 -0.2993 -0.7152 -0.2409
 6364SOL    HW130728   0.842   3.926   9.185  1.3771  1.7760  0.3169
 6364SOL    HW230729   0.908   4.016   9.074 -0.7936 -0.6459 -1.2211
 6365SOL     OW30730   4.582   4.541   9.216 -0.3266  0.0082  0.0378
 6365SOL    HW130731   4.650   4.504   9.272 -0.8127  4.2755  3.4141
 6365SOL    HW230732   4.548   4.614   9.269  0.5546 -0.9633  1.9515
 6366SOL     OW30733   0.499   3.336  12.003  0.5804  0.4301 -0.1895
 6366SOL    HW130734   0.507   3.391  12.081 -0.2048 -2.0384  1.6138
 6366SOL    HW230735   0.474   3.257  12.050 -1.4555  0.9196 -0.4640
 6367SOL     OW30736   3.764   0.609   3.990  0.2116  0.2809  0.6646
 6367SOL    HW130737   3.858   0.626   3.994  0.4642 -1.2224  0.8734
 6367SOL    HW230738   3.761   0.524   3.946 -1.5000  1.5165 -1.5747
 6368SOL     OW30739   3.235   4.558  17.649 -0.1120  0.1045 -0.2941
 6368SOL    HW130740   3.173   4.502  17.601  0.7384 -1.0338 -0.0802
 6368SOL    HW230741   3.187   4.606  17.716  0.0795  2.3763 -1.7708
 6369SOL     OW30742   1.346   2.374   7.703  0.3821  0.1316  0.1948
 6369SOL    HW130743   1.435   2.407   7.710  0.3110  0.5687 -1.1320
 6369SOL    HW230744   1.295   2.455   7.709 -2.9176 -2.0282  1.4160
 6370SOL     OW30745   3.743   1.377  12.930  0.3001 -0.0063 -0.6948
 6370SOL    HW130746   3.743   1.289  12.969  2.2360  1.4552  2.5475
 6370SOL    HW230747   3.837   1.383  12.911  1.1953 -0.0499  3.7829
 6371SOL     OW30748   4.738   4.457   3.222  0.2684 -0.0734 -0.6896
 6371SOL    HW130749   0.066   4.452   3.154  0.2964  0.8371 -0.7218
 6371SOL    HW230750   4.667   4.440   3.160  0.2056 -1.2003 -0.3202
 6372SOL     OW30751   0.771   3.556   1.597  0.3236  0.5338  0.1660
 6372SOL    HW130752   0.806   3.468   1.585  1.9101  1.2071 -0.1232
 6372SOL    HW230753   0.852   3.599   1.624  0.8993 -0.4778  0.0555
 6373SOL     OW30754   3.375   2.241   2.526 -0.7487 -0.2814  0.0671
 6373SOL    HW130755   3.301   2.296   2.500 -0.0150 -0.5811 -2.6313
 6373SOL    HW230756   3.449   2.301   2.531 -0.6395 -0.6830  3.1770
 6374SOL     OW30757   4.101   0.461  11.809 -0.1617  0.0642 -0.1476
 6374SOL    HW130758   4.053   0.487  11.887 -1.7776  0.5724 -1.3277
 6374SOL    HW230759   4.043   0.495  11.741  2.4500  1.3090 -1.7798
 6375SOL     OW30760   0.147   0.706   7.466 -1.2410  0.4371 -0.4006
 6375SOL    HW130761   0.195   0.672   7.390 -1.6379 -0.5819 -0.1960
 6375SOL    HW230762   0.129   0.796   7.439 -2.0676  1.1697  2.6580
 6376SOL     OW30763   0.569   2.723  12.926 -0.1705  0.1459  0.3070
 6376SOL    HW130764   0.617   2.645  12.953  0.7394  0.7448  0.4392
 6376SOL    HW230765   0.513   2.672  12.867  0.6665 -0.8127  0.3371
 6377SOL     OW30766   3.652   1.967   6.282 -0.0663  0.2386 -1.0898
 6377SOL    HW130767   3.624   1.995   6.369 -0.5024 -0.0027 -1.1542
 6377SOL    HW230768   3.577   1.999   6.232 -0.5704 -0.7814 -0.9894
 6378SOL     OW30769   3.802   4.702   2.024  0.4428 -0.7009  0.5647
 6378SOL    HW130770   3.762   4.720   1.939  1.3691  0.5661  0.3958
 6378SOL    HW230771   3.801   4.606   2.027 -3.5127 -0.7460 -2.0951
 6379SOL     OW30772   3.782   3.245  10.033 -0.2770 -0.2445 -0.4012
 6379SOL    HW130773   3.704   3.217  10.081  1.0285 -2.5103  0.3751
 6379SOL    HW230774   3.843   3.175  10.053  1.8694  1.2828 -1.6668
 6380SOL     OW30775   2.441   1.890   8.957  0.1636  0.3771  0.1660
 6380SOL    HW130776   2.421   1.897   8.863  0.4636  1.8776  0.2027
 6380SOL    HW230777   2.527   1.928   8.939 -0.0008 -0.6179 -2.7866
 6381SOL     OW30778   2.648   3.142   4.932 -0.3040 -0.3084 -0.3079
 6381SOL    HW130779   2.710   3.114   4.865  0.7594  2.4349 -0.4520
 6381SOL    HW230780   2.710   3.167   5.001 -0.7053  0.7694 -0.3440
 6382SOL     OW30781   3.627   2.820  13.395 -0.2292  0.0665  0.1705
 6382SOL    HW130782   3.573   2.893  13.424 -2.5583 -1.3960 -0.5378
 6382SOL    HW230783   3.564   2.750  13.380  1.1994 -0.9694 -0.9278
 6383SOL     OW30784   0.605   2.486   4.035  0.1466 -0.0734  0.3328
 6383SOL    HW130785   0.574   2.569   4.000  2.7358  1.5621  1.8853
 6383SOL    HW230786   0.668   2.517   4.100  1.1661  0.8228 -1.0807
 6384SOL     OW30787   2.864   1.275   3.332 -0.5505 -0.3883 -0.0896
 6384SOL    HW130788   2.867   1.182   3.355 -0.4749 -0.7768 -1.6641
 6384SOL    HW230789   2.784   1.278   3.280 -1.6706  4.1510  1.8337
 6385SOL     OW30790   2.913   4.172   7.685 -0.3865  0.3380 -0.2253
 6385SOL    HW130791   2.897   4.192   7.592  0.2404  1.2842 -0.1222
 6385SOL    HW230792   2.829   4.137   7.714  0.4197 -2.4355 -1.2384
 6386SOL     OW30793   1.521   3.658   0.109  0.0270 -0.2412  0.2339
 6386SOL    HW130794   1.434   3.695   0.093  0.6847  0.8157 -0.8416
 6386SOL    HW230795   1.531   3.681   0.201  0.8439  0.2825  0.0110
 6387SOL     OW30796   1.566   3.025   9.455 -0.1501 -0.4805 -0.1404
 6387SOL    HW130797   1.644   3.070   9.489  0.4610 -0.0640 -2.1018
 6387SOL    HW230798   1.517   3.015   9.537  0.8038 -2.3945  0.1803
 6388SOL     OW30799   1.787   3.045   7.998 -0.4787  0.7461  0.5684
 6388SOL    HW130800   1.822   3.132   7.978 -0.1090  0.9414  2.0582
 6388SOL    HW230801   1.696   3.074   8.004 -0.9860 -0.5913 -0.4833
 6389SOL     OW30802   1.174   3.797   4.355 -0.0172 -0.6263 -0.2888
 6389SOL    HW130803   1.112   3.734   4.317  0.9801 -1.6137 -0.2676
 6389SOL    HW230804   1.233   3.808   4.280  1.9785 -2.0222  1.0935
 6390SOL     OW30805   1.902   0.991   1.232 -0.0494 -0.4354  0.0057
 6390SOL    HW130806   1.854   0.937   1.170 -1.0721 -0.0674  0.4798
 6390SOL    HW230807   1.822   1.027   1.268  1.1030 -1.2252  3.3702
 6391SOL     OW30808   3.304   4.274   6.024 -0.0057  0.2760  0.2408
 6391SOL    HW130809   3.278   4.226   6.103  0.7580 -0.4941  0.0202
 6391SOL    HW230810   3.394   4.244   6.011 -0.7008 -1.2485 -1.0313
 6392SOL     OW30811   4.131   1.534   2.412  0.0489  0.7171  0.1283
 6392SOL    HW130812   4.221   1.505   2.428 -0.3495 -1.8555 -2.2906
 6392SOL    HW230813   4.117   1.505   2.322  1.1180 -1.3927  0.6559
 6393SOL     OW30814   3.975   0.241   4.971  0.1782  0.1395  0.3662
 6393SOL    HW130815   3.954   0.327   4.935  2.7857  0.9587  0.8578
 6393SOL    HW230816   4.042   0.198   4.919  0.7862  2.3980 -0.7243
 6394SOL     OW30817   0.740   1.478  16.196  0.3064 -0.9171 -0.2626
 6394SOL    HW130818   0.686   1.542  16.243  0.6855  1.6308 -3.2650
 6394SOL    HW230819   0.823   1.521  16.215  0.1502  0.5601 -2.8103
 6395SOL     OW30820   1.723   1.874  16.414 -0.2353 -0.7603 -0.2224
 6395SOL    HW130821   1.721   1.901  16.322  1.0919  0.8203  0.2258
 6395SOL    HW230822   1.712   1.961  16.452  1.8374 -0.8955  0.7064
 6396SOL     OW30823   1.965   2.035   1.357 -0.1898 -0.2168 -0.1708
 6396SOL    HW130824   2.041   2.024   1.299 -0.1997 -0.3375 -0.1611
 6396SOL    HW230825   1.936   1.944   1.355 -2.6254  0.5816 -0.8972
 6397SOL     OW30826   0.973   2.640   1.691 -0.1379 -0.8967  0.2652
 6397SOL    HW130827   1.044   2.700   1.667 -0.0314 -0.6104  1.3409
 6397SOL    HW230828   0.977   2.595   1.606 -1.6431 -1.5315  0.5485
 6398SOL     OW30829   1.687   2.658   2.947  0.5380  0.4184 -0.1681
 6398SOL    HW130830   1.710   2.741   2.905 -0.1412  1.8814  2.4131
 6398SOL    HW230831   1.639   2.620   2.873 -2.1043  0.3660  1.5947
 6399SOL     OW30832   0.650   2.805  15.870 -0.3780 -0.3481 -0.0050
 6399SOL    HW130833   0.646   2.854  15.952 -1.9236  1.3372 -1.0915
 6399SOL    HW230834   0.699   2.725  15.888  0.6483 -0.1627 -1.8677
 6400SOL     OW30835   4.129   1.087  10.095 -0.0267 -0.0382  0.3506
 6400SOL    HW130836   4.158   1.125  10.012  1.8278  2.1641  2.0310
 6400SOL    HW230837   4.089   1.162  10.138  0.3954 -0.1715  0.9632
 6401SOL     OW30838   0.002   2.876  10.511 -0.1597 -0.5742 -0.2364
 6401SOL    HW130839   0.014   2.781  10.520 -1.2867 -0.5790  1.2077
 6401SOL    HW230840   0.092   2.906  10.520  0.3436 -2.6763  1.6759
 6402SOL     OW30841   1.926   4.145   2.995  0.3065 -0.2750  0.1994
 6402SOL    HW130842   2.010   4.142   2.949 -0.0667 -1.8798 -0.3830
 6402SOL    HW230843   1.902   4.053   3.003 -2.1011  0.4310  1.0969
 6403SOL     OW30844   2.029   2.974   8.273  0.0359  0.1549  0.0885
 6403SOL    HW130845   1.971   2.948   8.344 -1.4448 -0.1348 -1.2319
 6403SOL    HW230846   2.075   3.046   8.317  1.6909 -0.8740  0.0150
 6404SOL     OW30847   3.101   1.025   8.737 -0.2327  0.5506 -0.5735
 6404SOL    HW130848   3.192   1.054   8.734  0.5982 -1.9169  0.9605
 6404SOL    HW230849   3.076   1.049   8.648  1.6686 -0.8262 -1.4861
 6405SOL     OW30850   4.323   0.263   5.298 -0.2105  0.5422  0.0296
 6405SOL    HW130851   4.397   0.228   5.248 -0.7905  0.5246 -0.8147
 6405SOL    HW230852   4.321   0.196   5.367 -0.2683  0.1894 -0.3157
 6406SOL     OW30853   1.719   1.985  15.465  0.7625 -0.6098  0.1520
 6406SOL    HW130854   1.712   2.012  15.556  2.7634 -1.9946  0.7100
 6406SOL    HW230855   1.735   2.059  15.406  0.9124  1.5095  2.9098
 6407SOL     OW30856   3.865   2.192   6.722  0.3120 -0.1558 -0.4625
 6407SOL    HW130857   3.955   2.224   6.717  0.5823 -0.8735 -0.1989
 6407SOL    HW230858   3.874   2.113   6.776  1.2044 -0.4721 -1.0746
 6408SOL     OW30859   1.261   1.616   1.983  0.1490 -0.5892  0.3794
 6408SOL    HW130860   1.309   1.690   2.020 -1.1386 -0.7699  2.4042
 6408SOL    HW230861   1.185   1.619   2.041  0.9302 -1.0912  1.4242
 6409SOL     OW30862   3.973   1.639   4.933  0.5767 -0.2432 -0.0331
 6409SOL    HW130863   4.051   1.590   4.957 -1.1146 -2.6180  0.6648
 6409SOL    HW230864   4.004   1.704   4.871 -1.3407  3.1690  2.6139
 6410SOL     OW30865   1.117   0.511   4.761 -0.7062 -0.2183  0.3432
 6410SOL    HW130866   1.116   0.470   4.848 -0.1921 -0.6294  0.1563
 6410SOL    HW230867   1.028   0.502   4.727  0.5114  1.0347 -3.1405
 6411SOL     OW30868   3.783   0.859  12.004 -0.5102 -0.1331  0.4459
 6411SOL    HW130869   3.715   0.925  12.020  0.0854  0.3791  0.8647
 6411SOL    HW230870   3.727   0.783  12.014  1.4219 -1.3567  2.0590
 6412SOL     OW30871   1.904   0.088   9.484 -0.1930 -0.1848  0.4520
 6412SOL    HW130872   1.992   0.126   9.483  0.5874 -2.0417 -0.9679
 6412SOL    HW230873   1.918   0.024   9.554 -2.1032  0.4021  1.3686
 6413SOL     OW30874   2.924   4.634  15.230  0.1522  0.7678 -0.1709
 6413SOL    HW130875   2.845   4.582  15.242  2.9239 -3.1294  1.1256
 6413SOL    HW230876   2.894   4.701  15.168 -2.4499  0.2045  0.5070
 6414SOL     OW30877   0.310   3.503   4.543  0.0118 -0.1611  0.2177
 6414SOL    HW130878   0.387   3.447   4.528 -0.4145 -0.6286 -0.2176
 6414SOL    HW230879   0.354   3.579   4.581 -2.3666  1.5924 -0.5547
 6415SOL     OW30880   0.521   2.115  15.111  0.8518  0.1030  0.5420
 6415SOL    HW130881   0.469   2.193  15.128  2.5455  1.6093 -1.1283
 6415SOL    HW230882   0.590   2.138  15.049 -0.0160 -0.9621 -0.8083
 6416SOL     OW30883   4.068   0.117   5.481 -0.7295  0.0787 -0.0283
 6416SOL    HW130884   4.154   0.154   5.503 -0.3323 -1.7726  1.4923
 6416SOL    HW230885   4.011   0.191   5.459  0.0326  0.3080 -1.2193
 6417SOL     OW30886   2.724   4.691   0.189 -0.5833  0.0156  0.0937
 6417SOL    HW130887   2.796   4.635   0.216  0.5573  1.3776 -0.1495
 6417SOL    HW230888   2.665   4.620   0.161 -2.4940  0.8588  1.9630
 6418SOL     OW30889   0.419   2.863   2.861 -0.1021  0.3032 -0.0613
 6418SOL    HW130890   0.375   2.797   2.808  0.0877  0.3009 -0.2175
 6418SOL    HW230891   0.354   2.933   2.855 -1.4733 -0.9619  0.2580
 6419SOL     OW30892   4.007   2.266   8.938  0.2376 -0.8414 -0.2055
 6419SOL    HW130893   4.092   2.269   8.981  0.7960  0.7896 -1.3916
 6419SOL    HW230894   3.976   2.176   8.947  0.0272 -0.7979 -0.4709
 6420SOL     OW30895   3.674   4.310  11.936  0.1432  0.2675 -0.2553
 6420SOL    HW130896   3.704   4.400  11.923  0.1358  0.4959  1.3455
 6420SOL    HW230897   3.683   4.264  11.852 -1.9148 -1.6454  0.5674
 6421SOL     OW30898   0.664   0.211   7.770  0.2350  0.3385  0.3301
 6421SOL    HW130899   0.736   0.152   7.793 -0.5850 -0.9076 -0.3448
 6421SOL    HW230900   0.624   0.227   7.855 -1.2601 -0.0339 -0.3147
 6422SOL     OW30901   1.725   0.155  11.252  0.2357 -0.0375 -0.1886
 6422SOL    HW130902   1.678   0.072  11.263  1.8334 -0.9638 -0.2177
 6422SOL    HW230903   1.695   0.177  11.164 -0.6437 -0.8412 -0.0842
 6423SOL     OW30904   1.369   3.176  12.730  0.0065 -0.2568  0.1064
 6423SOL    HW130905   1.341   3.084  12.727  0.8696 -0.4204 -2.4915
 6423SOL    HW230906   1.294   3.215  12.685 -0.9103 -0.0926  1.7522
 6424SOL     OW30907   0.611   2.050   7.647  0.0136 -0.2102  0.0102
 6424SOL    HW130908   0.549   1.985   7.615 -0.0259 -0.9357  1.5503
 6424SOL    HW230909   0.556   2.081   7.719  0.5295  0.0581  0.2866
 6425SOL     OW30910   2.793   2.249   4.847 -0.3268 -0.5358 -0.6881
 6425SOL    HW130911   2.832   2.301   4.777  0.8837 -0.5542 -0.0453
 6425SOL    HW230912   2.812   2.310   4.918  0.9909 -0.9445 -0.6716
 6426SOL     OW30913   2.433   1.335   5.329 -1.1054 -0.5653 -0.0948
 6426SOL    HW130914   2.454   1.278   5.403 -0.7961  0.6219  0.7345
 6426SOL    HW230915   2.491   1.409   5.347 -1.2443 -0.3842 -0.3803
 6427SOL     OW30916   1.828   2.422   8.039 -0.0637  0.0902 -0.5727
 6427SOL    HW130917   1.873   2.343   8.009 -2.0463 -0.2955 -2.5639
 6427SOL    HW230918   1.812   2.469   7.956  0.0979  0.1560 -0.5678
 6428SOL     OW30919   3.483   2.725   6.385  0.4472  0.0017 -0.4098
 6428SOL    HW130920   3.577   2.705   6.377  0.4938 -0.4401  1.3559
 6428SOL    HW230921   3.445   2.643   6.415 -0.2313  1.0607  1.6516
 6429SOL     OW30922   4.066   2.074   6.324  0.2019  0.0322 -0.1123
 6429SOL    HW130923   4.004   2.097   6.256 -0.2316  0.6944  0.5083
 6429SOL    HW230924   4.042   1.981   6.327 -0.2604  0.1227 -1.2462
 6430SOL     OW30925   2.419   1.954   8.056  0.3129  0.3571 -0.1555
 6430SOL    HW130926   2.343   2.007   8.081 -0.2818 -0.2197 -0.7469
 6430SOL    HW230927   2.485   1.996   8.112  0.0493 -0.4874  0.7706
 6431SOL     OW30928   0.939   2.873   3.651 -0.1375 -0.0244  0.1400
 6431SOL    HW130929   0.983   2.918   3.722  1.1224  0.0868 -0.7136
 6431SOL    HW230930   0.949   2.929   3.575 -0.8807 -2.3188 -1.6634
 6432SOL     OW30931   3.424   2.266   5.816  0.0315 -0.0898 -0.1983
 6432SOL    HW130932   3.355   2.200   5.826  0.7651 -0.8255  0.0259
 6432SOL    HW230933   3.376   2.321   5.754 -0.3167 -0.0949  0.0674
 6433SOL     OW30934   2.297   4.543   2.312  0.1273 -0.6721 -0.0867
 6433SOL    HW130935   2.275   4.587   2.230 -0.0682 -2.2123 -0.8550
 6433SOL    HW230936   2.346   4.614   2.353  0.5142 -0.4754 -0.8771
 6434SOL     OW30937   0.497   3.156   1.976  0.6150  0.0840  0.0070
 6434SOL    HW130938   0.569   3.142   2.038 -0.2094 -0.5578  0.8302
 6434SOL    HW230939   0.540   3.105   1.908  1.5908  0.3240  0.4477
 6435SOL     OW30940   4.216   0.033   3.056  0.6001  0.1477 -0.3149
 6435SOL    HW130941   4.146   0.057   2.997  1.0430  0.3329 -0.7657
 6435SOL    HW230942   4.247   0.119   3.085  0.6175 -0.3427  1.1179
 6436SOL     OW30943   1.180   0.153  10.109 -0.4754  0.3308 -0.1368
 6436SOL    HW130944   1.103   0.096  10.107  0.6025 -1.0851 -1.5428
 6436SOL    HW230945   1.146   0.231  10.064 -0.9517 -0.5524 -1.3157
 6437SOL     OW30946   1.312   2.871  11.035 -0.2641 -0.4639 -0.4196
 6437SOL    HW130947   1.337   2.827  10.953  2.4221  1.4235 -0.6228
 6437SOL    HW230948   1.361   2.953  11.029  1.4935 -1.4861 -0.2810
 6438SOL     OW30949   1.779   0.963   7.493 -0.0638 -0.0347 -0.3680
 6438SOL    HW130950   1.757   0.990   7.404  0.6224  1.4153 -0.1078
 6438SOL    HW230951   1.691   0.953   7.529  0.0486  1.5320  0.3216
 6439SOL     OW30952   2.950   4.093  13.937 -0.3134 -0.1878  0.4277
 6439SOL    HW130953   2.971   4.053  13.853 -0.7371 -0.7204  0.5810
 6439SOL    HW230954   3.033   4.096  13.984  1.8734 -0.3813 -3.4565
 6440SOL     OW30955   1.567   3.631   6.969  0.1542 -0.5632 -0.4013
 6440SOL    HW130956   1.505   3.581   7.022 -1.0404  2.5544  1.1168
 6440SOL    HW230957   1.573   3.714   7.015 -0.1005 -0.9667  0.3585
 6441SOL     OW30958   1.930   0.422   1.747  0.3544 -0.4543 -0.1679
 6441SOL    HW130959   1.845   0.425   1.704  0.8559  0.2030 -1.1119
 6441SOL    HW230960   1.960   0.336   1.716 -0.6554 -1.4760  1.6892
 6442SOL     OW30961   0.237   3.827   4.864 -0.3589  0.8708 -0.2435
 6442SOL    HW130962   0.322   3.831   4.821 -0.2387 -2.0611 -0.2318
 6442SOL    HW230963   0.200   3.767   4.799 -0.2448  1.9345 -1.2974
 6443SOL     OW30964   2.262   2.628  13.101  1.0882  0.6508 -0.0567
 6443SOL    HW130965   2.222   2.683  13.168 -0.4075 -3.3895  2.3786
 6443SOL    HW230966   2.186   2.594  13.054  0.0702  0.4571  1.7471
 6444SOL     OW30967   0.560   2.438   8.145  0.9937  0.1150  0.6418
 6444SOL    HW130968   0.486   2.474   8.096  0.8939  2.2629  2.3566
 6444SOL    HW230969   0.522   2.413   8.229 -0.3518 -0.0298 -0.0139
 6445SOL     OW30970   2.231   0.751   7.506  0.0631 -0.0709  0.2986
 6445SOL    HW130971   2.233   0.756   7.411 -0.6569  0.3259  0.3039
 6445SOL    HW230972   2.299   0.814   7.529 -0.0743  0.3444 -0.4511
 6446SOL     OW30973   1.742   4.091  15.079 -0.1773  0.0311 -0.7537
 6446SOL    HW130974   1.770   4.025  15.016  0.7083 -0.3512  0.0484
 6446SOL    HW230975   1.729   4.048  15.163 -0.2088  2.2965  0.4215
 6447SOL     OW30976   2.992   2.092   8.954  0.7122 -0.0739  0.9875
 6447SOL    HW130977   3.052   2.167   8.959 -0.6003  0.7217  4.4619
 6447SOL    HW230978   3.015   2.053   8.870  0.2018 -0.9138  1.2438
 6448SOL     OW30979   2.198   4.450   9.556 -0.1924 -0.3482 -0.2549
 6448SOL    HW130980   2.239   4.459   9.642  0.5468 -0.3131 -0.6178
 6448SOL    HW230981   2.213   4.358   9.536  2.0019 -0.8657  3.7356
 6449SOL     OW30982   0.605   3.726   6.300 -0.1414 -0.6631 -0.5366
 6449SOL    HW130983   0.540   3.790   6.329  1.7836  0.1945  1.8832
 6449SOL    HW230984   0.655   3.719   6.381  0.1583  1.6458 -0.5334
 6450SOL     OW30985   3.937   4.406   3.222  0.2544  0.5373  0.1238
 6450SOL    HW130986   3.886   4.355   3.284  0.8230  2.4463  2.1302
 6450SOL    HW230987   3.968   4.477   3.277  1.0136  0.5798 -0.3674
 6451SOL     OW30988   3.136   3.655   9.689  0.3019  0.3827 -0.4146
 6451SOL    HW130989   3.079   3.584   9.660  0.2775  1.1477 -2.2548
 6451SOL    HW230990   3.205   3.606   9.735  0.3334  1.4867  0.7315
 6452SOL     OW30991   4.412   1.756   4.095 -0.5142 -0.2340 -0.4672
 6452SOL    HW130992   4.504   1.744   4.072 -0.2774  2.8424 -1.1604
 6452SOL    HW230993   4.393   1.840   4.054 -0.0617  0.8249  1.4537
 6453SOL     OW30994   2.015   2.703   1.331  0.0688 -0.4395  0.7534
 6453SOL    HW130995   2.061   2.774   1.377 -0.8042  0.1956  0.6607
 6453SOL    HW230996   2.085   2.657   1.286  0.5353 -0.1359  1.1609
 6454SOL     OW30997   3.340   3.640   7.003 -0.2755 -0.1478 -0.3676
 6454SOL    HW130998   3.381   3.585   7.069 -3.1328 -1.3449  0.4140
 6454SOL    HW230999   3.407   3.708   7.003  0.2203 -0.6430  0.1488
 6455SOL     OW31000   2.213   1.428   1.666  0.0500 -0.7894 -0.0876
 6455SOL    HW131001   2.148   1.407   1.599 -0.2268  2.0920 -0.7429
 6455SOL    HW231002   2.210   1.347   1.716  0.6876 -1.9625 -1.9621
 6456SOL     OW31003   0.010   2.085   9.328 -0.6790 -0.0598  0.5449
 6456SOL    HW131004   0.005   1.992   9.350 -0.8907 -0.5642 -1.6197
 6456SOL    HW231005   4.736   2.120   9.416 -0.6334 -1.3958  1.0867
 6457SOL     OW31006   3.545   0.686   2.959 -0.2409  0.3102 -0.4221
 6457SOL    HW131007   3.502   0.730   3.032 -1.2774 -1.1632 -0.1704
 6457SOL    HW231008   3.546   0.745   2.883  2.4633 -0.2293 -0.8216
 6458SOL     OW31009   2.624   3.028   8.143 -1.0072 -0.2470 -0.2924
 6458SOL    HW131010   2.572   2.951   8.167  2.5164 -2.0206  1.6333
 6458SOL    HW231011   2.631   3.012   8.049  0.8878  1.0546 -0.3817
 6459SOL     OW31012   0.068   2.628   8.820  0.3249  0.5439 -0.1143
 6459SOL    HW131013   0.041   2.700   8.877  2.5832  1.3858 -0.1077
 6459SOL    HW231014   0.163   2.639   8.819  0.4126 -0.2046  0.1164
 6460SOL     OW31015   2.696   2.136   2.745  0.3641  0.0173  0.4871
 6460SOL    HW131016   2.641   2.058   2.747  1.1466 -0.5098  1.1208
 6460SOL    HW231017   2.654   2.199   2.804  0.4739 -0.0599  0.6485
 6461SOL     OW31018   2.162   1.439   9.694 -0.5175 -0.0425  0.1831
 6461SOL    HW131019   2.089   1.500   9.699  0.4488  0.8673  3.0395
 6461SOL    HW231020   2.115   1.360   9.721 -1.6207  0.2327 -0.9218
 6462SOL     OW31021   2.345   1.292   4.222 -0.0877 -0.1587 -0.1385
 6462SOL    HW131022   2.283   1.221   4.240 -2.1108  1.6160 -0.1108
 6462SOL    HW231023   2.417   1.247   4.178 -0.2830 -0.5044 -0.1067
 6463SOL     OW31024   3.178   4.010   4.180 -0.1913  0.0890 -0.0298
 6463SOL    HW131025   3.177   4.020   4.275  0.6186  0.8386 -0.0985
 6463SOL    HW231026   3.270   3.994   4.160  0.4302  2.9509  0.5008
 6464SOL     OW31027   4.142   1.899   8.555  0.5959 -0.0604 -0.6353
 6464SOL    HW131028   4.060   1.850   8.561  0.4483  0.5678  2.3240
 6464SOL    HW231029   4.118   1.981   8.598 -1.3411 -1.5150  1.0130
 6465SOL     OW31030   0.915   0.507  11.062  0.0426 -0.0747 -0.3714
 6465SOL    HW131031   1.009   0.519  11.054 -0.2058  1.1149 -1.5426
 6465SOL    HW231032   0.895   0.534  11.151  1.4758 -1.7042  0.4318
 6466SOL     OW31033   4.649   3.218   7.358 -0.1762  0.1310 -0.5700
 6466SOL    HW131034   4.682   3.247   7.272  0.4545  0.0060 -0.3706
 6466SOL    HW231035   4.555   3.215   7.341 -0.1005  1.5386 -1.2318
 6467SOL     OW31036   0.218   4.081  12.437  0.2210  0.7086 -0.3163
 6467SOL    HW131037   0.169   4.112  12.512  2.4200  1.3909  0.8453
 6467SOL    HW231038   0.155   4.070  12.366  0.2752 -0.4304 -0.1898
 6468SOL     OW31039   3.884   3.479  16.463 -0.2338 -0.0995  0.6883
 6468SOL    HW131040   3.935   3.553  16.430 -0.6247 -0.4708 -0.7410
 6468SOL    HW231041   3.864   3.427  16.385  0.2760 -0.4305  0.7769
 6469SOL     OW31042   4.504   0.436   9.748  0.3329 -0.1708  0.3130
 6469SOL    HW131043   4.548   0.520   9.737  2.3487 -1.0635  1.5744
 6469SOL    HW231044   4.517   0.416   9.841 -0.5981 -0.9545  0.2812
 6470SOL     OW31045   2.957   1.865   2.880 -0.1152 -0.7173 -0.5365
 6470SOL    HW131046   2.990   1.777   2.897  1.5856 -0.0364 -0.2708
 6470SOL    HW231047   2.897   1.844   2.809 -1.2524 -1.7859  0.7477
 6471SOL     OW31048   0.271   3.784   3.314 -0.1875  0.1824  0.0218
 6471SOL    HW131049   0.349   3.805   3.365  0.2816 -1.4629 -0.0289
 6471SOL    HW231050   0.206   3.778   3.384  0.3282  0.4959  0.5288
 6472SOL     OW31051   4.577   2.708   1.583  0.3889  0.3060 -0.0078
 6472SOL    HW131052   4.487   2.742   1.589  1.3147  2.5401  1.2490
 6472SOL    HW231053   4.561   2.615   1.568 -2.5100  1.1783 -2.2130
 6473SOL     OW31054   2.423   4.071   0.333 -0.2286  0.3164  0.1487
 6473SOL    HW131055   2.362   4.031   0.271 -0.3426  2.3621 -1.0693
 6473SOL    HW231056   2.437   3.996   0.391  0.6885  1.1888  1.0510
 6474SOL     OW31057   1.214   3.411   5.678  0.5496  0.7556 -0.0968
 6474SOL    HW131058   1.220   3.476   5.608 -1.4408 -0.2789 -1.2311
 6474SOL    HW231059   1.287   3.441   5.732 -0.5300  2.5683  0.3811
 6475SOL     OW31060   0.586   3.040   1.375 -0.0276 -0.8755  0.1684
 6475SOL    HW131061   0.494   3.028   1.399  0.1469 -0.9964  0.7789
 6475SOL    HW231062   0.590   3.129   1.411  2.5779 -1.3678  1.0756
 6476SOL     OW31063   1.560   0.672  16.612  0.0416 -0.4919 -0.6443
 6476SOL    HW131064   1.556   0.581  16.641 -1.0240 -0.7963 -1.7413
 6476SOL    HW231065   1.474   0.711  16.630  1.0215  0.6286  1.5765
 6477SOL     OW31066   3.202   3.628   5.645  0.2251  0.0370 -0.0487
 6477SOL    HW131067   3.130   3.672   5.601 -1.0026 -1.3903  0.5565
 6477SOL    HW231068   3.226   3.695   5.710  1.0359 -0.1773 -0.1232
 6478SOL     OW31069   3.429   3.389   5.118  0.5508  0.1434  0.2997
 6478SOL    HW131070   3.518   3.355   5.131  0.6061  0.4513  0.7280
 6478SOL    HW231071   3.434   3.442   5.038 -0.8474 -1.3036 -0.7491
 6479SOL     OW31072   0.230   1.419   3.542  0.0544  0.0684  0.1051
 6479SOL    HW131073   0.196   1.395   3.628 -0.8913 -0.3076 -0.3666
 6479SOL    HW231074   0.318   1.381   3.540 -0.8298 -2.0600  2.0027
 6480SOL     OW31075   1.093   3.963   3.506 -0.0742  0.0684  0.5298
 6480SOL    HW131076   1.001   3.986   3.505 -0.1409 -0.2634 -1.7373
 6480SOL    HW231077   1.086   3.868   3.498  0.2559 -0.0604  1.7690
 6481SOL     OW31078   1.294   2.258   2.471  0.2505 -0.4461  0.1141
 6481SOL    HW131079   1.240   2.271   2.393  0.1203 -0.7093  0.1593
 6481SOL    HW231080   1.227   2.208   2.518 -0.0780  1.7224  1.9543
 6482SOL     OW31081   0.534   3.278  16.793 -0.2764 -0.9302 -0.0733
 6482SOL    HW131082   0.460   3.235  16.750 -1.1499 -2.1103  2.6139
 6482SOL    HW231083   0.572   3.324  16.718  2.0449  1.3280  2.4895
 6483SOL     OW31084   4.430   4.695   4.841  0.1718 -0.3995 -0.1494
 6483SOL    HW131085   4.496   0.012   4.882 -1.4858  1.2131  0.3477
 6483SOL    HW231086   4.476   4.612   4.849 -0.5779 -0.6541  1.4388
 6484SOL     OW31087   1.627   2.293   2.009  0.2876  0.1575  0.0377
 6484SOL    HW131088   1.574   2.218   1.986  1.8669 -0.6572 -0.9763
 6484SOL    HW231089   1.682   2.301   1.931  0.7919  0.8609  0.4553
 6485SOL     OW31090   0.231   3.656   7.414  0.0430 -0.1160 -0.1886
 6485SOL    HW131091   0.145   3.687   7.441 -0.2634 -0.2659 -0.9926
 6485SOL    HW231092   0.208   3.620   7.328 -1.0742  1.2279 -0.4417
 6486SOL     OW31093   2.415   4.586  12.134  0.1741  0.6928 -0.1489
 6486SOL    HW131094   2.352   4.635  12.081  3.4561  1.8751 -2.9743
 6486SOL    HW231095   2.412   4.635  12.215  0.3382  2.2615 -1.0875
 6487SOL     OW31096   1.115   3.067  16.186 -0.0657  0.2964 -0.0383
 6487SOL    HW131097   1.075   3.073  16.099  2.1662 -1.2104 -1.1770
 6487SOL    HW231098   1.201   3.041  16.154  0.7906 -0.3607  2.7694
 6488SOL     OW31099   3.126   1.205   5.006 -0.5192 -0.2752  0.4643
 6488SOL    HW131100   3.184   1.246   5.070 -1.2120 -0.7115  1.3720
 6488SOL    HW231101   3.184   1.205   4.931 -0.5294  1.9285  0.4627
 6489SOL     OW31102   3.310   1.207   3.533 -0.0291  0.2434 -0.2959
 6489SOL    HW131103   3.239   1.172   3.479 -1.3070  1.6647  0.4893
 6489SOL    HW231104   3.285   1.297   3.552 -3.1393 -0.4085 -1.1943
 6490SOL     OW31105   4.020   1.394   5.618 -0.4255  0.8688  0.1875
 6490SOL    HW131106   4.049   1.469   5.567  0.3873  0.8044  0.5675
 6490SOL    HW231107   3.930   1.415   5.643 -1.0243  1.1377 -2.1468
 6491SOL     OW31108   3.156   0.990   4.196  0.3050  0.1375  0.5702
 6491SOL    HW131109   3.110   0.910   4.221  3.2105 -1.0435  2.1154
 6491SOL    HW231110   3.092   1.062   4.192  0.6984  0.4971  0.7261
 6492SOL     OW31111   1.419   1.667   9.082 -0.2033 -0.0131 -0.0009
 6492SOL    HW131112   1.410   1.724   9.158  0.3826 -0.2887  0.2711
 6492SOL    HW231113   1.509   1.636   9.078 -0.0032  0.8026 -1.7504
 6493SOL     OW31114   0.115   4.388   6.495 -0.2627 -0.2737 -0.2194
 6493SOL    HW131115   0.028   4.417   6.466  0.7110  1.9019 -0.9794
 6493SOL    HW231116   0.150   4.471   6.525  1.5641 -1.2144  0.2373
 6494SOL     OW31117   1.516   0.689   3.240 -0.2124 -0.2103  0.0561
 6494SOL    HW131118   1.470   0.727   3.164  0.6945 -1.7878 -1.2819
 6494SOL    HW231119   1.456   0.617   3.261  0.5755 -0.9249 -0.1641
 6495SOL     OW31120   3.211   3.646   0.671 -0.0500 -0.1421  0.6073
 6495SOL    HW131121   3.125   3.628   0.633  0.0875  2.6857 -1.0609
 6495SOL    HW231122   3.208   3.741   0.660 -0.0457 -0.0240  1.5735
 6496SOL     OW31123   0.218   2.840  10.721  0.0717  0.5647 -0.6285
 6496SOL    HW131124   0.272   2.853  10.643 -0.6558 -0.4168 -1.3000
 6496SOL    HW231125   0.272   2.802  10.790  0.0932  1.6282 -0.0633
 6497SOL     OW31126   3.787   0.283  12.701  0.3550 -0.7247  0.6094
 6497SOL    HW131127   3.798   0.190  12.721 -2.8091 -1.2025  0.1881
 6497SOL    HW231128   3.696   0.307  12.721  0.7164  0.7565  0.4833
 6498SOL     OW31129   2.840   2.934  11.832 -0.3561  0.6357 -0.2357
 6498SOL    HW131130   2.862   2.970  11.918  0.2435 -0.3352  0.0146
 6498SOL    HW231131   2.752   2.972  11.826  0.6006  2.8731 -0.3164
 6499SOL     OW31132   1.309   0.357   8.724 -0.2600  0.4951  0.0354
 6499SOL    HW131133   1.321   0.308   8.805  2.1157  1.8975  0.5317
 6499SOL    HW231134   1.226   0.405   8.730 -0.2979  0.4826 -0.3610
 6500SOL     OW31135   0.970   2.417   1.512  0.2584 -0.2208 -0.3404
 6500SOL    HW131136   0.889   2.387   1.554  0.2561  1.6070  0.9724
 6500SOL    HW231137   0.942   2.416   1.420 -2.0657  0.7814  0.3531
 6501SOL     OW31138   2.899   1.789   1.013 -0.1691 -0.5082 -0.1281
 6501SOL    HW131139   2.864   1.767   1.099 -0.8511  0.6067 -0.1271
 6501SOL    HW231140   2.977   1.733   1.019  0.4949  0.4474  0.0198
 6502SOL     OW31141   4.014   0.373   5.880  0.3979  0.1395  0.4515
 6502SOL    HW131142   4.030   0.420   5.798 -1.4145 -0.2495 -0.1375
 6502SOL    HW231143   3.933   0.416   5.907  0.2365 -0.1163  0.3784
 6503SOL     OW31144   4.727   3.879   7.136 -0.7840  0.5630 -0.2268
 6503SOL    HW131145   4.719   3.939   7.062 -0.3066 -0.9203 -1.4820
 6503SOL    HW231146   0.077   3.845   7.120 -1.4758 -1.7441  0.7435
 6504SOL     OW31147   1.536   1.087   7.071  0.0509 -0.2006  0.2675
 6504SOL    HW131148   1.580   1.152   7.126 -0.7797 -0.1030  0.8055
 6504SOL    HW231149   1.454   1.094   7.118  0.7304 -1.2344  1.5961
 6505SOL     OW31150   0.592   4.039   4.358 -0.7245 -0.1043  0.3404
 6505SOL    HW131151   0.645   4.117   4.370 -0.6139 -0.2469  0.7565
 6505SOL    HW231152   0.531   4.064   4.288  2.4730  2.0794 -1.6439
 6506SOL     OW31153   2.487   1.031   9.026 -0.8161 -0.2333 -0.2327
 6506SOL    HW131154   2.425   1.081   8.973 -0.1822 -0.1555 -0.8913
 6506SOL    HW231155   2.559   1.093   9.033  0.5196 -1.8572  0.2706
 6507SOL     OW31156   0.557   4.501   4.810 -0.3172 -0.0374  0.0898
 6507SOL    HW131157   0.620   4.527   4.877  0.5673 -0.7143 -0.4941
 6507SOL    HW231158   0.477   4.506   4.862 -0.1793 -1.0336  0.3938
 6508SOL     OW31159   1.908   3.158   2.084 -0.3010 -0.0655 -0.1442
 6508SOL    HW131160   1.994   3.121   2.064  0.3941  1.4938 -0.0437
 6508SOL    HW231161   1.855   3.093   2.037  0.9628 -2.7309  2.0836
 6509SOL     OW31162   1.380   1.191   0.830 -0.0500  0.0015 -0.3041
 6509SOL    HW131163   1.288   1.162   0.829  0.1686 -0.6279 -1.6220
 6509SOL    HW231164   1.417   1.128   0.892 -0.9371 -0.6212 -0.4061
 6510SOL     OW31165   2.933   4.355  11.984 -0.2777  0.1845  0.2780
 6510SOL    HW131166   2.882   4.321  12.058  0.0691 -1.4434 -0.2140
 6510SOL    HW231167   3.023   4.335  12.009 -0.3959  1.9119  2.0632
 6511SOL     OW31168   1.916   1.969   5.623 -0.3297  0.2581 -0.3619
 6511SOL    HW131169   1.985   1.903   5.615  0.2264  0.9856 -1.6740
 6511SOL    HW231170   1.842   1.916   5.595 -0.6136  0.0598  0.7646
 6512SOL     OW31171   4.342   1.942  11.896  1.1623  0.1632 -0.4986
 6512SOL    HW131172   4.257   1.953  11.939  0.5319 -3.4894 -0.7707
 6512SOL    HW231173   4.354   2.005  11.826  2.3161 -0.0800 -0.5363
 6513SOL     OW31174   3.421   3.441   6.290 -0.1245  0.2700 -0.3643
 6513SOL    HW131175   3.435   3.511   6.354  0.5276 -2.6928  2.7389
 6513SOL    HW231176   3.362   3.480   6.226 -1.0625 -1.2662 -0.4223
 6514SOL     OW31177   1.358   3.022   8.341  0.0139 -0.1762  0.0034
 6514SOL    HW131178   1.272   3.063   8.349 -0.5011 -1.5325  1.4493
 6514SOL    HW231179   1.319   2.957   8.282  0.4032 -1.1431  0.8123
 6515SOL     OW31180   1.384   1.560   4.134  0.3998  0.0464 -0.0845
 6515SOL    HW131181   1.382   1.481   4.189 -1.1016  1.4694  1.8914
 6515SOL    HW231182   1.311   1.549   4.074  0.5086  0.6439 -0.3253
 6516SOL     OW31183   4.611   0.807   2.149 -0.2641  0.0625  0.1572
 6516SOL    HW131184   4.528   0.785   2.106  1.3899 -1.5992 -2.1611
 6516SOL    HW231185   4.587   0.796   2.242 -2.2147  2.6134 -0.0542
 6517SOL     OW31186   4.250   3.141   2.956  0.5971 -0.1407 -0.1500
 6517SOL    HW131187   4.181   3.129   2.890  1.1045  4.1745 -1.4540
 6517SOL    HW231188   4.207   3.166   3.038  0.8342  1.7770 -0.6024
 6518SOL     OW31189   3.486   0.528  14.307  0.9054 -0.4690  0.0190
 6518SOL    HW131190   3.442   0.459  14.357 -2.8306  1.4613 -0.6530
 6518SOL    HW231191   3.512   0.484  14.226 -2.1048 -0.8974 -0.7297
 6519SOL     OW31192   0.880   2.674   7.591 -0.5463 -0.3606 -0.1426
 6519SOL    HW131193   0.851   2.632   7.510 -0.7216 -2.2999  0.9116
 6519SOL    HW231194   0.835   2.758   7.582  0.3158 -0.1468 -2.6106
 6520SOL     OW31195   2.929   1.505   2.086  0.1861 -0.6216  0.0905
 6520SOL    HW131196   2.852   1.462   2.125  1.2097 -1.2010  1.4757
 6520SOL    HW231197   2.900   1.560   2.014  0.9035 -2.1806 -1.3944
 6521SOL     OW31198   3.302   1.377  15.818 -0.1943  0.0820 -0.5521
 6521SOL    HW131199   3.228   1.434  15.799 -0.2270  1.1732  2.9516
 6521SOL    HW231200   3.269   1.287  15.820 -1.7859  0.6633 -1.1089
 6522SOL     OW31201   2.404   4.579   1.873 -0.5725  0.1098  0.3544
 6522SOL    HW131202   2.492   4.550   1.899 -0.3725  0.3459 -0.0514
 6522SOL    HW231203   2.419   4.631   1.794 -0.9489  3.0695  2.2580
 6523SOL     OW31204   2.425   3.119  11.540  0.6405 -0.3572 -0.3128
 6523SOL    HW131205   2.494   3.106  11.474  1.3849 -0.3718  0.4745
 6523SOL    HW231206   2.467   3.114  11.625  1.6484  0.5212 -0.7597
 6524SOL     OW31207   2.202   3.234   5.470 -0.0812 -0.1838 -0.2733
 6524SOL    HW131208   2.282   3.200   5.507  0.7466  1.6247 -0.3692
 6524SOL    HW231209   2.226   3.258   5.380 -0.2167  1.8649  0.2218
 6525SOL     OW31210   0.672   3.036   1.801 -0.0102 -0.2568 -0.0958
 6525SOL    HW131211   0.679   2.949   1.761  1.3022  0.0429 -0.5469
 6525SOL    HW231212   0.750   3.075   1.761 -1.5500  2.3063 -0.5696
 6526SOL     OW31213   2.131   1.290   4.632 -0.7555  0.0372  0.1498
 6526SOL    HW131214   2.178   1.206   4.635 -0.3137  0.2441 -1.0451
 6526SOL    HW231215   2.178   1.334   4.703 -1.2171  1.8156 -0.6688
 6527SOL     OW31216   4.663   1.188  16.586 -0.1650  0.8864  0.0744
 6527SOL    HW131217   4.620   1.170  16.670 -2.8579 -1.0873 -1.7199
 6527SOL    HW231218   4.686   1.280  16.589  0.8446  0.6430 -0.3554
 6528SOL     OW31219   3.881   2.602   6.579  0.4175 -0.5500  0.3942
 6528SOL    HW131220   3.937   2.526   6.566  0.3127 -0.5646  0.0342
 6528SOL    HW231221   3.796   2.561   6.598  0.1209  0.3407  1.0013
 6529SOL     OW31222   0.401   4.400  12.970 -0.1766 -0.7084 -0.1012
 6529SOL    HW131223   0.455   4.479  12.963 -0.8762 -0.3510 -1.5285
 6529SOL    HW231224   0.460   4.327  12.947  1.8785  1.2344 -1.0225
 6530SOL     OW31225   3.773   0.841   7.623 -0.2350  0.6773  0.2127
 6530SOL    HW131226   3.810   0.929   7.634  1.4263 -0.0723  0.4593
 6530SOL    HW231227   3.800   0.812   7.536 -0.9226  1.6697 -0.3441
 6531SOL     OW31228   4.733   2.504  12.963  0.1637  0.4267 -0.2360
 6531SOL    HW131229   0.000   2.497  13.059  0.8908  0.3684 -0.2831
 6531SOL    HW231230   0.030   2.593  12.952  0.8503  0.2496  0.5611
 6532SOL     OW31231   1.443   1.694  16.421  0.0173  0.7166  0.4027
 6532SOL    HW131232   1.517   1.675  16.479 -0.5429 -1.7563  0.3112
 6532SOL    HW231233   1.368   1.697  16.480 -0.2275  2.9532 -0.0281
 6533SOL     OW31234   2.929   0.168  15.571  0.0068 -0.4082  0.1765
 6533SOL    HW131235   2.970   0.236  15.518 -1.2530  1.3064  1.4144
 6533SOL    HW231236   2.993   0.166  15.641  0.0048  1.5774  0.2229
 6534SOL     OW31237   2.040   3.192   7.711 -0.1092  0.6553 -0.1803
 6534SOL    HW131238   2.046   3.098   7.693 -1.1529  0.1038  2.3540
 6534SOL    HW231239   2.094   3.197   7.790  0.1065 -2.0064 -0.1657
 6535SOL     OW31240   0.967   0.129   1.160 -0.0151  0.4553  0.1848
 6535SOL    HW131241   0.912   0.051   1.171  0.8132 -0.1599 -0.0457
 6535SOL    HW231242   0.999   0.117   1.071 -0.9747 -1.4403  0.1022
 6536SOL     OW31243   4.018   0.449  13.871  0.0702  0.0009  0.0710
 6536SOL    HW131244   3.991   0.541  13.871  0.5034  0.1324  0.5169
 6536SOL    HW231245   4.081   0.455  13.799 -1.0676 -2.3362 -1.1106
 6537SOL     OW31246   1.746   0.234  12.014 -0.5843  0.1383 -0.4332
 6537SOL    HW131247   1.730   0.302  11.949  0.6895  0.2291 -0.6418
 6537SOL    HW231248   1.818   0.279  12.058 -0.7956 -0.0214  0.0822
 6538SOL     OW31249   2.590   3.515   3.982  0.2822  0.5168 -0.5030
 6538SOL    HW131250   2.640   3.533   4.062  0.5054 -1.0073 -0.3024
 6538SOL    HW231251   2.584   3.420   3.977 -0.0713  0.3851  2.5694
 6539SOL     OW31252   2.456   4.314   5.351  0.1268 -0.6452  0.6162
 6539SOL    HW131253   2.426   4.238   5.301 -0.9398  0.7047 -0.7996
 6539SOL    HW231254   2.550   4.320   5.336 -0.0013  0.1044  0.1267
 6540SOL     OW31255   2.908   3.735   4.700 -0.3922  0.2405  0.6261
 6540SOL    HW131256   2.836   3.679   4.729 -2.3383  1.9335 -0.8501
 6540SOL    HW231257   2.986   3.689   4.731  1.9663  2.5731 -1.8909
 6541SOL     OW31258   3.064   3.443  11.933 -0.2430  0.0194  1.0761
 6541SOL    HW131259   2.987   3.453  11.989 -0.4730 -1.5174  1.0090
 6541SOL    HW231260   3.130   3.459  12.001 -0.0650  0.6443  0.7612
 6542SOL     OW31261   1.456   3.104   1.525 -0.4597  0.2546 -0.4033
 6542SOL    HW131262   1.438   3.154   1.604 -2.6856 -0.4657 -0.4579
 6542SOL    HW231263   1.511   3.167   1.478 -0.5907  1.2442  0.7790
 6543SOL     OW31264   4.738   3.307  11.796  0.9333 -0.1743 -0.1346
 6543SOL    HW131265   4.676   3.343  11.860  0.0750 -1.7004 -0.1171
 6543SOL    HW231266   4.714   3.356  11.717 -0.4168 -0.7313 -0.0580
 6544SOL     OW31267   1.560   2.729   3.702 -0.5561 -0.6263  0.1631
 6544SOL    HW131268   1.632   2.669   3.681  0.9679  1.6608 -1.0736
 6544SOL    HW231269   1.604   2.784   3.767 -0.1926  1.0157 -1.4821
 6545SOL     OW31270   0.671   0.215   7.304 -0.0164 -0.0001 -0.1462
 6545SOL    HW131271   0.616   0.140   7.283 -0.0245 -0.6729  2.3421
 6545SOL    HW231272   0.640   0.227   7.393  0.8816 -0.8507  0.2819
 6546SOL     OW31273   2.550   1.498   3.511 -0.1866 -0.4825  0.0915
 6546SOL    HW131274   2.459   1.527   3.498 -0.7053 -2.8054 -1.4648
 6546SOL    HW231275   2.597   1.570   3.553  0.1157 -0.8982  0.4621
 6547SOL     OW31276   4.191   0.214   4.413  0.1440 -0.6404  0.2344
 6547SOL    HW131277   4.113   0.226   4.468 -1.0574 -2.3461 -1.0946
 6547SOL    HW231278   4.231   0.156   4.478  2.4748 -0.3634 -0.9571
 6548SOL     OW31279   0.087   3.982   4.595 -0.4089  0.3946  0.2682
 6548SOL    HW131280   0.002   4.017   4.622  0.6239  1.5847  1.9361
 6548SOL    HW231281   0.122   4.044   4.531  2.0140  0.4268  1.6239
 6549SOL     OW31282   2.533   4.347  15.967  0.3013  0.2293  0.7945
 6549SOL    HW131283   2.459   4.339  15.907  1.0659  5.1908 -0.8687
 6549SOL    HW231284   2.576   4.262  15.960 -0.3277  0.1766 -2.2989
 6550SOL     OW31285   0.502   2.285   6.598 -0.0912  0.0893 -0.4510
 6550SOL    HW131286   0.581   2.334   6.621  1.1324 -1.3247 -1.6618
 6550SOL    HW231287   0.508   2.283   6.503 -1.0029 -0.8330 -0.4861
 6551SOL     OW31288   3.364   0.292   0.320 -0.0999 -0.5074 -0.3562
 6551SOL    HW131289   3.306   0.240   0.264 -1.4707  1.5632 -0.8371
 6551SOL    HW231290   3.366   0.380   0.283 -0.0197 -0.6044 -0.5858
 6552SOL     OW31291   2.286   3.166   4.985  0.6179 -0.1561 -0.2079
 6552SOL    HW131292   2.300   3.072   4.984  2.0020  0.0494 -0.1790
 6552SOL    HW231293   2.334   3.197   4.908 -0.3235  1.8713  0.0201
 6553SOL     OW31294   0.446   1.924   7.842  0.7082 -0.4185 -0.3879
 6553SOL    HW131295   0.403   1.857   7.895  0.6287 -0.3709 -0.3926
 6553SOL    HW231296   0.525   1.935   7.896 -0.7771  2.3862  1.2244
 6554SOL     OW31297   1.123   1.557   2.395 -0.1212 -0.2872  0.1848
 6554SOL    HW131298   1.180   1.507   2.336  1.2538 -0.5210  1.7012
 6554SOL    HW231299   1.186   1.623   2.424 -1.1409  0.8666 -0.2663
 6555SOL     OW31300   2.039   3.928   8.326 -0.3566 -0.0355  0.1226
 6555SOL    HW131301   1.991   3.916   8.408 -0.6511  0.3320  0.0016
 6555SOL    HW231302   2.025   4.020   8.307 -0.0509 -0.1550 -0.6609
 6556SOL     OW31303   1.771   2.047   9.158 -0.5793 -0.0088  0.5505
 6556SOL    HW131304   1.812   2.126   9.123 -0.5985  0.4359  1.5270
 6556SOL    HW231305   1.838   1.980   9.150 -1.3084 -0.4706 -1.7407
 6557SOL     OW31306   2.745   2.349   4.542 -0.0437  0.7154 -0.0040
 6557SOL    HW131307   2.750   2.385   4.454  1.2515  1.3424  0.3254
 6557SOL    HW231308   2.835   2.333   4.570  0.2995 -1.3251 -2.3279
 6558SOL     OW31309   0.065   0.475   8.254  0.5720  0.0993 -0.1830
 6558SOL    HW131310   4.719   0.471   8.298  0.1089  2.1164 -0.9274
 6558SOL    HW231311   0.079   0.382   8.235 -0.3686 -0.1741  0.4364
 6559SOL     OW31312   2.820   2.522  17.506 -0.7233  0.0632 -0.7543
 6559SOL    HW131313   2.754   2.472  17.458 -1.2123  0.2213 -0.2583
 6559SOL    HW231314   2.791   2.540  17.596 -1.4370 -2.3779 -0.4954
 6560SOL     OW31315   0.871   4.636   4.723 -0.3674  0.1628  0.0502
 6560SOL    HW131316   0.957   4.596   4.735 -0.1309  1.6078  3.1770
 6560SOL    HW231317   0.841   4.624   4.633 -0.7974  0.7401  0.1134
 6561SOL     OW31318   1.462   2.588  17.395  0.0256  0.2631 -0.2134
 6561SOL    HW131319   1.429   2.513  17.345 -2.0870 -0.2170  1.9230
 6561SOL    HW231320   1.555   2.566  17.381  0.1620  0.7985 -0.1322
 6562SOL     OW31321   4.091   1.155   6.319 -0.3019  0.1971  0.4424
 6562SOL    HW131322   4.103   1.066   6.351  0.4804  0.2883  0.3971
 6562SOL    HW231323   4.180   1.180   6.296 -0.4309  0.1222 -0.1221
 6563SOL     OW31324   3.250   2.124  14.424 -0.1979 -0.5567  0.1831
 6563SOL    HW131325   3.255   2.219  14.430 -1.6473 -0.6712  3.0176
 6563SOL    HW231326   3.322   2.092  14.370  0.2151  0.3249  0.2240
 6564SOL     OW31327   3.034   1.089   1.909 -0.3190 -0.0556 -0.3852
 6564SOL    HW131328   3.062   1.054   1.993 -0.1247  1.2715  0.1001
 6564SOL    HW231329   3.054   1.181   1.923  2.3720 -0.6589 -0.2944
 6565SOL     OW31330   3.496   4.248   3.143  0.4426 -0.2533  0.0058
 6565SOL    HW131331   3.407   4.214   3.135  0.6559 -0.4764 -1.3792
 6565SOL    HW231332   3.499   4.295   3.227  1.9574  0.9655 -0.7354
 6566SOL     OW31333   4.124   2.130  12.415 -0.0964 -0.2608  0.5562
 6566SOL    HW131334   4.067   2.054  12.428  0.8271 -0.7975  1.5142
 6566SOL    HW231335   4.152   2.141  12.506  1.3057  2.1197 -0.1673
 6567SOL     OW31336   3.499   4.681   2.675 -0.5941  0.4491 -0.8473
 6567SOL    HW131337   3.474   0.031   2.700 -0.5649  0.1143  0.3856
 6567SOL    HW231338   3.575   4.706   2.622  0.6675 -1.2733  0.1307
 6568SOL     OW31339   1.521   0.225   5.424  0.2447 -0.0804 -0.0412
 6568SOL    HW131340   1.486   0.176   5.499 -0.9073  0.1170 -0.4486
 6568SOL    HW231341   1.455   0.209   5.357 -1.7672  0.5849  1.7905
 6569SOL     OW31342   1.137   0.143   8.535  0.4409  0.4053 -0.4677
 6569SOL    HW131343   1.061   0.086   8.539 -0.3433  1.4486 -0.4189
 6569SOL    HW231344   1.084   0.204   8.483 -0.0909  0.3941  0.0706
 6570SOL     OW31345   1.857   4.158   3.261  0.1912 -0.1391  0.0994
 6570SOL    HW131346   1.837   4.095   3.330  3.0229 -0.8837  0.2553
 6570SOL    HW231347   1.875   4.098   3.188  0.2092  0.4758 -0.3993
 6571SOL     OW31348   3.126   3.314   8.606  0.3438  0.2387 -1.0027
 6571SOL    HW131349   3.188   3.307   8.678 -0.6840  0.3312 -0.1019
 6571SOL    HW231350   3.060   3.379   8.632  1.0733 -0.4541  2.5277
 6572SOL     OW31351   1.516   1.115   5.593  0.5240 -0.3909 -0.7599
 6572SOL    HW131352   1.439   1.166   5.616  0.7903  0.2083 -1.2156
 6572SOL    HW231353   1.570   1.162   5.655 -0.7429  0.1889 -0.0900
 6573SOL     OW31354   1.868   1.636   5.359 -0.9834  0.5404  0.0599
 6573SOL    HW131355   1.900   1.594   5.439 -0.6786  0.1777 -0.2541
 6573SOL    HW231356   1.950   1.643   5.310 -1.8070  0.5581 -1.3247
 6574SOL     OW31357   0.683   2.419  16.900 -0.1941 -0.2488  0.1718
 6574SOL    HW131358   0.622   2.474  16.950 -0.1951 -2.8050  2.9734
 6574SOL    HW231359   0.627   2.355  16.855  1.7824 -0.6562 -1.7189
 6575SOL     OW31360   0.642   3.442   1.964 -0.2567  0.3486  0.2221
 6575SOL    HW131361   0.660   3.374   1.899  3.9932  1.0535  0.6923
 6575SOL    HW231362   0.550   3.466   1.950  0.2116  2.1782  0.3083
 6576SOL     OW31363   2.118   3.635   4.622 -0.3291  0.3131 -0.6092
 6576SOL    HW131364   2.105   3.611   4.530 -1.9095  0.9320 -0.5425
 6576SOL    HW231365   2.026   3.629   4.647 -0.2128 -1.1121 -0.5215
 6577SOL     OW31366   1.043   2.310   2.809  0.3305 -0.0283  0.2036
 6577SOL    HW131367   1.093   2.350   2.739 -2.4884  0.5338 -1.4799
 6577SOL    HW231368   1.115   2.292   2.869  1.0896 -1.1615 -1.0410
 6578SOL     OW31369   1.908   1.835   8.205 -0.0640  0.1728  0.5874
 6578SOL    HW131370   1.976   1.779   8.167 -1.7398 -0.5794 -1.3445
 6578SOL    HW231371   1.941   1.922   8.184  3.2639 -1.6982 -1.9522
 6579SOL     OW31372   2.107   2.267   6.388  0.7697  1.0208 -0.3537
 6579SOL    HW131373   2.149   2.348   6.415 -0.1170  2.0413 -2.0222
 6579SOL    HW231374   2.120   2.264   6.293  0.4162  2.6467 -0.4539
 6580SOL     OW31375   0.278   0.037   8.697 -0.0142 -0.1603  0.2345
 6580SOL    HW131376   0.225   4.728   8.633 -1.0840 -0.1390  1.1058
 6580SOL    HW231377   0.278   0.126   8.661  0.1916 -0.7703 -1.3079
 6581SOL     OW31378   4.472   2.812   7.874 -0.2444 -0.6916  0.1121
 6581SOL    HW131379   4.475   2.747   7.804  0.7253 -2.3992  1.7681
 6581SOL    HW231380   4.541   2.782   7.932 -0.2937 -0.3160  0.3720
 6582SOL     OW31381   3.330   3.137   3.720 -0.3240 -0.3665  0.2975
 6582SOL    HW131382   3.238   3.121   3.738 -0.1585 -1.4633  0.1577
 6582SOL    HW231383   3.340   3.232   3.711  0.0321 -0.3322  1.0229
 6583SOL     OW31384   4.138   3.281   4.209 -0.1974 -0.0307 -0.0920
 6583SOL    HW131385   4.083   3.227   4.153  2.0954 -0.3404 -2.0252
 6583SOL    HW231386   4.138   3.371   4.176  0.2068  0.3025  0.8155
 6584SOL     OW31387   2.124   4.122   5.200 -0.3025 -0.0599 -0.3466
 6584SOL    HW131388   2.071   4.195   5.233 -0.7304  0.3047 -1.8007
 6584SOL    HW231389   2.110   4.051   5.262 -1.9980  0.4437 -0.1691
 6585SOL     OW31390   2.784   3.486   5.742  0.0622 -0.3287  0.1566
 6585SOL    HW131391   2.850   3.435   5.789 -0.5823  0.3174  1.7627
 6585SOL    HW231392   2.731   3.518   5.814 -0.0320 -0.3431  0.0930
 6586SOL     OW31393   2.214   1.130   8.284  0.6518 -0.8767 -0.0459
 6586SOL    HW131394   2.302   1.128   8.247  0.2321  0.3027 -1.1008
 6586SOL    HW231395   2.151   1.124   8.213  1.0768 -0.0019 -0.4970
 6587SOL     OW31396   3.605   1.819  13.208 -0.0770 -0.5751  0.4194
 6587SOL    HW131397   3.653   1.880  13.153  0.2239 -1.7833 -0.6520
 6587SOL    HW231398   3.604   1.740  13.155  0.8035  0.3726 -0.9973
 6588SOL     OW31399   4.133   0.892   8.294  1.1374  0.3417  0.0334
 6588SOL    HW131400   4.047   0.899   8.252  1.2460 -3.2144 -0.7869
 6588SOL    HW231401   4.194   0.912   8.223 -0.8752 -1.0167 -2.0774
 6589SOL     OW31402   2.692   3.180   6.722  0.1189 -0.1361  0.5237
 6589SOL    HW131403   2.642   3.099   6.718 -1.9255  1.0309  2.6570
 6589SOL    HW231404   2.652   3.209   6.804 -0.3526  1.5987 -0.3423
 6590SOL     OW31405   2.353   2.939   2.181 -0.2264 -0.3347  0.2794
 6590SOL    HW131406   2.419   2.887   2.137  0.0940  0.0545  0.2998
 6590SOL    HW231407   2.306   2.863   2.216 -2.0488  1.2167  1.2237
 6591SOL     OW31408   3.415   2.698   6.948 -0.4278 -0.3642  0.3854
 6591SOL    HW131409   3.491   2.717   6.893 -0.0688 -2.7224  0.0546
 6591SOL    HW231410   3.449   2.715   7.036  1.0130 -0.6318 -0.1279
 6592SOL     OW31411   1.738   4.263  10.095  0.2254 -0.5896 -0.0228
 6592SOL    HW131412   1.731   4.233  10.004  0.0883  0.1837 -0.2765
 6592SOL    HW231413   1.697   4.188  10.137 -2.1534  0.3856 -0.5931
 6593SOL     OW31414   4.190   3.463   3.377 -0.6159 -0.1128  0.3234
 6593SOL    HW131415   4.168   3.465   3.470  0.6647 -2.1099  0.6558
 6593SOL    HW231416   4.259   3.397   3.374  1.1585  1.7543  0.1412
 6594SOL     OW31417   0.487   0.852  14.227 -0.2168 -0.1309 -0.2253
 6594SOL    HW131418   0.454   0.799  14.299 -2.0626 -0.7021 -1.4874
 6594SOL    HW231419   0.456   0.936  14.261  0.7565  0.6242 -1.1911
 6595SOL     OW31420   0.106   4.390   5.648 -0.2583  0.1360  0.3649
 6595SOL    HW131421   0.157   4.392   5.567 -0.2362  1.1410  0.4046
 6595SOL    HW231422   0.150   4.454   5.702 -0.2974  0.1392  0.3932
 6596SOL     OW31423   2.452   3.472  17.354  0.2327  0.4497 -0.2808
 6596SOL    HW131424   2.432   3.383  17.382 -1.0415  0.7646 -0.1788
 6596SOL    HW231425   2.361   3.500  17.337 -0.6815 -1.4139  1.5883
 6597SOL     OW31426   4.481   3.756  12.411 -0.4405  0.2580 -0.3600
 6597SOL    HW131427   4.457   3.741  12.503  1.0296 -0.1448 -0.0320
 6597SOL    HW231428   4.488   3.666  12.379 -0.7073 -0.0647  0.4728
 6598SOL     OW31429   2.994   2.091  15.559 -0.1295 -0.2578  0.4728
 6598SOL    HW131430   3.034   2.088  15.646  0.9384  0.1871  0.0040
 6598SOL    HW231431   3.060   2.139  15.509 -0.2743 -1.7052 -1.1407
 6599SOL     OW31432   4.720   1.147   5.070 -0.2378  0.4852 -0.4069
 6599SOL    HW131433   4.685   1.089   5.002 -1.2378  0.7749 -0.1311
 6599SOL    HW231434   0.053   1.096   5.109  0.5594  0.9016 -1.3255
 6600SOL     OW31435   0.912   0.207   4.436  0.3920  0.0402  0.2451
 6600SOL    HW131436   0.892   0.279   4.495 -1.8898 -0.8836  0.5845
 6600SOL    HW231437   0.832   0.159   4.415 -0.2023  1.5772 -0.9133
 6601SOL     OW31438   3.373   0.725   1.677 -0.1949  0.4141  0.2566
 6601SOL    HW131439   3.355   0.754   1.587  1.0027  1.4373  0.3535
 6601SOL    HW231440   3.311   0.767   1.737 -0.6801  0.4330 -0.2532
 6602SOL     OW31441   2.609   3.073   1.984  0.3701  0.5972  0.0140
 6602SOL    HW131442   2.690   3.085   2.033  0.6296  2.3238 -0.8500
 6602SOL    HW231443   2.578   2.996   2.033  2.7384 -0.3259  0.0271
 6603SOL     OW31444   4.392   1.772   1.052  0.4873  0.3391  0.0609
 6603SOL    HW131445   4.392   1.828   1.130 -1.1503  0.8321 -0.2968
 6603SOL    HW231446   4.370   1.826   0.976 -0.0357 -0.5727 -0.4328
 6604SOL     OW31447   3.941   0.068  13.270 -0.2708 -0.3691  0.1295
 6604SOL    HW131448   3.990   0.020  13.336  0.5795  1.2023  0.6568
 6604SOL    HW231449   3.868   0.099  13.324  0.1792  1.5268 -0.3529
 6605SOL     OW31450   2.584   0.608   8.746 -0.2405 -0.0974  0.1601
 6605SOL    HW131451   2.555   0.536   8.801 -0.8140  0.7266  0.9414
 6605SOL    HW231452   2.572   0.685   8.802 -0.9510 -0.5890  0.6829
 6606SOL     OW31453   2.766   4.510   4.075 -0.0874  0.2617 -0.0383
 6606SOL    HW131454   2.805   4.424   4.089 -2.0029 -0.7574 -0.9702
 6606SOL    HW231455   2.673   4.488   4.082 -0.5858  2.5062  0.3960
 6607SOL     OW31456   3.650   3.497   0.651  0.2894 -0.1254  0.0572
 6607SOL    HW131457   3.717   3.563   0.633  0.4017 -0.2814 -0.1051
 6607SOL    HW231458   3.574   3.530   0.603  1.2061  2.6479  0.5244
 6608SOL     OW31459   2.603   1.471   7.364 -0.5021  0.2318 -0.1541
 6608SOL    HW131460   2.596   1.562   7.335  1.2655 -0.2519 -2.0377
 6608SOL    HW231461   2.518   1.440   7.332  0.0070 -2.7662  1.3357
 6609SOL     OW31462   3.841   3.658  11.815  0.7061 -0.4219 -0.0132
 6609SOL    HW131463   3.752   3.635  11.785  0.4810 -0.2556  0.5306
 6609SOL    HW231464   3.853   3.735  11.760  0.5927 -0.9486 -0.7842
 6610SOL     OW31465   4.395   0.827   8.389  0.5736 -0.4837 -0.3620
 6610SOL    HW131466   4.392   0.799   8.297 -2.9841 -0.9287 -0.1062
 6610SOL    HW231467   4.311   0.802   8.426  1.0323 -0.2912  0.8160
 6611SOL     OW31468   0.111   1.800   3.518  0.0432 -0.5554  0.1373
 6611SOL    HW131469   0.100   1.730   3.582 -0.3029 -0.2133  0.4441
 6611SOL    HW231470   0.052   1.774   3.447  1.0987 -3.4653  0.3464
 6612SOL     OW31471   0.755   1.027   2.522  0.3079 -0.6417  0.5102
 6612SOL    HW131472   0.724   1.092   2.459  3.0463 -0.1079 -0.3226
 6612SOL    HW231473   0.818   0.973   2.474  1.8252  0.0319  1.7481
 6613SOL     OW31474   4.287   0.496   8.794  0.4448  0.1350 -0.0753
 6613SOL    HW131475   4.370   0.511   8.749  1.4348  1.4436  2.1743
 6613SOL    HW231476   4.295   0.537   8.880  0.4136 -0.2668  0.1164
 6614SOL     OW31477   4.627   0.340   3.869  0.0581  0.1054 -0.1247
 6614SOL    HW131478   4.709   0.311   3.908  0.0808  1.8046  1.0928
 6614SOL    HW231479   4.614   0.418   3.923  0.6476  0.4372 -0.4666
 6615SOL     OW31480   2.187   2.740   8.291  0.4056  0.3961  0.0822
 6615SOL    HW131481   2.103   2.705   8.263  1.7281 -2.8795  0.2322
 6615SOL    HW231482   2.166   2.833   8.289 -0.1619  0.2917  0.8875
 6616SOL     OW31483   3.436   2.981   6.304  0.3146  0.8006 -0.2793
 6616SOL    HW131484   3.445   3.029   6.386  0.9706 -0.0825  0.1620
 6616SOL    HW231485   3.438   2.890   6.334  1.1880  0.2421 -2.0088
 6617SOL     OW31486   1.255   0.721  11.760 -0.6338 -0.5400 -0.4548
 6617SOL    HW131487   1.324   0.785  11.777  0.2231 -1.5707  0.0020
 6617SOL    HW231488   1.206   0.757  11.686  0.2036  1.9709  0.2008
 6618SOL     OW31489   2.422   4.278  17.690 -0.3749 -0.4352  0.4695
 6618SOL    HW131490   2.499   4.332  17.675 -0.9186  0.3672  0.5784
 6618SOL    HW231491   2.463   4.196  17.718  2.3840  1.1632  1.1182
 6619SOL     OW31492   4.170   3.171   0.847 -0.0889  0.4977 -0.3940
 6619SOL    HW131493   4.240   3.143   0.906  1.0814 -0.1776 -2.1090
 6619SOL    HW231494   4.136   3.081   0.848 -0.1674  0.5172 -1.8808
 6620SOL     OW31495   3.544   3.872   2.139 -0.7454  0.0361  0.3161
 6620SOL    HW131496   3.601   3.829   2.202 -1.2932 -1.2447 -0.0585
 6620SOL    HW231497   3.454   3.853   2.164 -0.6855 -1.6797 -0.8338
 6621SOL     OW31498   4.196   4.074   3.380  0.5497  0.0771  0.3911
 6621SOL    HW131499   4.115   4.118   3.356 -0.1495 -1.4506 -0.0520
 6621SOL    HW231500   4.250   4.102   3.306  1.5245 -0.6037  0.8423
 6622SOL     OW31501   3.510   0.793   8.222  0.2455 -0.0966  0.5112
 6622SOL    HW131502   3.592   0.743   8.217 -0.7513 -1.4631 -1.8711
 6622SOL    HW231503   3.491   0.828   8.135  0.3909 -1.6519 -0.1441
 6623SOL     OW31504   3.590   4.461  13.944 -0.2318  0.5601  0.0451
 6623SOL    HW131505   3.632   4.419  13.869 -2.3933  0.0454 -0.8739
 6623SOL    HW231506   3.521   4.510  13.898 -0.8034 -1.1034 -0.8488
 6624SOL     OW31507   2.910   1.347   2.463  0.1013  0.6792  0.4319
 6624SOL    HW131508   2.926   1.358   2.557  0.0837 -1.1015  0.6460
 6624SOL    HW231509   2.817   1.369   2.466 -0.2753 -1.1308  2.3953
 6625SOL     OW31510   1.118   0.783   0.975  0.2359  0.3559 -0.0869
 6625SOL    HW131511   1.185   0.733   0.928 -0.7880  0.1772 -1.3230
 6625SOL    HW231512   1.079   0.708   1.019 -0.6753  1.2928  0.7038
 6626SOL     OW31513   1.406   0.447   0.431 -0.1267  0.9727 -0.2486
 6626SOL    HW131514   1.369   0.389   0.364  2.2795 -1.1863  0.2928
 6626SOL    HW231515   1.483   0.482   0.387 -0.2515  0.1237 -1.1457
 6627SOL     OW31516   1.525   3.681  15.820  0.0480  0.6479 -0.5248
 6627SOL    HW131517   1.449   3.624  15.811  0.8165 -0.5688  0.7228
 6627SOL    HW231518   1.554   3.683  15.729 -1.1562 -1.5008 -0.9679
 6628SOL     OW31519   2.538   1.352   2.741  0.4174  0.8778  0.2835
 6628SOL    HW131520   2.459   1.317   2.782  1.0364 -0.7970  0.0192
 6628SOL    HW231521   2.589   1.272   2.750 -0.5210  0.2720  0.2067
 6629SOL     OW31522   1.537   2.441  17.724 -0.1274  0.1362  0.0206
 6629SOL    HW131523   1.566   2.381   0.040 -0.2323 -2.7265 -2.4350
 6629SOL    HW231524   1.442   2.443  17.738 -0.5429  1.2086 -2.9738
 6630SOL     OW31525   1.519   0.697   8.918 -0.1752 -0.1075 -0.0368
 6630SOL    HW131526   1.485   0.786   8.906 -0.1522  0.0882  1.3487
 6630SOL    HW231527   1.455   0.658   8.978  1.4890 -0.2170  1.6663
 6631SOL     OW31528   0.113   0.041   1.689  0.0323 -0.1005 -0.4625
 6631SOL    HW131529   0.158   0.058   1.772 -2.2713 -0.6387  0.9134
 6631SOL    HW231530   0.188   0.023   1.632  0.0260 -1.4225 -0.0556
 6632SOL     OW31531   0.087   1.462   3.318 -0.3436 -0.1214  0.0819
 6632SOL    HW131532   0.153   1.513   3.270 -1.0401  0.8635  0.1560
 6632SOL    HW231533   0.124   1.454   3.406  1.2931  0.0943 -0.5890
 6633SOL     OW31534   0.136   1.743   8.746  0.7091 -0.4806  0.0255
 6633SOL    HW131535   0.095   1.657   8.731  1.2025 -0.4023 -1.7845
 6633SOL    HW231536   0.183   1.730   8.828  0.3751 -0.3100  0.2449
 6634SOL     OW31537   2.735   0.734   3.554  0.0752  0.1118 -0.3421
 6634SOL    HW131538   2.809   0.761   3.609 -0.9508  0.6205  0.7869
 6634SOL    HW231539   2.684   0.687   3.620 -0.3743 -1.2259 -1.6441
 6635SOL     OW31540   3.217   2.110   3.682 -0.5461 -0.7993 -0.2634
 6635SOL    HW131541   3.186   2.020   3.675 -1.1177 -0.6262  0.0889
 6635SOL    HW231542   3.202   2.129   3.589  0.5507 -0.8484 -0.4563
 6636SOL     OW31543   3.374   3.887   1.580  0.3837 -0.1725  0.3114
 6636SOL    HW131544   3.428   3.836   1.640 -2.6409 -2.1574  1.4064
 6636SOL    HW231545   3.295   3.833   1.586 -1.4341  2.1049 -3.1200
 6637SOL     OW31546   1.980   3.674   6.993  0.2232 -0.5150  0.4541
 6637SOL    HW131547   2.049   3.734   6.965  0.0039 -0.2402  0.4920
 6637SOL    HW231548   1.958   3.712   7.079 -1.6098  0.0600 -0.2704
 6638SOL     OW31549   3.687   1.780   2.922  0.1108 -0.6118 -0.1998
 6638SOL    HW131550   3.759   1.717   2.920  0.3067 -0.4466  2.1280
 6638SOL    HW231551   3.654   1.781   3.012 -0.2931  0.5383 -0.3676
 6639SOL     OW31552   1.081   4.659  11.049 -0.0709 -0.1172  0.1006
 6639SOL    HW131553   0.994   4.623  11.070 -0.9046  0.9645 -1.4949
 6639SOL    HW231554   1.075   4.639  10.956  0.1897 -2.0780  0.5051
 6640SOL     OW31555   1.836   0.717   6.695  0.6160 -0.3726  0.5528
 6640SOL    HW131556   1.749   0.704   6.733  0.4334  1.4984  0.7825
 6640SOL    HW231557   1.887   0.673   6.763  1.5799 -0.8588 -0.4903
 6641SOL     OW31558   0.011   3.707   6.114  0.2796  0.0766 -0.1955
 6641SOL    HW131559   4.671   3.758   6.097 -0.6131 -0.8825  1.0078
 6641SOL    HW231560   0.006   3.658   6.032  0.7397 -0.4829  0.1070
 6642SOL     OW31561   0.525   0.672   0.911  0.5952 -0.1272  0.2740
 6642SOL    HW131562   0.509   0.730   0.986  1.8844 -0.6059  0.9118
 6642SOL    HW231563   0.569   0.740   0.860 -0.1185 -1.8192 -2.5751
 6643SOL     OW31564   0.033   0.529   5.527  0.9734 -0.5812 -0.6374
 6643SOL    HW131565   0.112   0.500   5.574  1.0508  0.3795 -0.1814
 6643SOL    HW231566   0.028   0.620   5.557  1.7440 -0.6455 -0.2888
 6644SOL     OW31567   1.778   1.517   2.589  0.2943 -0.2909 -0.6798
 6644SOL    HW131568   1.795   1.600   2.633 -0.0119  0.9857 -2.9439
 6644SOL    HW231569   1.770   1.556   2.502 -0.8516  1.4789  0.2061
 6645SOL     OW31570   3.962   1.193   2.294  0.2782  0.4734  0.1039
 6645SOL    HW131571   3.990   1.166   2.381 -0.3862 -1.6364 -0.3320
 6645SOL    HW231572   3.999   1.127   2.235 -2.1003  0.3680 -1.2840
 6646SOL     OW31573   3.543   2.819  17.397 -0.7124 -0.1406  0.3415
 6646SOL    HW131574   3.614   2.875  17.366 -0.7119 -0.2964  0.0609
 6646SOL    HW231575   3.564   2.728  17.374 -1.7717 -0.3462  0.1892
 6647SOL     OW31576   1.262   3.788   3.283  0.3529 -0.4656  0.0758
 6647SOL    HW131577   1.264   3.722   3.352  0.6535  0.7875  1.2624
 6647SOL    HW231578   1.263   3.736   3.202  1.6337  1.2411 -0.9946
 6648SOL     OW31579   1.486   4.503  12.078  0.3276 -0.0827  0.5556
 6648SOL    HW131580   1.580   4.493  12.065  0.1380  0.4559 -1.3217
 6648SOL    HW231581   1.468   4.591  12.044 -1.6812 -0.5537  0.3987
 6649SOL     OW31582   3.918   4.188   6.313  0.7333  0.6779  0.0836
 6649SOL    HW131583   3.932   4.151   6.400  1.9125  0.0674 -0.3549
 6649SOL    HW231584   3.848   4.131   6.283  0.8028  0.5519  0.1626
 6650SOL     OW31585   1.943   0.482  12.717  0.0244  0.1262 -0.6596
 6650SOL    HW131586   1.877   0.414  12.735  0.2772 -0.8949 -3.6467
 6650SOL    HW231587   1.956   0.481  12.623 -0.4974 -1.4758 -0.7190
 6651SOL     OW31588   0.279   2.002   8.100 -0.4902  0.2563  0.3607
 6651SOL    HW131589   0.186   2.008   8.078 -0.5337  3.2724  1.3385
 6651SOL    HW231590   0.303   1.910   8.106 -0.1097  0.3301 -0.0181
 6652SOL     OW31591   1.759   0.490   8.646 -0.1320 -0.4537  0.5557
 6652SOL    HW131592   1.701   0.564   8.630  0.2350 -0.3635 -0.3164
 6652SOL    HW231593   1.766   0.483   8.741 -1.3429 -0.0738  0.6795
 6653SOL     OW31594   3.540   0.066  11.820  0.1987  0.0295 -0.4136
 6653SOL    HW131595   3.589   0.059  11.902 -2.8134  0.5115  1.4396
 6653SOL    HW231596   3.570   0.144  11.773  0.4568  1.1401  1.6211
 6654SOL     OW31597   1.363   2.273   4.673 -0.0517  0.0218  0.5476
 6654SOL    HW131598   1.308   2.300   4.600 -0.3427 -0.3429  0.6314
 6654SOL    HW231599   1.418   2.350   4.691 -1.1839  1.1032 -0.5824
 6655SOL     OW31600   3.216   0.108   6.974  0.3530  0.2649  0.2374
 6655SOL    HW131601   3.268   0.035   7.007 -1.1269 -1.1340 -0.5166
 6655SOL    HW231602   3.237   0.182   7.031 -1.6383  1.9582 -1.2165
 6656SOL     OW31603   0.323   0.396  16.824  0.5918 -0.2891  0.0965
 6656SOL    HW131604   0.329   0.430  16.735 -0.7750 -0.4031 -0.0440
 6656SOL    HW231605   0.347   0.305  16.807 -2.3047 -1.0308 -0.1167
 6657SOL     OW31606   3.544   4.223   6.375  0.2228  0.5403  0.0243
 6657SOL    HW131607   3.559   4.215   6.281  1.1463  2.1023  0.0360
 6657SOL    HW231608   3.451   4.205   6.389 -0.3639  1.5840 -2.5143
 6658SOL     OW31609   2.898   4.161   5.831 -0.0934  0.5649 -0.3799
 6658SOL    HW131610   2.980   4.158   5.880 -0.0301  2.0309 -0.3769
 6658SOL    HW231611   2.918   4.241   5.781 -0.6205 -0.0826 -1.6399
 6659SOL     OW31612   4.072   2.420   2.765  0.6467  0.2114  0.6651
 6659SOL    HW131613   4.143   2.381   2.714 -2.0888 -2.9756 -0.6436
 6659SOL    HW231614   4.058   2.348   2.827 -0.9492  0.7484  0.9179
 6660SOL     OW31615   3.791   1.019   1.428 -0.0616  0.4468 -0.2602
 6660SOL    HW131616   3.748   0.934   1.420 -0.3533  0.2325  3.5256
 6660SOL    HW231617   3.869   0.993   1.477  0.7318 -2.8287 -3.2701
 6661SOL     OW31618   4.339   4.553   4.305 -0.2672 -0.3899 -0.1105
 6661SOL    HW131619   4.357   4.637   4.262 -0.8228 -0.7684 -1.0762
 6661SOL    HW231620   4.405   4.549   4.375  0.7149  0.3156 -1.0058
 6662SOL     OW31621   0.947   4.271   7.789 -0.2812 -0.2383  0.0106
 6662SOL    HW131622   1.037   4.238   7.796 -1.2599 -2.2698  2.7883
 6662SOL    HW231623   0.905   4.202   7.737 -2.1445  1.3721 -0.6403
 6663SOL     OW31624   4.700   3.569   7.489  0.3165  0.0883  0.2895
 6663SOL    HW131625   4.616   3.562   7.536  0.2526  0.6431  0.2598
 6663SOL    HW231626   4.695   3.484   7.447  0.9329  2.2825 -4.1947
 6664SOL     OW31627   1.143   2.699   5.183  0.5521  0.3842 -0.3120
 6664SOL    HW131628   1.083   2.761   5.224 -0.2065 -0.9771  0.6258
 6664SOL    HW231629   1.111   2.717   5.094  0.8700  1.3628 -0.2310
 6665SOL     OW31630   3.069   0.977  11.719  0.1328  0.1974  0.2431
 6665SOL    HW131631   3.001   0.960  11.654  0.4390  0.7761 -0.2178
 6665SOL    HW231632   3.023   0.928  11.788 -0.3297 -0.4062 -0.4920
 6666SOL     OW31633   1.767   1.709   2.793  0.8637 -0.2230  0.0650
 6666SOL    HW131634   1.732   1.796   2.811 -1.3247 -1.2051  0.5379
 6666SOL    HW231635   1.721   1.641   2.842  2.0759 -1.8002 -0.9656
 6667SOL     OW31636   3.134   0.688   1.463 -0.7274 -0.5056  0.2136
 6667SOL    HW131637   3.069   0.655   1.402  1.3026  0.3940 -2.3984
 6667SOL    HW231638   3.151   0.775   1.426  0.2673 -0.8719 -0.1618
 6668SOL     OW31639   0.692   2.734   1.747 -0.1814 -0.5008  0.3978
 6668SOL    HW131640   0.713   2.773   1.662 -1.0825 -1.2613 -0.1779
 6668SOL    HW231641   0.769   2.678   1.750 -0.1962 -0.6223 -1.5469
 6669SOL     OW31642   3.746   3.907   4.194 -0.6310  0.5152  0.6812
 6669SOL    HW131643   3.785   3.841   4.136  0.6301  1.0456  0.9137
 6669SOL    HW231644   3.793   3.989   4.177 -0.2933  0.5572  1.8110
 6670SOL     OW31645   1.703   0.664   3.414  0.2228  0.2276 -0.1353
 6670SOL    HW131646   1.650   0.597   3.457 -0.6932  0.3631 -1.0517
 6670SOL    HW231647   1.652   0.677   3.334 -1.9002 -2.1732  0.8433
 6671SOL     OW31648   4.101   4.096   5.138 -0.4707 -0.0187 -0.2452
 6671SOL    HW131649   4.170   4.142   5.090  0.3157 -2.5291 -1.5581
 6671SOL    HW231650   4.153   4.067   5.214 -0.8869  0.1769  0.1097
 6672SOL     OW31651   1.299   4.186   2.126  0.6057 -0.1773 -0.3174
 6672SOL    HW131652   1.309   4.093   2.104  0.5510 -0.3727  0.4840
 6672SOL    HW231653   1.237   4.174   2.198 -0.8915 -0.8175 -1.7082
 6673SOL     OW31654   3.054   4.041   1.508  0.0515  1.0963  0.4304
 6673SOL    HW131655   3.004   3.964   1.480  0.8705  0.2019  1.4322
 6673SOL    HW231656   3.098   4.069   1.428 -1.0751  2.2435  0.2141
 6674SOL     OW31657   2.701   2.602   7.075 -0.5999  0.4244 -0.1900
 6674SOL    HW131658   2.636   2.583   7.007  1.8819 -3.1791 -1.5351
 6674SOL    HW231659   2.649   2.643   7.144  1.7316  0.7274  1.3767
 6675SOL     OW31660   4.418   4.426   5.359  0.8099  0.5756  0.0754
 6675SOL    HW131661   4.384   4.515   5.359 -0.6244  0.0220  1.7319
 6675SOL    HW231662   4.502   4.440   5.403  0.5269  1.4630  0.3181
 6676SOL     OW31663   3.503   0.179  13.362 -0.2493 -0.1271  0.1518
 6676SOL    HW131664   3.556   0.193  13.284 -0.6943  0.1189 -0.1030
 6676SOL    HW231665   3.428   0.238  13.355  1.4263  2.0932  0.9979
 6677SOL     OW31666   3.129   4.272   8.003 -0.9928  0.4174  1.0709
 6677SOL    HW131667   3.132   4.190   8.052  0.4066 -0.7503 -0.9542
 6677SOL    HW231668   3.192   4.325   8.052 -1.0530  1.7409 -0.2810
 6678SOL     OW31669   3.831   3.847   0.841  0.0036  0.4786  0.2796
 6678SOL    HW131670   3.753   3.878   0.887 -0.7605  1.8592 -1.9091
 6678SOL    HW231671   3.904   3.898   0.875  0.0094  1.5901 -1.3967
 6679SOL     OW31672   3.085   2.673  11.046  0.2426  0.1313  0.9072
 6679SOL    HW131673   3.149   2.608  11.075 -1.0534 -1.6711 -0.1955
 6679SOL    HW231674   3.133   2.732  10.988 -0.7193 -0.0317 -0.0656
 6680SOL     OW31675   4.080   4.202   7.278 -0.7509 -0.6230 -0.4138
 6680SOL    HW131676   4.151   4.225   7.338 -0.4853  0.1210 -1.0234
 6680SOL    HW231677   4.004   4.240   7.320  1.8619  0.9528  2.8612
 6681SOL     OW31678   0.228   3.537   7.986 -0.5563  0.1486 -0.1072
 6681SOL    HW131679   0.265   3.450   7.971  2.1754  1.5349 -1.3466
 6681SOL    HW231680   0.186   3.543   7.900 -1.1457  1.9125  0.2937
 6682SOL     OW31681   1.806   2.291   6.818 -0.2238 -0.4286 -0.0342
 6682SOL    HW131682   1.749   2.214   6.822 -1.8612  0.9002  2.7688
 6682SOL    HW231683   1.879   2.248   6.774  0.3674 -1.5148  1.9882
 6683SOL     OW31684   1.307   2.071   1.217 -0.4697  0.3533  0.6431
 6683SOL    HW131685   1.292   1.984   1.255  2.9078  0.3145  1.9155
 6683SOL    HW231686   1.232   2.122   1.246 -2.6592 -1.3780 -1.9669
 6684SOL     OW31687   2.470   2.078  14.172 -0.3368  0.3604  0.3823
 6684SOL    HW131688   2.473   2.000  14.227  5.2041 -0.1847 -0.6116
 6684SOL    HW231689   2.554   2.118  14.197 -0.1180  0.2499 -0.1730
 6685SOL     OW31690   3.706   3.157  15.759  1.0037 -0.0547  0.6100
 6685SOL    HW131691   3.785   3.126  15.715  0.3605 -0.2962 -0.3714
 6685SOL    HW231692   3.712   3.109  15.841  0.2581 -2.0652 -0.5156
 6686SOL     OW31693   0.065   0.889   7.087 -0.0067  0.5960  0.2231
 6686SOL    HW131694   0.126   0.816   7.093 -0.9368 -0.2011 -0.0460
 6686SOL    HW231695   0.102   0.935   7.011 -0.2454 -0.7698 -0.7182
 6687SOL     OW31696   0.242   0.859   1.502  0.1606  0.4109  0.5493
 6687SOL    HW131697   0.313   0.865   1.439 -0.8584  0.2250 -0.6362
 6687SOL    HW231698   0.229   0.950   1.528  2.7770  0.9839 -0.1694
 6688SOL     OW31699   2.535   1.288   0.832  0.1313 -0.5155 -0.6737
 6688SOL    HW131700   2.484   1.327   0.903  0.0870  0.4411 -1.2290
 6688SOL    HW231701   2.627   1.286   0.858 -0.5836 -1.3404  1.7107
 6689SOL     OW31702   4.044   4.467   2.123  0.1655  0.1583 -0.1331
 6689SOL    HW131703   4.086   4.498   2.043  1.0043 -1.5581 -0.3556
 6689SOL    HW231704   4.124   4.439   2.166  0.2634  1.1158  0.3119
 6690SOL     OW31705   2.812   2.123   0.408 -0.3937  0.7204 -0.2828
 6690SOL    HW131706   2.771   2.112   0.494 -1.1068 -0.5461 -0.7803
 6690SOL    HW231707   2.896   2.149   0.446 -0.2158 -1.6692  0.9857
 6691SOL     OW31708   1.757   4.215   4.064  0.2730 -0.1634  0.2776
 6691SOL    HW131709   1.742   4.266   3.985 -1.3843  1.3330  1.5737
 6691SOL    HW231710   1.671   4.172   4.064  1.1465 -1.9279 -0.4056
 6692SOL     OW31711   3.299   2.463  16.609 -1.1334  0.0936 -0.0166
 6692SOL    HW131712   3.338   2.544  16.645 -0.2389 -0.7096  0.8261
 6692SOL    HW231713   3.370   2.436  16.550 -2.8892  0.0918 -2.0984
 6693SOL     OW31714   1.005   3.194   5.818  0.0911  0.0279  0.0970
 6693SOL    HW131715   0.923   3.238   5.796 -0.4020 -0.2744  1.3285
 6693SOL    HW231716   1.063   3.232   5.752 -0.8713 -0.5709 -1.1070
 6694SOL     OW31717   0.373   3.884  17.682  0.7536 -0.2089  0.1250
 6694SOL    HW131718   0.383   3.976  17.705  0.8446  0.0184 -0.8024
 6694SOL    HW231719   0.301   3.858  17.740  1.4859 -0.4076  0.9440
 6695SOL     OW31720   1.318   0.790   3.056  0.2237 -0.3524 -0.6306
 6695SOL    HW131721   1.326   0.743   2.973 -2.1101  1.1787 -1.7080
 6695SOL    HW231722   1.264   0.863   3.028  1.6480  0.3543 -1.5513
 6696SOL     OW31723   3.245   4.263   4.541 -0.1810  0.1447  0.3077
 6696SOL    HW131724   3.225   4.270   4.634 -0.6794  1.1270  0.1253
 6696SOL    HW231725   3.340   4.249   4.544 -0.3047 -0.9899 -1.0693
 6697SOL     OW31726   0.008   2.553   6.238 -0.4485 -0.2616  0.1311
 6697SOL    HW131727   0.008   2.621   6.305 -2.0295  0.7570 -0.9047
 6697SOL    HW231728   4.699   2.485   6.284 -0.4199 -1.6249 -1.8483
 6698SOL     OW31729   2.766   4.485  15.934 -0.6091  0.3039 -0.3116
 6698SOL    HW131730   2.787   4.532  15.853 -1.5156  3.6476  1.4037
 6698SOL    HW231731   2.680   4.445  15.923 -0.6522  0.5153 -0.7292
 6699SOL     OW31732   3.215   3.699   1.128  0.2874 -0.3367  0.0827
 6699SOL    HW131733   3.246   3.618   1.087 -0.6936 -1.5919  1.8321
 6699SOL    HW231734   3.127   3.702   1.089 -0.0578  4.4326  1.3513
 6700SOL     OW31735   3.448   3.812  16.567  0.0382 -0.4331 -0.1264
 6700SOL    HW131736   3.388   3.739  16.553 -1.7677  0.9529  0.4900
 6700SOL    HW231737   3.526   3.779  16.523 -0.4204  0.5820 -1.6939
 6701SOL     OW31738   2.420   4.191   5.602 -0.0112 -0.1378  0.7732
 6701SOL    HW131739   2.425   4.276   5.646  0.2054 -0.9360  2.2700
 6701SOL    HW231740   2.407   4.217   5.510  0.2235 -0.3014  0.6927
 6702SOL     OW31741   0.159   3.972   5.329 -0.6617 -0.1529 -0.8905
 6702SOL    HW131742   0.246   3.936   5.341 -0.3686  0.0736 -2.3319
 6702SOL    HW231743   0.119   3.968   5.416  1.3960  1.8618  0.1370
 6703SOL     OW31744   3.595   2.311   4.488 -0.7463 -0.9117  0.0994
 6703SOL    HW131745   3.530   2.253   4.447 -0.7749 -0.2693 -0.7746
 6703SOL    HW231746   3.649   2.323   4.410  0.3893 -2.6400  0.6154
 6704SOL     OW31747   4.168   0.932   9.674 -0.4798  0.4146  0.1814
 6704SOL    HW131748   4.210   0.858   9.716 -0.7077  0.2727  0.1609
 6704SOL    HW231749   4.128   0.896   9.595  0.6121 -0.2534 -0.0644
 6705SOL     OW31750   2.676   4.631   4.314  0.0522  0.0060 -0.2907
 6705SOL    HW131751   2.685   4.596   4.226 -1.1230 -0.7755 -0.1017
 6705SOL    HW231752   2.767   4.656   4.331 -0.2969 -0.3317  2.0791
 6706SOL     OW31753   4.371   2.226   4.556 -0.3144 -0.4597  0.1348
 6706SOL    HW131754   4.390   2.145   4.603  1.1242 -0.2773 -0.1394
 6706SOL    HW231755   4.458   2.249   4.524 -0.9859  1.3348 -0.4716
 6707SOL     OW31756   3.076   2.511  13.941 -0.0698 -0.4536  0.0915
 6707SOL    HW131757   3.049   2.598  13.909  0.1236 -0.6347 -0.5616
 6707SOL    HW231758   3.092   2.460  13.862 -1.1774 -1.3568  0.4512
 6708SOL     OW31759   1.701   2.171   8.209  0.1320 -0.1300 -0.2402
 6708SOL    HW131760   1.650   2.127   8.277  0.7381  2.9645  2.2450
 6708SOL    HW231761   1.656   2.158   8.126  1.0112  2.0317 -1.0618
 6709SOL     OW31762   4.695   2.113   8.869  0.2695 -0.1497  1.1780
 6709SOL    HW131763   0.003   2.086   8.948 -1.7900 -0.1127  2.4243
 6709SOL    HW231764   0.035   2.131   8.818 -0.0643 -0.3520  0.5830
 6710SOL     OW31765   2.274   2.415   1.471  0.6739 -0.0710 -0.0070
 6710SOL    HW131766   2.214   2.346   1.497  0.7801 -0.0979  0.1705
 6710SOL    HW231767   2.356   2.366   1.477  1.8456  1.7328 -1.4102
 6711SOL     OW31768   1.022   3.146   6.915  0.1792  0.1913  0.3287
 6711SOL    HW131769   1.076   3.223   6.897  1.0390 -0.2246  1.1373
 6711SOL    HW231770   1.019   3.148   7.011 -0.8491  0.7909  0.2959
 6712SOL     OW31771   1.460   4.340   3.591 -0.4635  0.5105  0.3988
 6712SOL    HW131772   1.511   4.278   3.643  0.5875  0.9690 -0.0793
 6712SOL    HW231773   1.392   4.282   3.557 -0.3360  0.9861 -0.6861
 6713SOL     OW31774   2.388   4.061   2.748 -0.1254  0.0469 -0.5573
 6713SOL    HW131775   2.346   4.125   2.806  1.0470 -1.8156  2.3355
 6713SOL    HW231776   2.477   4.044   2.777 -1.0053 -2.3540  0.7589
 6714SOL     OW31777   0.250   0.422   2.142  0.4300  0.2464 -0.1390
 6714SOL    HW131778   0.191   0.494   2.122  1.5653  1.5161  1.0848
 6714SOL    HW231779   0.191   0.351   2.117 -0.9368  0.6798  1.7927
 6715SOL     OW31780   0.738   4.303   6.668 -0.0878 -0.6826 -0.2574
 6715SOL    HW131781   0.713   4.390   6.637  1.1796 -0.4063 -0.4792
 6715SOL    HW231782   0.734   4.258   6.584  1.7313 -0.8941 -0.2246
 6716SOL     OW31783   3.730   0.825   2.161  0.0525  0.1480 -0.0587
 6716SOL    HW131784   3.672   0.765   2.208  0.1232 -1.4273 -1.9792
 6716SOL    HW231785   3.713   0.903   2.213 -1.9509 -0.2905 -0.0366
 6717SOL     OW31786   1.011   0.973  11.708 -0.3690  0.3080  0.4101
 6717SOL    HW131787   1.034   1.011  11.793  0.9299 -0.1191  0.2595
 6717SOL    HW231788   1.081   0.999  11.648  0.5514 -1.2292  0.7962
 6718SOL     OW31789   1.889   3.084  10.559  0.0004 -0.2664 -0.3431
 6718SOL    HW131790   1.955   3.080  10.629  0.2402  1.4229 -0.4713
 6718SOL    HW231791   1.926   3.015  10.504 -0.7568 -1.6206  0.8300
 6719SOL     OW31792   0.112   1.734   8.401 -0.4250 -0.1407 -0.6674
 6719SOL    HW131793   0.046   1.797   8.429  0.7471 -0.1200  2.0450
 6719SOL    HW231794   0.053   1.669   8.362 -0.1530 -0.9527  0.2729
 6720SOL     OW31795   4.358   0.921   9.964 -0.5098 -0.9415  0.5464
 6720SOL    HW131796   4.302   0.972  10.022 -1.2533  0.5866 -1.5165
 6720SOL    HW231797   4.321   0.833   9.972  0.1416 -1.3196 -0.5360
 6721SOL     OW31798   1.169   0.392   7.399 -0.4722 -0.5209 -0.1302
 6721SOL    HW131799   1.153   0.306   7.359 -1.5443 -1.2537  1.8821
 6721SOL    HW231800   1.083   0.432   7.382 -0.6995  0.0900  2.4514
 6722SOL     OW31801   4.566   2.453   1.578  0.3952  0.4236 -0.4248
 6722SOL    HW131802   4.506   2.398   1.527  0.5685  0.6278 -0.8474
 6722SOL    HW231803   4.525   2.438   1.663  0.0549 -0.7615 -0.7919
 6723SOL     OW31804   4.675   1.342   4.642 -0.3966 -0.2359 -0.4132
 6723SOL    HW131805   4.690   1.432   4.613  1.4728 -0.0799  0.9911
 6723SOL    HW231806   0.003   1.295   4.592 -0.6663 -1.9635  0.8592
 6724SOL     OW31807   4.234   0.223   2.102  0.5040 -0.2417  0.3459
 6724SOL    HW131808   4.245   0.263   2.016  0.8357 -0.1441  0.4345
 6724SOL    HW231809   4.139   0.213   2.108  0.5262 -1.0400 -0.7356
 6725SOL     OW31810   2.553   2.553   6.860 -0.2930 -0.3457 -0.1648
 6725SOL    HW131811   2.559   2.468   6.817  1.3270 -1.0798  1.5313
 6725SOL    HW231812   2.571   2.616   6.790 -1.3994  0.2556  0.0814
 6726SOL     OW31813   2.478   1.099   9.719  0.0977  0.2650  0.3172
 6726SOL    HW131814   2.556   1.124   9.768  0.5782 -2.6875  1.0805
 6726SOL    HW231815   2.440   1.038   9.782 -0.9092  0.0798 -0.4611
 6727SOL     OW31816   0.848   3.890  15.304  0.3410  0.5964 -0.1994
 6727SOL    HW131817   0.858   3.952  15.376  0.9157 -0.9403  1.0355
 6727SOL    HW231818   0.775   3.837  15.337  0.7829  1.3465  1.9753
 6728SOL     OW31819   2.456   4.091   6.084 -0.2798  0.6033 -0.4357
 6728SOL    HW131820   2.370   4.078   6.045  0.2428 -1.2283 -0.9946
 6728SOL    HW231821   2.468   4.186   6.081 -2.0007  0.7859 -1.3284
 6729SOL     OW31822   0.407   0.404   8.845  0.4678  0.3213  0.2907
 6729SOL    HW131823   0.324   0.372   8.879  1.0972 -1.0216  0.5828
 6729SOL    HW231824   0.446   0.389   8.931 -1.9642 -0.6426  1.2264
 6730SOL     OW31825   0.375   1.777   8.512  0.0165 -0.0739  0.6886
 6730SOL    HW131826   0.281   1.790   8.497  0.0662 -3.3919 -2.4978
 6730SOL    HW231827   0.373   1.788   8.607  2.1921 -0.8272  0.8303
 6731SOL     OW31828   1.944   4.427   5.739 -0.2669 -0.0954 -0.2838
 6731SOL    HW131829   1.924   4.349   5.688 -2.3904  0.0064  0.3712
 6731SOL    HW231830   1.920   4.400   5.828  2.9289 -0.9358  0.3304
 6732SOL     OW31831   2.929   3.730   1.042  0.6924 -0.2645 -0.1677
 6732SOL    HW131832   2.889   3.676   1.110  0.8740 -1.2715 -0.8460
 6732SOL    HW231833   2.883   3.708   0.961  0.3337  0.1085 -0.0622
 6733SOL     OW31834   2.957   3.954   2.232 -0.2825  0.1723 -0.0108
 6733SOL    HW131835   2.960   3.913   2.145  0.0751 -0.8146  0.4796
 6733SOL    HW231836   2.871   3.995   2.224 -0.9822 -0.6762  3.4021
 6734SOL     OW31837   4.482   2.251   9.338 -0.1498 -0.1524  0.6014
 6734SOL    HW131838   4.566   2.217   9.307 -0.6477  0.0505 -0.9791
 6734SOL    HW231839   4.499   2.263   9.432 -0.6198  0.1423  0.6531
 6735SOL     OW31840   0.081   4.250   0.640  0.0340 -0.0179 -0.0831
 6735SOL    HW131841   0.076   4.187   0.568  0.3616 -1.4190  1.1077
 6735SOL    HW231842   0.066   4.199   0.720  0.3845 -0.9750 -0.6212
 6736SOL     OW31843   4.738   0.963   7.367  0.2003 -0.0406 -0.4964
 6736SOL    HW131844   0.028   0.973   7.276  2.9795 -2.1344  0.1437
 6736SOL    HW231845   4.658   0.912   7.354 -0.6763  1.7327 -2.1377
 6737SOL     OW31846   3.066   2.198   8.252  0.0778  0.4672 -0.7432
 6737SOL    HW131847   3.161   2.199   8.264 -0.0568 -0.9166  0.4753
 6737SOL    HW231848   3.057   2.269   8.189 -1.4613  1.0437  0.1126
 6738SOL     OW31849   3.578   4.551   4.838 -0.2218 -0.0464 -0.1463
 6738SOL    HW131850   3.587   4.646   4.826  2.4111 -0.3359 -0.5564
 6738SOL    HW231851   3.521   4.536   4.913  1.3781 -1.0408  0.8605
 6739SOL     OW31852   1.467   3.775   5.858 -0.6883  0.7025  0.1852
 6739SOL    HW131853   1.377   3.759   5.888 -1.0509  0.8744 -0.8052
 6739SOL    HW231854   1.487   3.859   5.899  2.1361  0.4602 -0.6963
 6740SOL     OW31855   3.953   1.259  10.796 -1.0587 -0.0286 -0.0507
 6740SOL    HW131856   3.863   1.285  10.780 -1.1594 -0.8335 -0.7479
 6740SOL    HW231857   3.979   1.259  10.704  0.8854 -1.7917  0.4828
 6741SOL     OW31858   4.656   2.279  10.402 -0.0255 -0.5617 -0.7333
 6741SOL    HW131859   4.645   2.265  10.496  0.9715  0.6780 -0.4368
 6741SOL    HW231860   4.605   2.201  10.380 -0.0261 -0.0402 -2.6083
 6742SOL     OW31861   0.686   2.839   2.555 -0.1048 -0.3095  0.0947
 6742SOL    HW131862   0.778   2.836   2.530  0.8369 -0.3111  3.5498
 6742SOL    HW231863   0.666   2.751   2.586  0.5790  0.4826  2.8053
 6743SOL     OW31864   1.424   4.176   4.914 -0.6935  0.7065  0.2950
 6743SOL    HW131865   1.496   4.181   4.851 -1.3878  0.4091 -0.5240
 6743SOL    HW231866   1.418   4.081   4.915  1.9061  0.5378  0.2375
 6744SOL     OW31867   3.497   0.351  12.782 -0.5383  0.5281 -0.1270
 6744SOL    HW131868   3.494   0.271  12.729  3.6035  1.4468 -1.7189
 6744SOL    HW231869   3.436   0.321  12.850 -2.6106  0.9078 -1.8339
 6745SOL     OW31870   2.491   2.595   4.962  0.3885  0.1913  0.0318
 6745SOL    HW131871   2.492   2.605   4.867 -0.7473 -1.7011 -0.1759
 6745SOL    HW231872   2.446   2.512   4.974  0.3882  0.0273 -1.0855
 6746SOL     OW31873   1.606   1.293   4.239  0.0157 -0.1875 -0.1215
 6746SOL    HW131874   1.656   1.211   4.239  0.2794 -0.0281  0.7301
 6746SOL    HW231875   1.667   1.358   4.204  1.3078 -0.1847  2.1535
 6747SOL     OW31876   3.725   4.050   7.343 -0.3519 -0.4479 -0.6394
 6747SOL    HW131877   3.670   4.101   7.403 -1.5899 -0.6317 -1.6132
 6747SOL    HW231878   3.783   4.007   7.406 -1.6612 -0.3284  0.6656
 6748SOL     OW31879   3.730   0.489   3.024  0.5777 -0.3940 -0.4056
 6748SOL    HW131880   3.734   0.573   2.980 -0.1439  0.5248  1.2975
 6748SOL    HW231881   3.645   0.493   3.069  0.7228 -0.9510 -0.0820
 6749SOL     OW31882   3.230   1.127   7.401  0.1867 -0.0616 -0.2647
 6749SOL    HW131883   3.210   1.126   7.495 -1.3118  1.2630 -0.5715
 6749SOL    HW231884   3.324   1.120   7.414  0.5367  1.1427 -2.2520
 6750SOL     OW31885   0.438   0.621  15.276 -0.1018 -0.1469 -0.0302
 6750SOL    HW131886   0.514   0.660  15.319 -0.8485  1.3262 -0.0428
 6750SOL    HW231887   0.433   0.675  15.196  1.5906  1.2421  0.8067
 6751SOL     OW31888   1.913   3.308   5.377  0.2985 -0.2858  0.1758
 6751SOL    HW131889   1.972   3.307   5.452 -0.4246 -2.1786  0.7139
 6751SOL    HW231890   1.956   3.375   5.324 -2.4898 -0.4997 -2.3663
 6752SOL     OW31891   2.459   1.563   3.113  0.0647 -0.2413  0.0217
 6752SOL    HW131892   2.392   1.629   3.129 -0.1408 -1.1263  2.8798
 6752SOL    HW231893   2.530   1.590   3.171 -1.5978  1.5562  1.2442
 6753SOL     OW31894   4.083   0.894   7.679 -0.0140  0.3520 -0.2800
 6753SOL    HW131895   4.071   0.979   7.636 -1.5079  0.1679 -0.2392
 6753SOL    HW231896   4.170   0.860   7.659 -0.1781 -1.4764  2.1012
 6754SOL     OW31897   2.836   2.484  17.122 -0.5766  0.0914 -0.0803
 6754SOL    HW131898   2.896   2.422  17.164  0.2022  1.3962  0.7199
 6754SOL    HW231899   2.754   2.435  17.116  0.1654 -1.2015  0.2858
 6755SOL     OW31900   3.893   1.433   6.600 -0.1345  0.0437  0.1381
 6755SOL    HW131901   3.968   1.483   6.566 -1.5580  2.0504 -0.0654
 6755SOL    HW231902   3.928   1.346   6.618 -1.8989 -0.7399 -0.2568
 6756SOL     OW31903   4.577   1.588   8.864 -0.4193 -0.1760  0.5535
 6756SOL    HW131904   4.661   1.546   8.846 -1.5209 -2.3126  0.3867
 6756SOL    HW231905   4.527   1.508   8.849 -0.6589 -0.3802  2.4031
 6757SOL     OW31906   1.244   2.314   2.987  0.0026 -0.1481 -0.2818
 6757SOL    HW131907   1.320   2.372   2.986 -0.0446 -0.1202 -2.6275
 6757SOL    HW231908   1.279   2.228   3.011 -0.0178  0.1226  0.7370
 6758SOL     OW31909   3.893   3.262   3.528  0.5010  0.0984 -0.3184
 6758SOL    HW131910   3.804   3.253   3.562  1.0158 -0.5039  0.8663
 6758SOL    HW231911   3.904   3.196   3.461 -0.9598 -1.2887  0.8058
 6759SOL     OW31912   2.707   3.307   1.283  0.7561  0.0519 -0.0574
 6759SOL    HW131913   2.623   3.280   1.247  1.4511  0.3584 -1.9262
 6759SOL    HW231914   2.693   3.272   1.371 -1.1959  0.4227 -0.2281
 6760SOL     OW31915   2.338   1.410   7.226 -0.5351  0.0466  0.3267
 6760SOL    HW131916   2.335   1.436   7.134  2.3187  0.5636  0.4027
 6760SOL    HW231917   2.287   1.480   7.267 -1.9328  0.4331 -2.0006
 6761SOL     OW31918   1.374   4.345   5.136 -0.1648  0.5417  0.3359
 6761SOL    HW131919   1.376   4.287   5.060  0.7445 -0.8221  1.4148
 6761SOL    HW231920   1.404   4.290   5.208 -0.9632  0.3145  0.4878
 6762SOL     OW31921   4.614   3.559   6.446 -0.4488  0.6746 -0.1361
 6762SOL    HW131922   4.698   3.566   6.401  1.0488  0.4054  2.6025
 6762SOL    HW231923   4.590   3.651   6.455  0.6191  0.9878 -0.4127
 6763SOL     OW31924   4.313   2.725   8.390  0.5303  0.2206 -0.1303
 6763SOL    HW131925   4.354   2.793   8.443  0.3467 -0.2192  0.5852
 6763SOL    HW231926   4.304   2.658   8.457  0.9187  1.7604  1.4652
 6764SOL     OW31927   2.251   0.857  14.825 -0.5108 -0.0255 -0.9279
 6764SOL    HW131928   2.248   0.784  14.886  1.0948  0.4331 -0.2908
 6764SOL    HW231929   2.199   0.931  14.857 -3.4148 -1.8585 -1.4032
 6765SOL     OW31930   1.559   3.435  11.846  0.2862  0.5675 -0.0452
 6765SOL    HW131931   1.497   3.427  11.774 -3.8540 -0.2428  3.5545
 6765SOL    HW231932   1.625   3.488  11.801  0.6663 -1.4718 -1.8680
 6766SOL     OW31933   0.877   2.311  15.991 -0.0822  0.1586 -0.2302
 6766SOL    HW131934   0.945   2.244  15.981  0.0415  0.0524  1.2549
 6766SOL    HW231935   0.795   2.262  16.000  0.7032 -1.5732 -2.4979
 6767SOL     OW31936   0.278   2.383   5.479  0.1665 -0.4086 -0.4913
 6767SOL    HW131937   0.356   2.400   5.531 -1.2324  1.6102  0.9691
 6767SOL    HW231938   0.227   2.450   5.524  0.3445  0.1963 -1.1815
 6768SOL     OW31939   1.313   4.318   4.446  0.4240 -1.1905  0.2697
 6768SOL    HW131940   1.376   4.247   4.447  1.3555 -0.3542  0.5516
 6768SOL    HW231941   1.320   4.338   4.539  0.7789  0.1079 -0.0351
 6769SOL     OW31942   2.685   3.574   6.278 -0.0112 -0.2193  0.0677
 6769SOL    HW131943   2.610   3.633   6.274 -1.4131 -1.9015  1.1166
 6769SOL    HW231944   2.691   3.522   6.197  0.5960  1.9767 -1.2861
 6770SOL     OW31945   3.787   3.297  16.251  0.6827 -0.5582  0.0966
 6770SOL    HW131946   3.734   3.255  16.318 -0.9288 -0.6876 -1.2468
 6770SOL    HW231947   3.725   3.342  16.193 -1.1048 -1.2746  1.4481
 6771SOL     OW31948   1.791   0.461   7.737  0.4735  0.3071 -0.2031
 6771SOL    HW131949   1.840   0.449   7.655 -0.0391 -0.6438 -0.3676
 6771SOL    HW231950   1.808   0.555   7.740  1.5970  0.1401 -1.0867
 6772SOL     OW31951   3.366   1.950   5.220  0.0640 -0.0764 -0.1150
 6772SOL    HW131952   3.288   1.970   5.272 -0.4618  3.7261 -2.4055
 6772SOL    HW231953   3.397   1.879   5.277 -1.1817 -0.0349  0.5909
 6773SOL     OW31954   0.125   3.545   7.729 -0.1014  0.2462  0.5432
 6773SOL    HW131955   0.149   3.475   7.668 -1.8920 -0.2940  0.4643
 6773SOL    HW231956   0.061   3.583   7.669  2.1648  0.4035 -1.7800
 6774SOL     OW31957   2.444   2.120   1.332 -0.3501  0.7711  0.0512
 6774SOL    HW131958   2.491   2.196   1.368  0.5066  0.1946  0.1632
 6774SOL    HW231959   2.422   2.076   1.414 -0.6323 -1.0746 -1.0075
 6775SOL     OW31960   1.364   2.122   8.331  0.0370 -0.0010  0.5270
 6775SOL    HW131961   1.386   2.211   8.304 -1.5218 -0.0277 -0.8580
 6775SOL    HW231962   1.284   2.144   8.378 -0.3133 -1.6165  0.6793
 6776SOL     OW31963   3.295   1.061  10.499  0.5043  0.2547 -0.1183
 6776SOL    HW131964   3.275   1.141  10.547  0.7650 -0.1422  0.6542
 6776SOL    HW231965   3.341   1.095  10.422 -2.0430  1.7276 -0.9778
 6777SOL     OW31966   2.110   4.407   8.897  0.6024  0.4174 -0.0937
 6777SOL    HW131967   2.037   4.435   8.952 -0.6408  0.0286 -1.5186
 6777SOL    HW231968   2.167   4.483   8.900 -1.0988  1.7212 -0.6530
 6778SOL     OW31969   0.466   1.039   9.488  0.4587  0.0634 -0.5837
 6778SOL    HW131970   0.462   1.084   9.403 -0.3960 -1.4074 -1.3239
 6778SOL    HW231971   0.481   1.110   9.550  0.1252  0.7187 -1.2508
 6779SOL     OW31972   1.301   1.300   5.391  0.6668  0.1246 -0.1170
 6779SOL    HW131973   1.344   1.216   5.377  1.1705  0.1944  0.9898
 6779SOL    HW231974   1.213   1.283   5.356  0.0718  1.5480  0.6844
 6780SOL     OW31975   1.674   1.488   6.897 -0.0914 -0.2141  0.5937
 6780SOL    HW131976   1.702   1.406   6.939 -0.1428 -0.6956 -0.3064
 6780SOL    HW231977   1.721   1.556   6.945 -0.9259  1.6491 -1.2640
 6781SOL     OW31978   4.483   4.694   3.865  0.2851 -0.3781  0.0767
 6781SOL    HW131979   4.463   0.048   3.878  1.5329 -0.4515  2.5760
 6781SOL    HW231980   4.399   4.654   3.886  0.3987 -0.7904 -0.2610
 6782SOL     OW31981   0.767   0.376   6.774 -0.2422 -0.2655  0.3683
 6782SOL    HW131982   0.794   0.450   6.829 -2.6039  0.9905 -0.1595
 6782SOL    HW231983   0.689   0.349   6.823 -1.4674 -1.3235 -2.1972
 6783SOL     OW31984   4.390   3.829   5.351 -0.4448 -0.0449  0.4178
 6783SOL    HW131985   4.417   3.831   5.260  1.7092 -0.0573  1.0739
 6783SOL    HW231986   4.355   3.740   5.352 -0.7498  0.0679  0.0639
 6784SOL     OW31987   1.786   0.883   3.099  0.1859  0.0744 -0.0803
 6784SOL    HW131988   1.870   0.845   3.123  0.0097  0.7838  1.6670
 6784SOL    HW231989   1.787   0.860   3.006 -3.3145  0.3705 -0.1960
 6785SOL     OW31990   0.240   3.851  14.762 -0.0307  0.0805  0.2484
 6785SOL    HW131991   0.304   3.900  14.711 -0.5220 -1.7561 -2.1087
 6785SOL    HW231992   0.301   3.832  14.834  0.9001 -0.4233 -0.6759
 6786SOL     OW31993   1.475   4.309   5.886 -0.0770 -0.0263 -0.1944
 6786SOL    HW131994   1.397   4.365   5.886  1.8335  2.6078  2.1496
 6786SOL    HW231995   1.529   4.364   5.943 -0.2894 -1.5261  1.4546
 6787SOL     OW31996   3.785   3.691  11.389  0.0142 -0.6549  0.3576
 6787SOL    HW131997   3.858   3.731  11.436 -0.8613  0.6615  0.5979
 6787SOL    HW231998   3.804   3.598  11.378  2.6611 -0.3009  1.9850
 6788SOL     OW31999   2.443   2.569   8.106 -0.0808  0.3184  0.0602
 6788SOL    HW132000   2.429   2.652   8.060 -1.2982  0.0104 -0.1102
 6788SOL    HW232001   2.511   2.534   8.047  1.3939 -0.8848  2.4599
 6789SOL     OW32002   2.622   3.301   3.565 -0.2472  0.1690  0.7285
 6789SOL    HW132003   2.542   3.248   3.567 -1.1837  1.6144  1.5559
 6789SOL    HW232004   2.590   3.376   3.615  2.3187 -1.0516  4.1264
 6790SOL     OW32005   0.280   1.301   6.123  0.6679  0.0610 -0.0385
 6790SOL    HW132006   0.303   1.386   6.087  0.3544  0.3042  0.3467
 6790SOL    HW232007   0.292   1.248   6.044  1.0551  0.5592 -0.3104
 6791SOL     OW32008   3.375   2.761  17.642 -0.7984 -0.1572  0.4867
 6791SOL    HW132009   3.292   2.723  17.615 -1.2375  1.0441  0.1542
 6791SOL    HW232010   3.413   2.799  17.563  2.1579 -1.1620  1.4286
 6792SOL     OW32011   2.879   1.010   3.319 -0.7804  0.2751  0.3225
 6792SOL    HW132012   2.889   0.919   3.291  0.1136  0.5347 -0.1925
 6792SOL    HW232013   2.785   1.009   3.335 -1.2793 -3.0887 -2.8356
 6793SOL     OW32014   1.314   3.033   3.456  0.1994 -0.1054  0.1212
 6793SOL    HW132015   1.408   3.015   3.453  0.0307 -1.3685  2.3195
 6793SOL    HW232016   1.299   2.962   3.519 -0.7695  1.1507  1.3006
 6794SOL     OW32017   1.315   1.527   5.858 -0.1421  0.2044  0.5799
 6794SOL    HW132018   1.273   1.524   5.772  0.6619 -1.6104  0.2582
 6794SOL    HW232019   1.272   1.451   5.898 -1.8656  0.7620 -0.1797
 6795SOL     OW32020   2.098   4.634   5.038  0.2708 -0.5267 -0.6956
 6795SOL    HW132021   2.088   4.660   4.947  1.6919 -0.5539 -0.8631
 6795SOL    HW232022   2.137   4.548   5.023 -0.8324 -0.7186 -2.3976
 6796SOL     OW32023   4.245   4.460   8.113  0.0524 -0.0189  0.5820
 6796SOL    HW132024   4.168   4.472   8.058 -1.4164 -2.3202  2.1316
 6796SOL    HW232025   4.277   4.550   8.103 -0.0117  0.0459  0.9435
 6797SOL     OW32026   4.671   1.248   3.263  0.9271  0.1399  0.0187
 6797SOL    HW132027   4.638   1.242   3.353  1.0096 -0.4563  0.0106
 6797SOL    HW232028   4.733   1.321   3.270  2.0766 -0.5195 -3.5365
 6798SOL     OW32029   2.731   3.396   5.501 -0.4292  0.1211 -0.3955
 6798SOL    HW132030   2.765   3.460   5.438 -0.6648  1.1247  0.5073
 6798SOL    HW232031   2.758   3.443   5.579  1.0920  0.0799 -0.8947
 6799SOL     OW32032   1.464   2.554   2.014  0.6405 -0.2919 -0.2917
 6799SOL    HW132033   1.509   2.477   2.051 -0.5483 -0.0263  1.6782
 6799SOL    HW232034   1.414   2.517   1.941  0.1402  3.9787 -2.0759
 6800SOL     OW32035   0.004   1.195  10.123  0.2025  0.7770  0.3504
 6800SOL    HW132036   0.063   1.196  10.198 -0.0478 -0.0878  0.5618
 6800SOL    HW232037   4.656   1.184  10.163  0.0989  3.4200  0.8791
 6801SOL     OW32038   1.176   1.517  17.359 -0.2487 -0.9215  0.3963
 6801SOL    HW132039   1.117   1.491  17.430  0.6237 -2.4036  0.5752
 6801SOL    HW232040   1.188   1.610  17.377 -0.5433 -0.4514 -1.7951
 6802SOL     OW32041   1.352   2.619   4.986  0.1349  0.3543 -0.1602
 6802SOL    HW132042   1.301   2.580   4.915 -0.2952  1.4241 -0.4522
 6802SOL    HW232043   1.285   2.623   5.055 -0.1444 -1.9298 -0.3188
 6803SOL     OW32044   2.024   1.840   8.463  0.1083 -0.1775 -0.1180
 6803SOL    HW132045   1.992   1.930   8.474 -1.8259 -0.7863 -0.7104
 6803SOL    HW232046   1.970   1.816   8.387  0.3388 -1.8302  0.2473
 6804SOL     OW32047   1.849   0.203   8.199  0.2986  0.0641  0.1628
 6804SOL    HW132048   1.830   0.284   8.245 -1.0751  0.2891 -0.8142
 6804SOL    HW232049   1.806   0.217   8.115 -0.6986  0.4567  0.7454
 6805SOL     OW32050   2.189   2.027  13.309  0.1447  0.6027 -0.3740
 6805SOL    HW132051   2.260   2.087  13.333  1.7551 -2.6993  2.9876
 6805SOL    HW232052   2.200   2.036  13.214 -1.5891  1.9924 -0.4658
 6806SOL     OW32053   0.755   2.890   1.548 -0.0097  0.6099 -0.6071
 6806SOL    HW132054   0.708   2.944   1.484 -0.4857  2.8270  1.6248
 6806SOL    HW232055   0.841   2.917   1.516 -0.5360  1.4104 -1.3388
 6807SOL     OW32056   1.662   2.208   2.747  0.4442  0.4815 -0.1480
 6807SOL    HW132057   1.734   2.159   2.707  0.2860  1.6361 -1.8634
 6807SOL    HW232058   1.648   2.287   2.695  1.8278 -0.1678 -1.4976
 6808SOL     OW32059   4.633   0.415   0.779  0.0764 -0.2724 -0.0374
 6808SOL    HW132060   4.568   0.366   0.830 -0.6294 -2.1206 -2.7211
 6808SOL    HW232061   4.632   0.357   0.703  0.9249 -1.0921  0.5662
 6809SOL     OW32062   0.833   2.342  17.349 -0.0685 -0.2588  0.5596
 6809SOL    HW132063   0.769   2.354  17.419  0.4383 -0.3564  1.0393
 6809SOL    HW232064   0.770   2.313  17.283  0.5972  0.8161 -0.5464
 6810SOL     OW32065   4.569   3.873   5.720  0.1474  0.3600  0.0060
 6810SOL    HW132066   4.647   3.818   5.726 -0.3859 -0.4099 -0.1743
 6810SOL    HW232067   4.572   3.913   5.633 -1.9062 -2.0335 -1.1906
 6811SOL     OW32068   1.418   0.404   8.472  0.0909 -0.1235  0.1078
 6811SOL    HW132069   1.395   0.393   8.565  0.1293  1.2422  0.2788
 6811SOL    HW232070   1.398   0.496   8.454 -1.8264 -0.7131 -0.7786
 6812SOL     OW32071   0.959   1.302   9.383  0.6225 -0.2954  0.0134
 6812SOL    HW132072   1.038   1.319   9.433 -0.6263  2.2838  1.1323
 6812SOL    HW232073   0.896   1.368   9.411  1.5061  0.5032  0.1282
 6813SOL     OW32074   1.832   4.509  10.014 -0.3406 -0.1409  0.5276
 6813SOL    HW132075   1.803   4.426  10.052  1.1679 -0.2071  1.5828
 6813SOL    HW232076   1.754   4.564  10.012  0.6037  1.2419  1.6600
 6814SOL     OW32077   3.933   0.045   3.814  0.2716 -0.0987  0.1271
 6814SOL    HW132078   4.014   0.003   3.784  0.4279  1.7530 -1.9573
 6814SOL    HW232079   3.898   4.714   3.871 -0.3628  0.1012 -0.0190
 6815SOL     OW32080   3.490   2.616  16.298 -0.3000 -0.3366  0.4327
 6815SOL    HW132081   3.527   2.545  16.350 -0.0317 -0.7523 -0.3324
 6815SOL    HW232082   3.469   2.570  16.217  3.1042  1.6845 -1.6240
 6816SOL     OW32083   0.156   0.993  10.003  0.3818  0.6369  0.4276
 6816SOL    HW132084   0.090   1.047  10.045 -0.0299  1.1668 -0.8892
 6816SOL    HW232085   0.226   0.983  10.067  0.1409 -1.6237  0.3593
 6817SOL     OW32086   0.101   4.471  14.839  0.1859 -0.5046 -0.1683
 6817SOL    HW132087   0.178   4.502  14.791 -0.5987 -1.0959 -1.8291
 6817SOL    HW232088   0.068   4.555  14.871  1.7180  1.4298 -3.6452
 6818SOL     OW32089   0.200   1.593   9.275 -0.2942 -0.1895 -0.2960
 6818SOL    HW132090   0.281   1.635   9.248  0.5362 -1.4371  0.2255
 6818SOL    HW232091   0.160   1.661   9.328  0.2902  0.1781 -0.3346
 6819SOL     OW32092   1.739   0.210   3.598  0.0664  1.2421 -0.1379
 6819SOL    HW132093   1.732   0.179   3.688  0.7698 -1.5043 -1.0352
 6819SOL    HW232094   1.832   0.220   3.576  0.7239  0.5549  2.3266
 6820SOL     OW32095   1.008   1.408  17.552 -0.4172 -0.4703 -0.0845
 6820SOL    HW132096   0.938   1.366  17.502 -1.0825  0.0121  0.4455
 6820SOL    HW232097   0.959   1.435  17.630 -0.6179  2.3911 -1.1892
 6821SOL     OW32098   4.720   0.188   6.498  0.0382  0.2482  0.5294
 6821SOL    HW132099   0.013   0.273   6.468  3.3308 -1.6947 -1.4093
 6821SOL    HW232100   4.643   0.226   6.541  0.4673 -2.0072  3.2859
 6822SOL     OW32101   3.405   2.094  15.820 -0.2355 -0.7565  0.4879
 6822SOL    HW132102   3.439   2.070  15.906 -1.2837  0.1115  1.1401
 6822SOL    HW232103   3.477   2.139  15.776 -1.2207  1.2134  0.9194
 6823SOL     OW32104   4.306   2.225   5.228 -0.2181 -0.2673 -0.4862
 6823SOL    HW132105   4.400   2.205   5.231  0.3746  2.1534 -3.1182
 6823SOL    HW232106   4.291   2.273   5.310 -0.0765 -1.7484  0.4016
 6824SOL     OW32107   2.736   0.149   4.641 -0.0316 -0.0053  0.1076
 6824SOL    HW132108   2.742   0.242   4.616 -0.2291 -0.3049 -1.0199
 6824SOL    HW232109   2.802   0.105   4.588  1.2308 -0.1971  1.8143
 6825SOL     OW32110   1.548   1.651  16.170 -0.2194  0.0221  0.6021
 6825SOL    HW132111   1.487   1.587  16.132  2.9661 -1.9749 -1.1895
 6825SOL    HW232112   1.517   1.662  16.260 -2.7078 -0.8562 -0.1577
 6826SOL     OW32113   2.579   1.328   8.044 -0.2710  0.4637  0.7729
 6826SOL    HW132114   2.486   1.345   8.030  0.1269  2.9758  1.1429
 6826SOL    HW232115   2.613   1.313   7.955 -3.2388 -1.5144 -0.0232
 6827SOL     OW32116   0.989   3.001   4.835  0.7602 -0.3861  0.4374
 6827SOL    HW132117   1.016   2.916   4.870  1.2714 -0.8356 -1.0429
 6827SOL    HW232118   0.914   2.971   4.783  0.3004  0.6082  0.5251
 6828SOL     OW32119   4.360   2.179   2.873 -0.4219  0.9846  0.3554
 6828SOL    HW132120   4.295   2.112   2.852  2.5799 -1.8435  0.0136
 6828SOL    HW232121   4.351   2.232   2.794  2.2294 -0.3474 -0.8068
 6829SOL     OW32122   1.681   1.309   2.715 -0.0439  0.3033 -0.5771
 6829SOL    HW132123   1.596   1.296   2.674 -0.1727  1.4487 -0.6813
 6829SOL    HW232124   1.720   1.389   2.679  0.2172 -0.1064 -1.2092
 6830SOL     OW32125   3.128   3.677  15.472 -0.0984 -0.2202  0.1913
 6830SOL    HW132126   3.164   3.762  15.498  1.4534 -0.2466 -1.8280
 6830SOL    HW232127   3.125   3.627  15.554  1.7310  0.5132  0.7193
 6831SOL     OW32128   2.055   3.728   6.573  0.4433 -0.4324  0.0702
 6831SOL    HW132129   1.989   3.665   6.601 -0.1640  0.5719  0.9283
 6831SOL    HW232130   2.013   3.752   6.490  1.6468  0.4335 -0.2793
 6832SOL     OW32131   2.548   0.440  10.722 -0.4325 -0.5008 -0.1061
 6832SOL    HW132132   2.643   0.428  10.730 -0.0787  2.4163  0.1836
 6832SOL    HW232133   2.539   0.523  10.769 -0.2268 -0.5269 -0.0193
 6833SOL     OW32134   0.180   0.336  14.583  0.1344  0.8602  0.3060
 6833SOL    HW132135   0.271   0.366  14.587  1.0225 -1.6311 -1.1325
 6833SOL    HW232136   0.142   0.401  14.525 -1.0806 -0.9277 -0.9046
 6834SOL     OW32137   0.339   2.963  17.707 -0.2329 -0.2395  0.2228
 6834SOL    HW132138   0.371   2.893  17.651  0.1657  0.3360 -0.2744
 6834SOL    HW232139   0.255   2.992  17.671 -0.5000 -0.6582  0.5092
 6835SOL     OW32140   2.662   0.756  12.647 -0.7095  0.6563 -0.1487
 6835SOL    HW132141   2.611   0.765  12.727  0.9486  1.3658  0.8204
 6835SOL    HW232142   2.598   0.777  12.579 -1.3345 -0.1856  0.1799
 6836SOL     OW32143   3.418   0.831   6.444  0.3593 -0.3685  0.2680
 6836SOL    HW132144   3.378   0.819   6.358  1.3309  0.1087 -0.2514
 6836SOL    HW232145   3.483   0.761   6.443  0.1699 -0.5384 -0.2056
 6837SOL     OW32146   4.193   1.676   4.264  0.1653 -0.0581  0.1493
 6837SOL    HW132147   4.222   1.596   4.222 -1.0303 -1.4111  1.8889
 6837SOL    HW232148   4.252   1.734   4.216 -0.1613 -0.3223 -0.5789
 6838SOL     OW32149   1.563   3.937   4.670 -0.1323 -0.1549 -0.2191
 6838SOL    HW132150   1.468   3.927   4.667 -0.2921  1.6409 -1.1464
 6838SOL    HW232151   1.581   4.030   4.688 -2.2510  0.3291 -0.5856
 6839SOL     OW32152   0.996   0.452   7.840 -0.1546  0.3948 -0.0758
 6839SOL    HW132153   1.086   0.430   7.863  0.0927  2.4747  0.9384
 6839SOL    HW232154   0.987   0.426   7.748  1.0778  2.2296 -0.7127
 6840SOL     OW32155   0.930   2.780   2.403 -0.2470 -0.5952  0.1203
 6840SOL    HW132156   0.983   2.803   2.327 -1.4085  0.6833 -0.3149
 6840SOL    HW232157   0.987   2.808   2.474  0.6158 -0.1357 -0.7529
 6841SOL     OW32158   1.983   3.558   5.224 -0.0662 -0.4034  0.1421
 6841SOL    HW132159   2.053   3.610   5.185 -2.1761  2.6581  0.4244
 6841SOL    HW232160   1.916   3.577   5.158  0.1425 -0.7778 -0.1784
 6842SOL     OW32161   2.882   2.830  11.076 -0.5527 -0.0604 -0.4152
 6842SOL    HW132162   2.945   2.759  11.064  0.1723  0.1589  2.0636
 6842SOL    HW232163   2.893   2.872  10.991  1.0194 -1.3837 -0.8591
 6843SOL     OW32164   0.608   0.492   5.740  0.2664 -0.2979  0.1135
 6843SOL    HW132165   0.677   0.558   5.732 -0.0660  0.1273  0.7657
 6843SOL    HW232166   0.657   0.420   5.780 -3.0637 -2.8595 -0.4231
 6844SOL     OW32167   3.380   2.314  10.133  0.7078  0.2600 -0.4382
 6844SOL    HW132168   3.310   2.294  10.195  2.1243 -1.1273  0.7047
 6844SOL    HW232169   3.374   2.405  10.161 -0.1858 -0.1444  0.7055
 6845SOL     OW32170   0.457   1.182   1.045  0.2068 -0.4261  0.1891
 6845SOL    HW132171   0.520   1.251   1.067 -0.5076  0.5929 -0.9269
 6845SOL    HW232172   0.379   1.235   1.030  0.4065 -0.6767 -1.7912
 6846SOL     OW32173   2.294   3.607   1.961  0.3801 -0.3713 -0.4442
 6846SOL    HW132174   2.258   3.538   2.017  1.9688 -2.0051 -1.4371
 6846SOL    HW232175   2.360   3.565   1.906  1.8005  1.0471  0.1446
 6847SOL     OW32176   3.740   3.873  16.764  0.0260 -0.2553 -0.4446
 6847SOL    HW132177   3.766   3.932  16.693 -3.8576  0.7557 -1.0086
 6847SOL    HW232178   3.679   3.819  16.714 -2.9342  1.9355  0.8310
 6848SOL     OW32179   4.416   4.200  11.199  0.1684  0.3767  0.2075
 6848SOL    HW132180   4.424   4.202  11.294 -1.4689 -1.9049  0.3813
 6848SOL    HW232181   4.427   4.107  11.183  1.2275  0.2621  1.6512
 6849SOL     OW32182   3.437   2.891   4.331  0.3829 -0.0916 -0.2859
 6849SOL    HW132183   3.410   2.920   4.244  1.1036  0.5339 -0.2944
 6849SOL    HW232184   3.376   2.818   4.344 -0.6263  1.2403  2.3154
 6850SOL     OW32185   2.954   3.926   6.695  0.0959 -0.6597 -0.0619
 6850SOL    HW132186   2.869   3.918   6.739 -0.0425 -1.3516 -0.4505
 6850SOL    HW232187   3.001   3.847   6.722 -1.2653 -0.7776  1.9409
 6851SOL     OW32188   1.679   0.694   1.727  0.3914 -0.0819  0.3953
 6851SOL    HW132189   1.687   0.618   1.669 -2.3802 -0.4045  0.4421
 6851SOL    HW232190   1.730   0.759   1.679 -0.9960  0.6068 -0.1405
 6852SOL     OW32191   2.036   1.440   1.029  0.7317 -0.1101 -0.3729
 6852SOL    HW132192   2.028   1.535   1.034  2.4546  0.0652 -0.8401
 6852SOL    HW232193   1.955   1.416   0.984  1.2091 -0.0798 -1.2468
 6853SOL     OW32194   0.807   0.051  10.761 -0.0529 -0.4781 -0.0251
 6853SOL    HW132195   0.844   0.073  10.847 -0.1251  1.1831 -0.4090
 6853SOL    HW232196   0.798   4.695  10.761 -2.4371 -0.2660  2.0939
 6854SOL     OW32197   3.306   1.281   9.180  0.0385  0.0029  0.3029
 6854SOL    HW132198   3.372   1.348   9.197 -0.9035  1.3958 -1.5195
 6854SOL    HW232199   3.231   1.326   9.219 -0.3738  0.4677 -1.0071
 6855SOL     OW32200   3.624   2.750   9.209 -0.0967 -0.2882 -0.4968
 6855SOL    HW132201   3.702   2.779   9.257 -0.5529  0.0984  0.0137
 6855SOL    HW232202   3.600   2.827   9.158 -1.9519  1.1708  2.5643
 6856SOL     OW32203   2.526   3.451  16.745  0.8120 -0.0919 -0.4934
 6856SOL    HW132204   2.587   3.518  16.713  1.0770 -0.2035 -0.2245
 6856SOL    HW232205   2.544   3.382  16.680  1.4707  0.4572 -0.8908
 6857SOL     OW32206   0.815   1.841   5.967  0.6382  0.0958 -0.0231
 6857SOL    HW132207   0.832   1.826   5.874 -1.6176  1.2112 -0.6054
 6857SOL    HW232208   0.758   1.766   5.984  1.6801 -0.6192  0.3394
 6858SOL     OW32209   2.547   0.705   4.869  0.0658 -0.6340 -0.1932
 6858SOL    HW132210   2.501   0.778   4.912 -1.1335  0.3395 -3.1278
 6858SOL    HW232211   2.529   0.720   4.776  2.0643 -2.3528 -0.8395
 6859SOL     OW32212   2.896   4.086   5.170 -0.7629  0.3511 -0.1892
 6859SOL    HW132213   2.976   4.130   5.143 -0.4570  0.1394  0.3762
 6859SOL    HW232214   2.893   4.124   5.258 -0.5994  0.7623 -0.3596
 6860SOL     OW32215   2.707   1.074   4.849 -0.0115 -0.1255 -0.8933
 6860SOL    HW132216   2.744   0.987   4.834  1.2307  0.4375 -1.1169
 6860SOL    HW232217   2.624   1.048   4.887  0.9371 -2.5259 -0.4930
 6861SOL     OW32218   1.833   3.869  11.236  0.2316 -0.3560  0.3523
 6861SOL    HW132219   1.833   3.792  11.179 -2.1242 -0.2928  0.2872
 6861SOL    HW232220   1.792   3.839  11.317  1.0294 -0.1260  0.8415
 6862SOL     OW32221   2.759   0.319   5.603  0.1453  0.0002  0.5877
 6862SOL    HW132222   2.790   0.234   5.573  0.1235  1.0391 -2.4087
 6862SOL    HW232223   2.755   0.298   5.696 -0.3473 -0.0077  0.5651
 6863SOL     OW32224   3.876   2.488   3.062 -0.4954 -0.3285  0.1548
 6863SOL    HW132225   3.868   2.440   2.980  0.4810 -0.9048  0.4074
 6863SOL    HW232226   3.794   2.462   3.104 -0.7768 -2.2210 -1.5842
 6864SOL     OW32227   3.261   3.823   6.798  0.3775  0.5511 -0.1415
 6864SOL    HW132228   3.257   3.773   6.717  1.8588  0.0565  0.0894
 6864SOL    HW232229   3.260   3.756   6.867  1.6252  1.4208  0.7193
 6865SOL     OW32230   0.839   2.420  12.342 -0.9883  0.4614 -0.1809
 6865SOL    HW132231   0.795   2.498  12.378  1.0033  1.6268 -0.3026
 6865SOL    HW232232   0.811   2.354  12.405  0.2097 -1.3048 -1.5362
 6866SOL     OW32233   3.408   3.885   6.525  0.0770  0.3731  0.4304
 6866SOL    HW132234   3.344   3.816   6.541  0.0351  0.3887  0.3297
 6866SOL    HW232235   3.466   3.873   6.600 -1.3792 -1.0741  1.3252
 6867SOL     OW32236   4.655   1.921   4.311  0.0675 -0.3621 -0.1862
 6867SOL    HW132237   4.633   2.013   4.294  2.4144 -0.2929 -3.0786
 6867SOL    HW232238   4.607   1.896   4.390  2.5810 -0.2874  1.3634
 6868SOL     OW32239   4.608   1.042   4.841 -0.2836 -0.6050  0.3116
 6868SOL    HW132240   4.668   1.016   4.771  2.4168  0.4823  2.2117
 6868SOL    HW232241   4.560   0.963   4.865 -0.8868 -0.4707 -0.4843
 6869SOL     OW32242   0.176   1.335   4.926  0.2372  0.2666  0.4981
 6869SOL    HW132243   0.086   1.317   4.953 -0.5689  1.7757 -1.1579
 6869SOL    HW232244   0.200   1.422   4.959 -3.6731  1.1543  1.0416
 6870SOL     OW32245   1.195   3.502  13.604 -0.5896 -0.4380  0.2493
 6870SOL    HW132246   1.217   3.448  13.528  0.7219  0.4939 -0.0158
 6870SOL    HW232247   1.270   3.560  13.614 -0.2194 -0.9265  0.2836
 6871SOL     OW32248   0.150   2.943   8.659 -0.0943 -0.1653 -0.6607
 6871SOL    HW132249   0.185   2.909   8.577 -0.0895 -1.0470 -0.2870
 6871SOL    HW232250   0.058   2.949   8.632 -0.6656  1.9405  1.6641
 6872SOL     OW32251   0.636   1.327   1.239 -0.2057  0.2055 -0.0918
 6872SOL    HW132252   0.731   1.321   1.253 -0.3517  0.5054  1.0624
 6872SOL    HW232253   0.613   1.253   1.295  0.0828 -0.2080 -0.5255
 6873SOL     OW32254   4.720   0.186   4.163  0.0931  0.2548  0.0327
 6873SOL    HW132255   0.032   0.232   4.096 -0.3804  1.5486  0.5622
 6873SOL    HW232256   4.714   0.260   4.223 -2.2557 -0.4301  0.6347
 6874SOL     OW32257   2.080   0.366   2.411  0.0058 -0.1297 -0.4776
 6874SOL    HW132258   1.991   0.399   2.399 -0.2385 -0.7104 -0.2335
 6874SOL    HW232259   2.133   0.407   2.343 -0.4784  1.5245  0.1225
 6875SOL     OW32260   0.730   1.753  13.392 -0.3425 -0.2847 -0.2379
 6875SOL    HW132261   0.787   1.788  13.323 -1.2189  1.5809  0.0091
 6875SOL    HW232262   0.783   1.771  13.469 -0.4047  0.8761 -0.4687
 6876SOL     OW32263   3.408   4.589   4.490  0.2811  0.1445  0.3043
 6876SOL    HW132264   3.469   4.659   4.512 -0.4390  1.0783 -0.6736
 6876SOL    HW232265   3.391   4.602   4.397 -1.8705 -1.8536  0.4194
 6877SOL     OW32266   1.286   1.276  17.383 -0.3930  0.4163  0.1124
 6877SOL    HW132267   1.236   1.352  17.352 -0.6755  0.8323  1.6016
 6877SOL    HW232268   1.248   1.244  17.464  2.0125  1.0872  1.4896
 6878SOL     OW32269   2.703   1.078  10.351  0.2062  0.3807  0.0620
 6878SOL    HW132270   2.717   1.019  10.276 -0.8574 -1.6306  1.4595
 6878SOL    HW232271   2.625   1.047  10.397 -1.0882  1.2017 -1.5795
 6879SOL     OW32272   3.587   2.557  17.377 -0.1872 -0.0720 -0.1156
 6879SOL    HW132273   3.584   2.513  17.292  0.6903 -0.4967  0.0723
 6879SOL    HW232274   3.529   2.495  17.422  1.5622 -0.6566  1.3450
 6880SOL     OW32275   0.238   0.924   6.587  0.1230 -0.0946  0.1776
 6880SOL    HW132276   0.216   0.991   6.652  2.2999  0.0993  0.7343
 6880SOL    HW232277   0.198   0.962   6.509 -1.9926  0.4172  1.5210
 6881SOL     OW32278   0.544   0.963  10.491 -0.3792  0.4330  0.7390
 6881SOL    HW132279   0.469   0.936  10.438 -1.1533 -0.0029  2.0417
 6881SOL    HW232280   0.587   1.026  10.434 -1.1172  1.2496  1.0972
 6882SOL     OW32281   0.972   3.097   3.490  0.4362  0.0302 -0.7815
 6882SOL    HW132282   1.029   3.165   3.455  0.9184 -0.4587 -0.9423
 6882SOL    HW232283   0.890   3.146   3.491  0.2680 -0.2191 -3.4769
 6883SOL     OW32284   2.080   1.662   5.185  0.3829 -0.2692  0.1300
 6883SOL    HW132285   2.173   1.638   5.181  0.5339  0.3628 -0.1147
 6883SOL    HW232286   2.069   1.707   5.102 -0.5919 -1.5049 -0.4069
 6884SOL     OW32287   3.979   3.622   3.874 -0.9594  0.1793  0.4460
 6884SOL    HW132288   3.898   3.604   3.826 -1.4370  0.0458  1.3012
 6884SOL    HW232289   4.020   3.676   3.807  5.6680 -1.7688  3.0043
 6885SOL     OW32290   2.299   3.395   5.823  0.3085 -0.2977 -0.2293
 6885SOL    HW132291   2.261   3.446   5.752  0.5656  0.6543  0.3211
 6885SOL    HW232292   2.373   3.453   5.843 -0.3907  1.8838 -3.8811
 6886SOL     OW32293   1.333   4.128   5.333 -0.1049  0.3230  0.1776
 6886SOL    HW132294   1.268   4.198   5.340 -1.6160 -0.9117 -1.3573
 6886SOL    HW232295   1.276   4.053   5.317  0.9856 -0.7085  1.1646
 6887SOL     OW32296   3.625   1.804   4.721 -0.8332  0.1425  0.5648
 6887SOL    HW132297   3.630   1.797   4.817  1.6566  0.5303  0.4635
 6887SOL    HW232298   3.687   1.874   4.699  1.5532 -1.1421  3.1657
 6888SOL     OW32299   2.482   2.063  17.104  0.0325 -0.0685 -0.2014
 6888SOL    HW132300   2.469   2.135  17.165  0.1411  2.3226 -3.0414
 6888SOL    HW232301   2.424   2.090  17.033 -1.4231 -0.6924  0.7387
 6889SOL     OW32302   1.475   2.999  10.844  0.4365  0.0235  0.9728
 6889SOL    HW132303   1.483   3.094  10.855 -1.1206  0.1149  1.3911
 6889SOL    HW232304   1.512   2.994  10.756 -0.6893  0.1995  0.4974
 6890SOL     OW32305   4.350   4.087   2.006  0.5127  0.0538 -0.3003
 6890SOL    HW132306   4.399   4.134   1.937  0.1080  1.3781  0.3114
 6890SOL    HW232307   4.282   4.045   1.954  1.5990 -0.8669 -0.9975
 6891SOL     OW32308   2.244   1.195   6.107  0.1199 -0.6956  0.1236
 6891SOL    HW132309   2.333   1.215   6.137  0.7098 -3.4317  0.1787
 6891SOL    HW232310   2.203   1.279   6.127  1.8347  0.1166  0.2662
 6892SOL     OW32311   3.458   0.340   5.293 -0.2615  0.1836  0.0505
 6892SOL    HW132312   3.459   0.266   5.354 -0.0390 -0.1845 -0.3930
 6892SOL    HW232313   3.399   0.302   5.228  1.8632 -0.9801 -1.1976
 6893SOL     OW32314   2.159   2.717   7.788 -0.3013  0.3841  0.1974
 6893SOL    HW132315   2.174   2.682   7.700  1.6736  0.5786  0.4664
 6893SOL    HW232316   2.085   2.777   7.775  1.3198  2.1355 -0.8136
 6894SOL     OW32317   1.347   1.412   9.767 -0.1279 -0.3843  0.6040
 6894SOL    HW132318   1.385   1.487   9.812 -1.7010  1.0545 -0.4733
 6894SOL    HW232319   1.418   1.347   9.763  0.4432  0.3353 -0.8488
 6895SOL     OW32320   3.045   2.063   7.637  0.0734 -0.6801  0.2783
 6895SOL    HW132321   2.979   2.131   7.649 -1.7623 -2.5342  0.6826
 6895SOL    HW232322   3.017   1.997   7.701  0.8265 -2.8236 -1.6045
 6896SOL     OW32323   3.658   0.352  17.750  0.3513  0.3476 -0.5832
 6896SOL    HW132324   3.631   0.300  17.674 -0.4774 -0.8316  0.5232
 6896SOL    HW232325   3.687   0.288   0.063  0.1666 -0.9282 -1.7472
 6897SOL     OW32326   3.874   1.617   3.414 -0.3407 -0.6836  0.2938
 6897SOL    HW132327   3.784   1.602   3.385 -0.0738 -0.7707 -0.4833
 6897SOL    HW232328   3.878   1.697   3.467 -0.9757  1.0916 -2.3477
 6898SOL     OW32329   2.199   2.636   5.526 -0.2810 -0.0064 -0.0058
 6898SOL    HW132330   2.204   2.626   5.431  2.1466  2.0434 -0.1013
 6898SOL    HW232331   2.105   2.654   5.529 -0.1115  0.7372  0.8364
 6899SOL     OW32332   1.120   1.664   6.552 -0.2846  1.1701 -0.0561
 6899SOL    HW132333   1.142   1.742   6.602 -1.9825  1.2152  0.6333
 6899SOL    HW232334   1.076   1.615   6.622 -0.8800  1.3830 -0.2806
 6900SOL     OW32335   0.303   1.264   8.310 -0.5268 -0.2035  0.3306
 6900SOL    HW132336   0.362   1.229   8.377  1.0944  0.2600 -0.8488
 6900SOL    HW232337   0.259   1.336   8.354 -0.3218  0.4108 -0.4531
 6901SOL     OW32338   0.312   1.526   7.396  0.2252 -0.1931  0.4041
 6901SOL    HW132339   0.272   1.613   7.389  0.8311 -0.2263 -3.3225
 6901SOL    HW232340   0.380   1.525   7.330  0.3822  2.7714  0.4912
 6902SOL     OW32341   3.710   4.258  10.121 -0.0715  0.0552 -0.2981
 6902SOL    HW132342   3.673   4.171  10.113  1.9598 -0.8838  0.4413
 6902SOL    HW232343   3.685   4.301  10.039  0.6079 -0.9282 -1.0157
 6903SOL     OW32344   2.016   2.432   4.400 -0.6143 -0.6068  0.5369
 6903SOL    HW132345   1.994   2.431   4.493  0.3249 -0.8099  0.7577
 6903SOL    HW232346   1.984   2.510   4.355  1.1109 -0.3947 -0.3144
 6904SOL     OW32347   2.961   0.530   6.177  0.1562  0.3557  0.5402
 6904SOL    HW132348   2.910   0.449   6.177 -0.4135  0.7134  2.0150
 6904SOL    HW232349   2.895   0.588   6.213 -1.1191 -0.4510 -0.4636
 6905SOL     OW32350   1.794   1.021  15.963 -0.2389 -0.7113  0.0968
 6905SOL    HW132351   1.736   1.063  15.899 -0.4477 -1.4993 -0.2283
 6905SOL    HW232352   1.807   0.935  15.924 -1.1923 -1.1769  0.8419
 6906SOL     OW32353   2.825   4.240  14.742  0.5462 -0.6536  0.1371
 6906SOL    HW132354   2.784   4.312  14.695 -0.4013 -0.3574  1.4208
 6906SOL    HW232355   2.769   4.241  14.820  0.9315 -0.9646  0.4214
 6907SOL     OW32356   1.477   4.475   2.494 -0.3469  0.6366 -0.5459
 6907SOL    HW132357   1.514   4.492   2.581 -1.9968 -0.4733  0.3813
 6907SOL    HW232358   1.522   4.395   2.468  0.3499  1.1900 -1.0346
 6908SOL     OW32359   0.277   4.062   7.247 -1.0384  0.6462  0.4731
 6908SOL    HW132360   0.293   4.000   7.175  0.4673  1.1763  0.3503
 6908SOL    HW232361   0.353   4.106   7.285  0.4498 -1.0414 -0.5120
 6909SOL     OW32362   0.711   1.748   2.673 -0.1882  0.1269  0.8597
 6909SOL    HW132363   0.648   1.819   2.692 -0.3001  1.0251 -2.8987
 6909SOL    HW232364   0.715   1.700   2.756  2.3383 -0.0110  0.6447
 6910SOL     OW32365   3.930   2.185  10.285 -0.4525 -0.2780  0.4628
 6910SOL    HW132366   3.858   2.213  10.229  1.4310 -0.8041 -2.2326
 6910SOL    HW232367   4.008   2.231  10.255  0.2027 -2.2384 -0.8663
 6911SOL     OW32368   3.696   0.697   7.961 -0.7209  0.5278 -0.5167
 6911SOL    HW132369   3.619   0.754   7.972 -1.0487  0.2612 -1.4939
 6911SOL    HW232370   3.658   0.623   7.914 -3.8315  0.2846  2.3606
 6912SOL     OW32371   3.675   1.835  14.433 -0.1580  0.7450  0.0196
 6912SOL    HW132372   3.637   1.747  14.436  0.9603  0.2239 -1.2350
 6912SOL    HW232373   3.646   1.865  14.519  3.1576 -1.0545  1.7390
 6913SOL     OW32374   3.849   0.792   7.347 -0.4227  0.3145  0.5546
 6913SOL    HW132375   3.885   0.829   7.266  3.3123 -2.4954  0.9324
 6913SOL    HW232376   3.899   0.710   7.353  3.4755  2.5348 -1.7085
 6914SOL     OW32377   0.516   0.833   9.988  0.7186  0.0542 -0.0421
 6914SOL    HW132378   0.465   0.767  10.033  0.9330 -1.2258 -1.6757
 6914SOL    HW232379   0.594   0.780   9.972  1.6468  0.8482  1.8327
 6915SOL     OW32380   0.533   4.077   3.453  0.1144  0.6806 -0.5282
 6915SOL    HW132381   0.450   4.106   3.416  0.2232 -1.0450 -2.0977
 6915SOL    HW232382   0.526   4.100   3.546  0.8206  2.9610 -1.0271
 6916SOL     OW32383   3.510   1.453  15.962 -0.3368  0.7200  0.3884
 6916SOL    HW132384   3.580   1.400  15.924  0.2100  0.3556  1.9144
 6916SOL    HW232385   3.434   1.402  15.934  1.2708 -2.5917  1.9950
 6917SOL     OW32386   3.492   2.303   8.968 -0.3773  0.1077  0.2792
 6917SOL    HW132387   3.449   2.337   8.889 -1.2124 -1.0834  0.2261
 6917SOL    HW232388   3.549   2.235   8.933 -0.7073 -0.7747  1.4845
 6918SOL     OW32389   3.568   3.461  12.043  0.0729 -0.2882  0.6428
 6918SOL    HW132390   3.503   3.531  12.044 -0.0489 -0.4040  1.1622
 6918SOL    HW232391   3.594   3.458  11.951  0.3310 -0.3026  0.7174
 6919SOL     OW32392   2.971   1.544   8.211 -0.5660  0.0305 -0.6184
 6919SOL    HW132393   2.936   1.596   8.139 -2.6459 -0.6580 -0.0958
 6919SOL    HW232394   2.920   1.464   8.201 -1.2517  0.1173  2.1220
 6920SOL     OW32395   1.461   0.123   2.298 -0.1255  0.2503  0.2479
 6920SOL    HW132396   1.426   0.160   2.379  1.5163  0.2358  0.9555
 6920SOL    HW232397   1.526   0.061   2.330 -0.1005 -0.3065 -0.8835
 6921SOL     OW32398   2.163   0.295   3.808  0.1124 -0.7622  0.1753
 6921SOL    HW132399   2.113   0.377   3.808  1.2561 -0.0635  0.7309
 6921SOL    HW232400   2.123   0.253   3.732  0.3194  1.5179 -1.2317
 6922SOL     OW32401   2.940   1.281   5.457  0.2296  0.4540 -0.3181
 6922SOL    HW132402   2.897   1.298   5.540  5.4478 -0.9245  2.7083
 6922SOL    HW232403   2.882   1.218   5.415  0.1824 -0.6310  1.4069
 6923SOL     OW32404   3.428   1.805   6.783  0.2984  0.4271  0.1471
 6923SOL    HW132405   3.402   1.826   6.872 -1.4830  1.5793 -0.6495
 6923SOL    HW232406   3.506   1.858   6.765  0.2142  0.1942 -0.9247
 6924SOL     OW32407   2.723   1.512  12.698 -0.5635  0.2131 -0.2370
 6924SOL    HW132408   2.709   1.470  12.783 -2.5805  1.4301  0.0274
 6924SOL    HW232409   2.695   1.444  12.637 -0.4396 -0.8575  0.9039
 6925SOL     OW32410   2.418   0.940   1.399 -0.1279  0.1515  0.1609
 6925SOL    HW132411   2.325   0.919   1.395  0.3393 -1.6278 -1.0829
 6925SOL    HW232412   2.405   1.034   1.410 -0.2606  0.2112 -0.4728
 6926SOL     OW32413   2.751   4.013  15.663 -0.4821  0.1754 -0.0627
 6926SOL    HW132414   2.686   4.046  15.601  0.7219  0.0407 -1.3973
 6926SOL    HW232415   2.829   4.051  15.623  0.5238  0.1970  1.9349
 6927SOL     OW32416   4.322   4.047   3.153  0.2066 -0.0152 -0.1729
 6927SOL    HW132417   4.261   3.999   3.097  0.1196 -2.2155  1.8454
 6927SOL    HW232418   4.401   4.012   3.113 -1.0490 -0.1685 -2.5478
 6928SOL     OW32419   2.765   0.328   8.852 -0.1501  0.5024 -0.0441
 6928SOL    HW132420   2.782   0.251   8.905 -1.4655  0.3821  0.2005
 6928SOL    HW232421   2.688   0.370   8.890  1.0350  0.3411  2.5110
 6929SOL     OW32422   3.276   4.184   1.862  0.3569  0.0529 -0.4003
 6929SOL    HW132423   3.342   4.174   1.793  0.4403 -0.0124 -0.3119
 6929SOL    HW232424   3.221   4.247   1.817 -0.0369  0.7915  1.0925
 6930SOL     OW32425   1.330   4.291   7.090 -0.2751 -0.3445  0.1515
 6930SOL    HW132426   1.325   4.344   7.010 -0.8617 -2.1651 -1.0261
 6930SOL    HW232427   1.404   4.234   7.068 -1.1783 -1.5536  0.2557
 6931SOL     OW32428   1.542   4.225   9.155  0.5521  0.3422  0.0508
 6931SOL    HW132429   1.550   4.297   9.217 -0.9090  1.1902 -0.7348
 6931SOL    HW232430   1.479   4.270   9.098  1.1375  0.5776 -0.4075
 6932SOL     OW32431   3.582   3.850   5.747  0.0782 -0.0326  0.3284
 6932SOL    HW132432   3.582   3.773   5.804  1.7731 -1.6889 -1.9346
 6932SOL    HW232433   3.675   3.861   5.729  0.1034  0.5808  0.8469
 6933SOL     OW32434   3.668   4.628   3.748 -0.1423 -0.3192 -0.5337
 6933SOL    HW132435   3.665   4.716   3.786 -0.3577  0.3707 -2.1582
 6933SOL    HW232436   3.679   4.578   3.829 -0.1765  1.4066  0.5156
 6934SOL     OW32437   4.705   0.499   3.071  0.4125  0.1629 -0.0361
 6934SOL    HW132438   4.708   0.556   2.994  2.4902  1.6105  1.1171
 6934SOL    HW232439   4.668   0.423   3.027  0.2911  1.7450 -2.6883
 6935SOL     OW32440   4.227   0.884   6.508  0.1251  0.2128 -0.0046
 6935SOL    HW132441   4.161   0.863   6.575  0.6086 -3.2167 -0.5952
 6935SOL    HW232442   4.279   0.946   6.558  1.0401 -1.3803  1.0412
 6936SOL     OW32443   1.435   3.201   6.217 -0.0383 -0.2870 -0.6850
 6936SOL    HW132444   1.421   3.254   6.139  1.3308  0.2766 -0.5538
 6936SOL    HW232445   1.386   3.121   6.197 -1.6405 -0.4573  3.9025
 6937SOL     OW32446   0.417   0.342  15.447 -0.4514 -0.0139  0.0747
 6937SOL    HW132447   0.418   0.261  15.396 -1.0798 -0.3671  0.6088
 6937SOL    HW232448   0.495   0.390  15.421 -0.2144  0.3017  1.3721
 6938SOL     OW32449   4.456   4.659   2.399  0.1722 -0.1062  0.3115
 6938SOL    HW132450   4.425   4.599   2.331 -1.0462 -1.0097  1.6378
 6938SOL    HW232451   4.404   4.645   2.478 -0.7706  1.9628  0.0554
 6939SOL     OW32452   4.424   3.543  15.691 -0.1868 -0.0594  0.8762
 6939SOL    HW132453   4.512   3.514  15.666  0.5854  1.6959  1.5901
 6939SOL    HW232454   4.431   3.627  15.735  1.5783  0.9024 -1.2114
 6940SOL     OW32455   0.695   0.597   7.423 -0.1015 -0.1155 -0.4451
 6940SOL    HW132456   0.630   0.534   7.393 -0.4121 -0.3143  0.6332
 6940SOL    HW232457   0.708   0.571   7.514 -1.0037 -2.5973 -1.0201
 6941SOL     OW32458   4.199   1.901   9.103 -0.1137  0.0978 -0.4927
 6941SOL    HW132459   4.252   1.965   9.056  1.3996 -0.2458  0.7705
 6941SOL    HW232460   4.188   1.829   9.040  5.4490  0.2213 -1.6142
 6942SOL     OW32461   0.929   2.381   9.390 -0.3460 -0.7862 -0.2219
 6942SOL    HW132462   0.846   2.405   9.432 -0.3887 -0.3593 -0.5437
 6942SOL    HW232463   0.955   2.466   9.354 -0.9412  0.6023  2.6251
 6943SOL     OW32464   2.162   1.277  10.271 -0.1594  0.4769  0.0862
 6943SOL    HW132465   2.135   1.350  10.327  1.6645  0.4298  1.0237
 6943SOL    HW232466   2.236   1.312  10.222 -0.7314  1.5151 -0.0399
 6944SOL     OW32467   3.245   2.015   6.076 -0.0066 -0.2935  0.2974
 6944SOL    HW132468   3.220   2.105   6.052 -1.2435 -1.1686 -1.7361
 6944SOL    HW232469   3.330   2.027   6.117  0.9660 -2.4637 -1.1386
 6945SOL     OW32470   2.995   3.452   6.154 -0.3152  0.2557 -0.4541
 6945SOL    HW132471   3.016   3.388   6.222  1.6561  0.1438 -1.1669
 6945SOL    HW232472   3.059   3.520   6.175  1.4562 -0.7394 -2.6600
 6946SOL     OW32473   2.683   4.277   7.504  0.0045 -0.3527 -0.2108
 6946SOL    HW132474   2.652   4.321   7.425 -1.4564 -2.2463 -0.7165
 6946SOL    HW232475   2.599   4.266   7.549 -0.4461  0.4725 -0.8519
 6947SOL     OW32476   0.762   4.691   3.914 -0.1296 -0.7070  0.1454
 6947SOL    HW132477   0.836   4.664   3.860  0.0186 -0.1268  0.0540
 6947SOL    HW232478   0.685   4.670   3.860 -1.9372  0.6441  2.1991
 6948SOL     OW32479   4.279   2.681   6.211  0.3427 -0.0344 -0.0189
 6948SOL    HW132480   4.275   2.609   6.274  1.5597  0.4374  0.5929
 6948SOL    HW232481   4.375   2.684   6.209  0.2781  2.1796 -0.0875
 6949SOL     OW32482   0.601   3.989   7.145 -0.3220 -0.0920  0.0538
 6949SOL    HW132483   0.568   3.917   7.091 -0.7281  0.4456 -0.4178
 6949SOL    HW232484   0.695   3.974   7.144 -1.0044 -4.2990 -0.5189
 6950SOL     OW32485   2.450   4.485   3.562  0.4087  0.1281  0.5136
 6950SOL    HW132486   2.466   4.502   3.469 -1.1869 -1.9771 -0.1310
 6950SOL    HW232487   2.377   4.548   3.565 -0.2523 -0.6457  0.7551
 6951SOL     OW32488   1.402   0.160   5.743 -0.0507 -0.3365 -0.4666
 6951SOL    HW132489   1.321   0.200   5.774  0.4576  0.5197 -0.2658
 6951SOL    HW232490   1.471   0.215   5.779  1.2802 -2.2594 -0.0782
 6952SOL     OW32491   0.667   3.507  12.202  0.6314  0.3920 -0.5068
 6952SOL    HW132492   0.713   3.537  12.123 -0.2261  0.6003 -0.9317
 6952SOL    HW232493   0.607   3.579  12.219  0.3626 -0.1163  0.6467
 6953SOL     OW32494   2.093   3.821   7.691  0.2459  0.1898  0.1120
 6953SOL    HW132495   2.132   3.903   7.722  0.5672 -0.4021  1.2730
 6953SOL    HW232496   2.148   3.800   7.615 -1.9948 -2.0369 -0.8776
 6954SOL     OW32497   3.954   1.710   3.744 -0.2466  0.1352  0.0335
 6954SOL    HW132498   3.976   1.713   3.837 -0.5896  2.4421  0.0560
 6954SOL    HW232499   4.005   1.635   3.716  0.1467  0.5353 -0.3165
 6955SOL     OW32500   3.966   0.911   3.015 -0.8357 -0.2533  0.2854
 6955SOL    HW132501   4.052   0.901   2.974 -1.3394  0.5555 -0.9355
 6955SOL    HW232502   3.999   0.936   3.102 -0.0653  0.0521 -0.0963
 6956SOL     OW32503   4.260   3.084   6.241 -0.2160 -0.0616  0.4768
 6956SOL    HW132504   4.201   3.009   6.241  1.2392 -1.2010  0.2891
 6956SOL    HW232505   4.342   3.043   6.271 -1.0489 -2.0168  0.0761
 6957SOL     OW32506   3.818   3.507   6.776 -0.3162  0.5013  0.2918
 6957SOL    HW132507   3.810   3.587   6.723 -1.4106 -0.8759 -1.6642
 6957SOL    HW232508   3.913   3.499   6.771 -0.1998  2.6344 -0.9478
 6958SOL     OW32509   0.231   3.681   4.281  0.0783  0.5013 -0.3240
 6958SOL    HW132510   0.137   3.701   4.282  0.2046  1.0236  1.0180
 6958SOL    HW232511   0.239   3.633   4.364  0.3217  1.1451  0.0205
 6959SOL     OW32512   0.039   4.185   7.602 -0.1343  0.3304 -0.2331
 6959SOL    HW132513   0.083   4.151   7.680 -1.0457 -1.5718 -0.5511
 6959SOL    HW232514   0.036   4.105   7.550 -3.7966  1.0201 -1.0258
 6960SOL     OW32515   0.378   4.500   3.418  0.2180  0.1581  0.0598
 6960SOL    HW132516   0.316   4.441   3.462  0.1151 -0.3287 -0.7410
 6960SOL    HW232517   0.451   4.469   3.473 -0.1464  0.2339  0.5840
 6961SOL     OW32518   0.378   2.904   8.805 -0.1070  0.9332  0.0458
 6961SOL    HW132519   0.456   2.908   8.750  0.6588 -0.4899  1.0332
 6961SOL    HW232520   0.299   2.921   8.754 -0.9719 -1.1511  0.6876
 6962SOL     OW32521   4.415   0.208   6.331  0.4325 -0.2776  0.3186
 6962SOL    HW132522   4.368   0.148   6.274 -0.6387 -0.3980  1.3271
 6962SOL    HW232523   4.482   0.248   6.275  0.1643 -0.8711 -0.4179
 6963SOL     OW32524   4.709   4.030   3.226 -0.5423  0.0739  0.1373
 6963SOL    HW132525   0.038   4.014   3.160 -0.3571 -0.4093  0.4400
 6963SOL    HW232526   4.636   3.995   3.175 -0.1775  0.1191 -0.4134
 6964SOL     OW32527   0.288   0.977   8.407  0.3756  0.6508 -0.2958
 6964SOL    HW132528   0.367   0.939   8.446  0.5045  1.6616  0.4136
 6964SOL    HW232529   0.249   0.898   8.369  2.6266  0.1600 -1.5072
 6965SOL     OW32530   2.542   4.677   8.380 -0.3064  0.2536  0.7373
 6965SOL    HW132531   2.548   0.023   8.425 -1.1975  0.5174  0.3569
 6965SOL    HW232532   2.470   4.640   8.431  0.7917 -3.2651 -0.2540
 6966SOL     OW32533   3.451   3.008   0.016 -0.1252 -0.8897 -0.0141
 6966SOL    HW132534   3.394   2.943  17.727 -1.2592 -0.2141  0.4865
 6966SOL    HW232535   3.425   2.992   0.107  0.7702 -0.5461  0.3039
 6967SOL     OW32536   4.645   3.014   7.696 -0.0490  0.3732  0.9345
 6967SOL    HW132537   4.693   2.971   7.767 -1.2489 -0.9996  0.8898
 6967SOL    HW232538   4.700   3.088   7.667  0.9289 -0.7082  0.0246
 6968SOL     OW32539   0.299   2.322  14.912  0.5744 -0.6559  0.1908
 6968SOL    HW132540   0.307   2.254  14.979  1.1825 -1.5524 -0.7826
 6968SOL    HW232541   0.292   2.400  14.967  0.7293  0.1481 -0.9186
 6969SOL     OW32542   3.714   2.080   0.318 -0.7802  0.5678  0.2549
 6969SOL    HW132543   3.652   2.125   0.260 -1.0022 -0.1144 -0.0392
 6969SOL    HW232544   3.707   1.997   0.272 -1.7973 -0.6057  2.5278
 6970SOL     OW32545   3.911   3.318   0.312  0.0777  0.3153  0.1664
 6970SOL    HW132546   3.897   3.330   0.406 -1.9188  0.0985 -0.1188
 6970SOL    HW232547   3.937   3.408   0.294  1.4205 -0.2350 -0.6803
 6971SOL     OW32548   4.258   1.118   6.885 -0.6644 -0.4325  0.3108
 6971SOL    HW132549   4.344   1.115   6.844 -0.7498  0.4853  0.0621
 6971SOL    HW232550   4.239   1.024   6.887 -0.8525 -0.3941  0.3968
 6972SOL     OW32551   4.032   3.706   1.030 -0.5117 -0.3671 -0.6141
 6972SOL    HW132552   4.038   3.629   0.974 -1.6466 -0.6455 -0.3371
 6972SOL    HW232553   3.986   3.762   0.968  1.1171 -0.0086 -1.5049
 6973SOL     OW32554   0.936   1.847   2.378  0.0545  0.5569  0.6258
 6973SOL    HW132555   0.936   1.751   2.378  1.0526  0.5568 -0.3224
 6973SOL    HW232556   0.958   1.865   2.470  0.2807  0.2701  0.6270
 6974SOL     OW32557   2.077   2.935   7.614 -0.1034 -0.5775  0.0333
 6974SOL    HW132558   2.041   2.916   7.527  0.6812 -0.2313 -0.3683
 6974SOL    HW232559   2.171   2.926   7.599 -0.1874 -0.9911 -0.2473
 6975SOL     OW32560   0.421   0.876   4.135 -0.0227 -0.3848 -0.6434
 6975SOL    HW132561   0.355   0.908   4.196 -0.6277 -1.3862 -0.7771
 6975SOL    HW232562   0.464   0.801   4.176 -0.7263 -0.4104  0.0345
 6976SOL     OW32563   0.198   1.164   4.227  0.2807  0.7248 -0.2753
 6976SOL    HW132564   0.167   1.073   4.223  1.3967  0.4116 -2.1014
 6976SOL    HW232565   0.169   1.181   4.137  1.6192 -1.3017 -1.1063
 6977SOL     OW32566   0.651   0.869   0.777  0.1558 -0.7265  1.1085
 6977SOL    HW132567   0.681   0.855   0.688 -1.6686  1.1833  0.1749
 6977SOL    HW232568   0.594   0.946   0.768  0.1103 -0.6932  1.6379
 6978SOL     OW32569   1.413   3.673  13.607 -0.4431  0.3308  0.5256
 6978SOL    HW132570   1.373   3.757  13.582 -0.0263  0.0592 -1.0449
 6978SOL    HW232571   1.438   3.690  13.698  3.1448 -1.2296 -0.1896
 6979SOL     OW32572   2.776   3.459   7.738  0.1293 -0.2543 -0.6762
 6979SOL    HW132573   2.825   3.534   7.771  3.1367 -2.5243  0.0797
 6979SOL    HW232574   2.847   3.403   7.707 -2.0705 -2.0353 -2.5163
 6980SOL     OW32575   3.488   4.504   3.014 -0.3752 -0.0346  0.3744
 6980SOL    HW132576   3.496   4.435   3.080 -0.2131  0.4430  0.8539
 6980SOL    HW232577   3.513   4.467   2.930 -0.3358  0.4273  0.1817
 6981SOL     OW32578   3.398   1.232  16.758  0.7433 -0.6668  0.2273
 6981SOL    HW132579   3.339   1.301  16.726  0.1506 -0.4275  1.8480
 6981SOL    HW232580   3.379   1.154  16.705 -0.9544  1.4096 -2.2184
 6982SOL     OW32581   1.456   2.355   6.676  0.0220  0.4099 -0.0146
 6982SOL    HW132582   1.536   2.314   6.643  0.6410  1.4361  0.2246
 6982SOL    HW232583   1.450   2.441   6.634 -1.5172  0.0103 -0.6174
 6983SOL     OW32584   2.328   3.434  11.640  0.6003 -0.3264  0.2585
 6983SOL    HW132585   2.393   3.427  11.710 -0.6419 -1.7761  1.2539
 6983SOL    HW232586   2.260   3.488  11.678 -0.7654 -1.0541 -1.1490
 6984SOL     OW32587   0.052   0.594  10.972  0.1434 -0.4802  0.5664
 6984SOL    HW132588   0.142   0.594  11.006  0.3542 -1.2835 -0.0012
 6984SOL    HW232589   0.012   0.511  10.999 -1.9448  0.6014  0.8343
 6985SOL     OW32590   0.045   2.746   6.440  0.1494  0.0466 -0.6043
 6985SOL    HW132591   0.114   2.729   6.504  1.1337  1.1807 -1.3366
 6985SOL    HW232592   0.011   2.832   6.465  0.0623  0.0161 -0.6173
 6986SOL     OW32593   3.958   0.742   4.484  0.2831  0.3416 -0.5172
 6986SOL    HW132594   3.888   0.758   4.421 -0.2196 -0.5825 -0.1835
 6986SOL    HW232595   3.972   0.836   4.500  0.4309  0.2367 -0.0352
 6987SOL     OW32596   3.398   0.433   1.837 -0.4000  0.1398 -0.1498
 6987SOL    HW132597   3.485   0.472   1.838 -0.6409  0.6545  0.5342
 6987SOL    HW232598   3.412   0.371   1.908  0.6411 -0.6739 -1.0494
 6988SOL     OW32599   1.295   3.766   7.847  0.8026 -0.2475 -0.1074
 6988SOL    HW132600   1.266   3.766   7.756 -1.3886  1.6342  0.5883
 6988SOL    HW232601   1.229   3.708   7.885 -2.2497  2.5050 -1.1796
 6989SOL     OW32602   2.477   1.421   7.725 -0.4685 -0.9488 -0.0050
 6989SOL    HW132603   2.457   1.368   7.648  0.5388 -0.0817 -0.8475
 6989SOL    HW232604   2.557   1.383   7.761  0.0825  0.9816  0.8140
 6990SOL     OW32605   3.380   4.580   7.888  0.0575  0.0688  0.3376
 6990SOL    HW132606   3.297   4.619   7.861  0.5575  0.8238 -0.1192
 6990SOL    HW232607   3.408   4.645   7.952 -2.2411 -0.7442  2.1242
 6991SOL     OW32608   4.626   2.567   5.984 -0.5713  0.0356  0.3176
 6991SOL    HW132609   4.602   2.655   6.012  2.5887  1.3398 -0.9861
 6991SOL    HW232610   4.706   2.559   6.036 -0.7839  0.7630  0.7508
 6992SOL     OW32611   3.387   2.073   0.456  0.0863  0.4085  0.0383
 6992SOL    HW132612   3.427   2.156   0.430  0.6175 -0.8783 -3.2257
 6992SOL    HW232613   3.349   2.051   0.371  0.0339  1.6341 -0.2464
 6993SOL     OW32614   3.597   2.266   9.220 -0.6027  0.6187 -0.0983
 6993SOL    HW132615   3.542   2.277   9.143 -1.2291  0.6832  0.3665
 6993SOL    HW232616   3.532   2.233   9.282 -0.7938  0.8962 -0.1544
 6994SOL     OW32617   3.136   1.641  10.921  0.0046 -0.9512 -0.0232
 6994SOL    HW132618   3.123   1.691  11.002 -0.4339  1.4004 -1.5270
 6994SOL    HW232619   3.210   1.587  10.949  0.0717 -1.3901 -1.0420
 6995SOL     OW32620   2.803   1.944   6.281 -0.2488 -0.3326 -0.1726
 6995SOL    HW132621   2.888   1.976   6.253  0.0215  0.9839  2.1289
 6995SOL    HW232622   2.755   1.935   6.199 -0.1663 -2.7158  0.0339
 6996SOL     OW32623   2.392   0.808   7.796 -0.3583  0.3548 -0.2801
 6996SOL    HW132624   2.310   0.854   7.813 -0.5296 -0.5383  1.2986
 6996SOL    HW232625   2.423   0.868   7.728  2.4564  1.1056  1.6697
 6997SOL     OW32626   0.741   0.373  10.917 -0.0649 -0.2626  0.7474
 6997SOL    HW132627   0.787   0.428  10.981  3.3401 -0.8849 -1.1510
 6997SOL    HW232628   0.802   0.299  10.915 -0.6283 -0.7196  0.7607
 6998SOL     OW32629   1.046   3.975   9.955  0.3687  0.4712 -0.2407
 6998SOL    HW132630   1.078   3.955  10.043 -0.9870 -0.1351  0.1123
 6998SOL    HW232631   0.963   3.929   9.961  0.1106  1.1585  1.4036
 6999SOL     OW32632   3.589   3.822  15.062  0.3628 -0.1379 -0.5348
 6999SOL    HW132633   3.648   3.765  15.110 -1.4273 -1.3245  0.2771
 6999SOL    HW232634   3.533   3.756  15.020 -1.0885 -0.7618  2.4192
 7000SOL     OW32635   1.943   2.925  14.288 -0.0255 -0.1218  0.2565
 7000SOL    HW132636   1.937   3.006  14.339  0.3679 -1.3693  2.3031
 7000SOL    HW232637   1.961   2.853  14.348  0.1333  0.0600  0.4239
 7001SOL     OW32638   4.046   3.091   5.834  0.3232 -0.6328  0.1709
 7001SOL    HW132639   4.133   3.053   5.831  0.7649  0.4930 -0.9908
 7001SOL    HW232640   4.054   3.173   5.883  1.2734 -1.1431  0.8511
 7002SOL     OW32641   0.369   1.953   9.548 -0.5472  0.0944 -0.0591
 7002SOL    HW132642   0.397   1.958   9.639 -0.0679  1.7722 -0.2992
 7002SOL    HW232643   0.303   2.022   9.546 -2.4231 -1.6774  1.1334
 7003SOL     OW32644   4.373   3.327   1.477 -0.0031  0.4586  0.2984
 7003SOL    HW132645   4.448   3.383   1.495  1.0826 -0.7596 -0.3305
 7003SOL    HW232646   4.402   3.241   1.509  1.5818  0.7341 -0.3604
 7004SOL     OW32647   3.744   0.038  13.475  0.1071  0.1009 -0.3903
 7004SOL    HW132648   3.661   0.064  13.436 -0.2532 -0.4694  0.0074
 7004SOL    HW232649   3.734   4.685  13.499 -2.2875  0.7337  1.0315
 7005SOL     OW32650   2.228   2.591   5.271  0.1351 -0.0314 -0.0306
 7005SOL    HW132651   2.208   2.500   5.247  0.8436 -0.0272 -0.6428
 7005SOL    HW232652   2.184   2.635   5.197  2.9726  1.4033 -0.8644
 7006SOL     OW32653   1.270   2.547   5.359 -0.2155 -0.1904  0.4570
 7006SOL    HW132654   1.252   2.625   5.307  0.7460 -2.1831 -2.8011
 7006SOL    HW232655   1.185   2.509   5.338 -0.3929  0.7363 -0.4824
 7007SOL     OW32656   2.141   1.712   7.779 -0.1967 -0.2593 -0.0712
 7007SOL    HW132657   2.110   1.801   7.761  0.9329  0.1639  0.0151
 7007SOL    HW232658   2.230   1.709   7.744 -0.7477 -2.9060 -1.1921
 7008SOL     OW32659   1.957   2.152  13.064 -0.3303 -0.2781 -0.4204
 7008SOL    HW132660   2.000   2.228  13.102 -1.8052  0.8505 -1.0025
 7008SOL    HW232661   2.030   2.092  13.048 -1.3989 -0.7294 -3.6735
 7009SOL     OW32662   3.597   2.468  15.736  0.6888 -0.1113 -0.1807
 7009SOL    HW132663   3.545   2.467  15.656 -0.1233  0.8108  0.3348
 7009SOL    HW232664   3.596   2.375  15.759 -1.0500 -0.3867 -1.4122
 7010SOL     OW32665   3.987   3.876   4.549 -0.2970 -0.3226  0.1018
 7010SOL    HW132666   4.079   3.852   4.562 -0.0311 -0.1223 -1.4561
 7010SOL    HW232667   3.960   3.815   4.481 -0.5177  0.7046 -0.7261
 7011SOL     OW32668   0.468   0.100   1.266 -0.2289  0.0003 -0.1672
 7011SOL    HW132669   0.497   0.036   1.331 -0.8978  0.6634  0.7835
 7011SOL    HW232670   0.558   0.120   1.240 -0.1495 -0.2964 -0.1278
 7012SOL     OW32671   1.448   3.085   5.381 -0.6115 -0.2632  0.7337
 7012SOL    HW132672   1.544   3.091   5.373 -0.9733 -0.1799 -3.3189
 7012SOL    HW232673   1.445   3.034   5.462 -0.9943 -0.1895  0.7651
 7013SOL     OW32674   2.043   1.601   4.801  0.1665  0.0482  0.0115
 7013SOL    HW132675   2.022   1.653   4.879 -0.3432 -0.0530 -0.0563
 7013SOL    HW232676   1.969   1.543   4.784 -2.0252  2.6434  0.5999
 7014SOL     OW32677   1.550   0.006  13.723  0.0866  0.0668 -0.6912
 7014SOL    HW132678   1.636   4.713  13.697 -0.2052 -0.5225 -0.9349
 7014SOL    HW232679   1.512   0.039  13.641 -2.0554 -1.3859 -0.2936
 7015SOL     OW32680   0.009   0.602   2.525 -0.1648  0.1618 -0.1310
 7015SOL    HW132681   0.001   0.658   2.602 -2.4169  0.9098 -0.9010
 7015SOL    HW232682   4.660   0.613   2.488  0.0500  2.8854  0.1945
 7016SOL     OW32683   1.209   0.868   9.519  0.2763  0.0922 -0.1964
 7016SOL    HW132684   1.280   0.810   9.549  0.3919  0.6132  0.5370
 7016SOL    HW232685   1.165   0.802   9.465  1.2613  1.3739 -2.5317
 7017SOL     OW32686   4.079   2.335  11.728 -0.2602  0.5989 -0.7686
 7017SOL    HW132687   4.159   2.313  11.774 -1.3000  0.9523  1.1900
 7017SOL    HW232688   4.027   2.369  11.801  0.7052 -1.6657  0.9492
 7018SOL     OW32689   1.279   4.487   5.833  0.6855  0.0238 -0.0305
 7018SOL    HW132690   1.341   4.555   5.860 -1.3611  1.3640  1.2781
 7018SOL    HW232691   1.193   4.513   5.866  0.7272 -0.5506  0.5324
 7019SOL     OW32692   1.294   0.059   8.319 -0.3236  1.3039  0.3146
 7019SOL    HW132693   1.330   0.144   8.295 -0.9945  0.8384 -2.3700
 7019SOL    HW232694   1.250   0.091   8.397 -1.1792  0.8573  0.0160
 7020SOL     OW32695   2.092   4.073   4.888  0.1864  0.3396 -0.1634
 7020SOL    HW132696   2.157   4.082   4.957 -0.8337 -2.6820  1.2337
 7020SOL    HW232697   2.141   4.025   4.820  0.2975 -2.6042  1.9762
 7021SOL     OW32698   2.071   3.130  10.294 -0.1996  0.3999  0.1789
 7021SOL    HW132699   2.125   3.170  10.362  0.4589 -1.5027  0.7916
 7021SOL    HW232700   2.004   3.089  10.349  0.5734 -0.4888  0.4624
 7022SOL     OW32701   0.231   0.598   8.048 -0.0228  0.9750 -0.2109
 7022SOL    HW132702   0.190   0.551   8.120 -1.2251  0.5958 -1.1445
 7022SOL    HW232703   0.285   0.530   8.007  1.3546  2.2332 -0.4828
 7023SOL     OW32704   2.059   0.321   5.915 -0.0287 -0.8463 -0.4289
 7023SOL    HW132705   2.071   0.364   5.999  2.1483 -1.0166 -0.6508
 7023SOL    HW232706   2.104   0.376   5.851 -0.9510 -0.0181 -0.3659
 7024SOL     OW32707   4.521   3.327   3.642 -0.2186  0.2802  0.2145
 7024SOL    HW132708   4.607   3.294   3.665 -0.8196 -0.8327  0.8811
 7024SOL    HW232709   4.457   3.296   3.707  1.1480  0.2216  1.5208
 7025SOL     OW32710   3.415   2.352  14.297 -0.3286 -0.0475  0.0162
 7025SOL    HW132711   3.371   2.412  14.357 -0.0533  0.8018 -0.6410
 7025SOL    HW232712   3.503   2.335  14.332 -1.3458 -0.5601  2.3325
 7026SOL     OW32713   3.474   2.148   4.309  0.6713 -0.0911 -0.3863
 7026SOL    HW132714   3.384   2.155   4.341  0.5629 -1.6281 -0.3403
 7026SOL    HW232715   3.464   2.201   4.230 -0.6011  1.6259  0.9253
 7027SOL     OW32716   2.973   0.716   7.260  0.0572 -0.1000 -0.0743
 7027SOL    HW132717   3.027   0.672   7.325 -1.5572  2.4768  2.9747
 7027SOL    HW232718   2.889   0.676   7.286 -0.9370  1.0487 -1.5041
 7028SOL     OW32719   1.790   3.496   4.163  0.2654  0.0992  0.3513
 7028SOL    HW132720   1.798   3.466   4.254  2.5469  0.3198  0.2127
 7028SOL    HW232721   1.698   3.524   4.161 -0.0960 -1.2012 -0.8799
 7029SOL     OW32722   3.394   0.813  10.589 -0.4406  0.0722  0.1417
 7029SOL    HW132723   3.374   0.906  10.589  0.5558  0.2873 -0.2485
 7029SOL    HW232724   3.425   0.817  10.679 -2.2577 -1.3098  0.8269
 7030SOL     OW32725   2.322   0.059  16.999  0.0555  0.5852  0.8036
 7030SOL    HW132726   2.373   0.131  17.035 -0.6876  0.3610  2.3007
 7030SOL    HW232727   2.360   4.730  17.055 -1.0747 -0.7355 -0.0132
 7031SOL     OW32728   3.969   4.737  10.867  0.1165  0.8663  0.3387
 7031SOL    HW132729   3.976   4.670  10.799 -1.0840  0.1256  0.9469
 7031SOL    HW232730   4.052   4.721  10.913  0.0294 -2.0817 -0.5164
 7032SOL     OW32731   2.864   3.278   0.501 -0.0647  0.3881  0.1976
 7032SOL    HW132732   2.877   3.209   0.436 -0.3220 -1.4888  2.1546
 7032SOL    HW232733   2.780   3.254   0.539 -0.2163  0.2662 -0.2114
 7033SOL     OW32734   2.993   0.998   7.284  0.1827  0.6542 -0.6851
 7033SOL    HW132735   3.064   1.012   7.347  0.4812  1.3897 -1.1789
 7033SOL    HW232736   2.999   0.903   7.279  3.1571  0.8200 -0.4643
 7034SOL     OW32737   2.178   2.109   1.754 -0.3354 -0.5694 -0.0648
 7034SOL    HW132738   2.247   2.086   1.816 -1.0002 -0.4031  0.7320
 7034SOL    HW232739   2.122   2.145   1.823  1.6982 -1.8049  2.2310
 7035SOL     OW32740   0.991   4.466  13.086  0.2528  0.0550 -0.1286
 7035SOL    HW132741   1.059   4.529  13.063  0.6368 -0.2626  0.1368
 7035SOL    HW232742   1.009   4.443  13.177 -0.0909 -0.4885 -0.1958
 7036SOL     OW32743   0.123   1.050   3.960 -0.1340  0.5578  0.2413
 7036SOL    HW132744   0.191   1.057   3.893  1.0448  0.4555  1.4305
 7036SOL    HW232745   0.112   0.955   3.970 -0.4885  0.8561  2.6183
 7037SOL     OW32746   4.306   2.619   2.556  0.5753  0.6292 -0.1733
 7037SOL    HW132747   4.288   2.692   2.496 -2.2587  0.3047  0.2618
 7037SOL    HW232748   4.399   2.611   2.534  1.1651  2.1955  1.7186
 7038SOL     OW32749   1.300   1.798   4.195  0.2307 -0.4553 -0.4360
 7038SOL    HW132750   1.325   1.847   4.117  0.2107 -1.3850 -1.0154
 7038SOL    HW232751   1.330   1.709   4.176 -1.2402 -1.1809  0.5971
 7039SOL     OW32752   3.180   4.572  16.828  0.2171 -0.2866  0.1901
 7039SOL    HW132753   3.223   4.495  16.792  0.1062  0.0924 -0.7336
 7039SOL    HW232754   3.214   4.635  16.765 -2.9747 -0.0267 -1.2984
 7040SOL     OW32755   3.338   0.397   6.454  0.0893  0.1143  0.1251
 7040SOL    HW132756   3.317   0.454   6.380  2.3138 -0.9345 -1.3390
 7040SOL    HW232757   3.262   0.403   6.511 -0.4101 -1.5779 -0.3561
 7041SOL     OW32758   4.355   0.015   6.100  0.2428 -0.4827  0.4148
 7041SOL    HW132759   4.449   4.737   6.094  0.2040 -0.0655 -1.1995
 7041SOL    HW232760   4.337   0.024   6.006  1.7134  0.4026  0.2186
 7042SOL     OW32761   3.222   0.101   2.567  0.6661  0.1726 -0.2972
 7042SOL    HW132762   3.210   0.007   2.552 -2.8806  0.7741 -1.2670
 7042SOL    HW232763   3.290   0.123   2.503 -0.8711  0.9867 -1.6419
 7043SOL     OW32764   2.540   1.893   3.140 -0.3005 -0.0954  0.0918
 7043SOL    HW132765   2.470   1.948   3.176  0.5111  0.9398  0.0632
 7043SOL    HW232766   2.580   1.875   3.225  1.4371 -3.9421 -1.5256
 7044SOL     OW32767   0.044   3.881   1.849  0.1191  0.6033  0.5691
 7044SOL    HW132768   0.114   3.862   1.787 -1.0166  0.6033 -0.7210
 7044SOL    HW232769   0.077   3.952   1.903 -0.2804 -0.0627  1.6793
 7045SOL     OW32770   1.949   1.315  13.844 -0.4841 -0.3452  0.0055
 7045SOL    HW132771   2.003   1.266  13.906  0.8588 -0.3109 -1.1297
 7045SOL    HW232772   1.868   1.264  13.849 -0.3830 -0.6611 -1.4769
 7046SOL     OW32773   2.971   2.739  10.352  0.2591  0.2033  0.1501
 7046SOL    HW132774   3.053   2.732  10.302  0.2862 -1.0791  0.3795
 7046SOL    HW232775   2.913   2.763  10.280  1.6440 -2.1892 -1.7634
 7047SOL     OW32776   2.595   3.591  12.576  0.1586 -0.4691 -0.0162
 7047SOL    HW132777   2.524   3.567  12.517 -0.6281  0.8497  0.3876
 7047SOL    HW232778   2.607   3.521  12.641 -0.1438 -0.0662  0.4823
 7048SOL     OW32779   0.743   2.370  11.706  0.2786 -0.1112  0.4774
 7048SOL    HW132780   0.763   2.459  11.677 -0.3563  0.0982  0.6790
 7048SOL    HW232781   0.791   2.368  11.789  1.3308  1.9269 -0.0691
 7049SOL     OW32782   4.073   0.764   2.333  0.1342  0.0282 -0.0462
 7049SOL    HW132783   3.995   0.766   2.389  0.0784  0.1168 -0.1288
 7049SOL    HW232784   4.052   0.685   2.284 -0.0731  1.6842 -2.6334
 7050SOL     OW32785   0.407   1.716   6.242 -0.4216 -0.0035  0.2932
 7050SOL    HW132786   0.380   1.755   6.325 -0.2306  1.4914 -0.3573
 7050SOL    HW232787   0.461   1.784   6.201  0.7629 -2.4588 -2.2430
 7051SOL     OW32788   0.215   2.820   5.210  0.1553  0.0201 -0.5544
 7051SOL    HW132789   0.156   2.766   5.262 -2.4434 -0.5604 -4.0801
 7051SOL    HW232790   0.254   2.867   5.283 -0.7327  0.5129 -0.4028
 7052SOL     OW32791   0.090   2.491   1.595  0.2687 -0.1935  0.2780
 7052SOL    HW132792   0.112   2.440   1.673  2.2753 -1.0462 -0.8207
 7052SOL    HW232793   4.734   2.499   1.604  0.2802 -0.1326  0.3454
 7053SOL     OW32794   2.214   4.039   1.669 -0.7627 -0.5677  0.8730
 7053SOL    HW132795   2.205   4.105   1.738 -0.8326  1.4781 -1.0767
 7053SOL    HW232796   2.197   3.961   1.721 -3.0194 -1.7853 -1.7327
 7054SOL     OW32797   3.107   0.352  17.188 -0.2768 -0.2044  0.3669
 7054SOL    HW132798   3.160   0.272  17.195 -3.9850 -2.6023  1.0403
 7054SOL    HW232799   3.022   0.316  17.213 -0.0803 -0.5103  0.6002
 7055SOL     OW32800   0.866   4.072   6.841 -0.0331  0.3124 -0.1259
 7055SOL    HW132801   0.834   4.141   6.784  2.4820  0.6771 -1.1226
 7055SOL    HW232802   0.952   4.100   6.874  0.3530 -0.6560 -0.2912
 7056SOL     OW32803   1.515   0.193   4.191  0.3206  0.0673 -0.2737
 7056SOL    HW132804   1.476   0.237   4.267 -0.1432 -1.7781  0.5798
 7056SOL    HW232805   1.459   0.231   4.124  0.0791  0.9004  0.3959
 7057SOL     OW32806   1.955   2.133   6.592  0.6658  0.2018  0.1813
 7057SOL    HW132807   1.983   2.044   6.569  0.0364 -0.1520  0.7800
 7057SOL    HW232808   2.004   2.187   6.530  0.0083 -0.4361 -0.9023
 7058SOL     OW32809   3.606   1.929  17.475 -0.4131 -0.1225 -0.0538
 7058SOL    HW132810   3.606   1.850  17.420  1.2490  1.4305 -2.2693
 7058SOL    HW232811   3.658   1.901  17.551  1.7453  1.9410 -0.7744
 7059SOL     OW32812   1.698   4.691   3.427 -0.8674  0.5277 -0.4516
 7059SOL    HW132813   1.764   0.020   3.412 -1.1762  0.7870 -0.6267
 7059SOL    HW232814   1.683   4.681   3.521 -1.1156  1.3506 -0.4093
 7060SOL     OW32815   3.918   2.827  10.510  0.5045  0.3323 -0.1580
 7060SOL    HW132816   3.893   2.877  10.588 -3.1647 -2.6379  0.6087
 7060SOL    HW232817   3.878   2.880  10.441  1.4077  2.3125  0.8471
 7061SOL     OW32818   4.564   4.367   4.127  0.2063  0.1506 -0.0946
 7061SOL    HW132819   4.590   4.459   4.132 -0.0830  0.2653 -0.6138
 7061SOL    HW232820   4.627   4.340   4.193 -0.5517 -1.3192  0.0184
 7062SOL     OW32821   3.441   3.978  12.507 -0.1778 -0.1348 -0.4774
 7062SOL    HW132822   3.478   3.908  12.454  0.4137  1.0248 -1.5826
 7062SOL    HW232823   3.428   4.042  12.437  1.7135 -1.2403 -1.8096
 7063SOL     OW32824   4.290   2.532   0.869 -0.6924  0.2393 -0.4083
 7063SOL    HW132825   4.347   2.609   0.869 -1.2266  0.6317  0.0396
 7063SOL    HW232826   4.203   2.569   0.886 -0.5170  0.0429  0.9118
 7064SOL     OW32827   2.171   4.439   8.151  0.5510  0.3336  0.0935
 7064SOL    HW132828   2.266   4.443   8.155  0.4990  1.5448  0.2052
 7064SOL    HW232829   2.148   4.518   8.200  0.1438  0.5376 -0.4184
 7065SOL     OW32830   3.857   4.410   1.241 -0.3854 -0.7054  0.3576
 7065SOL    HW132831   3.894   4.494   1.216 -0.0787 -0.6655  0.9347
 7065SOL    HW232832   3.890   4.352   1.173  0.8301  0.5817 -0.1325
 7066SOL     OW32833   2.472   1.631   2.788 -0.1696 -0.1305 -0.1435
 7066SOL    HW132834   2.473   1.686   2.867  0.0435 -0.5344  0.1372
 7066SOL    HW232835   2.494   1.548   2.830  0.5233 -1.0297 -2.3026
 7067SOL     OW32836   2.890   2.417   5.526 -0.1546 -0.2580 -0.6673
 7067SOL    HW132837   2.855   2.483   5.467 -0.7477 -0.5492 -0.6400
 7067SOL    HW232838   2.976   2.453   5.549  0.3194 -1.2055 -0.9179
 7068SOL     OW32839   3.699   2.116   2.503  0.2448  0.2536  0.2799
 7068SOL    HW132840   3.647   2.195   2.519  0.4664 -0.4331  4.4094
 7068SOL    HW232841   3.761   2.140   2.434 -1.8909 -0.4968 -1.8987
 7069SOL     OW32842   1.929   0.314   9.783  0.0228  0.3566 -0.1625
 7069SOL    HW132843   1.848   0.358   9.808 -0.2105  0.6474 -1.4121
 7069SOL    HW232844   1.938   0.344   9.692  2.6422 -0.6622 -0.2594
 7070SOL     OW32845   0.134   2.964  11.116 -0.5802 -0.4879 -0.2346
 7070SOL    HW132846   0.060   3.020  11.091  0.2671  1.0469  0.7614
 7070SOL    HW232847   0.088   2.880  11.120  1.5882 -1.7740 -2.4175
 7071SOL     OW32848   2.664   3.625   5.939 -0.6897 -0.3965  0.0680
 7071SOL    HW132849   2.585   3.671   5.910 -0.7325  0.5677  1.7550
 7071SOL    HW232850   2.711   3.689   5.991 -1.0298  0.3564 -0.5536
 7072SOL     OW32851   4.190   2.160   7.025 -0.0984  0.0492  0.1362
 7072SOL    HW132852   4.206   2.167   7.120 -0.7659 -0.6599  0.2978
 7072SOL    HW232853   4.249   2.087   7.003 -0.4825  0.0146 -0.7377
 7073SOL     OW32854   1.782   3.008  16.804  0.0144  0.5496 -0.6458
 7073SOL    HW132855   1.749   3.088  16.844  1.0894  0.6510  0.0519
 7073SOL    HW232856   1.745   3.002  16.715 -0.5443 -0.4839 -0.3400
 7074SOL     OW32857   0.707   3.810   5.203  0.2321 -0.0363 -0.3205
 7074SOL    HW132858   0.758   3.859   5.138  0.1273  1.5430  0.7837
 7074SOL    HW232859   0.769   3.780   5.270 -0.0569  0.8322  0.3356
 7075SOL     OW32860   1.396   3.317   8.496 -0.2314  0.2387 -0.1544
 7075SOL    HW132861   1.373   3.225   8.507  0.4806  0.2050  0.9894
 7075SOL    HW232862   1.390   3.350   8.585  2.1523 -0.7886  0.3862
 7076SOL     OW32863   3.286   4.080   6.796  0.4291 -0.0885  0.0264
 7076SOL    HW132864   3.368   4.070   6.844 -0.2372 -0.0493  1.1762
 7076SOL    HW232865   3.254   3.990   6.801  1.4134 -0.5682 -2.4101
 7077SOL     OW32866   3.115   2.584   5.532  0.1844  0.5112 -0.3118
 7077SOL    HW132867   3.144   2.645   5.465  1.5750  0.0781 -0.1079
 7077SOL    HW232868   3.120   2.645   5.605  0.5734 -0.8492  0.8053
 7078SOL     OW32869   1.699   2.673   3.456 -0.3608 -0.3183 -0.2700
 7078SOL    HW132870   1.717   2.621   3.535  1.5487 -1.5894 -1.5360
 7078SOL    HW232871   1.644   2.614   3.404  0.6022 -0.5909 -0.9689
 7079SOL     OW32872   3.803   2.372  14.844 -0.5477  0.2188  0.1744
 7079SOL    HW132873   3.888   2.416  14.848  0.1050 -1.0767  0.3421
 7079SOL    HW232874   3.786   2.335  14.931 -0.7204 -0.2844 -0.0722
 7080SOL     OW32875   1.775   3.748  15.911  0.0243  0.9205 -0.4326
 7080SOL    HW132876   1.685   3.724  15.886 -0.7719  2.3857  1.0707
 7080SOL    HW232877   1.758   3.766  16.003  1.9936 -1.7462  0.4396
 7081SOL     OW32878   2.882   1.062   7.798  0.7727 -0.2550  0.9209
 7081SOL    HW132879   2.867   0.993   7.863  0.6456 -0.8040  0.3058
 7081SOL    HW232880   2.828   1.026   7.728  1.1929 -1.0073  0.9796
 7082SOL     OW32881   4.654   1.651   4.839  0.4675  0.1720  0.4885
 7082SOL    HW132882   4.622   1.654   4.929  1.2409  1.7181  0.7024
 7082SOL    HW232883   4.660   1.555   4.831 -2.3543 -0.0455  0.7308
 7083SOL     OW32884   3.812   4.735   6.788  0.2092 -1.2268  0.6183
 7083SOL    HW132885   3.902   0.027   6.801  0.1923 -0.2049 -1.5997
 7083SOL    HW232886   3.844   4.645   6.794  0.0015 -1.3955 -0.8750
 7084SOL     OW32887   3.216   0.889   7.638 -0.2264  0.1213 -0.1337
 7084SOL    HW132888   3.309   0.887   7.613 -0.8015 -0.7208 -2.1508
 7084SOL    HW232889   3.194   0.977   7.669 -2.1837 -0.6374  0.6005
 7085SOL     OW32890   0.653   0.980   6.392 -0.1780 -0.4847 -0.6553
 7085SOL    HW132891   0.599   0.918   6.441  0.5852 -0.1333  0.6337
 7085SOL    HW232892   0.587   1.031   6.346  1.1459 -0.1377 -2.1751
 7086SOL     OW32893   4.180   0.936   9.399  0.4261  0.2377 -0.2941
 7086SOL    HW132894   4.275   0.942   9.399  0.4599 -0.4741 -1.5107
 7086SOL    HW232895   4.171   0.845   9.371  0.4718 -0.3025  1.4632
 7087SOL     OW32896   1.125   0.477  11.712 -0.2420 -0.1633  0.0347
 7087SOL    HW132897   1.049   0.529  11.686 -0.3581 -1.8266 -2.9006
 7087SOL    HW232898   1.187   0.549  11.723 -1.1001  0.9114 -2.3109
 7088SOL     OW32899   2.072   0.764   3.123  0.1311  0.5859  0.3555
 7088SOL    HW132900   2.113   0.693   3.074 -0.7643  0.7734 -0.6519
 7088SOL    HW232901   2.135   0.767   3.195 -1.0749 -1.9414  1.4928
 7089SOL     OW32902   4.415   0.387   9.477 -0.7383  0.2967 -0.1650
 7089SOL    HW132903   4.482   0.437   9.431 -0.9582  1.4056  0.7081
 7089SOL    HW232904   4.430   0.434   9.560 -2.2723 -0.0086  0.2750
 7090SOL     OW32905   2.945   1.817   5.817  0.0621  0.0605 -0.4746
 7090SOL    HW132906   2.866   1.765   5.802 -0.5472  1.0162 -0.5845
 7090SOL    HW232907   2.906   1.891   5.863  0.0271  0.4823 -1.1744
 7091SOL     OW32908   2.872   2.519   5.873 -0.8147 -0.0424 -0.5756
 7091SOL    HW132909   2.802   2.454   5.867 -1.8588  0.8931  1.4383
 7091SOL    HW232910   2.821   2.598   5.892  0.2823  0.4972  0.1179
 7092SOL     OW32911   2.246   0.096   8.972  0.0421  0.1094 -0.4312
 7092SOL    HW132912   2.332   0.130   8.995 -0.1890  0.4243 -0.0333
 7092SOL    HW232913   2.232   0.147   8.891  1.3205  1.3282  0.1089
 7093SOL     OW32914   3.328   3.321   1.456 -0.0545  0.5392  0.3731
 7093SOL    HW132915   3.279   3.402   1.437  0.3432  0.5346 -0.6861
 7093SOL    HW232916   3.385   3.343   1.530  2.7732  0.4204 -1.8001
 7094SOL     OW32917   1.532   2.882   3.320  0.4279 -0.2223 -0.1958
 7094SOL    HW132918   1.577   2.829   3.386  1.0327  1.6940  0.9312
 7094SOL    HW232919   1.462   2.827   3.284 -0.6280 -0.6637  2.5249
 7095SOL     OW32920   1.240   4.516  14.635  0.0072  0.3125  0.4982
 7095SOL    HW132921   1.290   4.541  14.558 -0.2729  1.9282  0.8379
 7095SOL    HW232922   1.193   4.596  14.659 -0.4695 -0.2677  1.5273
 7096SOL     OW32923   2.076   4.719   3.752 -0.0014  0.7385  0.8204
 7096SOL    HW132924   2.094   4.677   3.668  1.4971 -0.5516  1.7817
 7096SOL    HW232925   1.988   0.013   3.737  0.6012  1.0402 -1.9607
 7097SOL     OW32926   2.332   0.520   3.269  0.4844  0.2585  0.1739
 7097SOL    HW132927   2.404   0.458   3.268  0.6231  0.4276 -0.2390
 7097SOL    HW232928   2.327   0.550   3.178 -2.8710  0.0789  0.2909
 7098SOL     OW32929   1.800   0.644   6.044 -0.0888  0.8895 -0.1164
 7098SOL    HW132930   1.880   0.626   6.093 -0.1047  1.1471  0.0056
 7098SOL    HW232931   1.830   0.680   5.960 -0.9621 -1.6748 -1.5174
 7099SOL     OW32932   2.783   2.646  16.753 -0.6886  0.1936 -0.3679
 7099SOL    HW132933   2.691   2.642  16.728 -0.7477  1.1374 -0.2715
 7099SOL    HW232934   2.772   2.703  16.829  0.1938 -0.6791  0.4209
 7100SOL     OW32935   2.280   2.835   8.980 -0.1593 -0.1448 -0.3030
 7100SOL    HW132936   2.365   2.828   8.936 -0.8071 -1.0033 -1.4017
 7100SOL    HW232937   2.262   2.927   8.964 -2.7754 -0.7649 -0.8917
 7101SOL     OW32938   4.362   0.102   5.562  0.0403 -0.7209  0.0770
 7101SOL    HW132939   4.321   0.026   5.603  0.0183  0.1670  1.6745
 7101SOL    HW232940   4.447   0.107   5.606  0.9795 -2.4468 -1.5232
 7102SOL     OW32941   0.487   0.793   5.074  0.0336 -0.3356  0.8283
 7102SOL    HW132942   0.439   0.716   5.044  0.2088 -0.5285  1.0378
 7102SOL    HW232943   0.524   0.825   4.991 -0.3319 -1.0442  0.3963
 7103SOL     OW32944   4.064   1.459  11.610  0.1083  0.4448  0.0784
 7103SOL    HW132945   4.037   1.511  11.686  1.8706  3.0712 -1.0875
 7103SOL    HW232946   4.159   1.464  11.606  0.0584  1.4096  0.0043
 7104SOL     OW32947   0.012   0.201   9.644 -0.4873  0.7598 -0.0489
 7104SOL    HW132948   4.729   0.291   9.618 -1.7518  0.5639  0.3168
 7104SOL    HW232949   0.083   0.179   9.584 -0.1544  0.5833  0.4085
 7105SOL     OW32950   3.109   1.413   2.277  0.0921  0.0061 -0.2186
 7105SOL    HW132951   3.045   1.413   2.348 -1.4664 -0.3571 -1.6256
 7105SOL    HW232952   3.056   1.438   2.202 -0.7193  2.8884  1.2961
 7106SOL     OW32953   4.210   3.788   4.037  1.0077 -0.0469 -0.6914
 7106SOL    HW132954   4.297   3.829   4.030 -0.0190  2.1076 -0.8627
 7106SOL    HW232955   4.211   3.734   3.958  2.3882 -1.6825  0.4425
 7107SOL     OW32956   2.031   2.791   2.078  0.0760  0.0006 -0.4992
 7107SOL    HW132957   1.982   2.737   2.140  2.9683 -1.9044  0.1418
 7107SOL    HW232958   1.978   2.783   1.999 -0.9049  2.8421 -0.1349
 7108SOL     OW32959   4.551   1.795  11.598  1.5083  0.4222 -0.1525
 7108SOL    HW132960   4.578   1.886  11.609  1.0122  0.8332 -2.4078
 7108SOL    HW232961   4.580   1.751  11.679  0.7432 -0.0904 -0.1601
 7109SOL     OW32962   1.038   2.970   3.890 -0.3523  0.5216 -0.0526
 7109SOL    HW132963   1.079   3.048   3.928  0.2429  0.9583 -1.5707
 7109SOL    HW232964   0.955   2.980   3.936 -0.1480  2.4446 -0.0852
 7110SOL     OW32965   3.235   2.384   3.313  0.7185  0.2765 -0.0814
 7110SOL    HW132966   3.326   2.411   3.325  0.9082 -0.1204 -0.6085
 7110SOL    HW232967   3.218   2.433   3.233 -2.4862  2.0306  1.6845
 7111SOL     OW32968   1.925   0.852   5.353  0.0460  0.5606 -0.4343
 7111SOL    HW132969   1.995   0.917   5.363 -0.9806  1.6285 -0.2782
 7111SOL    HW232970   1.847   0.903   5.373 -0.3819 -1.2740  2.7056
 7112SOL     OW32971   1.195   1.666  17.725  0.0074 -0.5977 -0.6945
 7112SOL    HW132972   1.159   1.661   0.062 -2.8583 -0.4783 -1.8259
 7112SOL    HW232973   1.115   1.699  17.683  0.0077  0.9227  0.5115
 7113SOL     OW32974   2.113   0.350   1.330 -0.2491 -0.2688  0.4209
 7113SOL    HW132975   2.047   0.336   1.398 -0.1890  1.0395  0.7592
 7113SOL    HW232976   2.058   0.402   1.271 -0.9663 -1.4580  0.0384
 7114SOL     OW32977   0.329   4.183   2.900  0.2800 -0.2248 -0.4617
 7114SOL    HW132978   0.287   4.101   2.926  0.8960 -0.2229  0.5295
 7114SOL    HW232979   0.410   4.158   2.856 -0.3541 -0.5242 -1.4527
 7115SOL     OW32980   4.251   1.785   8.225 -0.2142 -0.4607  0.4542
 7115SOL    HW132981   4.320   1.724   8.197 -0.3324 -0.3233 -0.1517
 7115SOL    HW232982   4.186   1.716   8.236  1.8320 -2.3584  0.6631
 7116SOL     OW32983   4.659   2.747   3.447 -0.0834  0.2227  0.2848
 7116SOL    HW132984   4.614   2.753   3.363 -0.9405  0.5279  0.7678
 7116SOL    HW232985   0.010   2.737   3.415 -0.3055  1.9546 -0.8420
 7117SOL     OW32986   0.868   4.334  14.311  0.1749 -0.2723 -0.0131
 7117SOL    HW132987   0.794   4.273  14.305  0.0315 -0.1723  0.7750
 7117SOL    HW232988   0.884   4.335  14.405 -1.7382 -0.6946  0.3175
 7118SOL     OW32989   2.218   0.464   6.792 -0.1646  0.1852  0.3111
 7118SOL    HW132990   2.160   0.474   6.867  2.0776  1.4180  1.8670
 7118SOL    HW232991   2.278   0.396   6.822 -0.6010  0.1598  1.1243
 7119SOL     OW32992   0.112   3.555   6.311 -0.1569 -0.0992 -0.5131
 7119SOL    HW132993   0.159   3.492   6.256  1.3421  0.1374  0.4993
 7119SOL    HW232994   0.093   3.630   6.254  0.1927  0.0181 -0.4754
 7120SOL     OW32995   2.763   2.674   3.647  0.0248 -0.1309  0.0521
 7120SOL    HW132996   2.673   2.641   3.649  0.0711 -0.1877  1.1853
 7120SOL    HW232997   2.825   2.601   3.642 -0.5991 -0.5153 -1.7633
 7121SOL     OW32998   1.502   3.715  13.840  0.1026  0.4210 -0.2140
 7121SOL    HW132999   1.557   3.770  13.895  1.3556  0.5637 -1.6060
 7121SOL    HW233000   1.440   3.680  13.905 -1.8478 -0.1505 -2.3585
 7122SOL     OW33001   3.358   0.947   2.441 -0.4073  0.0143  0.2017
 7122SOL    HW133002   3.376   0.880   2.375  0.0882  0.6673 -0.3183
 7122SOL    HW233003   3.264   0.958   2.429 -0.5612 -1.1500  0.2899
 7123SOL     OW33004   1.194   1.471  11.171 -0.0059 -0.0021  0.1158
 7123SOL    HW133005   1.183   1.482  11.076 -1.4458  2.8109  0.6053
 7123SOL    HW233006   1.102   1.462  11.197  0.1536 -1.0251  0.3356
 7124SOL     OW33007   3.228   2.428   3.039 -0.3838 -0.3558 -0.0502
 7124SOL    HW133008   3.172   2.351   3.034 -2.3067  1.1725 -2.0948
 7124SOL    HW233009   3.247   2.428   2.945 -2.1699  1.2743 -0.4126
 7125SOL     OW33010   2.136   1.403  16.959 -0.2366  0.8234 -0.1853
 7125SOL    HW133011   2.183   1.415  16.876 -1.0201  2.3623 -0.3987
 7125SOL    HW233012   2.131   1.487  17.004  0.3424  0.0504  1.3073
 7126SOL     OW33013   0.383   0.156   8.350  0.2418 -0.0621 -0.0106
 7126SOL    HW133014   0.446   0.085   8.349 -1.8285 -1.8984 -0.2739
 7126SOL    HW233015   0.379   0.187   8.441 -0.9510  0.6301 -0.2914
 7127SOL     OW33016   0.519   4.675   8.392 -0.0120  0.6286  0.7517
 7127SOL    HW133017   0.503   4.619   8.316 -1.4984 -1.2194  2.4440
 7127SOL    HW233018   0.496   4.616   8.464  1.2018  1.1096  1.5446
 7128SOL     OW33019   0.981   0.841  16.611  0.3458  0.0375  0.5749
 7128SOL    HW133020   0.941   0.903  16.550  0.6256 -1.1967 -0.8655
 7128SOL    HW233021   0.948   0.875  16.695  0.7671  0.1415  0.6975
 7129SOL     OW33022   2.863   0.801   3.774 -0.3356 -0.2772  0.2921
 7129SOL    HW133023   2.885   0.887   3.811 -0.3449 -0.8163  1.5502
 7129SOL    HW233024   2.910   0.745   3.836  1.1763 -0.1480 -0.7321
 7130SOL     OW33025   1.912   1.171   4.517  0.1054  0.1963 -0.1740
 7130SOL    HW133026   1.893   1.113   4.591 -0.3368  0.4798 -0.0675
 7130SOL    HW233027   1.984   1.223   4.553  1.4692  0.1834 -2.8998
 7131SOL     OW33028   1.526   0.465   6.570 -0.0109  0.4261 -0.2724
 7131SOL    HW133029   1.440   0.442   6.604 -0.5947  1.9356 -0.7215
 7131SOL    HW233030   1.503   0.463   6.477 -1.1701  0.7039  0.0122
 7132SOL     OW33031   1.163   0.589  11.986 -0.2905  0.0934  0.1157
 7132SOL    HW133032   1.238   0.577  12.044 -1.6613 -1.0566  1.6546
 7132SOL    HW233033   1.205   0.631  11.911  0.6338  0.9406  1.1117
 7133SOL     OW33034   3.231   1.269  13.155  0.0851 -0.2627  0.5413
 7133SOL    HW133035   3.264   1.345  13.203 -1.1211  0.9573 -0.5492
 7133SOL    HW233036   3.159   1.233  13.206 -0.8180  0.4379 -0.2481
 7134SOL     OW33037   1.163   1.774   5.799 -0.4596  0.4137  0.4279
 7134SOL    HW133038   1.109   1.717   5.744  2.2119  0.0345 -1.8373
 7134SOL    HW233039   1.187   1.712   5.868  0.0188  1.5166  1.2464
 7135SOL     OW33040   3.473   3.854   3.830  0.7927  0.5069 -0.0507
 7135SOL    HW133041   3.382   3.830   3.847  0.2075  1.3082 -2.1372
 7135SOL    HW233042   3.488   3.910   3.906 -0.9548  0.0656  0.6070
 7136SOL     OW33043   1.663   3.799   0.916  0.1112 -0.0890 -0.0543
 7136SOL    HW133044   1.729   3.781   0.849 -1.3074  1.6326 -1.9121
 7136SOL    HW233045   1.712   3.790   0.998  2.8454  0.5031 -1.6302
 7137SOL     OW33046   2.463   0.090   7.400  0.0167  0.0071  0.3758
 7137SOL    HW133047   2.480   0.142   7.479  0.4873 -0.1481  0.3723
 7137SOL    HW233048   2.376   0.120   7.373  0.4674  1.3831  0.4466
 7138SOL     OW33049   0.136   0.888   2.131  0.5086 -0.9181  0.1979
 7138SOL    HW133050   0.139   0.979   2.160  4.0658 -0.3062 -2.1547
 7138SOL    HW233051   0.043   0.871   2.112  1.1053  0.3267 -3.8446
 7139SOL     OW33052   1.073   0.167   2.292  0.1645  0.2749 -0.2003
 7139SOL    HW133053   1.168   0.171   2.302  0.3964 -1.2442 -1.6449
 7139SOL    HW233054   1.051   0.252   2.253 -1.7800  0.0305  0.3430
 7140SOL     OW33055   3.566   4.607  17.398  0.7622  0.2533 -0.6183
 7140SOL    HW133056   3.516   4.685  17.423 -2.0704 -1.8989  0.5040
 7140SOL    HW233057   3.498   4.565  17.346 -0.9257  1.6259  0.4732
 7141SOL     OW33058   1.661   4.376   5.298  0.0358 -0.0674 -0.6535
 7141SOL    HW133059   1.673   4.424   5.380  0.6900 -1.1231 -0.1392
 7141SOL    HW233060   1.617   4.441   5.242 -1.0379 -0.2507 -0.0366
 7142SOL     OW33061   1.550   4.574   1.941 -0.3041 -0.1146 -0.0657
 7142SOL    HW133062   1.508   4.616   2.016  0.3733 -0.9079  0.7601
 7142SOL    HW233063   1.642   4.558   1.962 -0.6936 -0.6194  1.2700
 7143SOL     OW33064   0.934   0.213   9.759 -0.4592  0.0730 -0.0665
 7143SOL    HW133065   0.907   0.274   9.827  1.5634  0.9683 -0.0616
 7143SOL    HW233066   0.971   0.142   9.811 -1.2042  0.0648  0.4399
 7144SOL     OW33067   0.055   0.895   3.305  0.4648  0.3617  0.4679
 7144SOL    HW133068   0.081   0.813   3.347 -0.0554 -0.3498 -0.5953
 7144SOL    HW233069   0.084   0.883   3.214  0.0809 -1.2421  0.5606
 7145SOL     OW33070   1.131   4.188  10.807 -0.3308  0.3557 -0.1412
 7145SOL    HW133071   1.166   4.244  10.737  0.6124 -0.1684 -0.1013
 7145SOL    HW233072   1.139   4.243  10.885  0.9201  0.0897 -0.0834
 7146SOL     OW33073   4.670   0.113   5.397  0.1805 -0.0349  0.3812
 7146SOL    HW133074   4.672   0.198   5.442 -2.2852  0.1029  0.2387
 7146SOL    HW233075   4.601   0.124   5.332  0.8754  1.1335 -0.1700
 7147SOL     OW33076   0.705   1.439   5.104 -0.2303  0.9319 -0.0887
 7147SOL    HW133077   0.732   1.524   5.138  0.3921 -0.1071  2.0593
 7147SOL    HW233078   0.705   1.453   5.009  0.1414 -1.7068 -0.4855
 7148SOL     OW33079   1.582   4.077   2.789 -0.1400  0.1881  0.1017
 7148SOL    HW133080   1.594   3.988   2.821 -0.8797 -0.0413 -0.2652
 7148SOL    HW233081   1.660   4.091   2.735  1.8946 -1.9730  2.4570
 7149SOL     OW33082   2.061   3.040   3.859  0.3474  0.0229 -0.6655
 7149SOL    HW133083   2.045   2.947   3.843  0.2816 -0.4734  2.2932
 7149SOL    HW233084   1.978   3.074   3.892 -1.0483 -2.4042 -1.6301
 7150SOL     OW33085   4.445   2.781   9.234 -0.2309 -0.1312 -0.3631
 7150SOL    HW133086   4.469   2.690   9.248  1.3927 -0.0072 -2.4200
 7150SOL    HW233087   4.486   2.820   9.311 -1.2722  0.2194  0.0219
 7151SOL     OW33088   1.991   3.145   0.320  0.0943 -0.1080 -0.6605
 7151SOL    HW133089   1.987   3.085   0.246 -6.0715  1.3525 -1.5520
 7151SOL    HW233090   2.076   3.121   0.355 -0.5622  0.3487  1.2664
 7152SOL     OW33091   3.676   1.348   9.703  0.0710  0.0925  0.5415
 7152SOL    HW133092   3.739   1.365   9.634 -0.4389  1.5235  0.4279
 7152SOL    HW233093   3.600   1.337   9.646 -0.6470 -0.5340  1.6162
 7153SOL     OW33094   2.085   3.510   2.705  0.8547  0.1822 -0.0378
 7153SOL    HW133095   2.084   3.540   2.795 -1.3656  3.6750 -1.2596
 7153SOL    HW233096   2.172   3.548   2.693  2.1206 -3.7939 -3.4586
 7154SOL     OW33097   1.359   1.911   7.421 -0.3653 -0.0475 -0.4684
 7154SOL    HW133098   1.325   1.935   7.335  0.1880 -2.1309 -1.2608
 7154SOL    HW233099   1.277   1.912   7.472  0.3831 -0.0644  0.7295
 7155SOL     OW33100   2.939   1.349   1.701 -0.1319 -0.1165  0.0087
 7155SOL    HW133101   2.991   1.325   1.777 -1.6771  1.0241  1.4413
 7155SOL    HW233102   2.874   1.411   1.733 -0.5113 -0.6524  0.2688
 7156SOL     OW33103   2.472   3.303   1.978 -0.0456 -0.0028 -0.4113
 7156SOL    HW133104   2.541   3.364   2.004 -0.4493 -0.6074  2.0597
 7156SOL    HW233105   2.525   3.224   1.972 -0.7828 -0.5941  0.9439
 7157SOL     OW33106   1.335   3.457  17.310 -0.5009  0.1182 -0.4204
 7157SOL    HW133107   1.249   3.415  17.318 -0.2061 -0.1636  1.3454
 7157SOL    HW233108   1.383   3.401  17.371 -0.3449  2.0164  1.2040
 7158SOL     OW33109   3.532   2.333   6.966  0.5650 -0.2015 -0.5945
 7158SOL    HW133110   3.567   2.392   7.032 -1.2907 -0.7787  0.9091
 7158SOL    HW233111   3.502   2.258   7.018  1.7901  0.1174  0.5915
 7159SOL     OW33112   0.628   3.690   7.531  0.3547  0.4059  0.3117
 7159SOL    HW133113   0.593   3.708   7.618  0.6934 -2.4442  1.0232
 7159SOL    HW233114   0.683   3.768   7.521  2.6353 -1.3514 -0.6856
 7160SOL     OW33115   1.545   4.386   8.574  0.3556  0.2209 -0.0673
 7160SOL    HW133116   1.595   4.445   8.518 -0.4010 -0.6473 -1.6664
 7160SOL    HW233117   1.598   4.385   8.653  1.2757 -1.4534 -0.6869
 7161SOL     OW33118   0.673   2.711   6.028  0.0889  0.4107  0.2381
 7161SOL    HW133119   0.736   2.722   6.099  1.3402  2.1858 -1.1667
 7161SOL    HW233120   0.604   2.661   6.072  0.2594  0.3576  0.4427
 7162SOL     OW33121   2.516   1.116   8.602  0.0869  0.4613  0.2777
 7162SOL    HW133122   2.443   1.177   8.611 -1.0442 -0.9025  0.3844
 7162SOL    HW233123   2.565   1.122   8.684 -1.1600  0.1589  1.0467
 7163SOL     OW33124   2.715   0.201  11.788 -0.2126  0.2940 -0.0736
 7163SOL    HW133125   2.622   0.179  11.795 -0.1312  0.3971  1.3111
 7163SOL    HW233126   2.724   0.210  11.883  0.1298 -3.5018  0.2520
 7164SOL     OW33127   3.413   1.785   9.283 -0.3657  0.1557 -0.0496
 7164SOL    HW133128   3.499   1.802   9.244 -0.6147  2.5635  0.4434
 7164SOL    HW233129   3.424   1.802   9.376 -0.3763  1.3962 -0.2651
 7165SOL     OW33130   2.603   4.497   2.814  0.5430 -0.0126 -0.0310
 7165SOL    HW133131   2.678   4.461   2.768  0.6172 -0.6340  0.5807
 7165SOL    HW233132   2.578   4.419   2.864 -1.6925 -0.3289 -1.6656
 7166SOL     OW33133   3.681   2.247   3.646  0.3285 -0.3324 -0.0407
 7166SOL    HW133134   3.692   2.292   3.562 -0.0676  1.4253  0.8546
 7166SOL    HW233135   3.646   2.163   3.616  1.6680 -1.1647  0.7136
 7167SOL     OW33136   0.335   0.594   7.280 -0.0336 -0.5614  0.5657
 7167SOL    HW133137   0.405   0.545   7.237 -0.1675 -0.6162  0.4096
 7167SOL    HW233138   0.256   0.564   7.236  1.7851 -3.6238 -0.6498
 7168SOL     OW33139   1.274   1.309   1.384  0.1231 -0.3382  0.3021
 7168SOL    HW133140   1.186   1.276   1.367  1.0986 -1.6257 -2.1222
 7168SOL    HW233141   1.250   1.388   1.433 -3.2781 -0.5278 -1.0753
 7169SOL     OW33142   1.146   3.909   8.674  0.5975 -0.8133 -0.3383
 7169SOL    HW133143   1.205   3.891   8.747  0.8620 -2.1560 -0.8805
 7169SOL    HW233144   1.202   3.957   8.613 -0.7875 -0.2154 -1.1554
 7170SOL     OW33145   4.320   0.173  13.352 -0.3345 -0.3758 -0.1045
 7170SOL    HW133146   4.372   0.152  13.429  0.9588 -1.6256 -1.3423
 7170SOL    HW233147   4.297   0.266  13.359 -2.7869 -0.9247 -0.7079
 7171SOL     OW33148   1.058   4.598   3.501 -0.1483  0.0902  0.1100
 7171SOL    HW133149   1.018   4.635   3.422  0.0932  1.3733  0.5918
 7171SOL    HW233150   0.998   4.642   3.561 -0.2210 -1.1958  0.9821
 7172SOL     OW33151   2.818   4.490   6.190 -0.7558 -0.7592  0.3358
 7172SOL    HW133152   2.874   4.423   6.230 -0.4881 -0.5229  0.3575
 7172SOL    HW233153   2.789   4.429   6.122 -2.3747  1.6071 -1.0809
 7173SOL     OW33154   2.465   2.921  12.696  0.5754  0.5682  0.2445
 7173SOL    HW133155   2.427   2.882  12.617  2.2868 -0.4340 -0.0717
 7173SOL    HW233156   2.540   2.862  12.706 -0.3406 -0.5123  0.7538
 7174SOL     OW33157   4.699   1.519   9.637 -0.6135  0.3005  0.1982
 7174SOL    HW133158   0.039   1.467   9.652 -0.0186  0.8712 -0.9400
 7174SOL    HW233159   4.657   1.489   9.557  1.0426 -2.8853  0.5156
 7175SOL     OW33160   0.105   1.102   5.606 -0.4665 -0.1859 -0.3608
 7175SOL    HW133161   0.078   1.135   5.521 -1.3482 -1.2680 -0.5036
 7175SOL    HW233162   0.119   1.180   5.660 -1.6642  1.7882 -2.9077
 7176SOL     OW33163   2.849   3.630   0.788 -0.3846 -0.6017  0.2913
 7176SOL    HW133164   2.771   3.577   0.771  1.2358 -2.1203 -2.4492
 7176SOL    HW233165   2.903   3.618   0.710 -1.5729  2.6936 -1.0064
 7177SOL     OW33166   0.400   0.098   9.798 -0.6425 -0.3112 -0.1386
 7177SOL    HW133167   0.448   0.075   9.718 -1.0826  0.1245 -0.5296
 7177SOL    HW233168   0.443   0.184   9.801 -0.4337 -0.4463  0.6140
 7178SOL     OW33169   2.826   2.249  12.473 -0.4527 -0.2146  0.1443
 7178SOL    HW133170   2.805   2.184  12.541 -0.4140  0.1275  0.4829
 7178SOL    HW233171   2.919   2.229  12.471 -0.6512 -1.5525  3.0900
 7179SOL     OW33172   0.548   1.775   5.157 -0.7257  0.3022 -0.3597
 7179SOL    HW133173   0.478   1.837   5.138 -0.8353  0.5161  0.7633
 7179SOL    HW233174   0.572   1.745   5.069 -0.1007 -1.9107  0.5519
 7180SOL     OW33175   2.036   2.392   9.567 -0.1193 -0.2411 -0.0678
 7180SOL    HW133176   1.982   2.321   9.602  2.3413 -1.6923  0.7877
 7180SOL    HW233177   1.977   2.429   9.501  0.5333 -0.3752 -0.7283
 7181SOL     OW33178   0.491   0.885   1.110 -0.0687  0.2229  0.2478
 7181SOL    HW133179   0.504   0.975   1.082 -0.7641  0.6359  1.2421
 7181SOL    HW233180   0.404   0.892   1.150  0.3776 -0.1788  1.3120
 7182SOL     OW33181   3.291   4.192   2.688  0.6758  0.2335 -0.6306
 7182SOL    HW133182   3.320   4.172   2.599  1.6158  0.4223 -0.3629
 7182SOL    HW233183   3.288   4.286   2.672  0.6611  0.4685  0.7138
 7183SOL     OW33184   2.296   3.572  16.825  0.1516  0.1007  0.0473
 7183SOL    HW133185   2.259   3.596  16.740 -0.7743  1.0349  0.7143
 7183SOL    HW233186   2.367   3.514  16.798  0.5665  0.1534  1.0104
 7184SOL     OW33187   3.492   0.240   8.244  0.2615  0.1651  0.3147
 7184SOL    HW133188   3.470   0.331   8.267  0.0875  0.8436 -2.6132
 7184SOL    HW233189   3.407   0.212   8.210  2.0255 -2.2922 -2.0432
 7185SOL     OW33190   2.792   0.393   4.158 -0.0879  0.3927  0.3464
 7185SOL    HW133191   2.772   0.328   4.091 -1.2109  0.7647  0.3141
 7185SOL    HW233192   2.838   0.455   4.102  2.7553 -1.0454  1.1163
 7186SOL     OW33193   0.803   4.061   8.187  0.3175  0.0812 -0.1312
 7186SOL    HW133194   0.840   4.128   8.130  0.6621 -0.2064 -0.2447
 7186SOL    HW233195   0.870   4.054   8.255 -0.5388 -1.5958  0.5390
 7187SOL     OW33196   2.514   2.785   2.020  0.0352  0.3645 -0.0439
 7187SOL    HW133197   2.564   2.723   2.072  0.7752  2.3740  1.6314
 7187SOL    HW233198   2.482   2.724   1.953 -0.2418 -0.4823  0.8571
 7188SOL     OW33199   2.936   2.549   3.026  0.5195  0.0702 -0.1084
 7188SOL    HW133200   2.905   2.555   2.936  0.1141 -1.0201 -0.0378
 7188SOL    HW233201   3.031   2.558   3.012 -0.0018  3.6562 -1.2894
 7189SOL     OW33202   2.813   0.851   7.574  0.1747 -0.2033 -0.0829
 7189SOL    HW133203   2.786   0.887   7.489  0.6093 -0.8737 -0.5090
 7189SOL    HW233204   2.769   0.766   7.570 -0.9374  0.3761 -0.3103
 7190SOL     OW33205   2.027   1.914   6.479 -0.0498 -0.0476 -0.6454
 7190SOL    HW133206   2.002   1.912   6.387 -2.1647  1.5131 -0.0979
 7190SOL    HW233207   2.121   1.914   6.458  0.5083  0.2176  1.8653
 7191SOL     OW33208   1.359   4.235   8.695  0.0764  0.2982 -0.5111
 7191SOL    HW133209   1.315   4.274   8.771 -0.9314  0.3896 -1.1388
 7191SOL    HW233210   1.407   4.311   8.662 -1.1285  1.6709  0.8793
 7192SOL     OW33211   1.573   3.191   6.676  0.4917 -0.2615 -0.6056
 7192SOL    HW133212   1.479   3.210   6.672  0.3507 -0.9839 -0.6866
 7192SOL    HW233213   1.585   3.203   6.582 -2.1541 -0.2839 -0.9412
 7193SOL     OW33214   2.780   2.928   2.936  0.0137  0.2057 -0.1705
 7193SOL    HW133215   2.845   2.909   3.003  0.7041  1.5331 -0.4556
 7193SOL    HW233216   2.724   2.851   2.949 -0.5732  0.8464  1.1519
 7194SOL     OW33217   3.656   4.614   9.636 -0.1999  0.2410  0.5838
 7194SOL    HW133218   3.679   4.688   9.692 -1.2551  2.3448 -1.7292
 7194SOL    HW233219   3.564   4.639   9.624 -0.8538 -1.9974  1.0232
 7195SOL     OW33220   3.651   0.336   3.739  0.0108 -0.9636  0.3127
 7195SOL    HW133221   3.642   0.257   3.792  1.5416 -0.8789  0.7043
 7195SOL    HW233222   3.732   0.313   3.695 -0.5486 -2.3153  0.0003
 7196SOL     OW33223   3.803   2.066   7.450  0.3374 -0.4420  0.0281
 7196SOL    HW133224   3.818   1.976   7.480 -0.6955 -0.8661 -0.6978
 7196SOL    HW233225   3.762   2.048   7.366  2.3532 -0.5472 -0.9188
 7197SOL     OW33226   0.809   2.380   5.620 -0.5434 -0.1936 -0.6480
 7197SOL    HW133227   0.823   2.419   5.706 -0.7595 -0.6929 -0.3878
 7197SOL    HW233228   0.885   2.413   5.572  0.6025 -1.2281  0.4685
 7198SOL     OW33229   1.781   4.474   4.236 -0.8120 -0.4250  0.1937
 7198SOL    HW133230   1.766   4.557   4.192  1.8404  0.1432  0.3517
 7198SOL    HW233231   1.712   4.419   4.198  0.4770 -1.0429 -1.2513
 7199SOL     OW33232   4.465   1.322   9.468 -0.0253  0.3041 -0.4844
 7199SOL    HW133233   4.420   1.251   9.515  2.5110 -0.7514  0.3719
 7199SOL    HW233234   4.452   1.389   9.535  0.0247  0.4955 -0.6665
 7200SOL     OW33235   4.297   3.599   5.304 -0.6611  0.1021 -0.7543
 7200SOL    HW133236   4.302   3.564   5.215  0.8327  0.4527 -0.8044
 7200SOL    HW233237   4.210   3.638   5.298 -0.6713  0.2788  0.5248
 7201SOL     OW33238   1.222   4.530  11.888  1.1297  0.7822  0.1126
 7201SOL    HW133239   1.243   4.595  11.821  1.7645  0.3623 -0.0963
 7201SOL    HW233240   1.129   4.515  11.874  1.2932 -0.1676  0.0908
 7202SOL     OW33241   4.054   0.502   5.637  0.5824  0.1835  0.4438
 7202SOL    HW133242   4.002   0.459   5.569  1.7066 -1.6294  0.7217
 7202SOL    HW233243   4.135   0.495   5.587  1.3195  1.0277  1.5306
 7203SOL     OW33244   3.431   2.924   3.568 -0.7918  0.0721  0.7762
 7203SOL    HW133245   3.398   2.990   3.629 -1.3914 -0.0845  0.6180
 7203SOL    HW233246   3.354   2.869   3.553 -1.0124  0.4706  0.4742
 7204SOL     OW33247   0.647   3.808   3.242  0.1239 -0.3844  0.2179
 7204SOL    HW133248   0.594   3.791   3.320 -0.3788  0.1811 -0.0039
 7204SOL    HW233249   0.604   3.740   3.190  1.5432 -0.1710 -1.2494
 7205SOL     OW33250   2.866   0.087  15.012  0.2195 -0.5416 -0.2149
 7205SOL    HW133251   2.859   0.170  14.966 -2.2486 -1.3975 -1.3806
 7205SOL    HW233252   2.959   0.087  15.031  0.0256 -3.0878  0.8079
 7206SOL     OW33253   2.581   4.362  16.753  0.3445  0.2748  0.7481
 7206SOL    HW133254   2.545   4.305  16.685  0.9502  0.2065  0.4833
 7206SOL    HW233255   2.609   4.428  16.689 -1.4999  0.2387 -0.1168
 7207SOL     OW33256   0.216   2.977   1.799  0.1399  0.1370  0.5314
 7207SOL    HW133257   0.308   2.959   1.777 -0.7682 -2.4462 -1.1686
 7207SOL    HW233258   0.182   2.929   1.724  2.9547  0.9605 -1.2631
 7208SOL     OW33259   1.017   0.208   3.523  0.3447  0.3328 -0.0563
 7208SOL    HW133260   1.042   0.143   3.457 -1.0641 -0.7178  0.4451
 7208SOL    HW233261   0.937   0.242   3.485 -1.3385 -1.5319  1.8125
 7209SOL     OW33262   4.315   2.005  10.082  0.7399  0.5945 -0.2294
 7209SOL    HW133263   4.347   1.931  10.134  1.3248  0.8383 -0.2367
 7209SOL    HW233264   4.394   2.059  10.080  0.6338  0.7843  0.5914
 7210SOL     OW33265   3.861   4.730   4.963 -0.3789 -0.8677  0.2626
 7210SOL    HW133266   3.914   0.070   4.977 -0.3156 -0.7630 -0.5446
 7210SOL    HW233267   3.814   4.715   5.044 -0.7171  0.2609  0.2758
 7211SOL     OW33268   3.578   3.172  17.201 -0.3988  0.0158 -0.4545
 7211SOL    HW133269   3.617   3.118  17.270 -0.6372  0.9325  0.4030
 7211SOL    HW233270   3.622   3.255  17.220 -2.8540  0.7554  2.1476
 7212SOL     OW33271   1.420   0.906   4.237  0.2785 -0.2007 -0.3553
 7212SOL    HW133272   1.422   0.979   4.176  0.6508  0.2546  0.1985
 7212SOL    HW233273   1.510   0.877   4.246  0.0057 -1.0295 -0.3325
 7213SOL     OW33274   1.461   0.049   3.867 -0.4263 -0.2797  1.1588
 7213SOL    HW133275   1.451   0.144   3.874 -0.5914 -0.3554  1.9711
 7213SOL    HW233276   1.392   0.027   3.805 -1.3099  2.4034  1.1911
 7214SOL     OW33277   3.781   2.947   7.843  0.1177  0.1581 -0.3537
 7214SOL    HW133278   3.738   2.862   7.833 -0.0933  0.3722 -1.2116
 7214SOL    HW233279   3.707   2.994   7.882 -0.0120 -0.4398  0.1267
 7215SOL     OW33280   4.117   1.071  17.205  0.4347 -0.2153  0.1500
 7215SOL    HW133281   4.058   1.050  17.278  1.3181  0.6103  1.1034
 7215SOL    HW233282   4.173   1.136  17.248 -1.6606 -0.2152  2.9207
 7216SOL     OW33283   4.315   2.587   9.469 -0.3293  0.3483 -0.0347
 7216SOL    HW133284   4.289   2.679   9.465  0.4563  0.6955  2.3860
 7216SOL    HW233285   4.393   2.589   9.413  0.4012 -0.0825  0.9552
 7217SOL     OW33286   4.533   1.864   5.096 -0.0165 -0.1596  0.0340
 7217SOL    HW133287   4.466   1.881   5.163 -0.2750  0.8208 -0.4662
 7217SOL    HW233288   4.502   1.780   5.062 -0.5854 -0.4729  1.3336
 7218SOL     OW33289   0.028   3.268   7.589 -0.6450 -0.6356 -0.2290
 7218SOL    HW133290   0.102   3.320   7.558  0.1381 -2.1560 -0.8794
 7218SOL    HW233291   4.729   3.233   7.508  1.0585 -0.0676 -1.2604
 7219SOL     OW33292   1.729   2.597   6.056  0.3682  0.2868 -0.2866
 7219SOL    HW133293   1.641   2.618   6.087  0.4285 -2.1012  1.5005
 7219SOL    HW233294   1.775   2.680   6.061  0.1782  0.5521 -2.6994
 7220SOL     OW33295   1.179   2.736   5.613 -0.0227 -0.0730 -0.3150
 7220SOL    HW133296   1.265   2.700   5.596  0.4121  0.0177  1.7437
 7220SOL    HW233297   1.191   2.791   5.691  0.3083 -1.4520  0.6042
 7221SOL     OW33298   3.951   0.034   3.370  0.2514 -0.1588  0.7729
 7221SOL    HW133299   4.024   4.717   3.396 -0.9981 -2.2251 -0.1529
 7221SOL    HW233300   3.883   4.707   3.356  2.9011 -2.7411  0.1710
 7222SOL     OW33301   3.163   4.325   8.368 -0.0203 -0.4079  0.2838
 7222SOL    HW133302   3.173   4.396   8.431 -1.4007 -0.5473  0.6687
 7222SOL    HW233303   3.076   4.332   8.328  0.0817  2.6208  0.5721
 7223SOL     OW33304   3.388   0.565   5.441 -0.0195  0.5468 -0.1084
 7223SOL    HW133305   3.402   0.491   5.383 -0.9234 -0.3240  0.7830
 7223SOL    HW233306   3.478   0.597   5.444  0.4015 -0.5823 -0.6248
 7224SOL     OW33307   3.639   2.816  17.007 -0.0834  0.6610  0.4522
 7224SOL    HW133308   3.699   2.884  17.038 -1.3670  1.1733  1.8197
 7224SOL    HW233309   3.611   2.760  17.079  1.5758  0.2957  0.8324
 7225SOL     OW33310   1.762   2.252   1.024 -0.3026  0.0713 -0.0727
 7225SOL    HW133311   1.692   2.219   1.081 -2.8161  1.0567 -2.5356
 7225SOL    HW233312   1.723   2.310   0.959 -0.4311  1.0830  0.9100
 7226SOL     OW33313   3.649   2.409   1.031 -0.1819 -0.3690  0.1934
 7226SOL    HW133314   3.659   2.334   1.090 -1.1974  0.0501  0.8916
 7226SOL    HW233315   3.558   2.438   1.038  0.1658  0.7485  0.1098
 7227SOL     OW33316   2.409   4.019   8.223  0.0314  0.3346 -0.0769
 7227SOL    HW133317   2.363   4.069   8.290 -0.9936 -2.0231  0.9475
 7227SOL    HW233318   2.450   3.946   8.269  0.6796  1.3142  0.9068
 7228SOL     OW33319   4.366   3.409   2.919  0.2540  0.2909 -0.6307
 7228SOL    HW133320   4.309   3.396   2.843  1.1164 -2.9946 -0.7307
 7228SOL    HW233321   4.361   3.318   2.947 -0.0307  0.8878  1.2422
 7229SOL     OW33322   3.875   0.928  12.705 -0.5371 -0.3310 -0.0849
 7229SOL    HW133323   3.858   0.848  12.654  2.6946  0.4136 -2.3477
 7229SOL    HW233324   3.882   0.891  12.793 -0.0679  1.3588  0.5733
 7230SOL     OW33325   0.341   2.640   7.801  0.3422  0.4452  0.1145
 7230SOL    HW133326   0.297   2.612   7.881 -0.4368 -3.9171 -1.8458
 7230SOL    HW233327   0.427   2.598   7.814 -0.9296 -2.2995 -0.2917
 7231SOL     OW33328   2.814   1.007   8.712 -0.2855 -0.0377  0.7064
 7231SOL    HW133329   2.775   1.094   8.720 -0.7022 -0.2504  0.9375
 7231SOL    HW233330   2.907   1.029   8.725 -0.2553  0.0293  0.3719
 7232SOL     OW33331   3.802   2.506   4.795 -0.0526  0.3392 -0.6741
 7232SOL    HW133332   3.829   2.571   4.729 -0.2120 -0.5180 -1.5756
 7232SOL    HW233333   3.810   2.426   4.743  4.9347 -0.1582  0.8705
 7233SOL     OW33334   1.756   1.041   7.237  0.2264  0.2091 -0.2010
 7233SOL    HW133335   1.699   1.102   7.283 -1.2465  0.1282 -1.9310
 7233SOL    HW233336   1.791   1.097   7.167 -0.8228  0.3836 -0.5901
 7234SOL     OW33337   0.273   1.929   0.348  0.3445  0.1677 -0.0436
 7234SOL    HW133338   0.228   1.987   0.409  1.7093  0.7126  0.4531
 7234SOL    HW233339   0.338   1.877   0.396  0.5033 -0.1337 -0.5823
 7235SOL     OW33340   4.124   0.232  17.485  0.5473  0.3832 -0.0814
 7235SOL    HW133341   4.183   0.166  17.522  1.3833  1.4802  0.5769
 7235SOL    HW233342   4.167   0.254  17.402  1.9335 -1.8081  0.0605
 7236SOL     OW33343   3.510   4.530   5.155 -0.5155 -0.2358  0.2168
 7236SOL    HW133344   3.430   4.577   5.131  0.2061  0.7477 -0.2357
 7236SOL    HW233345   3.508   4.524   5.251 -1.4250  0.4927  0.2384
 7237SOL     OW33346   3.514   3.404   8.247  0.8723  0.1684 -0.2512
 7237SOL    HW133347   3.502   3.435   8.157 -1.0556 -1.2359 -0.4843
 7237SOL    HW233348   3.441   3.343   8.263  0.7827  0.3812  0.1344
 7238SOL     OW33349   0.089   2.863   1.566  0.1529 -0.1023  0.3095
 7238SOL    HW133350   0.033   2.920   1.513 -1.1322  0.3275  2.1358
 7238SOL    HW233351   0.022   2.801   1.593 -0.4623  0.8735  1.0362
 7239SOL     OW33352   3.662   0.255   8.010  0.3381  0.1062  0.7625
 7239SOL    HW133353   3.732   0.210   8.056  0.5272 -1.9958 -1.5480
 7239SOL    HW233354   3.594   0.254   8.077 -1.3806 -0.2316 -0.9614
 7240SOL     OW33355   0.374   3.568  12.390  0.3707  0.4025  0.6636
 7240SOL    HW133356   0.415   3.611  12.315 -0.0786  2.0539  1.3869
 7240SOL    HW233357   0.403   3.477  12.377 -0.1119  0.2445  0.6625
 7241SOL     OW33358   2.646   4.099  15.917 -0.2516  0.1232 -0.0289
 7241SOL    HW133359   2.674   4.067  15.831 -1.3618 -1.3712  0.1690
 7241SOL    HW233360   2.580   4.030  15.920  0.9963 -1.0450  0.9929
 7242SOL     OW33361   1.276   4.486   3.727  0.1584  0.1290 -0.0511
 7242SOL    HW133362   1.319   4.571   3.723  1.0020 -0.3180 -0.5136
 7242SOL    HW233363   1.342   4.425   3.693 -1.0031 -0.5001 -1.1938
 7243SOL     OW33364   2.633   0.733   2.874  0.0164  0.0995  0.0829
 7243SOL    HW133365   2.585   0.796   2.820 -1.1929  0.4401  1.5278
 7243SOL    HW233366   2.682   0.678   2.814  0.7638  0.6959  0.1553
 7244SOL     OW33367   4.438   0.152   9.733  0.1890 -0.0223  0.0914
 7244SOL    HW133368   4.477   0.234   9.701  2.1228 -1.2867 -0.7633
 7244SOL    HW233369   4.371   0.134   9.667 -0.2444 -0.1112  0.5535
 7245SOL     OW33370   1.573   0.291   3.386  0.0520  0.1438  0.0296
 7245SOL    HW133371   1.644   0.326   3.333 -0.0022  0.4658  0.1747
 7245SOL    HW233372   1.627   0.255   3.457  1.0385 -1.6581 -1.6217
 7246SOL     OW33373   3.557   2.391   3.080  0.3694  0.1058 -0.7543
 7246SOL    HW133374   3.516   2.306   3.067  1.2418 -0.5311  0.6864
 7246SOL    HW233375   3.518   2.410   3.165  0.0000 -2.7738 -0.3073
 7247SOL     OW33376   2.695   4.099   2.472 -0.3826 -0.1912 -0.6420
 7247SOL    HW133377   2.605   4.065   2.477  0.3710 -2.1933 -0.4411
 7247SOL    HW233378   2.693   4.129   2.381 -0.8771  1.4131 -0.1047
 7248SOL     OW33379   3.600   3.393  16.900 -0.0319 -0.5950  0.3616
 7248SOL    HW133380   3.585   3.486  16.916  1.6012 -0.2045 -0.3843
 7248SOL    HW233381   3.624   3.404  16.808 -2.4227  0.4289 -0.1242
 7249SOL     OW33382   1.539   1.540   3.373  0.0553  0.1974  0.1242
 7249SOL    HW133383   1.624   1.497   3.364 -0.4132 -1.1963  2.3010
 7249SOL    HW233384   1.486   1.460   3.374  1.0609 -0.4630 -0.0148
 7250SOL     OW33385   1.467   2.430   1.236 -0.0318 -0.4542  0.4609
 7250SOL    HW133386   1.382   2.409   1.275 -0.9827  2.4200 -0.0405
 7250SOL    HW233387   1.432   2.505   1.187  0.8084 -1.7030 -2.0436
 7251SOL     OW33388   4.661   0.935   0.102  0.5323 -0.1147 -0.1437
 7251SOL    HW133389   4.612   0.929   0.020  0.6724  0.6798 -0.2825
 7251SOL    HW233390   4.614   0.866   0.149  3.0640  0.3437  3.0891
 7252SOL     OW33391   0.926   4.596   2.887  0.1003  0.0068  0.2004
 7252SOL    HW133392   0.990   4.651   2.842  0.0476 -1.0005 -1.1154
 7252SOL    HW233393   0.956   4.610   2.977  0.1885  0.0420  0.1650
 7253SOL     OW33394   2.949   4.199   4.689  0.2077 -0.2599 -0.0965
 7253SOL    HW133395   2.926   4.181   4.597  1.0281 -1.3280 -0.0840
 7253SOL    HW233396   2.900   4.278   4.712  0.9077 -0.5826  2.3890
 7254SOL     OW33397   4.196   1.428   4.115 -0.0902  0.2142  0.0974
 7254SOL    HW133398   4.118   1.476   4.090 -2.0948 -2.6613  0.8467
 7254SOL    HW233399   4.258   1.423   4.042  0.4998  1.1966  0.5190
 7255SOL     OW33400   0.689   0.324   9.102 -0.2863  0.5854 -0.4599
 7255SOL    HW133401   0.781   0.299   9.091 -0.8396 -1.8534  0.4822
 7255SOL    HW233402   0.647   0.248   9.061 -2.1338  1.1595  0.3687
 7256SOL     OW33403   1.063   3.964   3.181  0.7792  0.1552  0.3213
 7256SOL    HW133404   1.119   3.904   3.231  1.5551 -1.4456 -2.4308
 7256SOL    HW233405   1.097   4.050   3.203 -0.3590  0.5950  0.3578
 7257SOL     OW33406   4.719   2.105   6.878  0.2991 -0.2191 -0.1402
 7257SOL    HW133407   4.696   2.084   6.787  0.3510 -1.4881  0.1402
 7257SOL    HW233408   0.005   2.195   6.857 -0.5982  0.0353 -0.0862
 7258SOL     OW33409   1.303   0.229   7.019  0.1058  0.7700 -0.3598
 7258SOL    HW133410   1.383   0.247   6.969  0.5935 -0.9093 -0.1639
 7258SOL    HW233411   1.318   0.139   7.048  0.2634  0.8409 -0.2170
 7259SOL     OW33412   1.373   0.618  10.576 -0.1874  0.6752  0.3546
 7259SOL    HW133413   1.467   0.599  10.579  0.1140  2.1999  0.4660
 7259SOL    HW233414   1.359   0.701  10.621  1.2736  0.8421  0.4809
 7260SOL     OW33415   1.056   0.417   6.584 -0.0229  0.0788 -0.3119
 7260SOL    HW133416   1.070   0.511   6.578  0.8167 -0.0639 -0.6800
 7260SOL    HW233417   1.136   0.385   6.625 -0.2055 -1.3808 -1.0561
 7261SOL     OW33418   1.187   1.343   6.007  0.4579 -0.4707 -0.6902
 7261SOL    HW133419   1.256   1.347   6.072  0.4774 -0.1548 -0.7299
 7261SOL    HW233420   1.162   1.252   6.019 -0.1532 -0.3195 -0.8053
 7262SOL     OW33421   0.779   3.419   5.804  0.4341  0.0178  0.1489
 7262SOL    HW133422   0.703   3.459   5.762  0.9610  0.4177 -0.4256
 7262SOL    HW233423   0.743   3.385   5.887 -2.1594  2.8349  0.1848
 7263SOL     OW33424   2.615   4.045   1.731  0.0445 -0.2459 -0.8088
 7263SOL    HW133425   2.603   4.140   1.727  2.7157  0.0960 -0.5789
 7263SOL    HW233426   2.581   4.039   1.820  0.8523 -0.0693 -0.4951
 7264SOL     OW33427   2.958   3.084   8.514 -0.2437 -0.2916  0.0654
 7264SOL    HW133428   3.005   3.166   8.524 -2.9163  1.3738 -0.9831
 7264SOL    HW233429   2.867   3.112   8.520  0.1837  0.8436  1.1271
 7265SOL     OW33430   1.121   4.496   8.015 -0.0074 -0.0932 -0.1680
 7265SOL    HW133431   1.133   4.575   8.067  0.4984  0.2154 -0.7510
 7265SOL    HW233432   1.142   4.522   7.926  1.7128 -0.5727  0.0851
 7266SOL     OW33433   0.316   4.711   5.970 -0.2221 -0.2376 -0.4725
 7266SOL    HW133434   0.347   4.640   6.027  0.1376  1.1424  1.0422
 7266SOL    HW233435   0.345   0.052   6.014  1.5638 -0.7893 -0.6518
 7267SOL     OW33436   0.560   2.977  16.373 -0.9775  0.1380  0.2771
 7267SOL    HW133437   0.601   2.993  16.458  1.3883 -2.2133 -0.4177
 7267SOL    HW233438   0.546   2.882  16.379 -0.3604 -0.0273 -0.8196
 7268SOL     OW33439   3.690   3.628  15.202 -0.1366 -0.0438  0.2238
 7268SOL    HW133440   3.651   3.547  15.234  0.0602  0.4949  1.8240
 7268SOL    HW233441   3.784   3.611  15.198 -0.2144 -0.2398 -0.9196
 7269SOL     OW33442   3.190   0.363   2.247 -0.3839 -0.1634  0.1920
 7269SOL    HW133443   3.267   0.361   2.191 -1.2853 -0.0802 -1.0597
 7269SOL    HW233444   3.149   0.441   2.209  0.1461 -0.0264 -0.0951
 7270SOL     OW33445   2.460   0.034   3.412 -0.0912  0.5548 -0.1417
 7270SOL    HW133446   2.542   0.057   3.456  0.1283 -0.5728  0.0358
 7270SOL    HW233447   2.418   0.120   3.406  0.4672  0.7809 -0.7535
 7271SOL     OW33448   3.032   1.303   6.429  0.1098 -0.0831 -0.1139
 7271SOL    HW133449   3.126   1.322   6.435  0.3549 -1.9961  2.3605
 7271SOL    HW233450   3.028   1.211   6.404 -0.6243 -0.1473  0.2298
 7272SOL     OW33451   0.791   2.087   4.918  0.3193  0.0527  0.6252
 7272SOL    HW133452   0.707   2.049   4.942  0.6252 -0.3493  1.0573
 7272SOL    HW233453   0.796   2.044   4.832  1.2409  0.0171  0.7030
 7273SOL     OW33454   2.865   1.659   1.262  0.2979  0.2550  0.1410
 7273SOL    HW133455   2.897   1.618   1.343 -2.0484 -0.4466  0.7457
 7273SOL    HW233456   2.823   1.736   1.301 -1.3235 -1.3632  1.5947
 7274SOL     OW33457   2.072   3.306   3.018  0.2807 -0.0830  0.1493
 7274SOL    HW133458   1.978   3.295   3.034  0.0275  1.1391 -0.4628
 7274SOL    HW233459   2.079   3.402   3.017  0.0700 -0.0456  1.5586
 7275SOL     OW33460   2.299   0.219   8.738 -0.9156  0.0251 -0.2986
 7275SOL    HW133461   2.333   0.157   8.674  1.9937  3.4540 -2.0568
 7275SOL    HW233462   2.244   0.276   8.685  0.6077  1.3519 -0.4773
 7276SOL     OW33463   1.678   2.031   6.819 -0.6461  0.1399 -0.2711
 7276SOL    HW133464   1.620   1.960   6.846  0.0462  0.1190  1.1751
 7276SOL    HW233465   1.694   1.992   6.732 -2.8316 -1.1512 -0.1006
 7277SOL     OW33466   3.354   3.606   5.278 -0.5932  0.2101 -0.0549
 7277SOL    HW133467   3.354   3.511   5.270  0.0377  0.1895  0.2650
 7277SOL    HW233468   3.411   3.621   5.352 -1.2809  0.5691  0.4042
 7278SOL     OW33469   3.773   2.929   0.356  0.3635  0.0999  0.6126
 7278SOL    HW133470   3.691   2.959   0.317  1.4095  0.0186 -1.6375
 7278SOL    HW233471   3.833   2.916   0.283 -1.3085  0.5790 -0.8413
 7279SOL     OW33472   2.676   4.547   5.638  0.0722  0.2030 -0.0952
 7279SOL    HW133473   2.687   4.573   5.547 -1.4367  1.0065 -0.0503
 7279SOL    HW233474   2.590   4.506   5.635  0.7546 -1.1976 -0.4414
 7280SOL     OW33475   1.274   4.128   4.128 -0.1889 -0.0260  0.1019
 7280SOL    HW133476   1.253   4.158   4.040  0.1723  2.4194  0.8611
 7280SOL    HW233477   1.190   4.114   4.171  0.9518 -2.3867  1.5834
 7281SOL     OW33478   0.429   0.904   5.549 -0.8056 -0.3221 -0.0643
 7281SOL    HW133479   0.444   0.924   5.457  1.1601  0.7286  0.4707
 7281SOL    HW233480   0.451   0.988   5.590 -1.2141  0.0470 -0.6183
 7282SOL     OW33481   0.504   4.053  17.479  0.5678  0.1527  0.1125
 7282SOL    HW133482   0.455   3.977  17.509  0.6631  0.5376  1.2747
 7282SOL    HW233483   0.592   4.017  17.480  0.3486 -0.3487  0.9481
 7283SOL     OW33484   1.366   0.641   2.831 -0.8614  0.4933 -0.5309
 7283SOL    HW133485   1.312   0.692   2.771 -1.7355 -0.0179 -0.1805
 7283SOL    HW233486   1.316   0.561   2.813  1.8105 -1.9291  2.9656
 7284SOL     OW33487   3.282   4.302   4.144  0.4727  0.3023  0.0536
 7284SOL    HW133488   3.377   4.292   4.139  0.5453  0.0685  1.9363
 7284SOL    HW233489   3.252   4.220   4.182 -2.2120  1.5667  0.7355
 7285SOL     OW33490   4.418   1.550  13.131  0.5529 -0.3618  0.6593
 7285SOL    HW133491   4.504   1.592  13.130  0.8007 -0.8856 -0.5633
 7285SOL    HW233492   4.367   1.605  13.071  1.5810  0.0595  0.1732
 7286SOL     OW33493   3.789   0.446   9.196 -0.1341 -0.1899 -0.0574
 7286SOL    HW133494   3.706   0.487   9.218 -0.4694 -0.6307 -0.4813
 7286SOL    HW233495   3.859   0.494   9.239  1.2009 -0.8607 -1.4617
 7287SOL     OW33496   1.514   4.420  14.464 -0.1233  0.0029  0.0483
 7287SOL    HW133497   1.566   4.498  14.446  1.6488 -0.8757  1.2866
 7287SOL    HW233498   1.489   4.428  14.556 -0.9557 -2.0342  0.0018
 7288SOL     OW33499   1.924   1.012   5.081  0.8479 -0.3667 -0.1689
 7288SOL    HW133500   1.916   1.054   5.167 -1.0391 -1.8970  0.3988
 7288SOL    HW233501   1.860   0.941   5.090 -0.3150  0.6921 -0.0654
 7289SOL     OW33502   2.665   4.236  13.881 -0.3026 -0.0990 -0.5867
 7289SOL    HW133503   2.630   4.204  13.965 -1.0620 -0.8130 -1.1829
 7289SOL    HW233504   2.748   4.189  13.886  1.0237  2.4639  1.8613
 7290SOL     OW33505   0.233   3.705   2.264  0.2918  0.2178 -0.7804
 7290SOL    HW133506   0.209   3.622   2.304  1.1009  0.1400 -0.4614
 7290SOL    HW233507   0.185   3.710   2.181 -1.4468 -2.1491  0.0903
 7291SOL     OW33508   2.117   0.483   7.064  0.2032  0.6183  0.2567
 7291SOL    HW133509   2.092   0.415   7.127  0.7332 -0.9117 -1.1973
 7291SOL    HW233510   2.209   0.503   7.074  0.3479  0.0732  0.0369
 7292SOL     OW33511   0.838   2.521   0.718 -0.3223  0.3843 -0.3825
 7292SOL    HW133512   0.922   2.502   0.676 -1.0838  0.9079 -2.1773
 7292SOL    HW233513   0.781   2.453   0.682 -0.8973 -0.0291  1.3062
 7293SOL     OW33514   3.066   3.536   7.134  0.3721 -0.1291 -0.1515
 7293SOL    HW133515   3.141   3.564   7.080  1.3222 -1.4643  0.4801
 7293SOL    HW233516   3.096   3.546   7.224 -0.9377  0.2721  0.2283
 7294SOL     OW33517   4.036   1.802   3.148 -0.2045 -0.0049  0.3497
 7294SOL    HW133518   4.118   1.850   3.155  0.6701 -1.4030 -0.3880
 7294SOL    HW233519   3.980   1.818   3.224  0.0591 -0.3367  0.6127
 7295SOL     OW33520   3.279   1.906   8.365 -0.0214 -0.1447  0.4755
 7295SOL    HW133521   3.184   1.922   8.358  0.2710 -0.0716 -3.5524
 7295SOL    HW233522   3.311   1.987   8.325 -1.1396 -0.6073 -1.4019
 7296SOL     OW33523   4.129   2.362   4.922  0.1051  0.5292  0.1202
 7296SOL    HW133524   4.173   2.399   4.845  0.9103 -0.1902  0.2322
 7296SOL    HW233525   4.114   2.442   4.972 -1.2075  0.8524 -0.7968
 7297SOL     OW33526   4.472   0.758   9.657 -0.8397  0.4854 -0.3453
 7297SOL    HW133527   4.385   0.723   9.675 -0.6716  0.0799 -0.3155
 7297SOL    HW233528   4.510   0.787   9.740 -1.6675 -1.5642  0.7245
 7298SOL     OW33529   1.752   0.494   0.052  0.1605 -0.3663  0.1261
 7298SOL    HW133530   1.711   0.489   0.139 -1.0403  0.1567 -0.4128
 7298SOL    HW233531   1.707   0.415   0.023  0.4255 -0.5647  0.2598
 7299SOL     OW33532   0.030   1.028   6.016 -0.6055 -0.0805  0.3133
 7299SOL    HW133533   0.115   1.048   5.979 -1.2632  1.5794 -0.2794
 7299SOL    HW233534   4.712   1.033   5.940 -0.2165  1.3698  0.1195
 7300SOL     OW33535   3.770   1.702   9.791 -0.2502 -0.3601 -0.5797
 7300SOL    HW133536   3.742   1.664   9.709  0.8656 -0.3719 -0.9637
 7300SOL    HW233537   3.835   1.765   9.758  0.0955 -0.6758 -0.5014
 7301SOL     OW33538   1.476   4.632   8.171 -0.4919 -0.4593  0.3562
 7301SOL    HW133539   1.390   4.651   8.208  1.0179 -0.1617  3.7478
 7301SOL    HW233540   1.484   4.707   8.113 -2.0068 -0.4041  0.2095
 7302SOL     OW33541   4.496   2.969   2.950 -0.1264 -0.0128 -0.2243
 7302SOL    HW133542   4.415   3.017   2.968 -0.4611 -1.3936  1.8636
 7302SOL    HW233543   4.456   2.889   2.916  3.1351 -2.3051  1.3745
 7303SOL     OW33544   3.206   1.902   8.636  0.6917 -0.1226  0.1126
 7303SOL    HW133545   3.225   1.814   8.669  1.7410  0.5402  1.2686
 7303SOL    HW233546   3.260   1.897   8.558  0.1150 -0.2308 -0.2836
 7304SOL     OW33547   1.427   2.037   0.987 -0.2406  0.0366  0.3547
 7304SOL    HW133548   1.399   2.045   1.078  0.8169  0.1825  0.6749
 7304SOL    HW233549   1.353   2.091   0.962  1.5401  2.4423  0.3014
 7305SOL     OW33550   1.395   2.780   3.053 -0.1110  0.2420  0.3272
 7305SOL    HW133551   1.439   2.862   3.029 -0.3388  0.6402  1.2847
 7305SOL    HW233552   1.318   2.809   3.101 -0.5837 -0.0577 -0.2402
 7306SOL     OW33553   1.241   3.467   7.617 -0.2682 -0.3241 -0.2202
 7306SOL    HW133554   1.214   3.555   7.591 -0.4296  0.0181  1.0726
 7306SOL    HW233555   1.167   3.418   7.582 -0.5994  0.5128 -0.6973
 7307SOL     OW33556   3.977   3.704   4.808 -0.2085  0.4087 -0.3406
 7307SOL    HW133557   3.992   3.771   4.875  3.1914 -0.6277 -0.0580
 7307SOL    HW233558   3.905   3.751   4.765  0.8107  1.3285 -1.0384
 7308SOL     OW33559   4.488   0.873  14.673  0.4743  0.1758 -0.1346
 7308SOL    HW133560   4.555   0.859  14.606  2.6216  0.4116  1.9640
 7308SOL    HW233561   4.497   0.963  14.703  1.7389  0.1913 -0.5467
 7309SOL     OW33562   1.955   4.733   4.219  0.0281  0.3353  0.0483
 7309SOL    HW133563   1.966   4.690   4.134  2.5376  0.6146  0.2307
 7309SOL    HW233564   1.883   0.056   4.204 -0.7523 -0.4088  0.7339
 7310SOL     OW33565   2.144   4.306  16.214 -0.5760  1.0011  0.2109
 7310SOL    HW133566   2.165   4.376  16.152  1.7562  1.4918  1.5767
 7310SOL    HW233567   2.075   4.267  16.159 -0.1530  0.8246 -0.1972
 7311SOL     OW33568   3.583   3.726   6.144  0.0925 -0.3201  0.0026
 7311SOL    HW133569   3.495   3.745   6.178  0.2506 -0.7544  0.6592
 7311SOL    HW233570   3.552   3.676   6.068  0.9970 -1.9923  0.7374
 7312SOL     OW33571   3.538   3.758  12.338  0.4558 -0.3511  0.0076
 7312SOL    HW133572   3.593   3.751  12.260 -0.4426 -0.4774 -0.6164
 7312SOL    HW233573   3.604   3.727  12.400  0.7402 -1.1267 -0.6908
 7313SOL     OW33574   4.525   2.871   6.727  0.4038 -0.1676 -0.1026
 7313SOL    HW133575   4.466   2.928   6.678 -1.4152 -0.5400  1.6500
 7313SOL    HW233576   4.456   2.814   6.760 -1.6301  2.6861  0.5897
 7314SOL     OW33577   0.604   1.852  17.449 -0.1848  0.5439  0.0752
 7314SOL    HW133578   0.627   1.934  17.404 -3.2999 -0.0916 -2.6613
 7314SOL    HW233579   0.524   1.877  17.495  1.1501  0.1779  2.5966
 7315SOL     OW33580   3.261   2.969  16.201  0.5719  0.4466 -0.0644
 7315SOL    HW133581   3.303   2.925  16.275  1.6689  1.5427 -0.0407
 7315SOL    HW233582   3.263   2.890  16.146  3.5500  0.1409  0.4624
 7316SOL     OW33583   1.973   2.423   2.017  0.7114 -0.2237  0.3262
 7316SOL    HW133584   2.020   2.461   1.943  1.8085  0.8067  1.5568
 7316SOL    HW233585   1.978   2.495   2.079 -3.3234 -0.5955  1.0877
 7317SOL     OW33586   2.121   4.007  11.335 -0.5580  0.1657 -0.3300
 7317SOL    HW133587   2.104   4.018  11.429  0.6713  0.0896 -0.0973
 7317SOL    HW233588   2.200   4.062  11.329 -0.6306  0.1741 -1.2391
 7318SOL     OW33589   1.629   2.101   8.490  0.2731  0.4940  0.4910
 7318SOL    HW133590   1.573   2.144   8.554 -0.5236 -0.2839  0.3211
 7318SOL    HW233591   1.591   2.013   8.495 -1.9488  1.4037 -0.3123
 7319SOL     OW33592   2.057   3.533  16.961  0.0464  0.6979 -0.2484
 7319SOL    HW133593   2.001   3.609  16.979 -1.3109 -0.0987 -1.0425
 7319SOL    HW233594   2.140   3.575  16.940 -0.3001  0.9045 -1.2064
 7320SOL     OW33595   2.443   4.675  17.181 -0.4762 -0.3922  0.4796
 7320SOL    HW133596   2.437   4.581  17.199 -0.3886 -0.9460 -2.3788
 7320SOL    HW233597   2.530   4.693  17.216 -0.9265 -1.4690  2.1579
 7321SOL     OW33598   2.465   2.963   6.772  0.2370  0.2165  0.2841
 7321SOL    HW133599   2.375   2.939   6.797  0.6910 -2.5098 -0.7081
 7321SOL    HW233600   2.490   2.883   6.726  0.8631 -0.1060  1.1966
 7322SOL     OW33601   1.443   4.596   1.176  0.3475 -0.6260 -0.1789
 7322SOL    HW133602   1.492   4.525   1.217  0.1767 -0.8531 -0.3659
 7322SOL    HW233603   1.501   4.670   1.196 -0.9155  0.5445 -0.8366
 7323SOL     OW33604   4.539   2.340   7.120 -0.3357 -0.1606  0.0293
 7323SOL    HW133605   4.496   2.356   7.204 -0.7895 -1.6871  0.0831
 7323SOL    HW233606   4.630   2.371   7.123  0.1061 -1.6161  2.2531
 7324SOL     OW33607   3.254   3.756   2.595  0.6012 -0.0610  0.3585
 7324SOL    HW133608   3.183   3.807   2.556  1.3410  0.6765 -0.0432
 7324SOL    HW233609   3.281   3.823   2.658  2.0491  0.0938 -0.4095
 7325SOL     OW33610   4.524   2.824   6.100  0.5155 -0.0982  0.2410
 7325SOL    HW133611   4.616   2.829   6.077 -0.4609  2.0615 -3.1564
 7325SOL    HW233612   4.486   2.861   6.021 -1.6326 -0.1872  1.2210
 7326SOL     OW33613   2.154   4.078   6.401 -0.5174  0.6197 -0.2126
 7326SOL    HW133614   2.071   4.033   6.389  0.1869 -0.6997 -0.0618
 7326SOL    HW233615   2.117   4.165   6.419  0.9407  1.6387 -2.1013
 7327SOL     OW33616   4.144   0.383   6.383  0.0782  0.0222 -0.2077
 7327SOL    HW133617   4.225   0.354   6.339  0.0689  1.3219 -1.0784
 7327SOL    HW233618   4.172   0.471   6.408 -2.2644  0.2214  1.7305
 7328SOL     OW33619   0.857   0.537   4.224  0.4203 -0.2501 -0.0340
 7328SOL    HW133620   0.926   0.588   4.180 -0.7937  1.1017 -0.3727
 7328SOL    HW233621   0.904   0.461   4.259  3.4798  0.4766 -2.5342
 7329SOL     OW33622   3.506   2.566   9.051 -0.0465 -0.9887  0.9240
 7329SOL    HW133623   3.577   2.590   9.110 -0.1869 -0.9789  1.0899
 7329SOL    HW233624   3.531   2.489   9.000 -0.1900 -0.8595  0.6520
 7330SOL     OW33625   1.725   4.007  15.329 -0.1180 -0.3679  0.0307
 7330SOL    HW133626   1.630   4.012  15.342 -0.0466  1.1391 -0.0763
 7330SOL    HW233627   1.752   4.033  15.417 -3.4959  0.4204  0.8624
 7331SOL     OW33628   2.112   3.682   3.940 -0.3347 -0.4741 -0.2616
 7331SOL    HW133629   2.205   3.705   3.941 -0.6437  0.6934  1.5434
 7331SOL    HW233630   2.120   3.588   3.924 -1.3340 -0.7012  0.5943
 7332SOL     OW33631   0.667   3.802   3.668 -0.3554  0.1649  0.0876
 7332SOL    HW133632   0.714   3.860   3.728 -2.9167  0.9709  1.2999
 7332SOL    HW233633   0.722   3.725   3.683  1.4151  1.0693 -1.8159
 7333SOL     OW33634   1.603   3.163  10.229  0.5670  0.1064 -0.1872
 7333SOL    HW133635   1.554   3.133  10.306  0.5726 -2.3175 -1.1247
 7333SOL    HW233636   1.568   3.249  10.208  0.5546  0.6408  1.9790
 7334SOL     OW33637   3.091   1.639   9.156 -0.0447 -0.8634 -0.3526
 7334SOL    HW133638   3.035   1.716   9.144  2.2653  0.6101 -1.4706
 7334SOL    HW233639   3.168   1.667   9.107 -0.8139  1.9011  0.0099
 7335SOL     OW33640   1.062   3.370   3.884 -0.5137  0.4979  0.2826
 7335SOL    HW133641   1.034   3.356   3.794  0.2293  2.4606 -0.2560
 7335SOL    HW233642   0.994   3.428   3.917  0.0100  0.1601  1.9450
 7336SOL     OW33643   0.296   0.166   6.215  0.1193  0.4555 -0.1372
 7336SOL    HW133644   0.254   0.151   6.300  0.1225  0.2699 -0.1670
 7336SOL    HW233645   0.384   0.133   6.235 -0.6966 -1.5126  0.2879
 7337SOL     OW33646   2.694   3.826   6.804  0.8258  0.2993  0.0444
 7337SOL    HW133647   2.637   3.867   6.870  0.8770 -0.9908  0.8996
 7337SOL    HW233648   2.661   3.739   6.827 -1.1550  0.6813 -1.3874
 7338SOL     OW33649   4.238   4.489   5.941  0.1670  0.1640  0.6319
 7338SOL    HW133650   4.279   4.490   6.028 -2.7649  1.9687  2.0085
 7338SOL    HW233651   4.264   4.409   5.896  0.1153 -0.3690  1.5371
 7339SOL     OW33652   3.823   2.249   8.272 -0.9646  0.1365 -0.1784
 7339SOL    HW133653   3.731   2.240   8.296 -0.7792 -0.2489  0.3766
 7339SOL    HW233654   3.820   2.289   8.185  1.8977 -0.0400 -0.3489
 7340SOL     OW33655   3.977   1.910  15.750 -0.4659 -0.3498  0.0835
 7340SOL    HW133656   4.056   1.964  15.741 -0.2347 -0.5325  0.9904
 7340SOL    HW233657   3.993   1.818  15.730 -1.3502  0.2010 -3.2347
 7341SOL     OW33658   4.685   1.646   0.822 -0.3347 -0.5807  0.3520
 7341SOL    HW133659   4.616   1.668   0.759 -0.1883  1.3939  0.9134
 7341SOL    HW233660   4.672   1.551   0.825 -3.0163 -0.2941 -1.4516
 7342SOL     OW33661   4.314   1.655   9.971 -0.3902 -0.8187 -0.2328
 7342SOL    HW133662   4.232   1.704   9.965  0.0629 -0.0780 -0.3303
 7342SOL    HW233663   4.279   1.567   9.958 -1.1865 -0.1464 -2.6219
 7343SOL     OW33664   4.435   3.143   5.749  0.1410 -0.3658 -0.1858
 7343SOL    HW133665   4.453   3.177   5.836 -1.8831 -1.4594  0.6584
 7343SOL    HW233666   4.485   3.062   5.747 -0.2422 -0.6329  1.3329
 7344SOL     OW33667   1.977   2.682  17.575 -0.0061 -0.8844  0.2056
 7344SOL    HW133668   1.994   2.751  17.639  1.9860 -1.6470  0.5000
 7344SOL    HW233669   1.914   2.723  17.515  1.2676  1.7238  0.6667
 7345SOL     OW33670   0.316   0.754   6.975  0.4855 -0.4278 -0.5697
 7345SOL    HW133671   0.342   0.839   6.939  0.4367 -0.0470  0.3072
 7345SOL    HW233672   0.406   0.720   6.976  0.7614  0.3441  0.3929
 7346SOL     OW33673   2.119   1.711   8.946 -0.1734  0.2833 -0.1032
 7346SOL    HW133674   2.199   1.658   8.941 -0.0576  0.6347 -2.0687
 7346SOL    HW233675   2.055   1.644   8.921  0.1872  0.5979 -1.9141
 7347SOL     OW33676   0.901   3.858   1.825  0.2772  0.4950  0.4780
 7347SOL    HW133677   0.949   3.786   1.784 -0.7964  0.3941 -0.6353
 7347SOL    HW233678   0.829   3.866   1.763  0.2402 -0.8681  0.3388
 7348SOL     OW33679   4.685   0.114  15.206  0.3457  0.3451  0.2305
 7348SOL    HW133680   4.611   0.059  15.180  0.3257  1.0638 -1.2206
 7348SOL    HW233681   4.673   0.204  15.176 -1.1279  0.4189  1.0024
 7349SOL     OW33682   3.732   0.752   9.031 -0.1661  0.1030  0.0962
 7349SOL    HW133683   3.743   0.828   9.088  1.5733  2.1329 -2.9434
 7349SOL    HW233684   3.682   0.698   9.093 -2.3127  2.7344  0.6467
 7350SOL     OW33685   2.395   4.718   2.111  0.3910  0.3540 -0.0428
 7350SOL    HW133686   2.366   4.692   2.024  0.0362 -0.7852  0.4143
 7350SOL    HW233687   2.412   0.072   2.094  0.2307 -0.0571 -2.3510
 7351SOL     OW33688   2.762   0.781   2.566  0.2294  0.7771 -0.4750
 7351SOL    HW133689   2.810   0.859   2.593  1.4215 -0.3854  0.7622
 7351SOL    HW233690   2.769   0.795   2.472  0.4081  0.2098 -0.5456
 7352SOL     OW33691   3.448   0.171   2.432 -0.2097 -0.8597  0.4073
 7352SOL    HW133692   3.527   0.221   2.453 -0.5442 -0.2059  0.1143
 7352SOL    HW233693   3.474   0.132   2.348 -0.8200  1.5736 -0.9401
 7353SOL     OW33694   1.968   1.667   3.737 -0.5850 -0.9416  0.0358
 7353SOL    HW133695   2.001   1.586   3.699  2.5552 -0.5588  1.9095
 7353SOL    HW233696   1.972   1.639   3.828 -1.0436  0.2903  0.4367
 7354SOL     OW33697   4.729   4.245   9.030 -0.0473 -0.0204 -0.2306
 7354SOL    HW133698   4.709   4.312   8.965  0.5000  0.3045 -0.0631
 7354SOL    HW233699   4.650   4.192   9.030  0.1966 -0.3787  0.4372
 7355SOL     OW33700   4.061   1.359   1.981  0.5221  0.1911 -0.0082
 7355SOL    HW133701   4.017   1.413   1.916 -2.8593 -1.8829  0.5252
 7355SOL    HW233702   4.149   1.344   1.946  0.9598 -1.1265  1.6663
 7356SOL     OW33703   4.614   2.758  11.335  0.0245  0.7338  0.4074
 7356SOL    HW133704   4.597   2.746  11.241 -0.2459  1.8220  0.3153
 7356SOL    HW233705   4.703   2.728  11.347 -0.2054 -0.7828 -1.6507
 7357SOL     OW33706   1.257   0.433   7.958 -0.4978 -0.6702  0.5082
 7357SOL    HW133707   1.339   0.411   8.002 -1.1529 -3.2520  0.4163
 7357SOL    HW233708   1.275   0.397   7.871 -1.2566 -0.0926  0.1025
 7358SOL     OW33709   2.684   0.477   7.920 -1.3888 -0.0077 -0.4828
 7358SOL    HW133710   2.687   0.386   7.889  1.4836 -0.2565  0.5616
 7358SOL    HW233711   2.691   0.462   8.014 -0.6815  0.7782 -0.4154
 7359SOL     OW33712   2.386   3.369   2.391 -0.3702 -0.2058 -0.4365
 7359SOL    HW133713   2.367   3.330   2.476  1.7675  0.4659  0.3538
 7359SOL    HW233714   2.434   3.298   2.349 -0.9236  0.2082 -1.7512
 7360SOL     OW33715   4.579   3.623   3.458 -0.3732  0.3979  0.3040
 7360SOL    HW133716   4.514   3.561   3.489  1.8141 -1.5632  1.0347
 7360SOL    HW233717   4.555   3.703   3.504  0.8762  0.6801  0.4656
 7361SOL     OW33718   0.165   0.003  13.510  0.0282  0.1710  0.1005
 7361SOL    HW133719   0.090   0.027  13.456 -1.1300 -0.5379  1.3815
 7361SOL    HW233720   0.121   0.007  13.595  0.3192 -1.4955  0.3259
 7362SOL     OW33721   3.504   1.348   3.226 -0.6782 -0.2452 -0.1389
 7362SOL    HW133722   3.577   1.349   3.164 -1.2578  2.9327 -0.7723
 7362SOL    HW233723   3.506   1.255   3.249 -0.7655 -0.4828 -1.0824
 7363SOL     OW33724   2.964   0.027   3.731  0.3701 -0.4983  0.6289
 7363SOL    HW133725   3.023   0.065   3.796  1.0544  1.1450 -0.9880
 7363SOL    HW233726   2.934   4.689   3.780  1.2113 -0.1647  1.6573
 7364SOL     OW33727   0.440   3.882   5.299  0.1337 -0.6865 -0.1915
 7364SOL    HW133728   0.383   3.838   5.236  2.0810 -0.8176 -1.8476
 7364SOL    HW233729   0.525   3.845   5.275  1.0188  2.5223 -1.9104
 7365SOL     OW33730   2.685   2.160  14.509 -0.4216 -0.0722  0.6081
 7365SOL    HW133731   2.715   2.239  14.554  1.8212 -0.1223 -0.8537
 7365SOL    HW233732   2.738   2.089  14.544  0.6231  1.0485  1.3074
 7366SOL     OW33733   2.150   3.064   6.462  0.0202  0.3047 -0.3892
 7366SOL    HW133734   2.191   3.144   6.495  2.4127 -0.0814 -2.4614
 7366SOL    HW233735   2.060   3.084   6.489 -0.2898 -1.9133  0.2073
 7367SOL     OW33736   1.641   1.903  16.841  0.3843 -0.6946  0.2894
 7367SOL    HW133737   1.666   1.825  16.890 -0.8399 -1.1630  0.1626
 7367SOL    HW233738   1.719   1.912  16.786  1.1788 -0.6402  1.4201
 7368SOL     OW33739   4.709   3.992  10.544 -0.5094 -0.2942 -0.0228
 7368SOL    HW133740   4.720   3.964  10.453  2.3121 -0.5579  0.3838
 7368SOL    HW233741   4.687   4.085  10.538 -1.5016 -0.5874 -0.7680
 7369SOL     OW33742   2.489   0.430   3.554 -1.2294  0.1154  0.5360
 7369SOL    HW133743   2.575   0.436   3.513 -1.5756  0.1140 -0.1808
 7369SOL    HW233744   2.433   0.370   3.504  0.6848 -1.7035  0.5676
 7370SOL     OW33745   3.562   2.042   3.336  0.4903  0.0399 -0.1255
 7370SOL    HW133746   3.495   1.973   3.328  0.3518  0.0832  0.6759
 7370SOL    HW233747   3.637   1.998   3.375 -0.1652 -0.1849  0.8883
 7371SOL     OW33748   0.029   0.462   9.483  0.3237  0.4856 -0.2828
 7371SOL    HW133749   0.103   0.488   9.538 -0.8778  2.8725  0.2119
 7371SOL    HW233750   4.715   0.541   9.473 -0.6056  0.0604  1.1737
 7372SOL     OW33751   2.560   4.090   2.004 -0.9312  0.1933 -0.1363
 7372SOL    HW133752   2.504   4.013   2.017 -2.1070  1.6609  3.6651
 7372SOL    HW233753   2.491   4.156   2.004 -1.5282 -0.4078  2.1005
 7373SOL     OW33754   0.630   4.310  11.523  0.5969  0.0315  0.1003
 7373SOL    HW133755   0.647   4.256  11.445  2.1364 -0.8563  1.0414
 7373SOL    HW233756   0.631   4.245  11.593 -1.6072 -0.8291 -0.6662
 7374SOL     OW33757   1.615   1.389   9.508  0.4031 -0.1192  0.5284
 7374SOL    HW133758   1.622   1.480   9.538  1.0313  0.1982 -0.5757
 7374SOL    HW233759   1.602   1.350   9.594 -1.2691 -0.1077  0.2844
 7375SOL     OW33760   4.392   1.797   0.415  0.3051 -0.0129  0.1566
 7375SOL    HW133761   4.413   1.712   0.376 -1.2943 -0.2563 -0.1642
 7375SOL    HW233762   4.301   1.784   0.443 -0.0397  0.2816 -0.8341
 7376SOL     OW33763   0.624   2.095  17.361 -0.2969  0.5758 -0.1487
 7376SOL    HW133764   0.544   2.122  17.406 -0.4220 -1.6536  0.9448
 7376SOL    HW233765   0.600   2.109  17.269 -2.4356 -2.4163 -0.0350
 7377SOL     OW33766   2.628   3.056   2.542 -0.4799 -0.2115 -0.3650
 7377SOL    HW133767   2.583   3.095   2.467 -3.1667 -1.6143  0.5245
 7377SOL    HW233768   2.692   3.124   2.564 -0.6077 -0.5895  1.2166
 7378SOL     OW33769   1.797   1.864   3.980 -0.0377  0.1833  0.5473
 7378SOL    HW133770   1.878   1.839   4.023 -1.1601 -0.4207  2.3347
 7378SOL    HW233771   1.732   1.798   4.006  0.5298 -1.3457 -1.9270
 7379SOL     OW33772   0.103   0.333   2.604 -0.2224  0.1236 -0.0289
 7379SOL    HW133773   0.081   0.410   2.552  1.3019 -0.1285 -1.0445
 7379SOL    HW233774   0.111   0.272   2.530  0.5272 -1.2350  1.1732
 7380SOL     OW33775   3.382   0.017   0.643 -0.3252 -0.3263 -0.0235
 7380SOL    HW133776   3.411   0.083   0.706 -1.2813 -0.9041  1.0276
 7380SOL    HW233777   3.293   0.052   0.641 -0.6695 -1.1594  0.6025
 7381SOL     OW33778   3.465   1.510   5.267  0.9080 -0.0341 -0.0701
 7381SOL    HW133779   3.485   1.506   5.173 -0.4669  0.6077 -0.3935
 7381SOL    HW233780   3.414   1.430   5.270  0.5908  0.0432 -2.9231
 7382SOL     OW33781   4.134   4.205  11.252  0.1967 -0.1046  0.2909
 7382SOL    HW133782   4.110   4.296  11.232 -2.5876 -1.4407 -2.5207
 7382SOL    HW233783   4.227   4.208  11.231 -1.0821  0.0591 -5.4787
 7383SOL     OW33784   0.075   0.359   3.311  0.3322  0.1770  0.0058
 7383SOL    HW133785   0.157   0.313   3.297  0.3027  0.5604 -1.4200
 7383SOL    HW233786   0.059   0.383   3.220 -1.6559  1.3965  0.6670
 7384SOL     OW33787   3.421   1.108   5.075 -0.2510 -0.3899 -0.9252
 7384SOL    HW133788   3.406   1.179   5.013 -1.9931  1.5215  1.6408
 7384SOL    HW233789   3.482   1.052   5.028  1.5845  1.5852 -0.8776
 7385SOL     OW33790   1.993   0.548   9.169 -0.0083  0.0383 -0.3258
 7385SOL    HW133791   1.936   0.540   9.093  0.1859 -1.0343 -0.3653
 7385SOL    HW233792   1.992   0.643   9.178 -1.8766  0.1020 -1.1670
 7386SOL     OW33793   3.963   4.171  10.876  0.4203  0.0675 -0.7334
 7386SOL    HW133794   3.906   4.112  10.828  0.3884 -2.1847  2.0900
 7386SOL    HW233795   4.001   4.116  10.945 -0.7970 -0.3167 -0.3796
 7387SOL     OW33796   0.851   4.210   1.128  0.2910  0.0044 -0.2205
 7387SOL    HW133797   0.929   4.187   1.179 -0.2937 -0.0257  0.6649
 7387SOL    HW233798   0.842   4.150   1.054  0.4258 -1.3608  0.8803
 7388SOL     OW33799   0.790   1.181  10.713 -0.4228 -0.6440 -0.0551
 7388SOL    HW133800   0.838   1.129  10.649  0.9751  1.7114 -0.9347
 7388SOL    HW233801   0.744   1.111  10.759 -1.5182  0.2846  0.2852
 7389SOL     OW33802   0.352   0.269   2.705 -0.2863  0.2986 -0.3143
 7389SOL    HW133803   0.259   0.284   2.689 -0.5181  1.4291  2.0268
 7389SOL    HW233804   0.351   0.244   2.798 -3.2873  1.6401  0.0057
 7390SOL     OW33805   3.130   1.537   4.412  0.1057  0.1651 -0.0891
 7390SOL    HW133806   3.135   1.576   4.325  1.5722  0.3785  0.0990
 7390SOL    HW233807   3.063   1.473   4.388  0.3994 -0.2362  0.1627
 7391SOL     OW33808   0.988   1.815   2.637 -0.1471 -0.1670 -0.1187
 7391SOL    HW133809   0.901   1.780   2.657 -0.7086  0.7881 -0.8969
 7391SOL    HW233810   1.044   1.771   2.701 -0.3239 -0.9010 -0.4611
 7392SOL     OW33811   1.564   1.794   6.911  0.2052  0.7991 -0.5570
 7392SOL    HW133812   1.494   1.765   6.853  0.1968 -1.4452  0.5984
 7392SOL    HW233813   1.520   1.824   6.991 -0.8695  0.8315 -1.1554
 7393SOL     OW33814   3.436   0.812   5.629  0.6164 -0.0039  0.0763
 7393SOL    HW133815   3.456   0.851   5.544 -0.2469  0.5635  0.1294
 7393SOL    HW233816   3.363   0.754   5.608  0.3341 -0.1016  1.3002
 7394SOL     OW33817   3.139   0.540  17.421 -0.0532  0.2159  0.2609
 7394SOL    HW133818   3.068   0.497  17.468 -1.1204  2.0933  0.3986
 7394SOL    HW233819   3.152   0.471  17.356 -0.8043  0.3477 -0.0285
 7395SOL     OW33820   4.390   1.473   0.989 -0.3801 -0.1017  0.3384
 7395SOL    HW133821   4.383   1.477   0.894  0.2170 -2.1127  0.1971
 7395SOL    HW233822   4.384   1.566   1.012 -0.1049  0.5333 -2.1991
 7396SOL     OW33823   2.300   3.414   3.292  0.1841 -0.5174  0.2014
 7396SOL    HW133824   2.336   3.500   3.273  0.3056 -0.3254  1.3410
 7396SOL    HW233825   2.331   3.372   3.211 -0.7733 -2.2821  0.7289
 7397SOL     OW33826   3.642   4.384  13.312  0.0165 -0.0727  0.2075
 7397SOL    HW133827   3.670   4.461  13.262 -1.3927  0.9024  0.9217
 7397SOL    HW233828   3.677   4.318  13.253 -1.7261  0.4016 -1.3783
 7398SOL     OW33829   1.637   4.188   4.764  0.2384 -0.1122  0.4276
 7398SOL    HW133830   1.678   4.234   4.691 -1.6201  1.8682  0.6497
 7398SOL    HW233831   1.708   4.172   4.826  1.9903  1.0602 -1.2764
 7399SOL     OW33832   2.197   4.453   1.734 -0.0723  0.2750 -0.9429
 7399SOL    HW133833   2.265   4.502   1.780  0.4874  0.4353 -1.9353
 7399SOL    HW233834   2.190   4.373   1.786 -0.2577  2.4486  2.3879
 7400SOL     OW33835   2.787   1.149   6.987 -0.4312 -0.4628 -0.9415
 7400SOL    HW133836   2.791   1.055   7.003  0.4741 -0.7004 -2.4985
 7400SOL    HW233837   2.858   1.191   7.035 -0.4175 -1.7843  0.1887
 7401SOL     OW33838   3.823   3.872   5.336  0.1623  0.0488  1.0661
 7401SOL    HW133839   3.755   3.877   5.403 -1.7125  3.1025 -1.0195
 7401SOL    HW233840   3.835   3.961   5.302 -0.1752 -0.2917  0.0790
 7402SOL     OW33841   1.311   1.685  13.930  0.2381 -0.0136 -0.6149
 7402SOL    HW133842   1.358   1.730  13.860  1.9615  2.6431  2.2505
 7402SOL    HW233843   1.233   1.741  13.931 -0.1167 -0.4922 -1.3153
 7403SOL     OW33844   4.709   2.123  15.112  0.8150 -0.4511 -0.0887
 7403SOL    HW133845   4.639   2.186  15.098  0.3655 -0.7038  1.0155
 7403SOL    HW233846   4.668   2.061  15.172 -0.6285  1.1202  0.5395
 7404SOL     OW33847   1.334   2.822   3.630 -0.2365  0.0656 -0.0085
 7404SOL    HW133848   1.416   2.780   3.657  1.1433  2.2788 -0.7315
 7404SOL    HW233849   1.275   2.757   3.668 -0.9048  2.0585  2.3843
 7405SOL     OW33850   1.766   2.264   1.733  0.0092 -0.0966  0.5777
 7405SOL    HW133851   1.799   2.274   1.644 -2.0204  1.9492  0.0442
 7405SOL    HW233852   1.787   2.173   1.754 -1.5692 -0.6365 -0.1751
 7406SOL     OW33853   3.978   1.445  11.080 -0.1655 -0.4000  0.3399
 7406SOL    HW133854   4.058   1.408  11.044 -1.0035 -2.4001  0.5391
 7406SOL    HW233855   3.932   1.488  11.008  1.9362  3.0135  1.0411
 7407SOL     OW33856   4.233   2.374  11.954  0.3846 -0.0363  0.0215
 7407SOL    HW133857   4.230   2.469  11.940 -2.7898 -0.2056 -0.3848
 7407SOL    HW233858   4.212   2.354  12.046 -1.3506  3.2534  0.3539
 7408SOL     OW33859   1.240   1.696   2.975 -0.8261  0.3168 -0.0795
 7408SOL    HW133860   1.178   1.687   2.903  0.6816  0.9209 -1.4443
 7408SOL    HW233861   1.322   1.714   2.929 -1.1434  0.6680 -0.4993
 7409SOL     OW33862   1.615   0.034   2.766 -0.1510  0.2259 -0.0791
 7409SOL    HW133863   1.638   4.691   2.811 -0.8617  0.2149  0.2656
 7409SOL    HW233864   1.694   0.088   2.774  0.6142 -0.6895 -1.4035
 7410SOL     OW33865   3.729   0.099   5.226  0.4047 -0.7391  0.0096
 7410SOL    HW133866   3.759   0.178   5.272 -0.6274  0.5918 -1.6373
 7410SOL    HW233867   3.643   0.095   5.268  0.0214  0.0692 -0.7075
 7411SOL     OW33868   3.256   2.750   9.563  0.1836 -0.5019  0.2055
 7411SOL    HW133869   3.299   2.734   9.479 -0.4384 -1.1448  0.0036
 7411SOL    HW233870   3.219   2.663   9.577  0.1340 -0.5374 -0.1271
 7412SOL     OW33871   2.623   4.083   9.939 -0.5412 -0.0852 -0.3083
 7412SOL    HW133872   2.586   4.004   9.899  0.9309 -1.0506  0.2372
 7412SOL    HW233873   2.573   4.151   9.893  1.2280 -0.2792 -2.5002
 7413SOL     OW33874   2.390   3.674  10.576 -0.1287 -0.1845 -0.0914
 7413SOL    HW133875   2.433   3.710  10.653  0.7913  0.1597 -0.7544
 7413SOL    HW233876   2.418   3.583  10.583 -1.1071 -0.6518 -2.3183
 7414SOL     OW33877   3.799   4.735  12.897  0.3487 -0.2712 -0.1014
 7414SOL    HW133878   3.712   4.697  12.897 -1.2075  3.2688  0.1719
 7414SOL    HW233879   3.842   4.711  12.815 -3.1031 -0.3262 -1.8928
 7415SOL     OW33880   4.204   2.801  11.487 -0.4359 -0.3583  0.2299
 7415SOL    HW133881   4.294   2.813  11.517 -0.4979  1.9484 -0.5103
 7415SOL    HW233882   4.191   2.710  11.514 -1.0577 -0.1908  0.5027
 7416SOL     OW33883   0.451   1.527   6.924  0.7536  0.3154 -0.4656
 7416SOL    HW133884   0.357   1.516   6.917  1.1003 -3.8788  1.3032
 7416SOL    HW233885   0.448   1.621   6.911 -2.2165  0.2278 -0.3243
 7417SOL     OW33886   2.204   1.142  14.884  0.2839  0.0910 -0.4245
 7417SOL    HW133887   2.290   1.119  14.848 -0.4241 -0.3978 -1.7875
 7417SOL    HW233888   2.228   1.167  14.973  2.7062  0.7356 -1.2612
 7418SOL     OW33889   2.106   0.910   1.605 -0.5006 -0.3646 -0.5434
 7418SOL    HW133890   2.147   0.872   1.682 -0.5401  0.8532  0.0687
 7418SOL    HW233891   2.146   0.861   1.532  2.1669 -0.6099  1.0755
 7419SOL     OW33892   3.766   2.718   5.839  0.0617  0.5046 -0.1030
 7419SOL    HW133893   3.697   2.659   5.810  1.6269 -0.1898 -2.4138
 7419SOL    HW233894   3.718   2.796   5.866 -0.8981  0.3160 -1.2463
 7420SOL     OW33895   3.441   3.529   0.245  0.1056  0.1799  0.1766
 7420SOL    HW133896   3.502   3.567   0.182  0.5136 -2.3234 -0.9595
 7420SOL    HW233897   3.383   3.475   0.191  0.4376 -0.7326  0.7325
 7421SOL     OW33898   3.423   1.102   5.968  0.0538 -0.1591 -0.1196
 7421SOL    HW133899   3.364   1.177   5.966  0.6987  0.4051  1.4833
 7421SOL    HW233900   3.499   1.142   6.010  1.2912 -2.5608 -0.1055
 7422SOL     OW33901   2.352   1.993   5.275  0.2690 -0.1499 -0.3409
 7422SOL    HW133902   2.377   2.001   5.183  2.6533  0.7120  0.3915
 7422SOL    HW233903   2.262   1.959   5.278  0.2218 -0.0712 -0.8023
 7423SOL     OW33904   3.658   3.625  17.268  0.2008 -0.8211  0.0215
 7423SOL    HW133905   3.623   3.637  17.180 -0.5178 -1.5644  0.2003
 7423SOL    HW233906   3.711   3.545  17.261 -0.3553 -1.1249 -0.6478
 7424SOL     OW33907   3.824   2.538   4.136 -0.6888 -0.4834 -0.2380
 7424SOL    HW133908   3.787   2.558   4.222  0.5251  3.6305 -0.7062
 7424SOL    HW233909   3.779   2.598   4.076  0.0221 -0.6167 -0.9056
 7425SOL     OW33910   4.640   1.172  17.556 -0.3432  0.2291 -0.3492
 7425SOL    HW133911   4.546   1.151  17.564 -0.6051  0.8949 -1.7226
 7425SOL    HW233912   4.664   1.199  17.645 -0.4421 -2.5063  0.5080
 7426SOL     OW33913   0.484   2.274  14.709 -0.0573  0.4722 -0.4263
 7426SOL    HW133914   0.544   2.295  14.780 -1.8720 -2.4928  1.9821
 7426SOL    HW233915   0.405   2.320  14.739 -0.2355 -1.6656  2.4171
 7427SOL     OW33916   1.128   0.040   8.090  0.1822  0.3326  0.4869
 7427SOL    HW133917   1.170   0.044   8.176 -1.1223  0.6271  1.1185
 7427SOL    HW233918   1.199   0.068   8.032 -1.0769  0.7187 -0.8760
 7428SOL     OW33919   0.682   0.133   0.307  0.4600  0.3960  0.3723
 7428SOL    HW133920   0.692   0.052   0.257  1.7333  2.1841 -2.2733
 7428SOL    HW233921   0.628   0.108   0.381  1.2099 -1.1457  0.4080
 7429SOL     OW33922   4.308   1.232   1.434 -0.0769 -0.3271 -0.1604
 7429SOL    HW133923   4.397   1.268   1.438  0.0449 -0.8615  2.1338
 7429SOL    HW233924   4.288   1.238   1.528 -2.1800 -0.3940 -0.6145
 7430SOL     OW33925   4.419   2.953   1.777 -0.1695  0.1068 -0.7574
 7430SOL    HW133926   4.421   2.879   1.838  1.3564  0.1353 -0.7730
 7430SOL    HW233927   4.414   3.026   1.839 -2.4600 -0.4373 -0.2935
 7431SOL     OW33928   0.802   4.628   4.442  0.4839  0.3541 -1.1050
 7431SOL    HW133929   0.738   4.571   4.400 -0.6812  0.8368  0.0055
 7431SOL    HW233930   0.855   4.640   4.363  1.2057 -2.3559 -1.0167
 7432SOL     OW33931   2.957   0.345  13.138 -0.2528  0.2199 -0.4337
 7432SOL    HW133932   2.877   0.391  13.115 -0.8474  0.6945  2.5543
 7432SOL    HW233933   2.973   0.402  13.214 -2.9588 -0.8867  0.9540
 7433SOL     OW33934   0.236   2.103   2.930 -0.3144  0.2886  0.0645
 7433SOL    HW133935   0.175   2.071   2.996  2.5331 -3.0652  1.1349
 7433SOL    HW233936   0.217   2.196   2.933 -0.6234  0.1892  1.0829
 7434SOL     OW33937   4.284   2.383   9.061  0.9030  0.6113  1.0128
 7434SOL    HW133938   4.362   2.438   9.067  1.8486 -0.5428 -0.7328
 7434SOL    HW233939   4.305   2.319   9.129 -1.3096 -0.1407  1.0013
 7435SOL     OW33940   0.748   1.292   3.425  1.1352  0.0143 -0.1110
 7435SOL    HW133941   0.751   1.203   3.388  2.3909  0.4999 -1.1646
 7435SOL    HW233942   0.747   1.340   3.342 -1.4701 -0.4316 -0.3386
 7436SOL     OW33943   3.514   0.869   6.892 -0.1241 -0.3801  0.2445
 7436SOL    HW133944   3.432   0.873   6.941  0.4990 -1.1446  1.3537
 7436SOL    HW233945   3.577   0.913   6.949  1.3855  0.9093 -2.4252
 7437SOL     OW33946   1.358   1.406   0.640  0.6362 -1.1761  0.0171
 7437SOL    HW133947   1.276   1.364   0.665  1.9153 -3.0713  0.9746
 7437SOL    HW233948   1.337   1.492   0.601 -3.8229 -2.3205 -0.1144
 7438SOL     OW33949   1.730   3.153   5.620  0.2295 -0.2130  0.0308
 7438SOL    HW133950   1.685   3.216   5.677  3.2485  1.5494  0.4532
 7438SOL    HW233951   1.806   3.210   5.613  1.0962 -1.2875  0.7711
 7439SOL     OW33952   0.738   4.303   7.349  0.3747 -0.1840  0.2009
 7439SOL    HW133953   0.708   4.304   7.259 -1.1308  2.4230  0.7288
 7439SOL    HW233954   0.738   4.397   7.368  0.9614 -0.2944  0.7567
 7440SOL     OW33955   2.859   2.032   3.112  0.2047  0.1803 -0.1358
 7440SOL    HW133956   2.848   1.959   3.051  1.0967  0.2515 -0.3693
 7440SOL    HW233957   2.777   2.081   3.100  1.1376  0.7457 -4.0113
 7441SOL     OW33958   3.612   1.659   8.472 -0.2571 -0.7367 -0.2916
 7441SOL    HW133959   3.624   1.572   8.510  0.3522  0.6459  2.7152
 7441SOL    HW233960   3.519   1.658   8.452 -0.6986  0.2640  1.7011
 7442SOL     OW33961   3.495   3.339   1.235 -0.1157 -0.2352 -0.4166
 7442SOL    HW133962   3.447   3.336   1.317 -0.1246  0.9801 -0.3705
 7442SOL    HW233963   3.564   3.402   1.259  0.7736 -1.2143 -0.3927
 7443SOL     OW33964   1.425   2.491   3.871 -0.0334  0.1978  0.0187
 7443SOL    HW133965   1.471   2.575   3.869 -0.4355  0.4748  2.4339
 7443SOL    HW233966   1.399   2.495   3.780  1.4086  2.6119 -0.2854
 7444SOL     OW33967   1.008   4.237   5.257  0.4074  0.0852  0.9946
 7444SOL    HW133968   1.051   4.240   5.342  0.7483  0.6261  0.7979
 7444SOL    HW233969   1.045   4.320   5.228 -0.8562  0.7710  1.3225
 7445SOL     OW33970   1.210   4.685   4.453  0.2896  0.2411  0.5462
 7445SOL    HW133971   1.205   4.713   4.362 -1.2004 -0.0275  0.5393
 7445SOL    HW233972   1.301   4.657   4.463 -0.2880 -1.0777  2.2651
 7446SOL     OW33973   3.713   4.436   0.177  0.3568  0.5349  0.2501
 7446SOL    HW133974   3.735   4.347   0.149 -0.2863 -0.0374  1.5662
 7446SOL    HW233975   3.638   4.455   0.120  1.1676 -2.3570 -1.7910
 7447SOL     OW33976   4.013   0.282   8.321 -0.4316 -0.0428 -0.8954
 7447SOL    HW133977   4.023   0.318   8.409 -0.2352 -0.9121 -0.5593
 7447SOL    HW233978   4.038   0.356   8.266 -0.7557  0.1726 -0.7547
 7448SOL     OW33979   3.428   2.317  13.539 -0.3848 -0.1546 -0.0342
 7448SOL    HW133980   3.336   2.302  13.559 -0.1528 -2.4595 -0.7732
 7448SOL    HW233981   3.467   2.304  13.625 -0.9969 -0.5361  0.1829
 7449SOL     OW33982   0.998   0.471  15.588  0.1390 -0.4782  0.1271
 7449SOL    HW133983   1.024   0.558  15.558  1.9033 -1.5801 -1.4823
 7449SOL    HW233984   1.085   0.450  15.622  0.1381 -1.3529 -0.4157
 7450SOL     OW33985   1.962   3.571   8.912 -0.2180 -0.2976  0.0136
 7450SOL    HW133986   1.927   3.649   8.869  0.3013  0.6250  1.2801
 7450SOL    HW233987   2.053   3.595   8.930 -0.0527 -1.5794  0.8181
 7451SOL     OW33988   4.493   0.684   8.131 -0.6138 -0.0191 -0.1174
 7451SOL    HW133989   4.478   0.761   8.076  0.9915  1.5473  1.6572
 7451SOL    HW233990   4.570   0.648   8.087 -1.1932 -0.2893 -0.9143
 7452SOL     OW33991   0.368   0.865   8.014 -0.2243 -0.5829 -0.2002
 7452SOL    HW133992   0.324   0.945   8.042  2.8973  1.2186 -0.4775
 7452SOL    HW233993   0.302   0.798   8.033 -1.5096  1.0987  1.2877
 7453SOL     OW33994   2.512   1.257   6.211 -0.0488  0.2302  0.1765
 7453SOL    HW133995   2.461   1.239   6.290 -0.2175 -2.1582 -0.4961
 7453SOL    HW233996   2.601   1.242   6.243  1.3125  1.5052 -3.0096
 7454SOL     OW33997   0.181   3.169   2.384  0.2840  0.1753  0.4293
 7454SOL    HW133998   0.266   3.144   2.348  0.4873  0.9762  0.3392
 7454SOL    HW233999   0.126   3.162   2.306 -2.2652  0.1335  2.2085
 7455SOL     OW34000   4.383   1.384  10.163 -0.5882 -0.2622 -0.1494
 7455SOL    HW134001   4.334   1.458  10.199 -1.6829 -0.3062 -1.5689
 7455SOL    HW234002   4.414   1.352  10.248 -0.4980  0.7466  0.1983
 7456SOL     OW34003   1.251   0.587   4.453 -0.4063 -0.2256  0.1234
 7456SOL    HW134004   1.227   0.543   4.534 -0.7756 -1.1123 -0.4653
 7456SOL    HW234005   1.206   0.546   4.379 -0.9345 -0.5101  0.6115
 7457SOL     OW34006   1.496   3.285  11.248 -0.1435  0.0944  0.0859
 7457SOL    HW134007   1.486   3.221  11.178  4.8241 -0.6730  0.1037
 7457SOL    HW234008   1.508   3.228  11.324 -0.7855  0.6000  0.5799
 7458SOL     OW34009   3.314   1.590   4.626  0.2955 -0.7536  0.2206
 7458SOL    HW134010   3.251   1.583   4.697  1.1003 -0.5593  0.9526
 7458SOL    HW234011   3.252   1.574   4.554  0.9477 -1.8338 -0.0937
 7459SOL     OW34012   2.676   1.965   9.215  0.0890  0.5042  0.3263
 7459SOL    HW134013   2.582   1.957   9.231  0.1677  0.4999  0.7850
 7459SOL    HW234014   2.702   2.042   9.265  0.5578 -0.6175  1.8017
 7460SOL     OW34015   4.304   4.339   2.996  0.3241  0.4802  1.1008
 7460SOL    HW134016   4.371   4.276   2.968 -0.9467  0.0858 -1.1231
 7460SOL    HW234017   4.221   4.292   2.990  0.8705 -0.6343  2.2145
 7461SOL     OW34018   2.554   4.351   4.113  0.0091 -0.7438  0.8231
 7461SOL    HW134019   2.478   4.379   4.163  0.8680 -1.0360  2.3159
 7461SOL    HW234020   2.590   4.286   4.174 -0.7723 -0.9488  1.0657
 7462SOL     OW34021   3.116   4.443   7.496 -0.2368 -0.4498 -0.0648
 7462SOL    HW134022   3.048   4.381   7.468 -1.2718  2.1049 -3.2307
 7462SOL    HW234023   3.082   4.528   7.469 -0.6477 -0.9860 -1.2257
 7463SOL     OW34024   2.219   1.162  14.279 -0.2262 -0.4463 -0.0556
 7463SOL    HW134025   2.142   1.218  14.292  0.4846  0.4410  0.3800
 7463SOL    HW234026   2.236   1.137  14.369  1.5962  0.6057 -0.1054
 7464SOL     OW34027   0.479   3.696   7.305 -0.1380  0.4332  0.2843
 7464SOL    HW134028   0.403   3.670   7.357  0.1540  0.3204  0.6483
 7464SOL    HW234029   0.540   3.716   7.376  1.4479  1.0202 -1.2369
 7465SOL     OW34030   1.812   4.409  14.442 -0.1720 -0.1004 -0.5379
 7465SOL    HW134031   1.776   4.385  14.527  0.6264 -1.3320 -0.5432
 7465SOL    HW234032   1.828   4.503  14.451 -0.2303 -0.0995 -0.4449
 7466SOL     OW34033   0.539   4.399   6.454  0.5739 -0.5932  0.3517
 7466SOL    HW134034   0.495   4.483   6.456  1.4951 -0.0949 -0.3476
 7466SOL    HW234035   0.465   4.343   6.432 -1.7973  2.8616 -0.3898
 7467SOL     OW34036   0.226   2.985  17.326  0.2525  0.7172 -0.4677
 7467SOL    HW134037   0.212   3.046  17.398 -0.7405 -0.3691  0.2675
 7467SOL    HW234038   0.166   2.914  17.349  0.5085  0.5803 -0.2298
 7468SOL     OW34039   2.170   3.494   6.243  0.7227  0.4445 -0.0712
 7468SOL    HW134040   2.220   3.507   6.163  1.2944 -2.5177 -0.2002
 7468SOL    HW234041   2.219   3.535   6.314 -0.7735 -1.4597  2.0723
 7469SOL     OW34042   2.734   3.955  10.708  0.1256  0.1447  0.3313
 7469SOL    HW134043   2.765   4.039  10.742  1.4050 -0.2831  0.2006
 7469SOL    HW234044   2.665   3.934  10.770  0.8679 -2.0854  0.4045
 7470SOL     OW34045   3.595   0.578  14.630  0.3026  0.0637  0.5498
 7470SOL    HW134046   3.561   0.540  14.711  0.1924  0.3773  0.6495
 7470SOL    HW234047   3.521   0.635  14.610  1.0415  0.1116 -2.0190
 7471SOL     OW34048   2.453   3.809   5.363  0.3557 -0.1304  0.0196
 7471SOL    HW134049   2.463   3.800   5.269  0.8150 -1.7344  0.2261
 7471SOL    HW234050   2.437   3.903   5.366  1.1318  0.0574 -2.0438
 7472SOL     OW34051   4.100   1.131   5.624  0.6410 -0.4139 -0.0761
 7472SOL    HW134052   4.095   1.227   5.628  0.2774 -0.3418 -2.2659
 7472SOL    HW234053   4.031   1.099   5.682  0.4998  0.0061 -0.0092
 7473SOL     OW34054   0.599   2.825   6.537 -0.3363 -0.1971  0.4681
 7473SOL    HW134055   0.563   2.743   6.502  2.3441 -1.1145 -0.1776
 7473SOL    HW234056   0.520   2.877   6.551  0.6778  1.4789 -0.1402
 7474SOL     OW34057   3.081   1.927   4.136  0.6575  0.7722  0.6121
 7474SOL    HW134058   3.041   1.857   4.189  2.3666 -0.0114  0.8877
 7474SOL    HW234059   3.171   1.926   4.169  0.4728 -1.1500  1.1016
 7475SOL     OW34060   4.527   1.249   8.209  0.2131  0.0211  0.2947
 7475SOL    HW134061   4.488   1.162   8.205  1.2039 -0.4560  0.9806
 7475SOL    HW234062   4.487   1.280   8.127  2.2282 -0.1436 -0.7370
 7476SOL     OW34063   4.014   2.609   5.400 -0.3274 -0.6007 -0.1580
 7476SOL    HW134064   4.000   2.524   5.443  0.6214 -1.6501 -1.9191
 7476SOL    HW234065   3.951   2.606   5.328 -0.0757  0.9437 -0.4409
 7477SOL     OW34066   2.643   3.524   2.487  0.0613 -0.8058  0.7777
 7477SOL    HW134067   2.563   3.473   2.499 -1.0872  0.0853 -3.0614
 7477SOL    HW234068   2.624   3.606   2.533 -0.9856 -0.8446  0.4088
 7478SOL     OW34069   3.849   4.090  12.765  0.4150 -0.4652  0.1099
 7478SOL    HW134070   3.904   4.167  12.750  2.0398 -1.8884 -1.2652
 7478SOL    HW234071   3.768   4.103  12.716  1.3456  2.5428 -0.6583
 7479SOL     OW34072   1.092   0.794   6.508  0.2127 -0.0359 -0.0966
 7479SOL    HW134073   1.037   0.777   6.584 -0.5673  0.9965 -0.4260
 7479SOL    HW234074   1.177   0.820   6.542  0.0317 -1.5613  1.5260
 7480SOL     OW34075   3.855   0.128   8.122  0.2226 -0.2388  0.0423
 7480SOL    HW134076   3.819   0.059   8.178 -0.5391  1.1299  1.2486
 7480SOL    HW234077   3.922   0.169   8.176 -1.8353 -0.4274  2.7210
 7481SOL     OW34078   3.063   4.425   2.077 -0.0760  0.2046 -0.1212
 7481SOL    HW134079   3.012   4.351   2.112 -0.8044  1.4531  1.4467
 7481SOL    HW234080   3.008   4.495   2.114 -0.8664 -0.8110  0.6576
 7482SOL     OW34081   0.649   3.746   8.605 -0.9150 -0.0337 -0.3108
 7482SOL    HW134082   0.610   3.826   8.638  2.8583  1.0579  1.5184
 7482SOL    HW234083   0.570   3.691   8.602 -1.2803  0.3412  2.0477
 7483SOL     OW34084   0.027   2.378   6.834 -0.1925  0.3400 -0.6115
 7483SOL    HW134085   0.094   2.436   6.797 -1.1446  2.7105  1.3514
 7483SOL    HW234086   0.036   2.395   6.928  2.0579 -0.5694 -0.6438
 7484SOL     OW34087   4.579   4.510   2.989  0.6898 -0.3817  0.0011
 7484SOL    HW134088   4.533   4.428   2.973 -1.3194  0.6718  0.3511
 7484SOL    HW234089   4.575   4.547   2.901  0.3492 -0.0888  0.1381
 7485SOL     OW34090   3.865   2.843  17.180 -0.4516  0.3500  0.1989
 7485SOL    HW134091   3.878   2.895  17.101  0.0028  1.0073  0.7041
 7485SOL    HW234092   3.849   2.911  17.246 -0.3135  1.4798 -0.9286
 7486SOL     OW34093   1.623   0.057   6.680  0.0241 -0.2766 -0.1992
 7486SOL    HW134094   1.635   0.008   6.598 -0.1218 -0.6829  0.0198
 7486SOL    HW234095   1.527   0.064   6.680  0.0366 -0.0673 -2.1794
 7487SOL     OW34096   2.198   4.300  12.595 -0.1374 -0.1901 -0.1285
 7487SOL    HW134097   2.246   4.344  12.665  1.9375 -1.0696 -1.0263
 7487SOL    HW234098   2.211   4.210  12.626 -3.7080 -0.6926 -0.0736
 7488SOL     OW34099   2.341   1.500   6.674  0.6507  0.0939  0.6557
 7488SOL    HW134100   2.333   1.589   6.709 -3.8679  0.6458 -1.6964
 7488SOL    HW234101   2.436   1.497   6.669  0.6947  2.3765  0.1672
 7489SOL     OW34102   2.367   0.162  15.677  0.4357  0.5129 -0.2422
 7489SOL    HW134103   2.327   0.243  15.709 -0.1778  0.4149 -0.7640
 7489SOL    HW234104   2.441   0.194  15.626  1.3788 -1.4966 -0.1539
 7490SOL     OW34105   1.889   4.093   7.686  0.1350  0.1990  0.2610
 7490SOL    HW134106   1.919   4.184   7.684  0.4031  0.1195  0.6863
 7490SOL    HW234107   1.870   4.093   7.780 -1.5629  2.4647 -0.0817
 7491SOL     OW34108   2.621   2.015  10.072  0.1634  0.0307 -0.3441
 7491SOL    HW134109   2.539   2.065  10.073  2.0323  3.0662 -1.1417
 7491SOL    HW234110   2.588   1.927  10.053 -1.0627  0.4992 -0.3547
 7492SOL     OW34111   4.155   4.513  10.735 -0.0819  0.0539 -0.7080
 7492SOL    HW134112   4.130   4.422  10.719 -0.2551 -0.0470  0.1026
 7492SOL    HW234113   4.178   4.532  10.644  1.2674  0.4752 -0.2781
 7493SOL     OW34114   3.286   2.017   5.775 -0.3457  0.3322  0.4960
 7493SOL    HW134115   3.365   1.969   5.753 -0.4240  1.4853 -2.3035
 7493SOL    HW234116   3.259   1.986   5.862 -0.8148  0.3154  0.3460
 7494SOL     OW34117   2.588   0.583  15.865  0.2739 -0.2562 -0.3489
 7494SOL    HW134118   2.509   0.638  15.872  0.4353 -0.1164  0.3860
 7494SOL    HW234119   2.654   0.642  15.900 -0.6893  1.3357 -1.2006
 7495SOL     OW34120   0.576   0.166   0.974 -0.3109  0.3759  0.0016
 7495SOL    HW134121   0.523   0.104   0.925 -0.6145  3.5262 -3.7010
 7495SOL    HW234122   0.599   0.226   0.903 -1.3443 -0.5533 -1.0951
 7496SOL     OW34123   3.867   4.277  15.412 -0.4372  0.2468  0.2310
 7496SOL    HW134124   3.929   4.241  15.475 -0.9871 -0.4976  0.3465
 7496SOL    HW234125   3.919   4.282  15.331  3.3317  0.3598  2.6365
 7497SOL     OW34126   3.792   1.405   2.270  0.7245  0.1740 -0.6370
 7497SOL    HW134127   3.815   1.459   2.345 -0.4968 -1.5870  1.0022
 7497SOL    HW234128   3.866   1.344   2.280  1.1608  1.0314  1.3607
 7498SOL     OW34129   3.775   0.583  14.955 -0.1683 -0.5891 -0.0069
 7498SOL    HW134130   3.805   0.601  15.044 -4.6016  2.7612  0.8162
 7498SOL    HW234131   3.774   0.487  14.956 -2.4973 -0.5911 -1.6093
 7499SOL     OW34132   0.418   0.757   9.534  0.6047 -0.0561  0.1684
 7499SOL    HW134133   0.325   0.743   9.551  0.8558 -1.5355  0.3464
 7499SOL    HW234134   0.425   0.852   9.526 -1.2860  0.3514  3.5170
 7500SOL     OW34135   0.513   1.934   9.788 -0.5367  0.1022 -0.3374
 7500SOL    HW134136   0.577   1.891   9.845 -0.8221  1.0418  0.6849
 7500SOL    HW234137   0.487   2.007   9.845  0.3288 -0.6067  0.9831
 7501SOL     OW34138   3.839   1.457   8.195  0.0623 -0.4368 -0.4258
 7501SOL    HW134139   3.797   1.383   8.239 -0.4106  1.7211  2.7483
 7501SOL    HW234140   3.767   1.505   8.153 -0.0039 -0.5889 -0.4847
 7502SOL     OW34141   0.075   1.186  10.864 -0.0669  0.7477 -0.3677
 7502SOL    HW134142   0.151   1.227  10.906  0.6206 -1.1971  0.2869
 7502SOL    HW234143   0.016   1.248  10.907 -0.7841  0.7795 -1.4038
 7503SOL     OW34144   4.087   1.326   8.112  0.6301  0.1824 -0.2447
 7503SOL    HW134145   3.997   1.358   8.115  0.7199  0.3005  1.2790
 7503SOL    HW234146   4.093   1.298   8.021  0.2399  0.6097 -0.4034
 7504SOL     OW34147   0.633   3.342   9.102 -0.2297 -0.0178 -0.4223
 7504SOL    HW134148   0.627   3.404   9.175 -3.3522  0.5947 -1.2122
 7504SOL    HW234149   0.601   3.259   9.137  1.0534 -0.4332 -0.2056
 7505SOL     OW34150   0.738   0.545   8.556 -0.1227  0.0342 -0.1122
 7505SOL    HW134151   0.754   0.612   8.489  0.9862  0.0658  0.1941
 7505SOL    HW234152   0.671   0.574   8.618 -0.3758 -1.6942  0.4230
 7506SOL     OW34153   0.550   2.745   3.984 -0.9243  0.2940  0.2948
 7506SOL    HW134154   0.608   2.757   3.908 -0.0033 -4.6490  0.1915
 7506SOL    HW234155   0.546   2.834   4.019  0.8669 -0.8748  3.5231
 7507SOL     OW34156   2.593   2.223   1.827 -0.3187 -0.1373  0.8290
 7507SOL    HW134157   2.614   2.312   1.800  1.8209 -1.0064 -0.3788
 7507SOL    HW234158   2.506   2.240   1.863 -0.5166  0.8444 -0.0875
 7508SOL     OW34159   0.154   0.522  11.248  0.3500 -0.8893  0.5469
 7508SOL    HW134160   0.175   0.505  11.339  0.0625  3.5918  1.4422
 7508SOL    HW234161   0.060   0.538  11.257  0.0945 -0.7625 -2.1909
 7509SOL     OW34162   1.783   1.272  14.873 -0.3307 -0.3267  0.0914
 7509SOL    HW134163   1.761   1.340  14.808  2.5692 -0.2563 -0.7871
 7509SOL    HW234164   1.867   1.248  14.835 -0.7890  0.0513 -1.1740
 7510SOL     OW34165   1.690   3.901   5.560  0.0382  0.2152  0.6856
 7510SOL    HW134166   1.597   3.915   5.577  0.0359  0.5285  0.4128
 7510SOL    HW234167   1.684   3.874   5.468 -2.5561  0.7835  0.6902
 7511SOL     OW34168   0.557   3.311  17.066  0.1233  0.4495 -0.3030
 7511SOL    HW134169   0.577   3.303  16.972  1.6410  1.5726 -0.0754
 7511SOL    HW234170   0.489   3.244  17.076  1.8187 -1.3491 -0.9224
 7512SOL     OW34171   2.628   1.264   9.084  0.3768 -0.2747 -0.1841
 7512SOL    HW134172   2.631   1.252   9.179  1.6428  1.0325 -0.0596
 7512SOL    HW234173   2.564   1.336   9.077  0.3161 -0.1134  2.2906
 7513SOL     OW34174   3.117   1.969   3.198  0.1078 -0.0285  0.0923
 7513SOL    HW134175   3.165   1.967   3.115 -0.8945  2.7619 -0.5652
 7513SOL    HW234176   3.031   1.975   3.156 -0.8195  0.2875  2.0528
 7514SOL     OW34177   0.849   3.187  16.241  0.0629 -0.6244  0.8279
 7514SOL    HW134178   0.900   3.120  16.195 -0.6503 -1.6944  1.5916
 7514SOL    HW234179   0.899   3.197  16.322 -1.1747 -1.8969  1.7644
 7515SOL     OW34180   0.434   2.713  13.799 -0.4865  0.5853  0.3207
 7515SOL    HW134181   0.527   2.692  13.807 -0.3524  0.3839 -1.6381
 7515SOL    HW234182   0.389   2.631  13.820  1.2300  0.2737  2.8170
 7516SOL     OW34183   3.749   3.988   8.230 -0.5176 -0.6821 -0.5768
 7516SOL    HW134184   3.841   3.965   8.245 -0.0785  2.4439  1.5201
 7516SOL    HW234185   3.692   3.947   8.294  0.4592 -0.1881  0.6117
 7517SOL     OW34186   2.095   0.754  13.799  0.1205  0.4826  1.3316
 7517SOL    HW134187   2.105   0.675  13.852 -2.0501 -0.6465  0.0604
 7517SOL    HW234188   2.030   0.801  13.851 -2.0338 -2.0199  0.8901
 7518SOL     OW34189   4.387   4.081   6.448 -0.0105 -0.6863 -0.9869
 7518SOL    HW134190   4.405   3.991   6.420  0.8200 -1.0179  0.6172
 7518SOL    HW234191   4.457   4.130   6.405 -0.0056  1.6211  1.6548
 7519SOL     OW34192   1.635   4.560   8.367  0.0013 -0.4833 -0.4929
 7519SOL    HW134193   1.566   4.590   8.308  0.0169  0.0453 -0.2370
 7519SOL    HW234194   1.684   4.642   8.372 -0.8801  0.1293 -1.9479
 7520SOL     OW34195   0.447   0.493   1.586 -0.6348  0.0075  0.1363
 7520SOL    HW134196   0.418   0.523   1.500 -1.5550  1.4769  0.9609
 7520SOL    HW234197   0.449   0.398   1.574  1.5601  0.1481 -0.4881
 7521SOL     OW34198   3.984   0.448  12.727  0.3452  0.0644 -0.0405
 7521SOL    HW134199   3.946   0.363  12.703 -0.3104  0.2712  0.2594
 7521SOL    HW234200   3.982   0.441  12.822  1.6995 -0.0101 -0.0139
 7522SOL     OW34201   1.807   3.134   7.577  0.3937 -0.3023 -0.2036
 7522SOL    HW134202   1.791   3.040   7.570  1.4322 -0.5265  0.2884
 7522SOL    HW234203   1.902   3.144   7.581  0.4022  0.2803 -1.9350
 7523SOL     OW34204   0.647   2.289  12.115  0.2720  0.3158  0.0371
 7523SOL    HW134205   0.690   2.360  12.068 -0.4263  0.3162 -0.6107
 7523SOL    HW234206   0.700   2.279  12.194 -0.2037 -0.3137  0.2765
 7524SOL     OW34207   0.772   4.501   8.210 -0.2749 -0.2331 -0.9600
 7524SOL    HW134208   0.835   4.449   8.160  2.6970 -0.3548  2.9109
 7524SOL    HW234209   0.812   4.499   8.297 -1.1406 -1.5870 -0.5910
 7525SOL     OW34210   3.447   3.694   8.214  0.8479 -0.2404  0.2771
 7525SOL    HW134211   3.452   3.612   8.262 -1.3800 -0.1807  0.5957
 7525SOL    HW234212   3.523   3.743   8.245  0.9705 -1.2587  1.5312
 7526SOL     OW34213   4.306   0.471   5.478 -0.0787  0.3569 -0.1977
 7526SOL    HW134214   4.399   0.460   5.500  0.0655  0.3324 -0.8284
 7526SOL    HW234215   4.303   0.408   5.406  0.8636 -0.0960  0.1594
 7527SOL     OW34216   3.602   2.692   3.468  0.0503  0.1721  0.0327
 7527SOL    HW134217   3.685   2.688   3.420 -1.1383  0.3777 -2.0488
 7527SOL    HW234218   3.573   2.781   3.486 -0.1259  0.7111 -2.8689
 7528SOL     OW34219   3.321   4.448   2.597 -0.3616 -0.2869  0.0254
 7528SOL    HW134220   3.275   4.470   2.516 -0.9915 -0.5341  0.3177
 7528SOL    HW234221   3.384   4.519   2.605 -1.7023  1.0913 -1.6380
 7529SOL     OW34222   3.247   1.475  16.678  0.1290  0.0483 -0.3325
 7529SOL    HW134223   3.194   1.551  16.703  0.9001  0.5025 -0.0756
 7529SOL    HW234224   3.241   1.469  16.582  1.8312 -1.2653 -0.3581
 7530SOL     OW34225   2.814   3.462   1.640  0.5484  0.0720  0.0007
 7530SOL    HW134226   2.852   3.389   1.592  2.2023  1.0934 -0.2588
 7530SOL    HW234227   2.777   3.521   1.574  0.3650  0.2183  0.2339
 7531SOL     OW34228   2.218   4.393  13.533 -0.1898  0.1332  0.2141
 7531SOL    HW134229   2.299   4.346  13.552 -0.0061  0.3983  0.0960
 7531SOL    HW234230   2.243   4.425  13.446  1.2580  0.5150  0.7580
 7532SOL     OW34231   2.517   1.640   4.797 -0.2575 -0.2254 -0.3283
 7532SOL    HW134232   2.460   1.704   4.756 -0.0163 -0.6971 -1.3954
 7532SOL    HW234233   2.467   1.558   4.792 -0.4711 -0.0971 -0.2892
 7533SOL     OW34234   3.464   4.053   3.444 -0.1578  0.1746 -0.1840
 7533SOL    HW134235   3.556   4.063   3.466 -0.3291 -0.8462  0.9622
 7533SOL    HW234236   3.424   4.113   3.507 -0.9818 -0.4380 -0.1191
 7534SOL     OW34237   2.638   4.547  10.556  0.5676 -0.0159  0.0518
 7534SOL    HW134238   2.692   4.470  10.568  0.0457 -0.3862  0.0372
 7534SOL    HW234239   2.676   4.613  10.614  1.5016 -0.7719  0.2873
 7535SOL     OW34240   2.508   1.491  17.603 -0.8932 -0.4506  0.3765
 7535SOL    HW134241   2.490   1.397  17.604 -0.1011 -0.6084 -0.6228
 7535SOL    HW234242   2.433   1.532  17.646 -1.7289 -2.0267  0.4167
 7536SOL     OW34243   1.222   3.121   4.725 -0.5153  0.2353 -0.7879
 7536SOL    HW134244   1.269   3.037   4.730 -1.2390 -0.1990 -1.3254
 7536SOL    HW234245   1.149   3.095   4.780 -0.5543  0.7035 -0.6156
 7537SOL     OW34246   0.857   3.256   5.136 -0.3563  0.1434  0.8465
 7537SOL    HW134247   0.937   3.277   5.185  1.2567  0.5247 -1.8913
 7537SOL    HW234248   0.851   3.340   5.091 -3.6693 -0.4934  0.1037
 7538SOL     OW34249   2.233   1.539  10.935  0.1139  0.8676  0.1294
 7538SOL    HW134250   2.298   1.469  10.942 -0.9425 -0.2957 -1.6770
 7538SOL    HW234251   2.279   1.609  10.981 -1.1119  0.0377  2.5751
 7539SOL     OW34252   2.150   3.403   6.834 -0.6599  0.2550 -0.0636
 7539SOL    HW134253   2.084   3.352   6.882 -2.3349  1.7734 -0.7675
 7539SOL    HW234254   2.128   3.385   6.743 -1.5050 -2.4515  0.6513
 7540SOL     OW34255   2.269   4.538   5.971  0.0821  0.2436  0.3941
 7540SOL    HW134256   2.233   4.461   6.015  1.7729 -1.3992 -1.1514
 7540SOL    HW234257   2.267   4.610   6.034  1.0092 -0.5780  1.3664
 7541SOL     OW34258   2.747   4.064   7.124  0.9142 -0.0509  0.0204
 7541SOL    HW134259   2.830   4.092   7.161  0.6039 -1.4316  1.7394
 7541SOL    HW234260   2.718   4.139   7.072  0.4002  0.3383  0.8673
 7542SOL     OW34261   4.233   1.405   3.142  0.5073 -0.2507  0.4680
 7542SOL    HW134262   4.151   1.357   3.153  1.3211 -1.2394  2.1195
 7542SOL    HW234263   4.258   1.412   3.234 -0.1671  0.1568  0.6203
 7543SOL     OW34264   3.986   3.927   6.472  0.0363 -0.1401  0.7454
 7543SOL    HW134265   4.035   4.007   6.490  2.9484 -0.9335 -3.6696
 7543SOL    HW234266   3.927   3.936   6.547 -0.2439 -3.4500  0.9304
 7544SOL     OW34267   0.650   3.830   2.550 -0.6998  0.1349 -0.6852
 7544SOL    HW134268   0.602   3.747   2.552  0.2515 -0.3769  1.4513
 7544SOL    HW234269   0.588   3.872   2.491 -0.7318  1.5182  0.3336
 7545SOL     OW34270   1.361   4.198   8.294  0.2694 -0.4781  0.4010
 7545SOL    HW134271   1.342   4.200   8.200 -1.3779 -0.4250  0.7521
 7545SOL    HW234272   1.452   4.227   8.303 -0.3618  1.1346  1.4679
 7546SOL     OW34273   4.300   0.042   6.968  0.1527 -0.5767 -0.3215
 7546SOL    HW134274   4.214   0.065   6.932 -0.5087 -2.1964  0.1917
 7546SOL    HW234275   4.318   4.701   6.918  0.9076 -0.8236  0.3472
 7547SOL     OW34276   0.336   1.644  11.697 -0.4012  0.0916 -0.0070
 7547SOL    HW134277   0.325   1.598  11.780 -1.5781  0.1709 -0.1253
 7547SOL    HW234278   0.299   1.730  11.717  1.3877  1.4977 -2.7401
 7548SOL     OW34279   2.355   1.867  12.868 -0.0587 -0.5022 -0.3507
 7548SOL    HW134280   2.438   1.905  12.896 -0.1493 -2.0731  2.0516
 7548SOL    HW234281   2.349   1.787  12.920  0.0730 -0.3533 -0.1092
 7549SOL     OW34282   3.501   0.557   4.906 -0.1211 -0.3687 -0.0054
 7549SOL    HW134283   3.576   0.528   4.958  0.2694 -1.5810 -1.2159
 7549SOL    HW234284   3.533   0.641   4.873 -0.2188 -0.0439  0.7436
 7550SOL     OW34285   0.068   2.396  14.454  0.2218  0.3295  0.1087
 7550SOL    HW134286   0.050   2.441  14.536 -0.8342 -1.9568  1.1366
 7550SOL    HW234287   0.116   2.321  14.489  1.2721 -0.7525 -3.6911
 7551SOL     OW34288   1.517   0.171   6.142  0.1760  0.2073  0.1812
 7551SOL    HW134289   1.476   0.187   6.057  1.2430  3.1267  0.2081
 7551SOL    HW234290   1.549   0.259   6.161  2.0051 -0.4808  0.3062
 7552SOL     OW34291   2.142   1.848   9.326 -0.3411  0.7831  0.5291
 7552SOL    HW134292   2.121   1.932   9.366  1.6569  2.4419 -1.8636
 7552SOL    HW234293   2.235   1.840   9.346 -0.6829 -0.4372  1.6200
 7553SOL     OW34294   1.417   0.331   4.393 -0.1632 -0.1277  0.2629
 7553SOL    HW134295   1.363   0.353   4.469 -1.0788  0.8443 -0.6806
 7553SOL    HW234296   1.505   0.331   4.430 -0.0189  1.9609 -0.0822
 7554SOL     OW34297   2.497   3.782   3.420 -0.3378 -1.1001 -0.0215
 7554SOL    HW134298   2.459   3.868   3.434 -0.6123 -1.0638 -0.9790
 7554SOL    HW234299   2.564   3.777   3.488  0.1111  2.0585 -0.2619
 7555SOL     OW34300   0.114   0.088   9.851 -0.7939 -0.2588  0.1263
 7555SOL    HW134301   0.073   0.141   9.782  1.3844  0.3513 -0.6812
 7555SOL    HW234302   0.205   0.082   9.824 -1.1744  1.3973 -1.4967
 7556SOL     OW34303   1.633   1.965  10.263 -0.1041 -0.4900 -0.2802
 7556SOL    HW134304   1.707   1.941  10.320  0.7812 -1.5591 -1.8727
 7556SOL    HW234305   1.669   2.019  10.192 -0.7817 -1.0139 -1.0119
 7557SOL     OW34306   3.978   3.637   7.025  0.1876 -0.5957  0.0386
 7557SOL    HW134307   4.030   3.566   6.986  0.6986 -0.7954  1.0661
 7557SOL    HW234308   3.961   3.601   7.112  1.4629 -1.0680  0.0883
 7558SOL     OW34309   3.338   3.411   5.666  0.1268  0.6683  0.8158
 7558SOL    HW134310   3.318   3.376   5.579  0.4618  0.6026  0.7639
 7558SOL    HW234311   3.279   3.486   5.665 -0.3750  0.2682 -0.0977
 7559SOL     OW34312   1.144   2.683  16.588  0.0179 -0.6085 -0.2488
 7559SOL    HW134313   1.205   2.663  16.517  0.2531 -0.3848 -0.1124
 7559SOL    HW234314   1.092   2.603  16.591 -0.0363 -0.5133  1.2236
 7560SOL     OW34315   3.314   2.499   6.552  0.0772  0.2386 -0.0360
 7560SOL    HW134316   3.258   2.576   6.542  0.9669  0.6761 -1.5357
 7560SOL    HW234317   3.259   2.465   6.623 -0.5901 -0.3441 -0.8327
 7561SOL     OW34318   3.599   1.109   8.826 -0.0033  0.0169 -0.1846
 7561SOL    HW134319   3.535   1.095   8.756 -1.2306 -2.7132  1.4437
 7561SOL    HW234320   3.542   1.077   8.896  1.7550 -0.7642  0.8811
 7562SOL     OW34321   0.599   1.097  10.249  0.4973 -0.2198 -0.6128
 7562SOL    HW134322   0.682   1.059  10.218 -0.1832 -0.3853 -2.2219
 7562SOL    HW234323   0.550   1.112  10.168 -0.2153 -0.6973 -0.2673
 7563SOL     OW34324   2.129   3.888  14.881  0.6373 -0.1034 -0.0552
 7563SOL    HW134325   2.132   3.970  14.931  2.2989  0.3129 -0.8116
 7563SOL    HW234326   2.208   3.883  14.826  0.6297 -0.4187 -0.0368
 7564SOL     OW34327   3.359   3.796  16.851  0.2824 -0.4629  0.4588
 7564SOL    HW134328   3.270   3.818  16.824  0.0958 -2.3544 -0.4776
 7564SOL    HW234329   3.399   3.832  16.771 -0.8861 -1.1813 -0.4362
 7565SOL     OW34330   2.618   1.113   2.759 -0.4294  0.2025 -0.2420
 7565SOL    HW134331   2.699   1.112   2.707  0.6732 -1.5177  1.4835
 7565SOL    HW234332   2.581   1.029   2.729  0.5286 -0.3261  0.0584
 7566SOL     OW34333   0.102   1.011   4.655 -0.1876  0.4611  0.2574
 7566SOL    HW134334   0.139   1.099   4.650 -0.3415  0.5414  0.5561
 7566SOL    HW234335   0.169   0.959   4.610  0.4272  3.0468 -1.8035
 7567SOL     OW34336   0.443   4.639   6.412  0.0879  0.0632  0.4374
 7567SOL    HW134337   0.485   4.699   6.350 -2.7727  1.0506 -0.5183
 7567SOL    HW234338   0.397   4.700   6.469 -0.1363 -0.9298  1.3161
 7568SOL     OW34339   2.651   3.744   3.634  0.2149  0.4188 -0.2760
 7568SOL    HW134340   2.726   3.716   3.686 -0.4233 -0.6785  0.0433
 7568SOL    HW234341   2.599   3.795   3.696 -1.7094 -1.3029 -0.4613
 7569SOL     OW34342   3.847   1.463   4.491 -0.0457  0.3638  0.0318
 7569SOL    HW134343   3.756   1.444   4.468 -0.0309  1.1816 -0.7100
 7569SOL    HW234344   3.862   1.529   4.423 -0.8962  0.8412  0.3045
 7570SOL     OW34345   0.150   2.049   0.565 -0.3847  0.3825  0.9806
 7570SOL    HW134346   0.056   2.033   0.578 -0.7659  1.2776 -0.6825
 7570SOL    HW234347   0.148   2.141   0.538  0.4923  0.2008  0.2854
 7571SOL     OW34348   4.186   1.331  10.932  0.0221 -0.0661 -0.5644
 7571SOL    HW134349   4.212   1.239  10.937  2.8022  0.7977  1.0722
 7571SOL    HW234350   4.101   1.308  10.897  0.6964 -0.5770 -1.8513
 7572SOL     OW34351   4.402   2.911   7.598  0.6617 -0.2641 -0.0111
 7572SOL    HW134352   4.343   2.980   7.628 -0.1191 -0.8384 -0.2249
 7572SOL    HW234353   4.483   2.939   7.642  0.7775  1.2887 -1.2249
 7573SOL     OW34354   3.827   1.762   2.681  0.0177 -0.1984  0.0058
 7573SOL    HW134355   3.886   1.754   2.756  0.0311  2.0731  0.2244
 7573SOL    HW234356   3.761   1.817   2.723  0.8946  0.6233  0.3120
 7574SOL     OW34357   1.903   1.923   7.607 -0.3492  0.4903  0.6822
 7574SOL    HW134358   1.993   1.937   7.636 -0.1972  0.9649 -0.0185
 7574SOL    HW234359   1.859   1.931   7.692 -2.4611  0.6865 -0.4139
 7575SOL     OW34360   2.615   3.059   0.275  0.5740  0.0250 -0.0804
 7575SOL    HW134361   2.649   3.014   0.198 -1.1386  0.4863 -1.1060
 7575SOL    HW234362   2.530   3.017   0.288  0.0613  1.0314 -0.1723
 7576SOL     OW34363   0.247   2.679   1.819  0.3875 -0.6853  0.3722
 7576SOL    HW134364   0.303   2.667   1.896  1.6359 -0.7854 -0.5429
 7576SOL    HW234365   0.296   2.639   1.747 -0.7495 -0.3408 -0.5958
 7577SOL     OW34366   4.397   0.125   4.618  0.2145 -0.2725 -0.1349
 7577SOL    HW134367   4.459   0.055   4.640  2.3908  1.2570 -1.3180
 7577SOL    HW234368   4.374   0.152   4.707 -0.0804 -0.3184 -0.2006
 7578SOL     OW34369   0.380   2.996  15.644  0.4140  0.3400  0.4409
 7578SOL    HW134370   0.367   2.992  15.739 -2.9727  0.5239 -0.0216
 7578SOL    HW234371   0.406   2.906  15.622 -2.4738 -0.1590 -0.9637
 7579SOL     OW34372   0.046   3.004   1.146 -0.6825  0.2751 -0.5090
 7579SOL    HW134373   0.023   3.038   1.232  0.8203 -3.8943  1.5075
 7579SOL    HW234374   0.037   2.911   1.167  1.4749  0.1824  0.0473
 7580SOL     OW34375   3.046   1.037   6.002  0.3070  0.5865 -0.4625
 7580SOL    HW134376   2.963   0.998   5.974 -0.0382  0.9204  0.0863
 7580SOL    HW234377   3.102   0.962   5.986 -1.7991 -0.8605 -1.0340
 7581SOL     OW34378   4.675   2.184   5.732 -0.7368  0.4751 -0.4795
 7581SOL    HW134379   4.622   2.240   5.676  0.4649  0.3457 -1.7294
 7581SOL    HW234380   0.012   2.166   5.676 -1.3448 -0.8634 -0.8489
 7582SOL     OW34381   1.460   1.800   3.443  0.6117  0.1143  0.0885
 7582SOL    HW134382   1.536   1.817   3.498  0.1900  0.3367  0.5958
 7582SOL    HW234383   1.477   1.716   3.399 -0.7645 -0.0837 -0.0746
 7583SOL     OW34384   0.474   2.375  12.324 -0.0729 -0.7816  0.0032
 7583SOL    HW134385   0.538   2.429  12.371  0.0819 -0.7760 -0.2152
 7583SOL    HW234386   0.527   2.350  12.249  2.4673  1.5903  1.0093
 7584SOL     OW34387   0.591   2.550   4.897 -0.3919  0.2079  0.2253
 7584SOL    HW134388   0.502   2.533   4.868 -0.1638  2.2213 -1.7273
 7584SOL    HW234389   0.584   2.644   4.881  0.7775 -0.5757 -4.7850
 7585SOL     OW34390   2.349   0.937   2.910  0.0346 -0.1216 -0.3293
 7585SOL    HW134391   2.254   0.945   2.915  0.0631  0.7023 -0.9936
 7585SOL    HW234392   2.368   0.903   2.823  0.3858  1.8530 -1.0140
 7586SOL     OW34393   2.613   3.702   3.088 -0.1794 -0.5067 -0.0918
 7586SOL    HW134394   2.654   3.787   3.069 -1.9474  0.2656 -0.3932
 7586SOL    HW234395   2.665   3.646   3.030 -0.5942 -1.7211  0.7137
 7587SOL     OW34396   0.805   3.712   7.804  0.0232 -0.2887 -0.3284
 7587SOL    HW134397   0.855   3.730   7.884 -0.2701  2.1124 -0.6941
 7587SOL    HW234398   0.729   3.769   7.813  0.6625  0.5615 -0.3336
 7588SOL     OW34399   2.921   0.626   8.035  0.1867  0.1644 -0.2625
 7588SOL    HW134400   2.947   0.581   8.116 -0.6558  0.0829 -0.0430
 7588SOL    HW234401   2.911   0.553   7.973 -0.0573  0.8394 -1.0127
 7589SOL     OW34402   3.334   2.900   1.756  0.5926  0.0865 -0.7800
 7589SOL    HW134403   3.379   2.839   1.698  2.4573  1.4914 -0.8289
 7589SOL    HW234404   3.283   2.947   1.691  1.7695 -0.4395 -2.0697
 7590SOL     OW34405   3.538   1.869   7.739  0.1401 -0.6414  0.5239
 7590SOL    HW134406   3.489   1.911   7.810 -3.1182 -0.3064 -1.9171
 7590SOL    HW234407   3.473   1.805   7.710 -0.8717  0.5705  0.1068
 7591SOL     OW34408   3.184   0.280   1.702 -0.7769 -0.4891 -0.3752
 7591SOL    HW134409   3.133   0.313   1.628  1.0572 -0.4215 -1.6117
 7591SOL    HW234410   3.259   0.338   1.690  0.5307 -1.7834  1.5490
 7592SOL     OW34411   3.544   0.781  14.427  0.2444  0.0244  0.6858
 7592SOL    HW134412   3.519   0.690  14.413  0.2078  0.2742 -0.8518
 7592SOL    HW234413   3.495   0.823  14.356  3.3984  1.1874 -0.8059
 7593SOL     OW34414   2.964   4.435   8.908  0.1087  0.6738 -0.1656
 7593SOL    HW134415   2.966   4.342   8.887  1.4890  1.0367 -1.6394
 7593SOL    HW234416   2.879   4.445   8.951 -0.3570 -1.9314 -0.4438
 7594SOL     OW34417   3.724   4.218   3.634 -0.4189  0.0628 -0.2396
 7594SOL    HW134418   3.784   4.258   3.697  0.3644 -2.3946  0.5895
 7594SOL    HW234419   3.682   4.295   3.595 -0.0681  1.0016  1.2629
 7595SOL     OW34420   3.416   0.858   9.303  0.1950  0.5041 -0.1284
 7595SOL    HW134421   3.395   0.902   9.221 -0.5955  2.0740  0.9175
 7595SOL    HW234422   3.476   0.913   9.353  0.2928 -1.0979  1.5341
 7596SOL     OW34423   2.395   3.113  12.029 -0.0718 -0.1007  0.0686
 7596SOL    HW134424   2.331   3.096  12.099  0.3054 -1.1669  0.1608
 7596SOL    HW234425   2.422   3.195  12.071  0.1401 -0.6928  1.1136
 7597SOL     OW34426   1.169   0.601  10.355 -0.2213 -0.6331  0.1276
 7597SOL    HW134427   1.126   0.519  10.379 -1.9870  0.5005  0.8012
 7597SOL    HW234428   1.231   0.613  10.427  1.5897  2.3031 -1.8642
 7598SOL     OW34429   3.647   3.600   2.930  0.5644  0.0671  0.4634
 7598SOL    HW134430   3.563   3.594   2.975 -0.0927  0.4891 -0.7002
 7598SOL    HW234431   3.627   3.598   2.836 -0.3871 -1.7472  0.7123
 7599SOL     OW34432   3.178   3.528   0.009  0.1999  0.0221  1.0235
 7599SOL    HW134433   3.116   3.543  17.690  0.4937  0.3940  0.8432
 7599SOL    HW234434   3.171   3.434   0.022  1.8989 -0.0541  1.3933
 7600SOL     OW34435   3.350   0.383   3.818  0.3892 -0.6953 -0.2564
 7600SOL    HW134436   3.338   0.437   3.896  1.3928  0.6745 -1.0522
 7600SOL    HW234437   3.444   0.365   3.818  0.4172 -0.5431  0.1612
 7601SOL     OW34438   2.569   1.582   5.362 -0.2914 -0.3135 -0.0312
 7601SOL    HW134439   2.571   1.672   5.395 -1.8549 -0.2663 -0.0244
 7601SOL    HW234440   2.616   1.601   5.281 -0.5804  1.3363  0.1902
 7602SOL     OW34441   2.538   0.246  11.531 -0.1973  0.3893  0.1294
 7602SOL    HW134442   2.504   0.216  11.615 -1.0910 -0.3300 -0.4769
 7602SOL    HW234443   2.469   0.220  11.469  0.8550 -0.3761 -0.7168
 7603SOL     OW34444   2.478   1.007  15.033 -0.1405 -0.0011  0.4002
 7603SOL    HW134445   2.550   0.996  14.970 -0.7877  0.2899 -0.3843
 7603SOL    HW234446   2.493   0.934  15.093  1.3433  0.6164  0.7917
 7604SOL     OW34447   3.566   2.513   7.196 -0.5761  0.2847 -0.1570
 7604SOL    HW134448   3.513   2.592   7.202 -1.2049 -0.3333  2.3401
 7604SOL    HW234449   3.525   2.453   7.259  1.7140 -1.3541 -0.2189
 7605SOL     OW34450   2.034   1.708   7.110 -0.3203  0.1916 -0.8232
 7605SOL    HW134451   2.037   1.793   7.065  0.6190 -0.3486 -1.7937
 7605SOL    HW234452   2.087   1.721   7.189 -0.3504 -0.8630 -0.6378
 7606SOL     OW34453   0.391   1.815  10.122 -0.0737  0.6260 -0.4807
 7606SOL    HW134454   0.375   1.723  10.100 -1.1889  0.9794 -1.1401
 7606SOL    HW234455   0.464   1.839  10.065 -0.7559  1.0302 -1.1769
 7607SOL     OW34456   4.698   2.468   9.968 -0.2799 -0.0319  0.2449
 7607SOL    HW134457   0.055   2.467   9.967 -0.2816 -0.0677  0.1042
 7607SOL    HW234458   4.686   2.423  10.051  0.5717  0.1489  0.4584
 7608SOL     OW34459   1.044   4.339   3.664  0.1459 -0.3698  0.1152
 7608SOL    HW134460   1.084   4.303   3.585 -0.0217 -0.3783  0.0345
 7608SOL    HW234461   1.071   4.429   3.644 -0.2286 -0.5078 -0.9852
 7609SOL     OW34462   1.458   1.144   2.624  0.8575 -0.1971  0.0770
 7609SOL    HW134463   1.374   1.115   2.589  0.2789 -0.6861  1.8797
 7609SOL    HW234464   1.523   1.113   2.560  2.4171  1.5279  0.8233
 7610SOL     OW34465   2.985   1.940  11.386  0.0393  0.2911  0.0468
 7610SOL    HW134466   3.051   1.976  11.446  2.1044  0.9797 -2.6259
 7610SOL    HW234467   2.913   1.949  11.448 -0.7892  0.6098 -0.9667
 7611SOL     OW34468   1.214   4.187   2.594 -0.1612 -0.0184 -0.2783
 7611SOL    HW134469   1.159   4.118   2.632  1.2106 -1.6069 -1.1604
 7611SOL    HW234470   1.217   4.248   2.668 -1.2393  0.0411 -0.2830
 7612SOL     OW34471   0.202   1.822   4.248 -0.3664 -0.5465 -0.0705
 7612SOL    HW134472   0.129   1.873   4.211 -0.6171 -0.2366  0.8438
 7612SOL    HW234473   0.143   1.748   4.264 -0.3972 -0.2206  1.3119
 7613SOL     OW34474   2.062   1.388   7.006  0.2097 -0.5185 -0.0700
 7613SOL    HW134475   1.969   1.410   6.996 -0.2126 -1.6524  1.3649
 7613SOL    HW234476   2.077   1.354   6.918  1.4859  2.2304 -0.8971
 7614SOL     OW34477   2.455   2.754  15.353  0.2959  0.4940 -0.3580
 7614SOL    HW134478   2.387   2.790  15.297 -0.7078  0.3864  0.7934
 7614SOL    HW234479   2.486   2.825  15.409  0.2257  0.4844 -0.3067
 7615SOL     OW34480   0.033   1.006  11.833 -0.5163  0.3596 -0.2238
 7615SOL    HW134481   0.032   1.052  11.917  0.3362  0.3164 -0.1921
 7615SOL    HW234482   0.102   1.048  11.783 -0.7697 -0.2394 -1.0637
 7616SOL     OW34483   0.116   2.037   4.033  0.1929  0.2434 -0.2664
 7616SOL    HW134484   0.064   2.114   4.010 -1.3418 -1.0613 -1.1459
 7616SOL    HW234485   0.141   2.002   3.948  0.4848  1.6804 -0.7818
 7617SOL     OW34486   0.538   0.196   7.535 -0.3096 -0.0991 -0.0364
 7617SOL    HW134487   0.456   0.147   7.545 -0.7438  0.7519  0.4906
 7617SOL    HW234488   0.570   0.193   7.624  1.8124 -1.4010 -0.8489
 7618SOL     OW34489   1.954   0.407   9.510  0.3220 -0.1011 -0.4529
 7618SOL    HW134490   2.030   0.379   9.460  1.7352 -1.1503  2.3290
 7618SOL    HW234491   1.913   0.462   9.443  0.2156 -1.0252 -1.1430
 7619SOL     OW34492   3.786   4.355  10.644  0.1695 -0.2339  0.1611
 7619SOL    HW134493   3.710   4.338  10.588  1.0996  3.2641 -2.1364
 7619SOL    HW234494   3.839   4.378  10.568  2.8668 -0.9179  1.8673
 7620SOL     OW34495   4.597   3.340   3.167  0.0702 -0.1336 -0.0989
 7620SOL    HW134496   4.537   3.364   3.238  0.6576 -2.1607  1.0687
 7620SOL    HW234497   4.603   3.245   3.176  0.1635 -0.1864 -0.7541
 7621SOL     OW34498   0.234   0.619   2.845  0.3087  0.0522  0.8955
 7621SOL    HW134499   0.235   0.558   2.772 -4.0470  0.3141  0.6051
 7621SOL    HW234500   0.184   0.693   2.810 -0.2307 -0.5500  0.4057
 7622SOL     OW34501   2.965   4.151  17.324  0.2146  0.1387 -0.5211
 7622SOL    HW134502   3.025   4.082  17.352 -4.4398 -4.6396 -2.4014
 7622SOL    HW234503   3.011   4.191  17.249  1.1539  0.4557  0.2232
 7623SOL     OW34504   2.070   2.378  10.986 -0.2365  0.3835  0.2090
 7623SOL    HW134505   2.000   2.433  10.951  0.2828  1.0008  0.1328
 7623SOL    HW234506   2.103   2.440  11.051 -3.6652  3.1623 -0.7172
 7624SOL     OW34507   1.637   1.362   6.613 -0.6486  0.3406 -0.1393
 7624SOL    HW134508   1.730   1.338   6.616 -0.9860 -0.9747 -0.5194
 7624SOL    HW234509   1.625   1.380   6.707  0.1407  0.2005 -0.0107
 7625SOL     OW34510   0.681   1.018   4.234 -0.1511 -0.3439  0.0601
 7625SOL    HW134511   0.597   1.036   4.276 -0.3350 -2.8203  0.6964
 7625SOL    HW234512   0.648   0.945   4.183  1.4859  1.7467 -4.0396
 7626SOL     OW34513   2.501   3.823   1.604  0.2145 -0.2791  0.4793
 7626SOL    HW134514   2.464   3.873   1.531 -1.0085 -0.1846  1.1654
 7626SOL    HW234515   2.532   3.900   1.651  0.7552  0.7839 -1.5823
 7627SOL     OW34516   4.512   0.546  15.229  0.5190  0.0116 -0.8667
 7627SOL    HW134517   4.470   0.612  15.173  0.5400  0.0752 -0.8078
 7627SOL    HW234518   4.521   0.599  15.308 -1.1937 -0.3810 -0.4159
 7628SOL     OW34519   3.572   2.283   8.376 -0.0261  0.2960 -0.4496
 7628SOL    HW134520   3.578   2.268   8.470  2.3171  0.5744 -0.5587
 7628SOL    HW234521   3.608   2.372   8.377 -2.6782  1.3776 -0.6210
 7629SOL     OW34522   1.310   2.579   6.040 -0.3023  0.1610 -0.6112
 7629SOL    HW134523   1.365   2.511   6.080 -1.1577 -1.3996 -2.0561
 7629SOL    HW234524   1.314   2.536   5.954  1.9625 -1.5956  0.3442
 7630SOL     OW34525   1.324   4.113   1.711 -0.4084 -1.1510  0.3016
 7630SOL    HW134526   1.366   4.152   1.634 -0.7019 -0.1922  0.6255
 7630SOL    HW234527   1.404   4.111   1.763 -0.8908  1.0662  1.1413
 7631SOL     OW34528   1.131   4.458   1.004 -0.3253  0.2544 -0.1171
 7631SOL    HW134529   1.161   4.380   1.051 -2.0054  1.2926  2.7397
 7631SOL    HW234530   1.133   4.424   0.915  1.5585 -0.9825  0.3889
 7632SOL     OW34531   0.854   0.055   6.159  0.1745  0.5240  0.4639
 7632SOL    HW134532   0.924   0.068   6.095 -0.5701  0.2245 -0.4094
 7632SOL    HW234533   0.786   0.011   6.108  0.1627  0.7441  0.2899
 7633SOL     OW34534   2.819   2.149  17.042 -0.0828  0.7822 -0.2107
 7633SOL    HW134535   2.784   2.206  16.973 -2.1635 -1.6691 -1.1831
 7633SOL    HW234536   2.882   2.206  17.087  0.5256  0.9083 -1.2309
 7634SOL     OW34537   3.261   3.694   2.191  0.2180  0.2633 -0.1653
 7634SOL    HW134538   3.252   3.620   2.132  2.0584 -0.2252  0.1943
 7634SOL    HW234539   3.310   3.664   2.267  0.9183  0.0359 -0.7017
 7635SOL     OW34540   2.332   0.868   6.850 -0.0418  0.2599  0.2770
 7635SOL    HW134541   2.352   0.941   6.791  1.1987  1.8250  2.6575
 7635SOL    HW234542   2.280   0.814   6.790  2.4037 -1.9168  0.1262
 7636SOL     OW34543   1.277   2.449  15.930 -0.2774 -0.0926 -0.2633
 7636SOL    HW134544   1.272   2.466  15.836  0.2427  0.3525 -0.2172
 7636SOL    HW234545   1.209   2.383  15.934  2.7749 -3.0008  3.3235
 7637SOL     OW34546   3.473   3.614   5.909 -0.4996 -0.1117  0.3025
 7637SOL    HW134547   3.546   3.587   5.853  0.0901  1.0935  0.4908
 7637SOL    HW234548   3.420   3.534   5.913  0.4658 -0.8195 -1.0026
 7638SOL     OW34549   4.478   2.552  13.304 -0.4532  0.1826  0.2662
 7638SOL    HW134550   4.570   2.570  13.282 -0.8395 -1.0942 -2.3743
 7638SOL    HW234551   4.459   2.583  13.393  0.2555  1.9701 -0.2043
 7639SOL     OW34552   1.316   3.626   5.533 -0.0763 -0.1580 -0.4327
 7639SOL    HW134553   1.285   3.640   5.443 -1.7866  0.2214  0.2177
 7639SOL    HW234554   1.409   3.605   5.524  0.1287  1.3207 -1.7869
 7640SOL     OW34555   0.640   1.285   0.299  0.6433 -0.4190  0.1168
 7640SOL    HW134556   0.693   1.346   0.352  0.6644 -1.0500  0.8252
 7640SOL    HW234557   0.556   1.331   0.297  0.2962 -1.2029 -3.0188
 7641SOL     OW34558   3.372   3.924   1.161 -0.2218  0.0840  0.4968
 7641SOL    HW134559   3.424   3.943   1.083 -1.8084  1.0705 -0.3267
 7641SOL    HW234560   3.318   3.848   1.138 -1.0673  0.2463  1.9334
 7642SOL     OW34561   3.336   0.968  11.016  0.1833 -0.0109 -0.2700
 7642SOL    HW134562   3.326   1.036  11.083  1.2432  1.2640 -1.4114
 7642SOL    HW234563   3.286   0.998  10.941  1.0090  1.0464 -0.4031
 7643SOL     OW34564   2.520   2.385   3.442  0.3380 -0.4385 -0.7140
 7643SOL    HW134565   2.443   2.397   3.387  0.2775  0.5072 -0.4340
 7643SOL    HW234566   2.589   2.396   3.376  1.2184 -0.2590  0.2361
 7644SOL     OW34567   1.690   4.282   2.932 -0.5238 -0.4622  0.1801
 7644SOL    HW134568   1.770   4.240   2.965 -2.4879 -2.9116  1.7972
 7644SOL    HW234569   1.648   4.209   2.887 -0.7103  0.5699 -1.3087
 7645SOL     OW34570   3.866   4.691  10.244  0.2853 -0.5342 -0.0697
 7645SOL    HW134571   3.889   4.711  10.153 -1.1387 -0.2627 -0.3610
 7645SOL    HW234572   3.857   0.039  10.284 -0.5673 -0.5834 -0.1682
 7646SOL     OW34573   1.079   2.500   4.263 -0.3734  0.0275  0.3351
 7646SOL    HW134574   1.025   2.429   4.297 -1.0170 -0.3910 -1.6051
 7646SOL    HW234575   1.062   2.561   4.335 -1.3942 -0.9104  0.8943
 7647SOL     OW34576   2.025   0.255   3.512 -0.2056  0.6149 -0.3659
 7647SOL    HW134577   2.001   0.201   3.437 -1.8287  0.6634  0.1076
 7647SOL    HW234578   2.021   0.342   3.472  1.3598 -0.0938 -2.0556
 7648SOL     OW34579   0.998   0.031   3.298 -0.0116 -0.8236 -0.2283
 7648SOL    HW134580   0.925   0.064   3.246  1.2073  0.5083 -1.1170
 7648SOL    HW234581   1.062   4.737   3.235  0.9612  2.5528 -0.9910
 7649SOL     OW34582   3.732   1.166   9.890  0.2931  0.0986  0.1921
 7649SOL    HW134583   3.711   1.229   9.820 -0.5819  0.5787  0.8949
 7649SOL    HW234584   3.656   1.115   9.862 -0.5482  1.6097 -0.2876
 7650SOL     OW34585   2.212   0.699   6.666 -0.0817  0.2255 -0.1703
 7650SOL    HW134586   2.120   0.703   6.694 -0.8832  2.2743 -3.1379
 7650SOL    HW234587   2.230   0.609   6.693  1.8196 -0.3064 -3.2458
 7651SOL     OW34588   4.044   3.097   8.840 -0.2695  0.2736 -0.1291
 7651SOL    HW134589   3.976   3.144   8.792  0.0130  0.0603 -0.7523
 7651SOL    HW234590   4.054   3.022   8.781  1.1791  1.5851 -1.5534
 7652SOL     OW34591   4.025   0.014  14.447  0.5845  0.0694  0.0724
 7652SOL    HW134592   3.956   4.705  14.401  2.2316 -2.2054 -0.0652
 7652SOL    HW234593   4.094   4.688  14.432  1.3998  0.7533  0.8904
 7653SOL     OW34594   0.737   4.391  13.033  0.4790  0.4361 -0.2850
 7653SOL    HW134595   0.811   4.426  13.083  0.3151  0.0721  0.2134
 7653SOL    HW234596   0.703   4.473  12.996 -1.5307 -0.4633 -0.4465
 7654SOL     OW34597   4.211   4.047   5.436 -0.5529 -0.9222  0.3648
 7654SOL    HW134598   4.204   4.020   5.528  0.7709 -1.4757  0.2980
 7654SOL    HW234599   4.225   3.963   5.393 -3.3634 -1.9457  1.4931
 7655SOL     OW34600   3.444   0.056   6.650 -0.0538  0.1043  0.0434
 7655SOL    HW134601   3.357   0.034   6.683  0.1168  1.3224  1.3102
 7655SOL    HW234602   3.433   0.120   6.580 -2.6556 -0.8599 -0.4315
 7656SOL     OW34603   0.373   1.812   4.532 -0.0783  0.1558 -0.7587
 7656SOL    HW134604   0.401   1.720   4.534 -0.4980  0.0208 -1.2926
 7656SOL    HW234605   0.323   1.818   4.451  0.4446 -2.5878 -1.2897
 7657SOL     OW34606   2.946   2.674  10.617 -0.0714  0.2711  0.1019
 7657SOL    HW134607   2.963   2.701  10.527 -0.1047 -1.5653 -0.4371
 7657SOL    HW234608   2.986   2.747  10.664 -0.7021  1.6761 -1.5418
 7658SOL     OW34609   2.798   3.062   5.485 -0.6185  0.0918 -0.3617
 7658SOL    HW134610   2.744   3.141   5.485 -3.0692 -1.5479 -2.2989
 7658SOL    HW234611   2.847   3.071   5.403  0.7406  0.4925  0.5087
 7659SOL     OW34612   4.190   0.630  12.090 -0.0215 -0.1150  0.1892
 7659SOL    HW134613   4.258   0.568  12.066  1.8630  2.0511 -0.1309
 7659SOL    HW234614   4.114   0.587  12.049  0.7863 -0.0058 -1.4310
 7660SOL     OW34615   4.603   4.483   6.500 -0.1495 -0.0860 -0.4268
 7660SOL    HW134616   4.628   4.495   6.591  1.7705  1.4684 -1.1544
 7660SOL    HW234617   4.583   4.569   6.463  2.0591  0.1373 -1.0910
 7661SOL     OW34618   3.052   4.182   7.357  0.2305 -0.4368  0.0134
 7661SOL    HW134619   3.124   4.120   7.343 -0.1855 -1.0988  0.7830
 7661SOL    HW234620   2.973   4.130   7.368  1.6087 -2.3436  0.8939
 7662SOL     OW34621   1.605   3.297   4.638 -0.2409  0.5921  0.1240
 7662SOL    HW134622   1.538   3.309   4.706  0.4291 -1.1928  1.1168
 7662SOL    HW234623   1.627   3.204   4.645 -0.7213  0.4011 -0.9495
 7663SOL     OW34624   1.185   4.238   3.898 -0.6315  0.4792  0.4415
 7663SOL    HW134625   1.195   4.315   3.842 -0.4604  2.3749  3.0937
 7663SOL    HW234626   1.090   4.246   3.905 -0.7488 -0.0557 -0.4218
 7664SOL     OW34627   2.296   0.742   7.264 -0.0896  0.1833 -0.5685
 7664SOL    HW134628   2.387   0.738   7.237  0.5250  0.2368  1.5067
 7664SOL    HW234629   2.266   0.802   7.196 -0.0220  0.4384 -0.3741
 7665SOL     OW34630   3.501   3.101   1.808  0.1537  0.0209 -0.2515
 7665SOL    HW134631   3.577   3.048   1.835 -0.7623 -0.2676  1.7142
 7665SOL    HW234632   3.439   3.029   1.795  2.4129 -2.4570  2.5184
 7666SOL     OW34633   2.352   1.713   5.094  0.3208 -0.1428 -0.1241
 7666SOL    HW134634   2.332   1.798   5.053  1.3248  1.8817  3.6219
 7666SOL    HW234635   2.438   1.740   5.127  0.0412  0.2928  0.2562
 7667SOL     OW34636   1.418   4.590   7.420  0.1987 -0.0548 -0.6102
 7667SOL    HW134637   1.383   4.679   7.432 -2.5267 -1.5036  1.9818
 7667SOL    HW234638   1.465   4.579   7.502 -2.5780 -0.5581  0.9138
 7668SOL     OW34639   2.052   2.518  11.273  0.2297  0.2920 -0.0621
 7668SOL    HW134640   2.052   2.507  11.368  0.4951  1.3772  0.0658
 7668SOL    HW234641   1.979   2.463  11.246 -0.1515  0.9819 -0.4105
 7669SOL     OW34642   0.154   0.837   9.607 -0.2842 -0.1845  0.0613
 7669SOL    HW134643   0.164   0.749   9.644  1.1773 -1.0725 -2.4097
 7669SOL    HW234644   0.061   0.859   9.602 -0.0884  0.4153 -0.9332
 7670SOL     OW34645   2.690   3.275  11.059 -0.2306 -0.2129  0.1431
 7670SOL    HW134646   2.730   3.196  11.095  0.7221  0.2131  0.0255
 7670SOL    HW234647   2.705   3.327  11.138 -0.1100 -0.2589  0.1499
 7671SOL     OW34648   1.688   0.737   4.107  0.2313  0.1299  0.0862
 7671SOL    HW134649   1.721   0.816   4.151 -1.6705  0.6474  0.5776
 7671SOL    HW234650   1.725   0.757   4.021  0.1587  2.5140  0.5897
 7672SOL     OW34651   0.265   3.130  14.131 -0.1694 -0.0739  0.3676
 7672SOL    HW134652   0.284   3.224  14.128  1.9452 -0.4773  1.6177
 7672SOL    HW234653   0.253   3.115  14.037  0.7683 -1.7018  0.5191
 7673SOL     OW34654   0.843   1.876   7.628 -0.3992  0.3008 -0.1428
 7673SOL    HW134655   0.754   1.912   7.629 -0.3677  0.3874 -0.4340
 7673SOL    HW234656   0.843   1.832   7.712 -0.1629 -0.6018 -0.6158
 7674SOL     OW34657   2.584   1.914   6.082 -0.2801  0.4807 -0.4202
 7674SOL    HW134658   2.585   1.820   6.063  0.6778  0.2905  0.5120
 7674SOL    HW234659   2.596   1.956   5.997  4.8431 -0.3266 -0.1160
 7675SOL     OW34660   0.813   4.253   2.403 -0.1201  0.1220  0.3359
 7675SOL    HW134661   0.846   4.322   2.462 -1.2765  1.2949 -0.3849
 7675SOL    HW234662   0.784   4.189   2.468 -1.0319  1.1618  0.9589
 7676SOL     OW34663   4.326   0.919   9.056  0.4509  0.0006  0.7021
 7676SOL    HW134664   4.382   0.905   9.132  1.3905 -1.2028 -0.2065
 7676SOL    HW234665   4.314   1.013   9.057  1.3216  0.1413 -1.1550
 7677SOL     OW34666   1.945   0.007   0.635 -0.1522  0.5312 -0.0613
 7677SOL    HW134667   1.986   4.726   0.551 -0.0666  0.4432  0.0028
 7677SOL    HW234668   1.999   0.080   0.666  1.0559 -0.3894 -0.0104
 7678SOL     OW34669   0.681   1.548   5.746  0.3061  0.1784 -0.2380
 7678SOL    HW134670   0.629   1.551   5.666  1.6282  0.9878 -1.0560
 7678SOL    HW234671   0.614   1.511   5.804  2.3737 -1.4138  1.1292
 7679SOL     OW34672   1.110   0.856   9.072  0.2125  0.0443 -0.2064
 7679SOL    HW134673   1.115   0.943   9.112  1.9545  0.9125 -2.2861
 7679SOL    HW234674   1.051   0.879   9.000 -1.3699 -0.4944  0.9341
 7680SOL     OW34675   1.864   1.652   6.053  0.0812  0.3587 -0.2884
 7680SOL    HW134676   1.783   1.665   6.003  0.4590 -1.5171 -1.3747
 7680SOL    HW234677   1.885   1.560   6.037 -2.5103 -0.6186  2.1345
 7681SOL     OW34678   4.218   2.374  14.348 -0.0249  0.2653  0.0943
 7681SOL    HW134679   4.290   2.426  14.383  0.3260 -0.5390  0.5666
 7681SOL    HW234680   4.154   2.443  14.334 -1.0672 -0.3207  1.9864
 7682SOL     OW34681   1.695   0.215   7.314 -0.2420 -0.4179 -0.4534
 7682SOL    HW134682   1.711   0.151   7.384  0.2407 -0.3585 -0.5104
 7682SOL    HW234683   1.630   0.275   7.351  0.6026 -1.0292  2.0626
 7683SOL     OW34684   0.153   3.662   8.528  0.6052 -0.4692 -0.5805
 7683SOL    HW134685   0.072   3.620   8.499  1.5013 -2.0199 -0.8290
 7683SOL    HW234686   0.167   3.730   8.463 -1.8183 -0.4165 -1.0537
 7684SOL     OW34687   4.047   4.092   1.986  0.4403 -0.0084  0.4238
 7684SOL    HW134688   3.992   4.020   1.956  0.5607 -0.4434  1.2321
 7684SOL    HW234689   4.074   4.128   1.902 -1.3692 -0.1554 -0.2076
 7685SOL     OW34690   4.313   2.744  10.317 -0.6004 -0.1283  0.4463
 7685SOL    HW134691   4.325   2.815  10.381  1.7566  0.6577 -0.8993
 7685SOL    HW234692   4.334   2.663  10.364 -0.2087  0.0773  0.6238
 7686SOL     OW34693   3.553   4.574  10.971  0.8448 -0.3282 -0.0330
 7686SOL    HW134694   3.487   4.622  11.021 -0.6092 -0.2254 -2.0535
 7686SOL    HW234695   3.550   4.492  11.020 -1.7240 -1.4297 -2.0285
 7687SOL     OW34696   0.542   2.439  13.941 -0.0527 -0.0617 -0.2478
 7687SOL    HW134697   0.603   2.404  14.006 -1.3004 -2.2311 -0.2667
 7687SOL    HW234698   0.593   2.514  13.908 -0.3582 -0.0036 -0.5792
 7688SOL     OW34699   4.491   1.449   5.843  0.1758 -0.3527 -0.8547
 7688SOL    HW134700   4.553   1.376   5.849  0.0002 -0.4209  0.2397
 7688SOL    HW234701   4.524   1.499   5.917 -0.6739 -1.0290 -0.0094
 7689SOL     OW34702   1.506   3.540   5.736 -0.2260  0.3196 -0.2869
 7689SOL    HW134703   1.482   3.623   5.778 -2.1258 -0.9811  1.1957
 7689SOL    HW234704   1.534   3.562   5.647  2.9608 -1.0619  0.3922
 7690SOL     OW34705   4.363   0.405   9.181 -0.0877 -0.0611  0.5230
 7690SOL    HW134706   4.453   0.411   9.148 -0.0552 -0.3043  0.5689
 7690SOL    HW234707   4.378   0.354   9.260  0.4298  0.2614  0.6358
 7691SOL     OW34708   0.118   3.041  16.560 -0.2805 -0.0839  0.3978
 7691SOL    HW134709   0.173   2.963  16.548  0.7658  1.1218 -2.6123
 7691SOL    HW234710   0.077   3.043  16.473 -1.3294  0.2059  0.9004
 7692SOL     OW34711   3.587   2.420   2.224 -0.4027 -0.7780  0.1006
 7692SOL    HW134712   3.540   2.337   2.223 -0.3078 -0.8331  0.2085
 7692SOL    HW234713   3.516   2.478   2.249  0.0777 -0.0330 -0.2651
 7693SOL     OW34714   2.908   0.444   3.353  0.2436  0.2896  0.3010
 7693SOL    HW134715   2.858   0.394   3.289  0.5798 -0.8056  0.9056
 7693SOL    HW234716   2.906   0.395   3.436 -1.9274 -0.3375 -0.1369
 7694SOL     OW34717   0.889   3.365   3.680 -0.5620 -0.2040  0.2118
 7694SOL    HW134718   0.842   3.287   3.708  0.0722 -1.2763 -1.6616
 7694SOL    HW234719   0.814   3.424   3.681 -1.1772 -0.9706 -1.6940
 7695SOL     OW34720   3.270   4.281  17.745  0.2037  0.1696  0.0439
 7695SOL    HW134721   3.214   4.204  17.740  0.1895  0.1976 -0.2481
 7695SOL    HW234722   3.204   4.330  17.695  0.5611 -0.1700 -0.7518
 7696SOL     OW34723   0.198   0.775   3.668 -0.1071 -0.3512 -0.3273
 7696SOL    HW134724   0.262   0.823   3.721 -0.6733 -0.5706  0.5492
 7696SOL    HW234725   0.131   0.746   3.729  0.2386  0.3554  0.3979
 7697SOL     OW34726   4.650   3.230   1.769 -0.7122  0.2892  0.1916
 7697SOL    HW134727   4.704   3.204   1.844  0.6874  2.3600 -0.1173
 7697SOL    HW234728   4.592   3.293   1.811 -0.2110 -0.9484  2.7568
 7698SOL     OW34729   1.335   3.511  15.765  0.0621  0.0353 -0.4542
 7698SOL    HW134730   1.292   3.426  15.779 -1.6457  1.2999  2.0500
 7698SOL    HW234731   1.350   3.505  15.671 -0.2295  1.3059 -0.5740
 7699SOL     OW34732   1.424   1.355   4.983 -0.5245  0.1482 -0.4090
 7699SOL    HW134733   1.476   1.433   4.966  0.4077  0.0948  2.1583
 7699SOL    HW234734   1.431   1.299   4.906  1.6063 -1.0254  0.6340
 7700SOL     OW34735   1.468   2.392  16.107  0.4345  0.6680  0.2484
 7700SOL    HW134736   1.407   2.332  16.150  1.3920 -0.0760  0.5704
 7700SOL    HW234737   1.406   2.436  16.049 -1.4660 -2.5152 -0.0824
 7701SOL     OW34738   1.456   4.217   6.240 -0.6648  0.3304 -0.3160
 7701SOL    HW134739   1.379   4.201   6.185 -2.3048  0.3630  1.9643
 7701SOL    HW234740   1.506   4.281   6.189  3.4489 -0.6303  2.5127
 7702SOL     OW34741   2.782   1.731   2.709  0.0438 -0.6323 -0.0183
 7702SOL    HW134742   2.738   1.723   2.625  0.8278  1.0787 -0.5855
 7702SOL    HW234743   2.715   1.688   2.761  0.1457 -1.4230 -0.5365
 7703SOL     OW34744   0.296   3.445   3.329 -0.0969  0.0292 -0.5762
 7703SOL    HW134745   0.321   3.517   3.271  0.9862  0.0015 -0.1367
 7703SOL    HW234746   0.202   3.466   3.326  0.8188  4.1613 -1.4680
 7704SOL     OW34747   3.282   1.464  12.931 -0.1841 -0.0062 -0.4322
 7704SOL    HW134748   3.290   1.473  13.026  0.3688  0.4838 -0.5245
 7704SOL    HW234749   3.205   1.408  12.921 -0.4941 -0.1169  2.3754
 7705SOL     OW34750   3.338   0.285  15.434 -0.1378 -0.5007 -0.2677
 7705SOL    HW134751   3.248   0.302  15.404 -0.2216  1.1691  0.9527
 7705SOL    HW234752   3.353   0.374  15.465 -1.2243 -1.0127  1.7002
 7706SOL     OW34753   1.428   0.575   2.051 -0.4086  0.7358 -0.0162
 7706SOL    HW134754   1.420   0.544   1.961  2.8033  1.1761 -0.4487
 7706SOL    HW234755   1.433   0.493   2.099  0.1695 -0.2035 -1.6958
 7707SOL     OW34756   3.863   4.464  15.698  0.2725  1.0292 -0.5284
 7707SOL    HW134757   3.940   4.463  15.642  1.4171  0.7924  1.0548
 7707SOL    HW234758   3.826   4.547  15.666 -1.3258  0.8673  0.9045
 7708SOL     OW34759   4.459   3.161   6.720  0.2058  0.4523  0.1493
 7708SOL    HW134760   4.502   3.212   6.651  2.1457 -2.1680 -0.5851
 7708SOL    HW234761   4.374   3.143   6.680 -0.4077 -0.1959  1.7234
 7709SOL     OW34762   4.671   3.337   7.848 -0.0644 -0.1923 -0.3292
 7709SOL    HW134763   4.702   3.304   7.764 -1.5993  2.2635 -1.8600
 7709SOL    HW234764   0.015   3.365   7.889 -0.3353  0.8311 -0.4803
 7710SOL     OW34765   1.484   1.812   1.826  0.1452 -0.2888 -0.5647
 7710SOL    HW134766   1.472   1.821   1.732 -0.4221  0.9597 -0.3790
 7710SOL    HW234767   1.475   1.718   1.839 -1.3503 -0.0118  0.4296
 7711SOL     OW34768   0.138   3.683  14.063 -0.4645 -0.2768 -0.0079
 7711SOL    HW134769   0.169   3.615  14.123 -0.1202 -1.1439 -1.1708
 7711SOL    HW234770   0.225   3.707  14.031 -0.7183 -1.7177 -1.8022
 7712SOL     OW34771   3.858   2.088   5.281 -0.0761 -0.2712 -0.3122
 7712SOL    HW134772   3.879   2.147   5.209  1.1950 -2.6810 -1.9064
 7712SOL    HW234773   3.811   2.147   5.340 -0.5975 -0.8597 -0.1374
 7713SOL     OW34774   2.949   4.467   4.757  0.4997 -0.2937 -0.5021
 7713SOL    HW134775   3.034   4.512   4.755  1.8828 -2.8895 -0.2037
 7713SOL    HW234776   2.917   4.485   4.669 -2.3232 -0.0088  0.5874
 7714SOL     OW34777   2.668   1.740   2.455  0.2842  0.0601  0.2500
 7714SOL    HW134778   2.751   1.782   2.434 -0.0912 -0.5549 -2.4071
 7714SOL    HW234779   2.665   1.660   2.403  2.3556 -0.3032  0.7117
 7715SOL     OW34780   2.259   4.664   3.257  0.0472  0.8183  1.1890
 7715SOL    HW134781   2.348   4.689   3.281  0.7421  1.8789 -2.3967
 7715SOL    HW234782   2.270   4.626   3.170  0.2562  0.1300  1.5203
 7716SOL     OW34783   3.332   2.920   3.228  0.3146 -0.0049 -0.2720
 7716SOL    HW134784   3.281   2.851   3.187 -1.0024  1.3743 -0.9501
 7716SOL    HW234785   3.347   2.881   3.314 -2.0944  0.0808  0.1800
 7717SOL     OW34786   1.853   0.426  16.854  0.1861  0.1188 -0.3090
 7717SOL    HW134787   1.799   0.497  16.888 -1.2061 -1.6231  1.1046
 7717SOL    HW234788   1.790   0.403  16.786 -1.9260 -1.9431  2.3569
 7718SOL     OW34789   1.572   0.076   7.974  0.9814 -0.3810 -0.2476
 7718SOL    HW134790   1.595   0.159   8.016 -3.2804  0.5022  0.3230
 7718SOL    HW234791   1.655   0.049   7.935  0.2057  0.2991 -2.3221
 7719SOL     OW34792   0.492   2.493  11.819 -0.3229 -0.8209  0.2895
 7719SOL    HW134793   0.545   2.529  11.890 -1.2674 -0.1092  0.6398
 7719SOL    HW234794   0.562   2.453  11.768 -1.8234 -0.7223 -1.8842
 7720SOL     OW34795   2.312   2.390   0.432  0.0188 -0.1420 -0.0855
 7720SOL    HW134796   2.245   2.330   0.465  0.2020  0.3361  1.1776
 7720SOL    HW234797   2.384   2.382   0.494  0.9181  0.2851 -1.0798
 7721SOL     OW34798   0.335   4.179   5.534 -0.5461  0.1242 -0.1782
 7721SOL    HW134799   0.356   4.257   5.481 -2.8832  1.2249  0.5093
 7721SOL    HW234800   0.240   4.193   5.531 -0.7944 -1.1769  1.3634
 7722SOL     OW34801   3.401   3.776   4.452  0.0553  0.3680  0.5236
 7722SOL    HW134802   3.421   3.771   4.545 -0.0392  0.6124  0.5586
 7722SOL    HW234803   3.358   3.693   4.434 -0.8950  1.2347 -1.3115
 7723SOL     OW34804   2.409   3.228   9.051 -0.2001  0.1176  0.1665
 7723SOL    HW134805   2.489   3.180   9.072  0.5374  0.9796 -0.6158
 7723SOL    HW234806   2.419   3.239   8.956 -0.6015  0.0320  0.1163
 7724SOL     OW34807   2.551   4.403  16.243 -0.0717 -0.0201  0.0226
 7724SOL    HW134808   2.539   4.411  16.149  0.2544  1.4164  0.1061
 7724SOL    HW234809   2.627   4.345  16.234  0.8559  1.6042 -2.6332
 7725SOL     OW34810   2.154   4.609   3.520  0.5876  0.0492 -0.2670
 7725SOL    HW134811   2.093   4.552   3.474  0.2773  0.2322 -0.0750
 7725SOL    HW234812   2.199   4.638   3.440 -1.0456  0.9062 -0.8622
 7726SOL     OW34813   2.670   4.197   4.509 -0.4798 -0.4745  0.2454
 7726SOL    HW134814   2.706   4.286   4.514  0.9908 -0.9523 -1.7875
 7726SOL    HW234815   2.624   4.198   4.425  0.2471  1.2274 -0.1284
 7727SOL     OW34816   4.334   1.614  14.853  0.2876  0.3612 -0.0937
 7727SOL    HW134817   4.241   1.593  14.848 -0.1282  1.7034  1.8086
 7727SOL    HW234818   4.352   1.604  14.947  2.5568 -2.2507 -0.8145
 7728SOL     OW34819   0.015   0.450   1.812  0.4505  0.5556 -0.3484
 7728SOL    HW134820   0.097   0.402   1.797  0.3276  0.0303  0.6821
 7728SOL    HW234821   0.056   0.516   1.869 -0.2620 -0.6362  1.5257
 7729SOL     OW34822   0.349   1.886   7.294 -0.5851 -1.0418  0.1280
 7729SOL    HW134823   0.276   1.824   7.297 -0.2428 -1.3612  1.6329
 7729SOL    HW234824   0.353   1.914   7.385 -0.4340  0.9071 -0.4672
 7730SOL     OW34825   0.241   3.838   7.058 -0.5954 -0.3910 -0.1591
 7730SOL    HW134826   0.233   3.876   6.971  1.1892  3.8797  1.5926
 7730SOL    HW234827   0.324   3.792   7.051  0.2072  0.8772  1.1114
 7731SOL     OW34828   0.644   0.773   2.936  0.1636 -0.5805 -0.2372
 7731SOL    HW134829   0.722   0.774   2.881  0.5753  0.0131  0.3531
 7731SOL    HW234830   0.594   0.843   2.895  0.6890  0.5086  0.9608
 7732SOL     OW34831   0.149   3.976   2.988  0.3414  0.3906 -0.1828
 7732SOL    HW134832   0.071   3.992   2.935 -1.1226 -1.2268  1.4973
 7732SOL    HW234833   0.154   3.881   2.996  0.2667  0.3546 -0.5708
 7733SOL     OW34834   3.193   2.289   5.355 -0.0581 -0.2460  0.1809
 7733SOL    HW134835   3.278   2.332   5.366  0.2502 -0.9475  0.4718
 7733SOL    HW234836   3.177   2.299   5.261  0.0501  1.4035  0.3265
 7734SOL     OW34837   4.488   3.531   8.202  0.1645  0.0566  0.1448
 7734SOL    HW134838   4.396   3.515   8.225 -0.1194  1.8165  0.1815
 7734SOL    HW234839   4.477   3.576   8.119 -2.2000  0.3265  0.6154
 7735SOL     OW34840   3.136   2.986  17.449 -0.6122 -0.2924 -0.1920
 7735SOL    HW134841   3.133   2.962  17.356 -0.5156 -1.0437 -0.0036
 7735SOL    HW234842   3.080   3.063  17.451 -0.6878 -0.3637  0.4599
 7736SOL     OW34843   3.364   1.689   7.640  0.0385 -0.2370 -0.2622
 7736SOL    HW134844   3.428   1.618   7.639  1.8044  1.3618  2.7895
 7736SOL    HW234845   3.324   1.686   7.553  1.9566 -1.6639 -1.1096
 7737SOL     OW34846   3.800   2.574   0.083  0.1710  0.3349  0.0780
 7737SOL    HW134847   3.734   2.583   0.014 -2.0113  1.2156  2.2969
 7737SOL    HW234848   3.846   2.653   0.053 -0.1342 -0.2262 -1.8752
 7738SOL     OW34849   2.509   0.153   9.039  0.3013 -0.0918  0.2868
 7738SOL    HW134850   2.532   0.174   9.130  0.4709 -0.6337  0.3681
 7738SOL    HW234851   2.539   0.063   9.026  0.8544  0.0384  0.6655
 7739SOL     OW34852   1.861   1.814  12.823 -0.0401  0.4039  0.3500
 7739SOL    HW134853   1.912   1.749  12.871 -2.4073 -2.5488 -1.1487
 7739SOL    HW234854   1.903   1.822  12.737  0.5683  0.6416  0.6653
 7740SOL     OW34855   4.349   1.958   3.901 -0.2587  0.1673 -0.1669
 7740SOL    HW134856   4.306   2.042   3.919  0.3110  0.6256 -0.9098
 7740SOL    HW234857   4.293   1.939   3.825  0.8572  0.9787 -1.1932
 7741SOL     OW34858   0.448   2.655   6.816 -0.8401  0.1733 -0.3839
 7741SOL    HW134859   0.439   2.733   6.871  1.0930 -1.0816  1.6874
 7741SOL    HW234860   0.543   2.655   6.803 -1.0812  1.1250 -2.1353
 7742SOL     OW34861   1.990   0.640   5.143  0.0387  0.2554 -0.0214
 7742SOL    HW134862   2.081   0.635   5.114 -0.0901  0.3742 -0.4490
 7742SOL    HW234863   2.008   0.713   5.202  0.5811  0.8671 -0.9563
 7743SOL     OW34864   0.923   1.186   8.211 -0.2608  0.5004 -0.5848
 7743SOL    HW134865   0.994   1.238   8.248 -0.2441  1.1038 -1.4499
 7743SOL    HW234866   0.854   1.240   8.251  0.4145  0.6050  0.4295
 7744SOL     OW34867   0.118   1.857   2.581 -0.3449  0.1669  0.0833
 7744SOL    HW134868   0.155   1.943   2.600 -0.8274  0.6943 -1.3406
 7744SOL    HW234869   0.089   1.826   2.667  3.4759  0.0729  1.3355
 7745SOL     OW34870   0.560   4.080   6.304 -0.2168 -0.0950  0.0729
 7745SOL    HW134871   0.589   4.012   6.243  0.8917  0.2379  0.2265
 7745SOL    HW234872   0.646   4.106   6.338  0.2357  1.6837 -2.4425
 7746SOL     OW34873   0.025   3.181  16.771 -0.5837 -0.2894 -0.3748
 7746SOL    HW134874   0.051   3.110  16.712  1.8952  0.9030 -0.7283
 7746SOL    HW234875   0.079   3.251  16.733 -0.7505  1.5012  2.7052
 7747SOL     OW34876   1.548   1.970   4.447 -0.3926 -0.0824 -0.0830
 7747SOL    HW134877   1.585   1.884   4.427  0.0657  0.6323 -2.3037
 7747SOL    HW234878   1.564   2.024   4.370  0.0063 -2.0979 -1.4249
 7748SOL     OW34879   4.300   4.000   8.376 -0.5442 -0.0160 -0.5155
 7748SOL    HW134880   4.386   3.997   8.419 -0.2666 -2.0284 -1.2031
 7748SOL    HW234881   4.269   3.910   8.390 -1.0106  0.2882  0.3742
 7749SOL     OW34882   0.003   0.032  13.742  0.3424 -0.1343 -0.0085
 7749SOL    HW134883   4.684   0.106  13.761  0.0848 -0.6301  1.1468
 7749SOL    HW234884   4.677   4.700  13.744  0.9502 -0.7224 -1.3575
 7750SOL     OW34885   4.318   2.016  17.011  0.2662 -0.0829  0.0409
 7750SOL    HW134886   4.229   2.007  16.977 -0.0991  0.1517  0.9155
 7750SOL    HW234887   4.333   2.106  16.984 -0.7318  0.2579  0.6256
 7751SOL     OW34888   4.642   2.739   1.154 -0.2582 -0.1044 -0.2534
 7751SOL    HW134889   4.549   2.737   1.174  0.1281 -0.9713  1.4675
 7751SOL    HW234890   4.670   2.663   1.206 -0.1548  0.2205  0.1707
 7752SOL     OW34891   1.123   4.009   1.574 -0.0207 -0.1591 -0.3200
 7752SOL    HW134892   1.091   4.086   1.527 -1.2018 -0.2186  0.3694
 7752SOL    HW234893   1.177   4.052   1.640  0.5374 -1.3864  0.0067
 7753SOL     OW34894   0.199   1.229   7.037 -0.0518 -0.0469  0.8012
 7753SOL    HW134895   0.128   1.235   7.101 -0.4788  1.5355  0.1646
 7753SOL    HW234896   0.274   1.216   7.095 -0.9674 -0.5193  1.8864
 7754SOL     OW34897   4.142   2.487   7.598 -0.1413  0.3545  0.1371
 7754SOL    HW134898   4.186   2.496   7.514 -0.9278 -0.3958 -0.3519
 7754SOL    HW234899   4.054   2.455   7.577  0.8055 -1.2070 -1.4186
 7755SOL     OW34900   3.096   0.345   6.646  0.0060 -0.3192  0.2215
 7755SOL    HW134901   3.078   0.439   6.655 -2.9289 -0.8107 -0.3787
 7755SOL    HW234902   3.081   0.308   6.733 -0.5128 -2.1474 -0.6412
 7756SOL     OW34903   3.645   3.777  15.706  0.0110  0.0181 -0.4095
 7756SOL    HW134904   3.599   3.730  15.636  2.2758  1.7394 -3.0328
 7756SOL    HW234905   3.655   3.707  15.771 -0.4948  0.5124  0.2110
 7757SOL     OW34906   1.473   4.393  14.728 -0.3508 -0.1499 -0.4588
 7757SOL    HW134907   1.450   4.322  14.788  1.1485  0.6301  1.0358
 7757SOL    HW234908   1.403   4.454  14.751  0.6261  0.5859  0.5905
 7758SOL     OW34909   1.426   3.118   2.017 -0.7256 -1.1313  0.0590
 7758SOL    HW134910   1.366   3.174   2.067 -0.0866 -0.4156  0.0161
 7758SOL    HW234911   1.433   3.162   1.932 -2.0908 -0.5529  0.2366
 7759SOL     OW34912   4.463   0.575   2.508 -0.3661 -0.6898 -0.3354
 7759SOL    HW134913   4.417   0.545   2.429  0.2415  0.3944 -1.1072
 7759SOL    HW234914   4.457   0.497   2.563 -0.5089 -0.5713 -0.1818
 7760SOL     OW34915   3.667   0.350   4.435  0.1169 -0.1712 -0.2641
 7760SOL    HW134916   3.592   0.390   4.478  1.4068  2.5562 -0.5081
 7760SOL    HW234917   3.656   0.383   4.346 -3.0555 -1.8723 -0.4876
 7761SOL     OW34918   0.006   2.680   5.328 -0.2614  0.3229  0.3990
 7761SOL    HW134919   4.699   2.646   5.405  1.2187  0.2685  1.2462
 7761SOL    HW234920   0.033   2.597   5.289  2.3433  0.0061  2.8671
 7762SOL     OW34921   4.073   0.986   2.152 -0.4207 -0.5170  0.0871
 7762SOL    HW134922   4.165   0.981   2.125 -0.1563 -1.7551  1.2243
 7762SOL    HW234923   4.063   0.910   2.209 -2.1837 -0.4239 -0.1107
 7763SOL     OW34924   0.078   2.233  12.962 -0.0582  0.0575 -0.3459
 7763SOL    HW134925   0.163   2.261  12.995 -0.0330 -0.1156 -0.2634
 7763SOL    HW234926   0.040   2.320  12.953 -1.2775 -0.3737  0.7808
 7764SOL     OW34927   2.385   3.115   0.649  1.1294 -0.0813 -0.6688
 7764SOL    HW134928   2.403   3.082   0.737  0.4851  1.2165 -0.0517
 7764SOL    HW234929   2.459   3.174   0.635 -0.7075  2.3477 -0.1961
 7765SOL     OW34930   3.143   3.329   1.208  0.4722  0.2404  0.6533
 7765SOL    HW134931   3.109   3.380   1.281 -1.6869 -0.4017  0.1019
 7765SOL    HW234932   3.144   3.240   1.241  0.1817  0.2678  0.7379
 7766SOL     OW34933   2.670   3.524   5.188 -0.1691  0.3906  0.1952
 7766SOL    HW134934   2.602   3.491   5.247 -0.1726 -0.2983 -0.2012
 7766SOL    HW234935   2.622   3.570   5.119 -2.3938 -1.2973  0.6255
 7767SOL     OW34936   1.228   3.852   6.979 -0.0478  0.3009  0.1692
 7767SOL    HW134937   1.172   3.930   6.979  1.1618  1.1612 -0.8352
 7767SOL    HW234938   1.319   3.881   6.977  1.2851 -3.9325 -0.6908
 7768SOL     OW34939   0.913   3.045  13.900 -0.2519 -0.5178  0.3569
 7768SOL    HW134940   0.950   3.022  13.985  1.3303 -1.3988 -0.5762
 7768SOL    HW234941   0.857   3.117  13.930 -0.9727 -0.4144 -1.2468
 7769SOL     OW34942   3.819   4.592   5.205  0.7004 -0.3761  0.0100
 7769SOL    HW134943   3.807   4.687   5.212 -0.6989 -0.4934 -0.7914
 7769SOL    HW234944   3.746   4.563   5.259  0.4927 -0.2327 -0.1927
 7770SOL     OW34945   3.419   4.366  12.619  0.4488  0.0040 -0.0145
 7770SOL    HW134946   3.409   4.383  12.526  0.0409  2.4014  0.4517
 7770SOL    HW234947   3.335   4.390  12.659  0.0173 -0.4305 -0.6597
 7771SOL     OW34948   0.571   1.905   6.087 -0.4658 -0.0938 -0.3362
 7771SOL    HW134949   0.665   1.921   6.092 -0.6773  0.0538  2.9679
 7771SOL    HW234950   0.533   1.992   6.095  0.1727  0.0120  1.4218
 7772SOL     OW34951   2.321   2.378   3.262 -0.0508  0.4296 -0.2417
 7772SOL    HW134952   2.340   2.285   3.253  1.9380  0.9374 -1.3070
 7772SOL    HW234953   2.227   2.370   3.281  0.1036  2.3603  1.2791
 7773SOL     OW34954   1.833   3.506   7.734  0.6631 -0.1737  0.5279
 7773SOL    HW134955   1.867   3.569   7.798  0.7733  1.1670 -0.8596
 7773SOL    HW234956   1.752   3.545   7.702  0.7592 -0.4462 -0.0469
 7774SOL     OW34957   0.421   4.326   0.589  0.4530  0.4074  0.1349
 7774SOL    HW134958   0.344   4.306   0.536 -0.2522  0.9405  0.9593
 7774SOL    HW234959   0.437   4.419   0.572 -0.5026  0.7232  0.8906
 7775SOL     OW34960   4.343   0.318  13.732 -0.4103  0.2850  0.0627
 7775SOL    HW134961   4.299   0.398  13.703  2.4740  1.6660 -0.5435
 7775SOL    HW234962   4.262   0.268  13.740  0.0231 -0.4799 -0.4638
 7776SOL     OW34963   0.227   0.220   4.722  0.0855 -0.2146  0.4970
 7776SOL    HW134964   0.280   0.286   4.769  1.3681 -0.7575 -0.1814
 7776SOL    HW234965   0.244   0.237   4.629  1.4527 -4.2934  0.0343
 7777SOL     OW34966   0.903   1.140   2.722 -0.0650  0.5391  0.5558
 7777SOL    HW134967   0.839   1.105   2.660  0.4656  2.1673 -0.9050
 7777SOL    HW234968   0.977   1.079   2.723  1.2586  2.1595  1.7527
 7778SOL     OW34969   0.935   4.562  16.030  0.4893  0.7194  0.3081
 7778SOL    HW134970   0.894   4.593  16.111  0.9783  1.3415  0.3156
 7778SOL    HW234971   0.856   4.526  15.990  0.4262 -0.0929  1.1586
 7779SOL     OW34972   2.691   0.250   9.659  0.5263 -0.0601  0.2099
 7779SOL    HW134973   2.766   0.292   9.616  0.7703  0.0447  0.7358
 7779SOL    HW234974   2.632   0.324   9.672 -1.5603 -1.2399 -2.5565
 7780SOL     OW34975   2.940   3.254   2.043  0.1522  0.0990  0.3579
 7780SOL    HW134976   2.972   3.325   2.098  1.0872 -0.9955  1.2480
 7780SOL    HW234977   3.020   3.205   2.023 -2.2191 -3.0967 -1.2524
 7781SOL     OW34978   3.158   3.697   1.879  0.7128 -0.1749  0.6883
 7781SOL    HW134979   3.200   3.782   1.895 -0.0779  0.3427 -0.0227
 7781SOL    HW234980   3.079   3.707   1.931 -0.2893 -1.1095 -0.6562
 7782SOL     OW34981   2.383   4.058   5.276  0.0690  0.2416 -0.2074
 7782SOL    HW134982   2.410   4.043   5.185 -0.2093 -0.8824 -0.1087
 7782SOL    HW234983   2.294   4.092   5.261  0.0976 -0.8427 -2.9555
 7783SOL     OW34984   2.906   4.172   8.866 -0.2214 -0.3790  0.2114
 7783SOL    HW134985   2.877   4.088   8.900 -2.1939  0.1812 -0.0546
 7783SOL    HW234986   2.832   4.225   8.896 -0.7909 -1.9634  1.6019
 7784SOL     OW34987   2.424   1.663  10.664  0.0864 -0.3057 -0.0578
 7784SOL    HW134988   2.450   1.686  10.753 -0.8959 -1.6027  0.5720
 7784SOL    HW234989   2.500   1.683  10.609  0.8396 -2.7141  0.0687
 7785SOL     OW34990   4.522   0.684   2.912  0.1004  0.2149  0.3129
 7785SOL    HW134991   4.465   0.700   2.987  0.1984 -1.9095  0.8376
 7785SOL    HW234992   4.477   0.603   2.889  1.2505 -0.0942 -0.8489
 7786SOL     OW34993   4.248   1.514   7.545 -0.2318  0.7512  0.3267
 7786SOL    HW134994   4.259   1.441   7.606 -0.5954  1.7961  1.6349
 7786SOL    HW234995   4.338   1.538   7.524  0.0150  0.2816  0.8519
 7787SOL     OW34996   2.511   0.887   2.674  0.5104 -0.2708  0.2291
 7787SOL    HW134997   2.567   0.828   2.623 -0.0427 -1.0039  0.4786
 7787SOL    HW234998   2.431   0.883   2.621  0.1544  1.4845  0.6325
 7788SOL     OW34999   3.163   2.802  15.254 -0.4201  0.0080  0.6619
 7788SOL    HW135000   3.083   2.854  15.261 -0.0819  0.4213  1.4550
 7788SOL    HW235001   3.122   2.721  15.285 -0.5898 -0.1643 -0.0104
 7789SOL     OW35002   2.992   0.254   6.918  0.0776  0.1283 -0.1264
 7789SOL    HW135003   2.928   0.188   6.946  0.5167  0.4153  1.5269
 7789SOL    HW235004   3.071   0.202   6.932 -1.7676 -2.4526  0.7407
 7790SOL     OW35005   4.455   3.000   3.704 -0.0349  0.1566 -0.4356
 7790SOL    HW135006   4.505   2.918   3.712  0.2318  0.2067 -1.5597
 7790SOL    HW235007   4.364   2.983   3.726  0.0598 -2.1625 -1.7832
 7791SOL     OW35008   0.182   0.015  16.808 -0.2115  0.7281 -0.0287
 7791SOL    HW135009   0.267   0.039  16.847 -0.1733  0.4193  0.0787
 7791SOL    HW235010   0.217   0.004  16.720  0.5350  0.9857  0.2273
 7792SOL     OW35011   0.664   2.500   7.105  0.4132  0.0876  0.2677
 7792SOL    HW135012   0.584   2.551   7.095  1.0666  0.8589 -0.9739
 7792SOL    HW235013   0.653   2.426   7.046 -1.7249  1.3871 -0.9707
 7793SOL     OW35014   2.070   0.609  12.470  0.3288 -0.4389  0.2561
 7793SOL    HW135015   2.147   0.598  12.413 -0.5405 -1.1981 -0.7759
 7793SOL    HW235016   2.069   0.704  12.463  0.6149 -0.5105 -0.7239
 7794SOL     OW35017   4.513   4.161   4.429  0.4088  0.1666 -0.0122
 7794SOL    HW135018   4.431   4.181   4.385 -0.8073  0.4367  2.3888
 7794SOL    HW235019   4.500   4.067   4.444 -0.3979  0.2827  0.0022
 7795SOL     OW35020   1.065   2.954   2.130 -0.0152  0.2847 -0.1256
 7795SOL    HW135021   1.106   3.021   2.184  0.9535  0.0087 -0.5110
 7795SOL    HW235022   1.144   2.926   2.082  0.8500 -0.0934  1.4987
 7796SOL     OW35023   2.484   2.619   6.024  0.2960  0.7405  0.3891
 7796SOL    HW135024   2.486   2.531   5.984  0.3229  1.5901 -1.4967
 7796SOL    HW235025   2.407   2.656   5.981 -0.1205 -1.4931 -0.8390
 7797SOL     OW35026   2.890   4.442   2.754 -0.0690  0.0307  0.3745
 7797SOL    HW135027   2.848   4.409   2.834  1.2311 -2.7768 -0.1200
 7797SOL    HW235028   2.963   4.382   2.768 -1.0260 -1.2138  0.0913
 7798SOL     OW35029   2.728   1.912   8.819  0.4504  0.3521  0.8026
 7798SOL    HW135030   2.667   1.921   8.746  1.3073  2.4123  0.3335
 7798SOL    HW235031   2.743   2.005   8.836  1.4079  0.0156  1.7997
 7799SOL     OW35032   0.454   3.484   8.119  0.3598  0.6346  0.3900
 7799SOL    HW135033   0.495   3.549   8.176 -0.8703  1.4329  0.3505
 7799SOL    HW235034   0.384   3.540   8.088 -1.4755 -2.1240 -0.4654
 7800SOL     OW35035   2.913   4.532  17.130  0.7845  0.2015  0.1770
 7800SOL    HW135036   2.900   4.507  17.039 -2.6163  1.1219  0.4046
 7800SOL    HW235037   2.825   4.527  17.169  0.4570  0.3802 -0.5343
 7801SOL     OW35038   4.691   2.814  13.275 -0.1380  0.1749 -0.6686
 7801SOL    HW135039   4.719   2.758  13.202 -1.2319  0.1364 -1.0569
 7801SOL    HW235040   4.663   2.882  13.214 -1.1516  0.4177  0.0892
 7802SOL     OW35041   0.215   3.361   9.874 -0.3545 -0.6883  0.1951
 7802SOL    HW135042   0.120   3.371   9.866 -0.2736 -0.3983 -0.4610
 7802SOL    HW235043   0.233   3.406   9.956 -0.0941  1.5492 -1.0907
 7803SOL     OW35044   2.707   1.947  17.213  0.2305 -0.3012 -0.0481
 7803SOL    HW135045   2.761   2.001  17.156  1.6880 -0.7710  0.9004
 7803SOL    HW235046   2.623   1.987  17.190  1.6529  2.5814 -0.0893
 7804SOL     OW35047   0.046   1.413   8.188  0.5349 -0.4805 -0.1202
 7804SOL    HW135048   4.696   1.377   8.196 -0.1288  0.8176 -1.7130
 7804SOL    HW235049   0.108   1.340   8.190 -0.6802 -1.5107  0.1838
 7805SOL     OW35050   2.208   1.033   4.643 -0.5003 -0.7108 -0.1986
 7805SOL    HW135051   2.143   0.973   4.607 -0.4387 -0.4502 -0.7317
 7805SOL    HW235052   2.185   1.029   4.736  3.2436  0.2110  0.7823
 7806SOL     OW35053   1.086   0.055   9.381  0.0305 -0.3556  0.5516
 7806SOL    HW135054   0.999   0.089   9.405  0.5799  2.1231 -0.9297
 7806SOL    HW235055   1.116   0.013   9.461  2.5311 -1.1445 -0.8070
 7807SOL     OW35056   0.866   0.999   6.855 -0.2182 -0.0205  0.0653
 7807SOL    HW135057   0.902   1.060   6.919  0.3109 -0.6639  0.3781
 7807SOL    HW235058   0.910   1.016   6.772  1.5659 -0.6493  0.8866
 7808SOL     OW35059   4.184   3.763   9.759 -0.1761  0.2064 -0.2650
 7808SOL    HW135060   4.225   3.701   9.819  0.8910  3.0245  1.9170
 7808SOL    HW235061   4.152   3.710   9.686 -2.8550  0.6333  0.5795
 7809SOL     OW35062   3.581   2.407   0.697  0.7987  0.1822 -0.1882
 7809SOL    HW135063   3.566   2.413   0.603 -0.3425  0.6933  0.0285
 7809SOL    HW235064   3.676   2.412   0.685  0.8058 -1.2135 -0.7057
 7810SOL     OW35065   1.633   0.386  10.391 -0.1158  0.3007 -0.0495
 7810SOL    HW135066   1.637   0.474  10.428 -1.3846  0.4501 -0.2897
 7810SOL    HW235067   1.548   0.352  10.418 -0.0341 -1.2784 -1.7562
 7811SOL     OW35068   0.389   1.512  16.132 -0.3492 -0.1153 -0.4576
 7811SOL    HW135069   0.465   1.559  16.165 -0.0720 -1.3429  0.6681
 7811SOL    HW235070   0.417   1.425  16.103  0.9034  0.5552 -1.2463
 7812SOL     OW35071   3.956   2.725   1.252  0.0759  0.0612 -0.5150
 7812SOL    HW135072   3.993   2.639   1.234  1.6697  0.7618 -0.5709
 7812SOL    HW235073   3.882   2.727   1.191  0.4339  2.1037 -0.9016
 7813SOL     OW35074   0.163   1.571   0.271 -0.8331  0.4176  0.7280
 7813SOL    HW135075   0.163   1.632   0.345 -1.8291  2.0521 -0.6274
 7813SOL    HW235076   0.078   1.527   0.272  0.0320 -1.2360  0.8970
 7814SOL     OW35077   0.101   3.845   8.976 -0.4173  0.3083  0.1298
 7814SOL    HW135078   0.022   3.791   8.982 -2.1034  3.0127  2.5283
 7814SOL    HW235079   0.132   3.843   9.066  0.1214  1.8657 -0.0248
 7815SOL     OW35080   4.627   0.468   6.945  0.5027 -0.3230 -0.0197
 7815SOL    HW135081   4.573   0.390   6.947  1.6253 -1.0423  3.5876
 7815SOL    HW235082   4.609   0.502   6.857 -2.5967  0.8761  1.0619
 7816SOL     OW35083   2.450   2.399   7.369 -0.3954 -0.0836 -0.5768
 7816SOL    HW135084   2.463   2.304   7.376 -0.3004  0.0412  1.0588
 7816SOL    HW235085   2.483   2.414   7.458 -0.2532  0.8243 -0.7804
 7817SOL     OW35086   1.402   1.075  10.896  0.0318  0.3384 -0.1703
 7817SOL    HW135087   1.374   1.129  10.970  2.3252  0.5316  0.5578
 7817SOL    HW235088   1.487   1.120  10.888  0.0060  0.4855  0.3698
 7818SOL     OW35089   2.869   2.183   3.774 -0.0993 -0.1244  0.0538
 7818SOL    HW135090   2.859   2.275   3.799 -0.0284 -0.4981  1.4548
 7818SOL    HW235091   2.957   2.173   3.812 -0.3009 -0.7961  0.3461
 7819SOL     OW35092   3.076   2.606   2.059  0.2040 -0.9749 -0.4115
 7819SOL    HW135093   2.993   2.652   2.045  0.2465  0.0523  2.8073
 7819SOL    HW235094   3.055   2.555   2.137  1.0150  2.2511  1.9083
 7820SOL     OW35095   4.278   2.481  12.943  0.1320 -0.1111 -0.2207
 7820SOL    HW135096   4.188   2.510  12.959  0.5469 -0.3168  2.4882
 7820SOL    HW235097   4.267   2.438  12.858 -2.4163 -1.1479  0.6101
 7821SOL     OW35098   3.313   2.529  16.908 -0.9374 -0.2804  0.0134
 7821SOL    HW135099   3.262   2.467  16.855 -0.6678 -0.1620 -0.3838
 7821SOL    HW235100   3.271   2.611  16.880  0.2405 -0.0020 -0.9193
 7822SOL     OW35101   3.480   2.784   5.299 -0.0771 -0.5191 -0.1721
 7822SOL    HW135102   3.543   2.810   5.232  0.4657  3.1691  1.7712
 7822SOL    HW235103   3.536   2.719   5.342  2.3810 -0.0414 -2.6708
 7823SOL     OW35104   0.167   3.679   3.081  0.2651  0.6192  0.6084
 7823SOL    HW135105   0.192   3.717   3.165  4.2007  1.1740 -0.7900
 7823SOL    HW235106   0.116   3.605   3.113 -2.3395  1.3944 -1.7207
 7824SOL     OW35107   2.932   0.628   3.015  0.1477 -0.4647  0.3341
 7824SOL    HW135108   2.944   0.610   3.108 -2.1131 -0.2460  0.6740
 7824SOL    HW235109   2.844   0.666   3.012  1.1433  1.7896 -0.4079
 7825SOL     OW35110   2.587   2.217  12.329 -0.4229  0.2514 -0.4641
 7825SOL    HW135111   2.673   2.232  12.368 -1.3508 -0.2666  1.7602
 7825SOL    HW235112   2.527   2.274  12.377 -1.0320  0.2709 -1.2393
 7826SOL     OW35113   4.173   0.106   4.856 -0.5328 -0.0989 -0.8599
 7826SOL    HW135114   4.227   0.181   4.881  0.6482 -0.3708 -2.6835
 7826SOL    HW235115   4.234   0.033   4.863 -1.0076 -0.2385  2.0924
 7827SOL     OW35116   2.790   1.270   7.381 -0.2347  0.0985 -0.3587
 7827SOL    HW135117   2.716   1.225   7.420 -1.9346  4.1716  1.1456
 7827SOL    HW235118   2.748   1.354   7.362  0.3633  0.6308  0.6305
 7828SOL     OW35119   2.286   2.732   6.680  0.0362  0.2078  0.7667
 7828SOL    HW135120   2.293   2.721   6.775  0.4063  0.8125  0.8101
 7828SOL    HW235121   2.349   2.666   6.649  1.8055  2.6347 -0.7435
 7829SOL     OW35122   2.916   0.003   6.137 -0.1733  0.3690  0.0277
 7829SOL    HW135123   2.999   4.713   6.099 -0.1124  1.8488 -0.9234
 7829SOL    HW235124   2.892   4.661   6.183 -0.8683  0.4362 -0.2242
 7830SOL     OW35125   0.655   1.229   2.310 -0.6142 -0.1633  0.3681
 7830SOL    HW135126   0.692   1.213   2.223 -1.5395  1.1648 -0.2788
 7830SOL    HW235127   0.565   1.214   2.282 -0.4034 -1.1217  0.2237
 7831SOL     OW35128   0.555   2.359   5.186 -0.6333 -0.2062  0.3984
 7831SOL    HW135129   0.608   2.368   5.265 -1.0410 -0.6077  0.7188
 7831SOL    HW235130   0.499   2.437   5.193  1.0496  1.0673 -0.3550
 7832SOL     OW35131   3.435   2.367   7.365  0.2424  0.0610  0.5762
 7832SOL    HW135132   3.373   2.438   7.387  1.1459  0.5503  1.5466
 7832SOL    HW235133   3.390   2.291   7.403  2.2824 -1.9331 -1.0715
 7833SOL     OW35134   2.317   0.209   6.375 -0.6125  0.0481 -0.0806
 7833SOL    HW135135   2.226   0.218   6.347 -0.0197 -1.7309 -2.6405
 7833SOL    HW235136   2.318   0.132   6.431 -1.3230 -1.1394 -1.6975
 7834SOL     OW35137   3.980   3.137   5.158  0.0660 -0.4379  0.2100
 7834SOL    HW135138   3.888   3.134   5.184 -0.2433 -0.4136 -0.8852
 7834SOL    HW235139   3.968   3.119   5.065  0.3819 -1.2641  0.3286
 7835SOL     OW35140   3.335   2.878   2.828  0.1037  0.5795 -0.1813
 7835SOL    HW135141   3.358   2.940   2.760  1.0893  1.1923  0.7141
 7835SOL    HW235142   3.407   2.872   2.891  0.0225 -0.1715 -0.1500
 7836SOL     OW35143   0.397   1.933   3.655 -0.4415 -0.1167 -0.3953
 7836SOL    HW135144   0.370   1.854   3.702 -3.1955  1.0319 -0.0983
 7836SOL    HW235145   0.348   2.005   3.694  0.1967 -0.1434  0.4674
 7837SOL     OW35146   0.855   1.779   3.078  0.3238 -0.1333  0.1027
 7837SOL    HW135147   0.815   1.727   3.008 -0.2170 -0.8995  0.9879
 7837SOL    HW235148   0.922   1.720   3.110 -0.4558 -0.1368  1.7662
 7838SOL     OW35149   3.529   1.852   8.100  0.0599  0.3301  0.0521
 7838SOL    HW135150   3.579   1.911   8.044  0.7003  0.2246  0.5165
 7838SOL    HW235151   3.582   1.841   8.179 -2.8920  1.5067  2.1965
 7839SOL     OW35152   3.100   2.336   5.048  0.9807 -0.6391  0.0744
 7839SOL    HW135153   3.137   2.320   4.961 -0.2405  0.1036 -0.5765
 7839SOL    HW235154   3.131   2.424   5.070  2.0279 -0.8652 -0.4914
 7840SOL     OW35155   1.660   4.711   2.439 -0.6666  0.1354 -0.1603
 7840SOL    HW135156   1.622   4.645   2.497 -1.6181  2.4918  1.8686
 7840SOL    HW235157   1.741   4.729   2.487 -2.6852  0.5026  3.0264
 7841SOL     OW35158   4.011   0.552   7.408 -0.3212 -0.2523  0.5107
 7841SOL    HW135159   4.043   0.579   7.494 -3.6880  3.5760  0.5764
 7841SOL    HW235160   4.046   0.463   7.419  1.1592  0.2316 -0.3386
 7842SOL     OW35161   4.530   2.245   2.402 -0.4045 -0.0404 -0.0536
 7842SOL    HW135162   4.568   2.212   2.483 -2.0596 -0.8072  0.4135
 7842SOL    HW235163   4.444   2.210   2.424 -1.3249  3.6695  2.2174
 7843SOL     OW35164   0.055   4.141   9.417  0.4328 -0.0705 -0.4693
 7843SOL    HW135165   0.094   4.151   9.330  3.1607 -0.3842  0.7073
 7843SOL    HW235166   4.713   4.097   9.390  0.8133 -0.3432 -1.1501
 7844SOL     OW35167   3.742   1.171   8.281 -0.5613  0.3445  0.3087
 7844SOL    HW135168   3.729   1.176   8.186  1.0064 -0.3180  0.0522
 7844SOL    HW235169   3.672   1.230   8.308 -1.7525 -0.6503 -0.6155
 7845SOL     OW35170   4.496   4.540  16.582 -0.1533 -0.0975 -0.5920
 7845SOL    HW135171   4.484   4.595  16.505  2.7094  1.3719  0.0318
 7845SOL    HW235172   4.591   4.550  16.591 -0.1269 -1.0384  0.2028
 7846SOL     OW35173   2.297   0.262   3.421  0.4945  0.3981 -0.5924
 7846SOL    HW135174   2.274   0.235   3.332  0.9556  2.0309 -1.2160
 7846SOL    HW235175   2.211   0.258   3.464 -0.2775 -0.5878 -2.2348
 7847SOL     OW35176   2.699   4.239   3.812  0.3792  0.4077  0.5148
 7847SOL    HW135177   2.756   4.316   3.812  2.2105 -0.9454 -1.6644
 7847SOL    HW235178   2.620   4.269   3.857  0.3191 -1.0688  1.4069
 7848SOL     OW35179   3.359   3.081  17.040 -0.1074 -0.4124 -0.4620
 7848SOL    HW135180   3.418   3.136  17.091  0.2200 -0.5948 -0.6395
 7848SOL    HW235181   3.335   3.007  17.096 -2.3399  2.3615  2.2134
 7849SOL     OW35182   2.376   1.706   3.338 -1.0464 -0.5109 -0.0251
 7849SOL    HW135183   2.326   1.734   3.415 -2.5240 -0.7925 -0.9021
 7849SOL    HW235184   2.438   1.780   3.335 -0.3275 -1.0645  0.9723
 7850SOL     OW35185   1.257   0.117  10.385 -0.3780  0.5741  0.0638
 7850SOL    HW135186   1.203   0.101  10.308 -0.7837 -1.7183  0.8065
 7850SOL    HW235187   1.347   0.088  10.369 -0.4625  1.5637 -2.2187
 7851SOL     OW35188   2.695   1.077  16.531  0.0822  0.6561 -0.5340
 7851SOL    HW135189   2.654   0.992  16.518  1.5440 -0.0164 -0.7132
 7851SOL    HW235190   2.652   1.133  16.466 -0.6424  0.3486 -0.3145
 7852SOL     OW35191   3.484   0.684   4.011  0.0534  0.7784 -0.2852
 7852SOL    HW135192   3.567   0.662   3.969 -0.5966  1.5710 -1.9935
 7852SOL    HW235193   3.504   0.775   4.034  1.0501  0.4479  0.1466
 7853SOL     OW35194   2.814   2.424   8.303  0.2505  0.2090 -0.3112
 7853SOL    HW135195   2.857   2.410   8.387 -1.5142 -0.1934  0.5310
 7853SOL    HW235196   2.723   2.445   8.322  0.7971  2.1498  0.1734
 7854SOL     OW35197   0.547   1.798   4.825  0.0494 -0.3540  0.1732
 7854SOL    HW135198   0.593   1.756   4.752 -1.4365  0.2161 -1.0792
 7854SOL    HW235199   0.515   1.872   4.774 -2.3877 -0.0590  2.1787
 7855SOL     OW35200   0.904   3.389  16.761  0.1800 -0.1632 -0.2843
 7855SOL    HW135201   0.925   3.366  16.851 -1.8774 -2.2970 -0.3548
 7855SOL    HW235202   0.895   3.483  16.776  2.1484  0.1508 -1.0352
 7856SOL     OW35203   3.879   4.481   6.761 -0.0488  0.5073  0.3364
 7856SOL    HW135204   3.802   4.443   6.719  1.5855 -1.4132 -0.9284
 7856SOL    HW235205   3.932   4.404   6.783 -1.0487 -0.7640 -1.6765
 7857SOL     OW35206   1.633   2.880  15.359 -0.6177  0.0494  0.1323
 7857SOL    HW135207   1.728   2.886  15.344 -0.6353  2.0540  0.7981
 7857SOL    HW235208   1.603   2.871  15.268 -1.3972 -0.5804  0.4574
 7858SOL     OW35209   3.569   0.780   7.206 -0.1353  0.0886 -0.2191
 7858SOL    HW135210   3.662   0.758   7.203 -0.1627  0.1494 -1.6175
 7858SOL    HW235211   3.569   0.870   7.173  1.1922  0.6460  1.3319
 7859SOL     OW35212   2.847   3.966   1.884 -0.1128 -0.1768 -0.1462
 7859SOL    HW135213   2.763   3.946   1.926  0.4349 -0.4247  0.8364
 7859SOL    HW235214   2.907   3.922   1.943 -0.6536 -0.0692  0.4877
 7860SOL     OW35215   4.480   3.887   6.071 -0.1491  0.3257 -0.1798
 7860SOL    HW135216   4.459   3.862   5.981  0.6276  0.4077 -0.3857
 7860SOL    HW235217   4.504   3.975   6.045  1.7055 -0.3746 -0.8620
 7861SOL     OW35218   1.795   4.338   3.815 -0.3030 -0.0798 -0.0251
 7861SOL    HW135219   1.818   4.381   3.733  1.9464 -0.1628  0.5738
 7861SOL    HW235220   1.728   4.283   3.775  1.6084 -1.3841 -1.4424
 7862SOL     OW35221   1.069   3.908   2.705  0.2131  0.5045 -0.1282
 7862SOL    HW135222   1.045   3.958   2.783 -1.3689  0.6064 -0.6733
 7862SOL    HW235223   1.163   3.920   2.700  0.7218 -3.0491  0.9880
 7863SOL     OW35224   3.844   1.083   8.509  0.0995  0.6054 -0.4552
 7863SOL    HW135225   3.789   1.104   8.433  1.1009  0.8201 -1.1274
 7863SOL    HW235226   3.844   0.988   8.501 -1.1102  0.5703 -0.1311
 7864SOL     OW35227   0.369   0.908   3.857 -0.1745 -0.4609  0.1907
 7864SOL    HW135228   0.400   0.995   3.830 -1.6096  0.3950  1.3081
 7864SOL    HW235229   0.393   0.905   3.949  0.5915  0.5279  0.0251
 7865SOL     OW35230   4.413   0.346   2.624 -0.4489  0.5279 -0.2408
 7865SOL    HW135231   4.435   0.257   2.650 -1.9540  0.8988  2.3869
 7865SOL    HW235232   4.351   0.323   2.554 -0.4976  1.0750 -0.3774
 7866SOL     OW35233   2.435   3.497   1.334  0.1996  0.1019 -0.1236
 7866SOL    HW135234   2.367   3.431   1.348 -0.4029  0.3643 -1.7551
 7866SOL    HW235235   2.397   3.554   1.267  0.5715 -2.4636 -2.5179
 7867SOL     OW35236   3.512   4.143   0.056 -0.1264  0.7084  0.1440
 7867SOL    HW135237   3.512   4.073  17.744 -2.2495  0.5687  0.2950
 7867SOL    HW235238   3.427   4.181   0.036 -1.8764 -3.5844 -0.6053
 7868SOL     OW35239   2.228   0.452   8.469  0.5688  0.3704 -0.0916
 7868SOL    HW135240   2.143   0.494   8.483  0.9006  1.8405 -2.4389
 7868SOL    HW235241   2.277   0.532   8.486 -0.5132  1.0298 -0.0574
 7869SOL     OW35242   3.971   4.322  12.700 -0.1703 -0.1204  0.3660
 7869SOL    HW135243   3.983   4.395  12.639 -1.3266  0.2976  0.6326
 7869SOL    HW235244   4.042   4.264  12.675  0.8890  2.3014 -2.2750
 7870SOL     OW35245   2.934   3.714   2.046  0.4472 -0.1574  0.1572
 7870SOL    HW135246   2.892   3.649   1.990  0.3959  0.0805 -0.0776
 7870SOL    HW235247   2.889   3.696   2.128 -0.1445  1.3209  0.1646
 7871SOL     OW35248   2.396   3.003   0.892  0.3486 -0.0882  0.3305
 7871SOL    HW135249   2.359   2.915   0.884 -0.0777  0.1486 -0.2899
 7871SOL    HW235250   2.473   2.985   0.945  0.5794  0.6788  0.2491
 7872SOL     OW35251   1.880   2.533  14.065  0.7192  0.3172  0.0975
 7872SOL    HW135252   1.806   2.574  14.110 -1.0462 -1.3986 -1.1955
 7872SOL    HW235253   1.944   2.529  14.136  0.6020 -0.8024  0.1369
 7873SOL     OW35254   2.497   3.904  15.937  0.2000 -0.2073 -0.8382
 7873SOL    HW135255   2.438   3.836  15.905 -0.2528 -0.0892 -0.2500
 7873SOL    HW235256   2.536   3.851  16.007 -0.1309 -0.9657 -1.2315
 7874SOL     OW35257   4.629   4.139   4.814  0.1304 -0.0658 -0.3133
 7874SOL    HW135258   4.654   4.060   4.863  0.1048  1.0306  1.4529
 7874SOL    HW235259   4.536   4.147   4.837  0.1963  4.1036 -1.5816
 7875SOL     OW35260   2.154   1.212   5.159 -0.2806 -0.2576 -0.0619
 7875SOL    HW135261   2.066   1.213   5.196  0.1799  0.7932  0.9895
 7875SOL    HW235262   2.192   1.299   5.156 -0.2894 -0.2157  1.2163
 7876SOL     OW35263   3.443   2.309   4.083  0.4270  0.1640  0.3854
 7876SOL    HW135264   3.364   2.311   4.030  1.5055  1.5685 -1.1834
 7876SOL    HW235265   3.517   2.317   4.023  0.8060  2.3285  1.1319
 7877SOL     OW35266   4.242   2.524  15.379  0.1284  0.1726  0.3621
 7877SOL    HW135267   4.334   2.548  15.381  0.2996 -0.4302 -0.3792
 7877SOL    HW235268   4.246   2.467  15.303  0.7903 -0.6736  1.0286
 7878SOL     OW35269   0.251   2.251  15.397  0.2358 -0.1792  0.2711
 7878SOL    HW135270   0.245   2.194  15.473 -0.2022 -0.6281 -0.0969
 7878SOL    HW235271   0.163   2.289  15.395  0.5270  0.5132  0.5095
 7879SOL     OW35272   2.821   0.781   5.018 -0.0797  0.0602 -0.3552
 7879SOL    HW135273   2.778   0.699   5.043  0.4669 -0.4996 -1.2289
 7879SOL    HW235274   2.785   0.837   5.086 -3.3412 -2.0275 -0.3489
 7880SOL     OW35275   4.314   4.629   6.699  0.0013  0.4533  0.3743
 7880SOL    HW135276   4.241   4.621   6.638  0.6421 -0.8253 -0.2243
 7880SOL    HW235277   4.282   4.567   6.764  1.5320  0.2020  0.9063
 7881SOL     OW35278   1.948   1.964   0.794 -0.1099  0.5420 -0.0596
 7881SOL    HW135279   1.968   2.052   0.763 -3.4650  1.0390 -0.7620
 7881SOL    HW235280   1.901   1.982   0.875  0.8566  1.3492  0.3239
 7882SOL     OW35281   1.663   0.207   8.661  0.2990  0.1969  0.0744
 7882SOL    HW135282   1.678   0.300   8.646  1.0454  0.0594 -0.0250
 7882SOL    HW235283   1.617   0.198   8.745  0.7561 -0.2684  0.2752
 7883SOL     OW35284   3.325   0.054  17.496  0.0192  0.7282  0.1330
 7883SOL    HW135285   3.306   4.721  17.556 -1.1688 -0.9483 -2.2425
 7883SOL    HW235286   3.392   0.111  17.533  1.3807 -0.9138  0.1520
 7884SOL     OW35287   3.766   1.722  12.895 -0.0730  0.0055 -0.3809
 7884SOL    HW135288   3.702   1.663  12.936 -0.6942  0.1263 -1.1752
 7884SOL    HW235289   3.766   1.797  12.954  0.7454  1.7374 -2.5908
 7885SOL     OW35290   2.933   3.050  12.060 -0.2786  0.3360  0.6484
 7885SOL    HW135291   2.927   2.969  12.111 -0.2822  0.6471  1.1413
 7885SOL    HW235292   3.027   3.061  12.065 -0.3253  1.0507 -0.0582
 7886SOL     OW35293   1.561   0.462   8.060 -0.2802  0.1114 -0.0556
 7886SOL    HW135294   1.643   0.506   8.084 -0.7192  0.6184  0.4943
 7886SOL    HW235295   1.572   0.473   7.965  0.2611  1.8488  0.2029
 7887SOL     OW35296   0.535   3.238   2.888 -0.0727 -0.7056  0.2534
 7887SOL    HW135297   0.454   3.287   2.874  0.6640 -0.2065 -2.1920
 7887SOL    HW235298   0.511   3.185   2.965  2.2743 -1.4606  0.4423
 7888SOL     OW35299   0.681   1.731   8.925  0.1101  0.3159 -0.0222
 7888SOL    HW135300   0.666   1.771   9.011 -1.3452  3.0410 -1.5252
 7888SOL    HW235301   0.774   1.743   8.910 -0.0227  1.0568 -0.2383
 7889SOL     OW35302   4.715   3.614   6.887  0.5375  0.0196 -0.0477
 7889SOL    HW135303   0.030   3.565   6.949 -1.0502 -2.2722 -0.4510
 7889SOL    HW235304   0.047   3.668   6.854  0.9898 -0.2250  0.5228
 7890SOL     OW35305   0.311   1.859   5.669  0.5362 -0.5749 -0.3979
 7890SOL    HW135306   0.320   1.769   5.638 -1.0036 -0.5667 -0.8565
 7890SOL    HW235307   0.397   1.890   5.697  1.4954  0.5994 -4.7716
 7891SOL     OW35308   0.692   1.391   2.509 -0.0776  0.0734 -0.2355
 7891SOL    HW135309   0.655   1.332   2.444  0.2821 -0.0821 -0.3019
 7891SOL    HW235310   0.628   1.460   2.491 -0.1137 -0.1811 -1.0886
 7892SOL     OW35311   0.783   4.304   3.992  0.1832 -0.5186 -0.0514
 7892SOL    HW135312   0.838   4.232   4.024  1.3522 -0.5556 -2.1580
 7892SOL    HW235313   0.847   4.359   3.948  0.7211 -0.4731  0.7786
 7893SOL     OW35314   3.097   2.787   5.710  0.0465  0.5304  0.4309
 7893SOL    HW135315   3.116   2.880   5.720 -1.1145  0.9913 -1.6654
 7893SOL    HW235316   3.012   2.784   5.666  1.2904  1.3008 -2.0034
 7894SOL     OW35317   1.591   0.970   8.671 -0.1626 -0.3289  0.6341
 7894SOL    HW135318   1.505   0.985   8.711 -0.6171  0.6290 -0.6776
 7894SOL    HW235319   1.646   1.015   8.734  0.2204  1.3373 -0.8748
 7895SOL     OW35320   3.877   0.337   4.659 -0.2376 -0.2005  0.1713
 7895SOL    HW135321   3.932   0.269   4.621 -0.1400 -0.5053  0.8456
 7895SOL    HW235322   3.806   0.332   4.596 -0.4094  0.0299  0.3464
 7896SOL     OW35323   3.185   2.003   5.413  0.1101 -0.1747 -0.0174
 7896SOL    HW135324   3.194   2.095   5.437 -0.2372 -0.3038  0.5929
 7896SOL    HW235325   3.100   2.002   5.369 -1.9994 -0.4147  4.0810
 7897SOL     OW35326   3.193   1.793  15.259  0.5795 -0.3461 -0.1882
 7897SOL    HW135327   3.170   1.805  15.167 -0.1135 -0.6408 -0.0595
 7897SOL    HW235328   3.142   1.868  15.289  1.1055 -0.5808  1.2919
 7898SOL     OW35329   0.368   3.960   3.936 -0.7485  0.1563 -0.1989
 7898SOL    HW135330   0.456   3.937   3.905 -0.6903 -0.3444  0.3194
 7898SOL    HW235331   0.340   3.878   3.978 -2.9243  1.7052  1.4138
 7899SOL     OW35332   2.642   4.109   4.250 -0.0106 -0.2663 -0.0012
 7899SOL    HW135333   2.674   4.072   4.168  0.8979  0.6888 -0.0861
 7899SOL    HW235334   2.564   4.058   4.273  0.8610 -0.6113  2.2229
 7900SOL     OW35335   2.099   1.134  14.018  0.0523 -0.0937 -0.0876
 7900SOL    HW135336   2.171   1.130  14.080  0.6063  1.0708 -0.6610
 7900SOL    HW235337   2.054   1.206  14.062  0.8426  0.3448 -0.0059
 7901SOL     OW35338   1.991   1.983   9.976  0.3689  0.3960  0.2647
 7901SOL    HW135339   2.025   1.902  10.015  1.5096 -0.2715 -2.1218
 7901SOL    HW235340   1.904   1.989  10.017  1.0703  1.5489  1.5453
 7902SOL     OW35341   4.253   0.136  15.076  0.0755  0.3919  0.3559
 7902SOL    HW135342   4.264   0.207  15.014  3.7961  0.3031  0.9118
 7902SOL    HW235343   4.226   0.183  15.155  1.2916 -1.9217  2.1781
 7903SOL     OW35344   4.512   4.418   3.484 -0.1508 -0.2850  0.2345
 7903SOL    HW135345   4.495   4.427   3.390  0.9631 -1.4786 -0.0841
 7903SOL    HW235346   4.437   4.363   3.508 -0.7578  0.6926  0.5657
 7904SOL     OW35347   2.363   3.680   2.413 -0.2685  0.4236 -0.2506
 7904SOL    HW135348   2.343   3.656   2.504 -2.9943 -0.8519 -1.1815
 7904SOL    HW235349   2.315   3.610   2.368 -1.6244  1.3780 -0.3093
 7905SOL     OW35350   1.741   1.946   2.504  0.2763  0.7369 -0.3161
 7905SOL    HW135351   1.678   2.007   2.465 -1.3507 -0.1366  0.9304
 7905SOL    HW235352   1.787   2.007   2.562 -1.6406  1.8917 -0.0124
 7906SOL     OW35353   0.559   0.436   7.156  0.3809 -0.0314  0.1778
 7906SOL    HW135354   0.489   0.370   7.152  1.0203 -0.5686 -2.0529
 7906SOL    HW235355   0.626   0.376   7.189  0.3144  0.0568  0.4726
 7907SOL     OW35356   3.792   1.070   9.028 -0.2508 -0.4782  0.3014
 7907SOL    HW135357   3.750   1.081   8.943 -1.2839  2.0611  1.1526
 7907SOL    HW235358   3.856   1.002   9.006 -0.0579 -0.0377 -0.4806
 7908SOL     OW35359   0.837   2.931   7.504  0.4461 -0.2645 -0.0471
 7908SOL    HW135360   0.781   2.912   7.429 -0.8585  2.4611  0.2246
 7908SOL    HW235361   0.836   3.026   7.491  1.0179 -0.1862  0.4696
 7909SOL     OW35362   3.662   0.939   2.829 -0.0408 -0.8839  0.1224
 7909SOL    HW135363   3.686   0.973   2.742 -1.4848 -0.0852  0.0421
 7909SOL    HW235364   3.603   1.008   2.858 -0.5679 -1.4206  0.3142
 7910SOL     OW35365   1.798   4.647  10.355  0.3258 -0.0952 -0.2187
 7910SOL    HW135366   1.791   4.552  10.345 -0.9038  0.1079 -1.2448
 7910SOL    HW235367   1.889   4.676  10.344  0.2178 -0.3929 -1.7562
 7911SOL     OW35368   3.192   0.654  10.705  0.7347  0.1567  0.7760
 7911SOL    HW135369   3.244   0.702  10.641  0.1047 -1.5746 -1.0593
 7911SOL    HW235370   3.227   0.565  10.699  0.0802 -0.0135 -0.5353
 7912SOL     OW35371   1.083   1.274  11.626 -0.3566 -0.1013 -0.0550
 7912SOL    HW135372   1.036   1.338  11.572  0.1729  0.6628  0.3840
 7912SOL    HW235373   1.043   1.300  11.709 -0.6323  2.5318 -1.0103
 7913SOL     OW35374   1.261   1.206   2.458 -0.5035 -0.0770  0.0586
 7913SOL    HW135375   1.167   1.224   2.460 -0.6875 -1.0279 -0.0107
 7913SOL    HW235376   1.302   1.283   2.419 -2.9671  1.1893  0.0301
 7914SOL     OW35377   0.391   2.281  16.345 -0.1043  0.0475  0.4826
 7914SOL    HW135378   0.303   2.268  16.380  0.7546 -2.4378  1.6641
 7914SOL    HW235379   0.381   2.255  16.253 -0.0068 -1.7071  0.9778
 7915SOL     OW35380   1.558   2.095   4.195 -0.3536 -0.1904  0.6092
 7915SOL    HW135381   1.578   2.187   4.183  1.1862 -0.9226 -2.5458
 7915SOL    HW235382   1.463   2.086   4.202 -0.3377  0.8135  1.9316
 7916SOL     OW35383   4.071   2.992  15.216  0.5932 -0.0418 -0.0811
 7916SOL    HW135384   4.019   3.051  15.271 -2.5789 -1.4377 -1.5602
 7916SOL    HW235385   4.086   2.916  15.271  0.2455  2.5938  3.6616
 7917SOL     OW35386   1.115   1.337   8.354 -0.3082  0.5107 -0.0396
 7917SOL    HW135387   1.188   1.384   8.394  1.2585 -2.6722  0.8843
 7917SOL    HW235388   1.062   1.336   8.433  0.3902  1.3888  0.4440
 7918SOL     OW35389   2.627   2.711   2.995 -0.1369  0.7210  0.4880
 7918SOL    HW135390   2.553   2.651   3.005  0.6340 -0.3259 -0.1678
 7918SOL    HW235391   2.671   2.695   3.078  1.9581  3.6643 -0.0402
 7919SOL     OW35392   1.846   2.925   5.712 -0.5427  0.6845  0.0892
 7919SOL    HW135393   1.857   2.889   5.624 -1.5820 -0.4306  0.4070
 7919SOL    HW235394   1.802   3.006   5.687  0.0599  1.0452  0.1948
 7920SOL     OW35395   0.855   4.699   1.982  0.3384  0.1858  0.7252
 7920SOL    HW135396   0.779   4.724   1.930  0.9454  0.3597 -0.0718
 7920SOL    HW235397   0.833   4.725   2.072  0.9572  0.9515  0.6494
 7921SOL     OW35398   1.678   2.281   6.550 -0.0293  0.0341  0.0338
 7921SOL    HW135399   1.699   2.357   6.496 -1.8503  0.7426  0.3120
 7921SOL    HW235400   1.765   2.269   6.587 -0.6615 -2.0811  0.8346
 7922SOL     OW35401   1.610   3.082   0.498 -0.2612 -0.1914 -0.4968
 7922SOL    HW135402   1.566   3.121   0.574  2.4419  1.1756  0.3528
 7922SOL    HW235403   1.691   3.065   0.545 -0.5175  1.3720  0.5300
 7923SOL     OW35404   3.628   0.582   2.289  0.1529 -0.1432 -0.1094
 7923SOL    HW135405   3.722   0.573   2.305  0.5822  1.1834 -1.8734
 7923SOL    HW235406   3.579   0.511   2.331  0.1394 -0.5317 -0.7886
 7924SOL     OW35407   0.063   0.242   1.472  0.2864 -0.3694  0.1517
 7924SOL    HW135408   0.091   0.205   1.555  0.2580 -1.5792 -0.3709
 7924SOL    HW235409   0.151   0.269   1.446 -0.5903  1.2853 -1.1214
 7925SOL     OW35410   2.550   4.517   6.859  0.5382  0.4881  0.5202
 7925SOL    HW135411   2.555   4.467   6.778 -0.9086 -1.1089  1.3999
 7925SOL    HW235412   2.623   4.577   6.848  0.5167  0.1769 -1.2618
 7926SOL     OW35413   4.525   0.590   8.715 -0.0055  0.0823  0.4954
 7926SOL    HW135414   4.538   0.621   8.625  0.1097  3.0010  1.5224
 7926SOL    HW235415   4.478   0.664   8.753 -0.2394  0.6573 -0.8969
 7927SOL     OW35416   3.818   1.846  10.563  0.2310 -0.0657  0.6493
 7927SOL    HW135417   3.859   1.880  10.643 -0.6086 -0.1757  1.1213
 7927SOL    HW235418   3.752   1.911  10.541  1.4117 -0.1493 -3.2913
 7928SOL     OW35419   1.888   0.039  10.591 -0.3654  0.2838  0.1836
 7928SOL    HW135420   1.851   0.127  10.597 -0.0476  0.4996 -0.9515
 7928SOL    HW235421   1.835   4.734  10.524 -2.3107  0.6462  1.5182
 7929SOL     OW35422   1.079   3.304   6.226  0.0350 -0.2254  0.3193
 7929SOL    HW135423   1.031   3.244   6.283 -1.2394 -0.7346 -1.2828
 7929SOL    HW235424   1.136   3.354   6.284  2.3875  0.3163 -2.4522
 7930SOL     OW35425   1.204   4.655   9.624  0.2909  0.1178  0.1978
 7930SOL    HW135426   1.192   4.665   9.719 -0.6593  3.4243 -0.2667
 7930SOL    HW235427   1.276   4.717   9.615  2.2611 -2.6421 -3.0161
 7931SOL     OW35428   0.934   0.529  11.410 -0.3655 -0.5425  0.4196
 7931SOL    HW135429   1.001   0.594  11.388 -0.0786 -1.5025 -1.5024
 7931SOL    HW235430   0.907   0.575  11.490  0.1301  1.2659 -0.4596
 7932SOL     OW35431   1.117   4.717   0.898  0.2307 -0.0151  1.0367
 7932SOL    HW135432   1.210   4.738   0.890 -0.5915  1.5983 -3.9733
 7932SOL    HW235433   1.124   4.624   0.919  1.7642 -0.4610 -1.4101
 7933SOL     OW35434   2.080   0.368  15.339 -0.4078 -0.0402  0.4659
 7933SOL    HW135435   2.159   0.392  15.388 -1.2700  0.3351  1.6776
 7933SOL    HW235436   2.097   0.276  15.320 -0.1273  0.2047 -0.4510
 7934SOL     OW35437   4.023   3.556   4.134  0.1787  0.4485  0.2814
 7934SOL    HW135438   3.952   3.492   4.129 -0.6111  1.5115 -2.4866
 7934SOL    HW235439   4.024   3.590   4.044 -2.0935 -0.9794 -0.2713
 7935SOL     OW35440   1.275   3.949   5.017  0.3075 -0.4833 -0.0828
 7935SOL    HW135441   1.292   3.855   5.009  2.4065 -0.0675 -0.3681
 7935SOL    HW235442   1.227   3.947   5.100 -1.2446 -1.1756 -0.9867
 7936SOL     OW35443   0.195   3.327  17.165 -0.1199 -0.0965 -0.2483
 7936SOL    HW135444   0.117   3.371  17.131  0.2351  1.7835  1.3206
 7936SOL    HW235445   0.239   3.397  17.214  0.8131 -1.2414  0.5261
 7937SOL     OW35446   3.960   3.496   7.687 -0.1463  0.4697  0.3783
 7937SOL    HW135447   3.872   3.519   7.658  0.7659  1.7477 -1.3792
 7937SOL    HW235448   3.944   3.444   7.766  0.8590 -0.6575 -0.1555
 7938SOL     OW35449   1.161   3.725  14.750  0.1963 -0.2881 -0.3734
 7938SOL    HW135450   1.206   3.681  14.677 -0.1681 -0.0365 -0.7533
 7938SOL    HW235451   1.210   3.806  14.762  1.8211 -1.0016 -2.0291
 7939SOL     OW35452   0.358   2.481   0.407 -0.0322 -0.0504 -0.1729
 7939SOL    HW135453   0.413   2.477   0.485 -1.0201 -0.9546  0.4872
 7939SOL    HW235454   0.286   2.426   0.441 -1.6059 -0.1802 -3.7548
 7940SOL     OW35455   1.701   0.078   8.412 -0.1271  0.5729 -0.5191
 7940SOL    HW135456   1.681   0.138   8.484 -0.6718  0.1279 -0.2944
 7940SOL    HW235457   1.746   0.133   8.349 -2.3210  1.5596 -1.2343
 7941SOL     OW35458   0.593   3.108   6.008 -0.4296 -0.2728  0.2699
 7941SOL    HW135459   0.559   3.079   6.092  0.9612 -0.7632  0.6731
 7941SOL    HW235460   0.628   3.194   6.031  0.2371  0.2938 -2.8421
 7942SOL     OW35461   1.173   1.208   7.798  0.0835  0.6676 -0.2629
 7942SOL    HW135462   1.092   1.200   7.848  0.1887  1.2658  0.0054
 7942SOL    HW235463   1.185   1.121   7.759 -2.3793  0.0569  0.3584
 7943SOL     OW35464   2.627   2.998  16.491 -0.3101  0.2774 -0.1916
 7943SOL    HW135465   2.592   2.917  16.527  0.4669  0.1640  0.3202
 7943SOL    HW235466   2.593   3.001  16.401 -1.8818  1.0230  0.4260
 7944SOL     OW35467   1.655   1.807   3.647 -0.4777 -0.1104 -0.0228
 7944SOL    HW135468   1.708   1.852   3.713  2.1274 -1.2252 -1.3224
 7944SOL    HW235469   1.654   1.724   3.693  1.2994  0.3660  0.9099
 7945SOL     OW35470   0.325   4.703  16.557 -0.8052  0.4541 -0.2604
 7945SOL    HW135471   0.399   4.725  16.500  0.4879  1.2964  1.7384
 7945SOL    HW235472   0.331   4.608  16.561 -1.2377  0.4443  0.1120
 7946SOL     OW35473   1.182   0.831  14.233 -0.3003 -0.3077  0.2816
 7946SOL    HW135474   1.151   0.764  14.173  1.8636 -1.2449  0.2534
 7946SOL    HW235475   1.276   0.815  14.232 -0.4442 -0.9262 -2.2252
 7947SOL     OW35476   4.557   1.749  10.033  0.4829  0.2636 -0.1595
 7947SOL    HW135477   4.477   1.719   9.991  0.3431 -1.2880  1.2066
 7947SOL    HW235478   4.522   1.753  10.122  1.3755 -0.6801  0.2307
 7948SOL     OW35479   0.975   4.295   8.064 -0.5483 -0.2829  0.7301
 7948SOL    HW135480   0.964   4.273   7.972  0.2879  0.6929  0.3963
 7948SOL    HW235481   1.033   4.371   8.064  0.5765 -1.1449 -0.7587
 7949SOL     OW35482   1.931   1.119   3.134  0.0854 -0.0980 -0.5987
 7949SOL    HW135483   1.941   1.167   3.216 -0.7419 -3.4814  1.4548
 7949SOL    HW235484   1.850   1.071   3.149  1.6930 -2.5006  0.4161
 7950SOL     OW35485   0.445   4.426  16.471  0.3303  0.1491  0.3888
 7950SOL    HW135486   0.519   4.478  16.438  1.0089 -1.5445 -0.7353
 7950SOL    HW235487   0.488   4.341  16.467  0.1021  0.1728 -2.2181
 7951SOL     OW35488   4.584   4.399   6.808  1.0892 -0.2411  0.6755
 7951SOL    HW135489   4.516   4.352   6.760  2.8840 -2.8608  0.7073
 7951SOL    HW235490   4.651   4.331   6.813  2.3262  1.0232  1.2506
 7952SOL     OW35491   2.270   0.075  17.451 -1.0008 -0.2446 -0.1933
 7952SOL    HW135492   2.254   0.060  17.544 -1.9719  1.0092 -0.1663
 7952SOL    HW235493   2.329   0.149  17.441 -1.6049  0.0707 -1.4720
 7953SOL     OW35494   3.142   1.944  10.900  0.2209  0.6117 -0.2723
 7953SOL    HW135495   3.060   1.918  10.942  1.7670 -1.4528  1.5084
 7953SOL    HW235496   3.135   1.918  10.808 -1.7559 -1.3254  0.4171
 7954SOL     OW35497   4.651   2.687   4.115  0.2250  0.0007  0.1061
 7954SOL    HW135498   4.736   2.659   4.081 -0.2353  0.7603 -1.6674
 7954SOL    HW235499   4.650   2.642   4.200  1.0187  4.7005  2.6132
 7955SOL     OW35500   1.221   3.640  15.500 -0.4614  0.2433 -0.1631
 7955SOL    HW135501   1.179   3.695  15.434  1.5489  2.8162  0.6744
 7955SOL    HW235502   1.170   3.559  15.493  0.5946 -0.3987 -0.3700
 7956SOL     OW35503   0.052   1.032   2.485  0.2334  0.1221 -0.7786
 7956SOL    HW135504   0.127   1.043   2.544  1.0767 -0.8491 -1.6627
 7956SOL    HW235505   4.732   0.985   2.544  1.2250  0.4520  0.4659
 7957SOL     OW35506   0.690   4.584   3.170  0.3190  0.5914 -0.2400
 7957SOL    HW135507   0.702   4.679   3.167 -1.6780  0.7906 -1.5270
 7957SOL    HW235508   0.694   4.564   3.263 -0.3990  0.7872 -0.1707
 7958SOL     OW35509   3.705   0.452   2.027  1.0090 -0.0279 -0.4403
 7958SOL    HW135510   3.699   0.537   1.984 -1.8606  0.2300  0.4326
 7958SOL    HW235511   3.656   0.462   2.109  0.3616 -1.8594 -0.6202
 7959SOL     OW35512   2.148   3.298   0.117  0.2977 -0.2125 -0.3838
 7959SOL    HW135513   2.128   3.240   0.191  0.0237  0.4060  0.0266
 7959SOL    HW235514   2.189   3.243   0.050  1.4411 -0.3933  0.4597
 7960SOL     OW35515   2.995   0.241   4.567 -0.3003 -0.3035  0.2545
 7960SOL    HW135516   2.966   0.299   4.497 -2.1446 -0.4179  0.9203
 7960SOL    HW235517   3.008   0.312   4.629 -1.2143  1.6403 -1.8036
 7961SOL     OW35518   4.419   4.363   6.164 -0.8655 -0.1110  0.3381
 7961SOL    HW135519   4.491   4.319   6.209  0.3556  0.4616 -1.0666
 7961SOL    HW235520   4.345   4.306   6.184 -1.0511  0.4330  1.1676
 7962SOL     OW35521   2.823   1.270  10.132 -0.0583 -0.0237 -0.1182
 7962SOL    HW135522   2.849   1.336  10.196 -0.6130 -1.5402  1.6810
 7962SOL    HW235523   2.859   1.194  10.178  0.6031 -0.3473 -1.1489
 7963SOL     OW35524   3.543   3.714   1.744  0.6306 -0.0315  0.5319
 7963SOL    HW135525   3.486   3.646   1.781  1.4410 -1.1064 -0.2175
 7963SOL    HW235526   3.609   3.660   1.701  2.0903  0.6899  1.8541
 7964SOL     OW35527   4.337   0.818   2.379 -0.3049  0.4969  0.1472
 7964SOL    HW135528   4.242   0.813   2.365 -0.3399  1.0197  0.2224
 7964SOL    HW235529   4.358   0.739   2.429 -2.9325  0.1932  0.7452
 7965SOL     OW35530   2.021   0.441   6.577 -0.1822  0.1195  0.4184
 7965SOL    HW135531   1.936   0.424   6.617 -0.4286  0.7670  0.1561
 7965SOL    HW235532   2.080   0.447   6.652  0.8761 -1.8479 -0.2380
 7966SOL     OW35533   2.369   1.234   7.522  0.4806  0.2339  0.0400
 7966SOL    HW135534   2.389   1.226   7.429 -2.6180  2.1391 -0.7907
 7966SOL    HW235535   2.286   1.187   7.529 -0.6725  2.1145 -1.1629
 7967SOL     OW35536   3.618   0.617  10.795 -0.1443  0.4918  0.3188
 7967SOL    HW135537   3.686   0.682  10.782 -2.0917  2.4912  0.1478
 7967SOL    HW235538   3.558   0.671  10.847 -0.2189  0.0867  0.6546
 7968SOL     OW35539   3.919   1.206  17.612 -0.2855  0.3659 -0.3375
 7968SOL    HW135540   3.901   1.124  17.659 -2.8531  1.1170 -0.0086
 7968SOL    HW235541   3.900   1.176  17.523 -0.7324 -0.7825  0.1308
 7969SOL     OW35542   4.613   0.318   9.071  0.4170  0.3013 -0.1219
 7969SOL    HW135543   4.643   0.247   9.127 -2.7407 -0.7903  0.1719
 7969SOL    HW235544   4.606   0.286   8.982  1.0041  1.9850 -0.7834
 7970SOL     OW35545   0.986   2.480   6.957 -0.0296 -0.0052  0.0964
 7970SOL    HW135546   0.993   2.386   6.940  0.2642  0.6503 -3.3308
 7970SOL    HW235547   1.002   2.527   6.875  0.1361 -0.7222 -0.2828
 7971SOL     OW35548   0.745   2.222   5.385  0.3761  0.1973 -0.4952
 7971SOL    HW135549   0.783   2.239   5.471  0.8544 -0.4592 -0.5827
 7971SOL    HW235550   0.783   2.295   5.337 -1.7837 -0.4576 -3.2206
 7972SOL     OW35551   1.025   2.481   1.899 -0.1469  0.0669 -0.6052
 7972SOL    HW135552   0.991   2.548   1.841 -0.8218  0.6721  0.4968
 7972SOL    HW235553   1.082   2.432   1.839 -1.2192 -0.1599 -1.4331
 7973SOL     OW35554   0.612   3.266   2.579  0.5719 -0.1752 -0.3759
 7973SOL    HW135555   0.680   3.248   2.643  0.2368 -1.2367 -0.3315
 7973SOL    HW235556   0.590   3.179   2.548 -0.3108  0.3264 -1.1662
 7974SOL     OW35557   3.676   2.203  16.333 -0.0585 -0.8631  0.5822
 7974SOL    HW135558   3.727   2.164  16.404 -0.0264 -1.4413  0.2383
 7974SOL    HW235559   3.654   2.129  16.277 -2.7813 -0.6829  1.4009
 7975SOL     OW35560   0.837   3.469   8.048  0.1947  0.4236 -0.2095
 7975SOL    HW135561   0.814   3.463   8.141  0.0208 -0.9121 -0.3358
 7975SOL    HW235562   0.774   3.536   8.022 -0.1526 -0.3753 -1.4363
 7976SOL     OW35563   3.336   2.981   7.095  0.3655 -0.0980  0.2542
 7976SOL    HW135564   3.422   3.022   7.086  0.7300 -0.6676  1.1541
 7976SOL    HW235565   3.359   2.899   7.138  2.0208 -0.6368 -1.6661
 7977SOL     OW35566   1.260   2.807   8.182 -0.0560 -0.1376 -0.3454
 7977SOL    HW135567   1.328   2.806   8.115 -0.8828  1.2977 -1.1855
 7977SOL    HW235568   1.180   2.814   8.130 -0.5362  2.3632  0.7418
 7978SOL     OW35569   2.012   0.488   4.622 -0.3570  0.1615 -0.1161
 7978SOL    HW135570   2.030   0.410   4.570 -0.7429  0.3261 -0.4996
 7978SOL    HW235571   2.034   0.455   4.709 -0.8552 -0.3279 -0.1792
 7979SOL     OW35572   4.475   4.314  13.793  0.3434  0.4583  0.1481
 7979SOL    HW135573   4.463   4.314  13.888  0.6099  0.6863  0.1795
 7979SOL    HW235574   4.472   4.221  13.770  1.5002  0.7128 -1.0029
 7980SOL     OW35575   3.702   1.103   1.181  0.4781 -0.0500 -0.2334
 7980SOL    HW135576   3.725   1.076   1.270  1.8313 -0.4649 -0.7200
 7980SOL    HW235577   3.736   1.040   1.117 -0.2576 -1.2690  0.5656
 7981SOL     OW35578   1.302   2.885   2.023 -0.6142 -0.2231  0.1835
 7981SOL    HW135579   1.320   2.852   1.935 -0.9900 -1.4772  0.5893
 7981SOL    HW235580   1.350   2.968   2.018  1.5051 -1.5226 -1.1663
 7982SOL     OW35581   3.314   1.590   2.056 -0.2199  0.1388  0.0217
 7982SOL    HW135582   3.338   1.551   1.972 -0.4605 -0.5347  0.2657
 7982SOL    HW235583   3.393   1.572   2.107  0.8827  1.8873 -1.0528
 7983SOL     OW35584   3.422   0.154   7.872 -0.6243 -0.3732  0.4635
 7983SOL    HW135585   3.513   0.179   7.888 -0.2499  0.0023 -2.2599
 7983SOL    HW235586   3.415   0.156   7.776  0.0915 -0.6887  0.4060
 7984SOL     OW35587   4.576   1.368   4.889 -0.1670  0.1865 -0.1030
 7984SOL    HW135588   4.597   1.350   4.797  2.9338  0.5946  0.5217
 7984SOL    HW235589   4.609   1.285   4.924  0.4847  0.4419 -0.1166
 7985SOL     OW35590   0.284   2.259   6.991  0.0691 -0.6899 -0.1455
 7985SOL    HW135591   0.236   2.192   7.039 -0.1185  1.1392  2.1937
 7985SOL    HW235592   0.358   2.272   7.050  1.1258  0.6319 -1.7671
 7986SOL     OW35593   1.965   0.933  17.016 -0.2424  0.0460  0.4719
 7986SOL    HW135594   1.976   0.971  16.929  0.7138 -0.2997  0.4351
 7986SOL    HW235595   2.012   0.996  17.071  0.1491 -1.1950  1.5592
 7987SOL     OW35596   3.376   3.531   1.865  0.3477 -0.1619  0.2614
 7987SOL    HW135597   3.360   3.471   1.938  3.2402 -0.3873  0.7171
 7987SOL    HW235598   3.309   3.599   1.875  0.1380 -0.3863  0.3957
 7988SOL     OW35599   3.912   1.097   1.973  0.4289 -0.5530  0.1548
 7988SOL    HW135600   3.978   1.056   2.029  1.3137  0.6441 -0.0346
 7988SOL    HW235601   3.941   1.188   1.977  0.5377 -0.5234 -1.1561
 7989SOL     OW35602   0.486   4.145   0.034 -0.2266  0.2521 -0.1175
 7989SOL    HW135603   0.489   4.221  17.729 -1.8957 -0.6356 -1.3970
 7989SOL    HW235604   0.436   4.175   0.110 -1.1307  0.8752 -0.9515
 7990SOL     OW35605   3.743   2.668   1.075 -0.0360 -0.0327 -0.1205
 7990SOL    HW135606   3.716   2.578   1.096  1.3280 -0.2216  0.8004
 7990SOL    HW235607   3.787   2.651   0.991  1.1030 -0.1080  0.4894
 7991SOL     OW35608   3.512   4.639  15.654 -0.0613 -0.4333 -0.1155
 7991SOL    HW135609   3.472   4.611  15.571 -1.0358  0.1372  0.1740
 7991SOL    HW235610   3.472   4.725  15.665 -0.6631 -1.0055  2.0849
 7992SOL     OW35611   3.690   1.398  17.568 -0.2982  0.5686 -0.2784
 7992SOL    HW135612   3.754   1.330  17.589  0.6254  1.1777 -1.0708
 7992SOL    HW235613   3.746   1.452  17.512  2.2364 -2.0836 -0.2958
 7993SOL     OW35614   2.559   2.359   1.451  0.2929 -0.8424 -0.1627
 7993SOL    HW135615   2.641   2.327   1.488 -0.4622 -1.1417  1.2887
 7993SOL    HW235616   2.594   2.399   1.372 -0.0334  1.3067  0.7535
 7994SOL     OW35617   1.504   4.137   0.223 -0.2040 -0.1925  0.0863
 7994SOL    HW135618   1.561   4.155   0.298  0.0435 -0.3580 -0.0648
 7994SOL    HW235619   1.571   4.111   0.160  1.0587  0.1518  1.2843
 7995SOL     OW35620   3.054   0.028  10.949  0.1564  0.4406 -0.2633
 7995SOL    HW135621   2.959   0.024  10.943  0.0776  0.4766  1.1194
 7995SOL    HW235622   3.078   4.686  10.995  1.4288  1.3818  0.7294
 7996SOL     OW35623   1.575   3.599   7.691 -0.1493  0.7030 -0.6454
 7996SOL    HW135624   1.537   3.529   7.744 -0.2667 -0.3460 -2.1137
 7996SOL    HW235625   1.542   3.682   7.725  1.6914  0.8931  0.6714
 7997SOL     OW35626   3.598   3.405   7.850 -0.2157 -0.4400 -0.2556
 7997SOL    HW135627   3.680   3.429   7.894 -0.2420 -0.9224  0.0571
 7997SOL    HW235628   3.538   3.474   7.877  0.4965  0.2025 -0.3103
 7998SOL     OW35629   0.910   4.031   0.883 -0.1639  0.0359  0.0648
 7998SOL    HW135630   0.826   3.985   0.877 -0.5925  1.0795 -1.9093
 7998SOL    HW235631   0.967   3.960   0.856 -2.3209 -1.2044 -1.2726
 7999SOL     OW35632   0.327   0.068   2.936 -0.1156 -0.2027  0.1841
 7999SOL    HW135633   0.325   0.009   3.011  0.7913  0.3787  0.6608
 7999SOL    HW235634   0.238   0.064   2.900  0.3276  3.7219 -1.2793
 8000SOL     OW35635   1.169   4.208   8.482 -0.5167 -0.3836 -0.0155
 8000SOL    HW135636   1.219   4.226   8.561  2.1352  0.9170 -1.9985
 8000SOL    HW235637   1.239   4.208   8.416 -1.3808  0.9790 -0.9251
 8001SOL     OW35638   3.621   0.047   9.849 -0.1924 -0.6394 -0.1964
 8001SOL    HW135639   3.657   0.132   9.875 -2.6290  0.1086  0.7584
 8001SOL    HW235640   3.530   0.073   9.830  0.1384  0.7723  0.0896
 8002SOL     OW35641   2.560   4.455   7.825  0.4952 -0.2888  0.4767
 8002SOL    HW135642   2.488   4.516   7.845 -1.3420 -1.7735 -1.6378
 8002SOL    HW235643   2.510   4.406   7.760  1.8700 -0.2324 -0.6141
 8003SOL     OW35644   1.690   1.143  11.831  0.0204  0.1104  0.1956
 8003SOL    HW135645   1.601   1.172  11.815 -0.3601 -0.2973  1.6087
 8003SOL    HW235646   1.746   1.198  11.776  1.3093 -0.9250  0.4553
 8004SOL     OW35647   2.226   4.286   6.836 -0.0031  0.3047  0.0986
 8004SOL    HW135648   2.268   4.312   6.754  0.3921 -0.8730 -0.0662
 8004SOL    HW235649   2.152   4.230   6.815  0.6129 -0.5265  0.1192
 8005SOL     OW35650   0.627   3.511  16.220  0.2379 -0.1771  0.3871
 8005SOL    HW135651   0.693   3.468  16.166  0.5726 -0.4658  1.0402
 8005SOL    HW235652   0.610   3.435  16.275 -3.3243  0.1823 -0.1531
 8006SOL     OW35653   2.396   3.874   4.507  0.0123 -0.0647 -0.1102
 8006SOL    HW135654   2.405   3.968   4.495 -0.4069  0.0538  0.4973
 8006SOL    HW235655   2.438   3.841   4.428  1.1195 -0.5665  0.6770
 8007SOL     OW35656   0.370   3.350   5.794 -0.5557 -0.0080 -0.1625
 8007SOL    HW135657   0.419   3.404   5.732  0.4837 -0.9840 -0.1996
 8007SOL    HW235658   0.423   3.356   5.874 -1.2188  1.3980  0.1693
 8008SOL     OW35659   0.924   2.665  15.697  0.1364  0.6709  0.2529
 8008SOL    HW135660   0.924   2.760  15.710  1.8732  0.7261 -0.1868
 8008SOL    HW235661   0.871   2.673  15.617 -1.0248  1.7914  1.1299
 8009SOL     OW35662   2.346   0.845   6.225  0.5118 -0.1452 -0.0424
 8009SOL    HW135663   2.424   0.797   6.198  0.5851 -0.6444  1.0695
 8009SOL    HW235664   2.359   0.840   6.320 -0.2437  0.3066  0.0845
 8010SOL     OW35665   1.935   2.153  12.172 -0.3308  0.2020 -0.2685
 8010SOL    HW135666   1.951   2.169  12.079 -1.6482 -0.9695 -0.6918
 8010SOL    HW235667   1.877   2.227  12.191 -0.9741 -0.8536  1.7681
 8011SOL     OW35668   0.486   0.244   1.510  0.0411 -0.2373  0.0199
 8011SOL    HW135669   0.407   0.190   1.507 -0.6373  0.6878  1.6612
 8011SOL    HW235670   0.515   0.235   1.419  1.3221 -1.2020  0.5364
 8012SOL     OW35671   3.331   3.781   7.584 -0.2154  0.2872 -0.4821
 8012SOL    HW135672   3.412   3.774   7.534  0.6437 -2.6011  1.3227
 8012SOL    HW235673   3.378   3.831   7.651  1.0896 -3.7292  1.6008
 8013SOL     OW35674   3.395   0.864  12.150 -0.8435 -0.0229 -0.1805
 8013SOL    HW135675   3.451   0.787  12.149  1.7005  1.8052  1.0442
 8013SOL    HW235676   3.429   0.908  12.072 -0.1602 -0.3655 -0.0735
 8014SOL     OW35677   3.269   1.972   9.041  0.2508 -0.5232 -0.2735
 8014SOL    HW135678   3.243   1.880   9.037 -0.0659 -0.4997  1.3297
 8014SOL    HW235679   3.347   1.952   9.093 -1.0291 -0.8600  1.5085
 8015SOL     OW35680   4.696   0.576   9.012 -0.3162  0.1800  0.2077
 8015SOL    HW135681   4.631   0.539   8.952  0.3196 -0.4422 -0.0965
 8015SOL    HW235682   4.705   0.499   9.069 -0.8093  0.1434  0.2333
 8016SOL     OW35683   2.968   2.412   0.259  0.1309 -0.2898 -0.1765
 8016SOL    HW135684   2.974   2.433   0.166  0.3261  2.5014  0.4855
 8016SOL    HW235685   2.879   2.375   0.262  0.2404 -0.4767  0.9723
 8017SOL     OW35686   2.342   0.801  11.372 -0.4654  0.0464 -0.4014
 8017SOL    HW135687   2.290   0.755  11.438 -1.0461  1.0153 -0.1810
 8017SOL    HW235688   2.430   0.812  11.409 -0.4829 -1.3510  0.0566
 8018SOL     OW35689   2.984   3.367   2.852 -0.0837 -0.6053  0.2110
 8018SOL    HW135690   2.890   3.368   2.835  0.0471 -0.6884 -0.4925
 8018SOL    HW235691   2.987   3.317   2.934  0.9319 -0.3000  0.3636
 8019SOL     OW35692   1.705   0.788   2.291 -0.0696 -0.3421  0.2384
 8019SOL    HW135693   1.780   0.740   2.256  1.1659  0.1768  2.1408
 8019SOL    HW235694   1.673   0.820   2.207  3.1424 -1.4721 -1.4231
 8020SOL     OW35695   0.601   0.998   4.581  0.0284 -0.4268 -0.4852
 8020SOL    HW135696   0.638   1.085   4.593  1.4118 -1.0096 -0.5752
 8020SOL    HW235697   0.551   1.006   4.499 -1.9435 -0.7059  0.6763
 8021SOL     OW35698   3.025   3.951   8.167  0.1865 -0.0758  0.1381
 8021SOL    HW135699   3.014   3.968   8.261 -1.9825 -2.5067  0.3216
 8021SOL    HW235700   3.119   3.934   8.165  0.1468  0.1042 -3.4590
 8022SOL     OW35701   1.348   0.922   8.891  0.3255  0.0784  0.0692
 8022SOL    HW135702   1.322   0.997   8.836  2.4485  1.3255  0.7730
 8022SOL    HW235703   1.275   0.899   8.948 -1.4760 -0.3664 -2.3982
 8023SOL     OW35704   1.520   0.325  14.345 -0.0760 -0.1942  0.1566
 8023SOL    HW135705   1.577   0.329  14.422 -1.4485  1.1845  1.1055
 8023SOL    HW235706   1.468   0.404  14.359  1.7703  0.7486  1.7730
 8024SOL     OW35707   2.051   2.975   1.399  0.3187 -0.6072  0.1948
 8024SOL    HW135708   2.113   2.978   1.326 -0.0372  1.5594 -0.0270
 8024SOL    HW235709   2.108   2.980   1.476 -1.0803  0.6326  1.1446
 8025SOL     OW35710   3.454   3.616   7.940  0.0191 -0.0741  0.3282
 8025SOL    HW135711   3.447   3.711   7.926  0.4749 -0.1804 -0.5868
 8025SOL    HW235712   3.432   3.617   8.033 -0.5960  1.2686  0.1733
 8026SOL     OW35713   1.270   2.691   2.600  0.1335  0.1029 -0.3124
 8026SOL    HW135714   1.336   2.759   2.606  2.5100 -2.0428 -2.4255
 8026SOL    HW235715   1.294   2.663   2.512  2.4907 -0.1415  0.4018
 8027SOL     OW35716   2.847   0.530   2.678  0.0558 -0.0873 -0.5389
 8027SOL    HW135717   2.830   0.607   2.624  1.2668 -0.7048 -1.8189
 8027SOL    HW235718   2.865   0.467   2.608  0.2972 -0.4607 -0.1382
 8028SOL     OW35719   1.577   1.203   7.358  0.2870 -0.5534  0.0543
 8028SOL    HW135720   1.627   1.262   7.415 -0.3432  0.8635 -0.8792
 8028SOL    HW235721   1.486   1.223   7.380  1.3388  0.8341  3.1952
 8029SOL     OW35722   4.643   1.038   5.791  0.3880 -0.2516  0.4188
 8029SOL    HW135723   4.705   1.063   5.723 -2.9430  1.5237 -1.9551
 8029SOL    HW235724   4.561   1.021   5.745  0.1535  0.6129  0.5121
 8030SOL     OW35725   3.430   1.304  17.504  0.5457 -0.4823  0.6582
 8030SOL    HW135726   3.517   1.333  17.530  0.0138  0.3864  1.4603
 8030SOL    HW235727   3.434   1.322  17.410  1.6754  0.2909  0.8577
 8031SOL     OW35728   0.068   1.001   7.711  0.0798 -0.7966 -0.0883
 8031SOL    HW135729   0.036   1.058   7.641  1.4366 -0.3918 -0.3807
 8031SOL    HW235730   0.008   0.926   7.704 -0.6238 -0.3127  0.8853
 8032SOL     OW35731   0.623   1.953   9.390  0.1553  0.1305  0.0488
 8032SOL    HW135732   0.621   2.043   9.357  0.5800 -0.3702 -1.3563
 8032SOL    HW235733   0.548   1.953   9.449 -1.3414  0.0894 -1.8568
 8033SOL     OW35734   3.934   3.166   4.563  0.1891  0.2219  0.5970
 8033SOL    HW135735   3.965   3.257   4.559 -0.9633  0.5989  0.0685
 8033SOL    HW235736   3.897   3.162   4.651  0.6117  1.0391  0.8105
 8034SOL     OW35737   4.065   2.408   6.614  0.7243  0.1631  0.5010
 8034SOL    HW135738   4.115   2.337   6.573 -2.0866 -1.2795 -0.3802
 8034SOL    HW235739   4.101   2.403   6.703  0.6304  2.2003  0.6362
 8035SOL     OW35740   1.899   3.332   9.029  0.4766 -0.6519  0.0833
 8035SOL    HW135741   1.950   3.338   9.110 -0.9238 -0.8702  0.9892
 8035SOL    HW235742   1.924   3.409   8.980 -0.2549 -0.7486 -0.4465
 8036SOL     OW35743   2.832   2.025   7.131  0.1670 -0.4612  0.0162
 8036SOL    HW135744   2.914   2.075   7.125 -0.6712  0.9653  0.3700
 8036SOL    HW235745   2.770   2.085   7.089  0.3469  0.1148  0.5704
 8037SOL     OW35746   1.880   1.527   3.067 -0.0176  0.5421  0.1144
 8037SOL    HW135747   1.918   1.557   2.985  0.0317 -1.4681 -0.5881
 8037SOL    HW235748   1.828   1.607   3.083 -0.0161  0.5408  0.1265
 8038SOL     OW35749   3.931   3.431   1.314 -0.4672  0.2845 -0.0240
 8038SOL    HW135750   3.945   3.338   1.332 -0.2028  0.0079 -1.6497
 8038SOL    HW235751   3.881   3.430   1.232  0.2613  1.4426 -0.4850
 8039SOL     OW35752   1.550   2.949   7.323 -0.2724  0.1771  0.0388
 8039SOL    HW135753   1.617   3.006   7.287  0.7818  0.4060  2.3510
 8039SOL    HW235754   1.586   2.862   7.307 -2.6639 -1.3481  2.7859
 8040SOL     OW35755   3.504   0.794  13.337  0.1284  0.2696 -0.5570
 8040SOL    HW135756   3.492   0.732  13.410 -0.7269  0.8953 -0.1540
 8040SOL    HW235757   3.470   0.875  13.376  0.7741  1.1347 -1.8020
 8041SOL     OW35758   0.308   3.710   4.027  0.0422  0.0996  0.3547
 8041SOL    HW135759   0.281   3.733   4.116  1.7339  0.0682  0.8713
 8041SOL    HW235760   0.290   3.618   4.045  1.0504  0.0580  1.1280
 8042SOL     OW35761   4.440   0.204   8.584  0.2187  0.5071 -0.3168
 8042SOL    HW135762   4.375   0.200   8.654  0.0914 -1.6333 -0.5697
 8042SOL    HW235763   4.404   0.137   8.526  0.1102  0.4390 -0.1704
 8043SOL     OW35764   1.365   2.789  14.522 -0.2544  0.0787 -0.0609
 8043SOL    HW135765   1.412   2.868  14.494 -0.9236  0.4031 -0.2572
 8043SOL    HW235766   1.281   2.800  14.478 -0.7635 -1.0408  0.6352
 8044SOL     OW35767   3.556   0.183   6.299  0.7154 -0.0953  0.3942
 8044SOL    HW135768   3.592   0.098   6.325 -1.2349 -0.7430  0.9383
 8044SOL    HW235769   3.476   0.158   6.254  1.8295 -0.4593 -1.4105
 8045SOL     OW35770   1.542   2.461  15.267  0.2581  0.2314 -0.1170
 8045SOL    HW135771   1.478   2.391  15.253  0.9033 -0.5622  0.9078
 8045SOL    HW235772   1.605   2.457  15.195  0.4543  1.5209 -0.0204
 8046SOL     OW35773   2.370   4.360  14.674  0.0989 -0.1859  0.1773
 8046SOL    HW135774   2.325   4.278  14.654  0.6527 -0.2883 -0.6626
 8046SOL    HW235775   2.302   4.426  14.659 -0.5749 -0.6865  1.0264
 8047SOL     OW35776   1.625   2.990  10.012 -0.2363 -0.1919 -0.4065
 8047SOL    HW135777   1.633   3.058  10.079 -2.1527 -1.2591  0.8977
 8047SOL    HW235778   1.719   2.980   9.999 -0.3183 -0.0653 -1.0866
 8048SOL     OW35779   1.047   0.579   4.003  0.3649  0.1649 -0.2424
 8048SOL    HW135780   1.079   0.489   4.010 -0.4749 -0.1468 -0.4848
 8048SOL    HW235781   1.124   0.606   4.053  0.0121  0.6913  0.0168
 8049SOL     OW35782   4.075   2.269   6.009 -0.4261  0.0236 -0.4402
 8049SOL    HW135783   4.002   2.257   6.070  0.6607 -0.7965  0.6828
 8049SOL    HW235784   4.087   2.363   5.993  0.3600  0.2584  1.5793
 8050SOL     OW35785   1.202   2.217   4.326 -0.0463  0.2574  0.3309
 8050SOL    HW135786   1.244   2.195   4.243 -0.4682 -1.4018  0.5684
 8050SOL    HW235787   1.113   2.203   4.295  0.7730  0.7720 -2.2587
 8051SOL     OW35788   3.914   4.440  10.974  0.5460  0.1282 -0.4125
 8051SOL    HW135789   3.957   4.452  11.059 -1.2313 -0.6553  0.5864
 8051SOL    HW235790   3.949   4.358  10.940  2.3718  0.5786  0.3767
 8052SOL     OW35791   2.029   1.480   7.901  0.4202  0.2131 -0.1433
 8052SOL    HW135792   2.044   1.573   7.882 -2.8335  0.9098  0.6340
 8052SOL    HW235793   1.995   1.451   7.817  3.8363  3.2249 -2.5774
 8053SOL     OW35794   3.270   1.687   9.933 -0.4197 -0.0464  0.1650
 8053SOL    HW135795   3.359   1.652   9.926 -1.6522 -2.5125 -3.0187
 8053SOL    HW235796   3.220   1.614   9.897 -0.1801 -0.6418  1.0322
 8054SOL     OW35797   3.083   3.919   6.393  0.2853  0.2284  0.6744
 8054SOL    HW135798   3.098   3.867   6.471 -0.6670 -1.3316 -0.1676
 8054SOL    HW235799   3.021   3.862   6.347 -0.8832  2.9682 -1.2144
 8055SOL     OW35800   1.103   2.051   4.538 -0.3086  0.0782  0.1786
 8055SOL    HW135801   1.166   1.984   4.513 -1.4831 -0.8049 -0.3858
 8055SOL    HW235802   1.135   2.126   4.487  1.0346 -0.3869  0.3172
 8056SOL     OW35803   3.839   1.297   6.315  0.0428  0.0657 -0.4857
 8056SOL    HW135804   3.928   1.263   6.315  0.3116  0.7551 -0.1994
 8056SOL    HW235805   3.791   1.240   6.375  1.6569 -1.5584 -0.7695
 8057SOL     OW35806   2.708   1.545   3.293 -0.7859  0.0049 -0.0916
 8057SOL    HW135807   2.763   1.467   3.287  2.5312  2.3691 -0.7034
 8057SOL    HW235808   2.677   1.532   3.383  0.7091  4.4619  1.0899
 8058SOL     OW35809   4.119   2.903  13.094 -0.4005  0.1913 -0.6762
 8058SOL    HW135810   4.213   2.892  13.081 -0.5773 -2.5976  0.2714
 8058SOL    HW235811   4.104   2.809  13.104  2.4130 -0.3030 -1.0789
 8059SOL     OW35812   2.367   3.537   9.669 -0.4425 -0.4672  0.1213
 8059SOL    HW135813   2.415   3.455   9.656  2.9880  0.9439  3.6547
 8059SOL    HW235814   2.358   3.522   9.763 -0.3727 -3.3246 -0.3335
 8060SOL     OW35815   1.813   4.221  14.252  0.2346  0.2738 -0.3468
 8060SOL    HW135816   1.731   4.191  14.290  0.2447  0.7832  0.0813
 8060SOL    HW235817   1.836   4.291  14.314  1.2392  0.1310 -0.5613
 8061SOL     OW35818   4.555   2.181  15.369  0.1154  0.6535 -0.2934
 8061SOL    HW135819   4.609   2.259  15.377  0.2638  0.6946 -1.7416
 8061SOL    HW235820   4.468   2.220  15.376  0.8044  2.3465 -1.2702
 8062SOL     OW35821   0.956   2.539   3.865  0.1492  0.0224 -0.2333
 8062SOL    HW135822   0.998   2.458   3.892  0.7391  0.6148  0.6638
 8062SOL    HW235823   0.879   2.501   3.822 -0.8030 -0.3257  1.7884
 8063SOL     OW35824   4.535   4.570  13.671  0.1553  0.3695 -0.7814
 8063SOL    HW135825   4.544   4.483  13.711  1.7095  0.1344 -1.6144
 8063SOL    HW235826   4.506   4.551  13.582  0.3271 -0.2252 -0.7158
 8064SOL     OW35827   2.573   0.540  17.197  0.2057  0.0629 -0.5921
 8064SOL    HW135828   2.619   0.519  17.278 -0.2868 -2.6872 -1.0397
 8064SOL    HW235829   2.548   0.630  17.220 -1.0985 -0.5193  0.2713
 8065SOL     OW35830   2.041   0.959   6.288 -0.5451 -0.0058  0.3189
 8065SOL    HW135831   2.052   0.930   6.379  1.1123  0.2909  0.2043
 8065SOL    HW235832   2.131   0.978   6.263 -0.2262 -2.0428 -0.0485
 8066SOL     OW35833   1.027   4.503   5.151  0.3175 -0.0914  0.0486
 8066SOL    HW135834   0.981   4.582   5.181  0.9772 -0.7235  2.7457
 8066SOL    HW235835   1.115   4.535   5.134 -0.3699 -0.9867 -5.2295
 8067SOL     OW35836   2.109   1.233  12.514 -1.0081 -0.3482  0.0977
 8067SOL    HW135837   2.193   1.243  12.468 -1.7756  0.7114 -1.1052
 8067SOL    HW235838   2.108   1.328  12.525 -0.4620 -0.3112 -0.1475
 8068SOL     OW35839   0.444   1.070   4.364 -0.1466  0.3986 -0.5639
 8068SOL    HW135840   0.378   1.036   4.425  1.5587 -3.3344 -0.7998
 8068SOL    HW235841   0.392   1.123   4.305 -2.1123 -1.4173 -0.4692
 8069SOL     OW35842   0.558   2.501   3.381 -0.1267 -0.3451 -0.3322
 8069SOL    HW135843   0.617   2.529   3.311  1.4860 -0.1987  1.0748
 8069SOL    HW235844   0.618   2.500   3.456 -2.0114 -3.5436  1.1397
 8070SOL     OW35845   4.730   3.399   5.094 -1.0957  0.1740 -0.0442
 8070SOL    HW135846   0.024   3.337   5.160  0.5301  2.4791  1.3031
 8070SOL    HW235847   4.639   3.369   5.089 -1.2894  0.7325  0.1839
 8071SOL     OW35848   0.950   1.859   8.931 -0.2353  0.0076 -0.2657
 8071SOL    HW135849   0.948   1.784   8.990  1.3057 -0.0952 -0.3457
 8071SOL    HW235850   1.025   1.890   8.982 -1.0458 -0.2773  1.0994
 8072SOL     OW35851   3.927   0.521  11.536 -0.5553  0.9820  0.5412
 8072SOL    HW135852   4.000   0.507  11.475  1.0745  1.5562  2.3612
 8072SOL    HW235853   3.897   0.603  11.498  1.3618  1.5474  0.2544
 8073SOL     OW35854   0.499   2.859   7.014 -0.0567 -0.0640  0.0001
 8073SOL    HW135855   0.464   2.795   7.076  0.7504 -1.0440 -0.5597
 8073SOL    HW235856   0.462   2.931   7.065  0.4533  1.4378 -1.7686
 8074SOL     OW35857   2.016   4.010   9.025 -0.0497  0.2455 -0.8820
 8074SOL    HW135858   2.015   4.055   8.940 -0.3400  0.7112 -0.6275
 8074SOL    HW235859   1.928   4.032   9.054  1.1307  1.4363  1.7733
 8075SOL     OW35860   3.053   0.632  14.003  0.2606  0.1862  0.2501
 8075SOL    HW135861   3.028   0.540  14.013 -0.3196  0.2537 -0.6170
 8075SOL    HW235862   3.143   0.632  14.036  1.0516 -0.3830 -1.8744
 8076SOL     OW35863   2.178   0.703   4.809 -0.1417 -0.4780 -0.1526
 8076SOL    HW135864   2.270   0.726   4.799 -0.2639 -0.7009 -1.7534
 8076SOL    HW235865   2.163   0.640   4.738  1.6248  0.1425 -1.0582
 8077SOL     OW35866   2.901   4.376   5.609  0.0642  0.3752  0.4766
 8077SOL    HW135867   2.982   4.425   5.628  0.4205  0.3479 -0.9771
 8077SOL    HW235868   2.838   4.448   5.618  0.6576  1.1593 -1.5288
 8078SOL     OW35869   4.002   1.784   6.313  0.0652 -0.1146  0.4099
 8078SOL    HW135870   4.008   1.704   6.261  0.2057  0.5013 -0.5242
 8078SOL    HW235871   3.911   1.775   6.343 -0.1322 -0.0444 -0.1649
 8079SOL     OW35872   3.319   3.050   0.858  0.7804  0.1772 -0.0744
 8079SOL    HW135873   3.232   3.026   0.889  0.4038  0.8310 -0.6324
 8079SOL    HW235874   3.368   3.075   0.936  0.6742  0.5191 -0.1203
 8080SOL     OW35875   1.567   2.607  17.050 -0.9069  0.0019 -0.3101
 8080SOL    HW135876   1.540   2.523  17.086  2.3936 -1.2663 -0.7376
 8080SOL    HW235877   1.587   2.662  17.126 -1.1921 -1.1790  0.6130
 8081SOL     OW35878   2.200   0.425   6.126 -0.1131 -0.1657 -0.2165
 8081SOL    HW135879   2.154   0.509   6.134  1.7837  1.0165 -1.6992
 8081SOL    HW235880   2.150   0.377   6.192 -0.6141 -1.7935 -1.7832
 8082SOL     OW35881   1.268   3.528   1.937 -0.3756 -0.3444  0.4323
 8082SOL    HW135882   1.233   3.549   2.023 -0.3961 -0.4723  0.4547
 8082SOL    HW235883   1.363   3.525   1.949 -0.4105 -0.6200  0.6353
 8083SOL     OW35884   1.015   4.501   6.843 -0.3922  0.4193  0.0396
 8083SOL    HW135885   0.920   4.509   6.847 -0.4712 -0.6770  0.1529
 8083SOL    HW235886   1.021   4.465   6.754 -0.0279 -0.3227  0.3694
 8084SOL     OW35887   4.572   2.586   2.116  0.2999  0.0862 -0.2362
 8084SOL    HW135888   4.630   2.537   2.174 -0.9438  0.2513  1.1483
 8084SOL    HW235889   4.631   2.592   2.041  1.0386 -0.1599  0.3264
 8085SOL     OW35890   3.499   3.757   4.772 -0.1025 -0.3431  0.2627
 8085SOL    HW135891   3.462   3.834   4.815  0.3735  0.2353 -0.3492
 8085SOL    HW235892   3.590   3.787   4.765  0.0405 -0.4626  1.6552
 8086SOL     OW35893   2.397   0.493   7.045  0.2318  0.1885  0.4202
 8086SOL    HW135894   2.445   0.419   7.008 -1.5769  0.3352 -2.1809
 8086SOL    HW235895   2.416   0.484   7.139 -2.6750  2.4595  1.2387
 8087SOL     OW35896   0.828   2.893   1.183  0.1339  0.0593  0.6505
 8087SOL    HW135897   0.769   2.837   1.233  0.9520 -1.6396 -0.3003
 8087SOL    HW235898   0.860   2.952   1.251 -0.9727 -0.6999  1.8298
 8088SOL     OW35899   0.921   1.682  16.247 -0.5698  0.6395 -0.2303
 8088SOL    HW135900   1.015   1.702  16.245 -0.0769 -1.6644  0.2812
 8088SOL    HW235901   0.884   1.709  16.331  0.0407  1.5656 -0.2615
 8089SOL     OW35902   0.089   3.562   1.720 -0.1064 -0.0677 -0.4420
 8089SOL    HW135903   0.126   3.642   1.682 -2.4188  1.6849  1.0249
 8089SOL    HW235904   0.162   3.501   1.731 -0.5580 -0.1269  2.1247
 8090SOL     OW35905   4.655   1.624   5.991  0.2684 -0.2535 -0.0233
 8090SOL    HW135906   4.698   1.618   6.076  1.4473  0.5406 -0.5681
 8090SOL    HW235907   4.636   1.717   5.980  0.9105 -0.0869  0.3168
 8091SOL     OW35908   0.767   2.833   6.936  0.0461  0.2127  0.2282
 8091SOL    HW135909   0.677   2.831   6.967  0.9227  1.4697  2.8688
 8091SOL    HW235910   0.805   2.763   6.989  0.5143 -1.4988 -2.3400
 8092SOL     OW35911   2.921   0.230   5.239  0.5961 -0.1610 -0.4398
 8092SOL    HW135912   2.974   0.151   5.239  1.0136  0.1215 -0.9345
 8092SOL    HW235913   2.847   0.210   5.296 -0.7488 -1.6784 -2.7081
 8093SOL     OW35914   3.707   3.623   7.112 -0.1396  0.4394 -0.8561
 8093SOL    HW135915   3.778   3.611   7.175  0.3542 -1.4164 -1.7626
 8093SOL    HW235916   3.762   3.607   7.035 -1.0793 -0.7718 -1.2723
 8094SOL     OW35917   1.655   1.176  15.780 -0.3682  0.2115  0.4524
 8094SOL    HW135918   1.594   1.198  15.710  0.9494 -0.5880 -0.9491
 8094SOL    HW235919   1.627   1.238  15.847 -0.5401  0.8474 -0.2045
 8095SOL     OW35920   0.570   3.415   8.476  0.0532  0.1032  0.5124
 8095SOL    HW135921   0.610   3.498   8.450 -1.4253  0.4667 -0.6605
 8095SOL    HW235922   0.479   3.446   8.478  0.5534  1.6806 -0.6043
 8096SOL     OW35923   2.698   1.215   9.853 -0.6451  0.1193  0.4082
 8096SOL    HW135924   2.707   1.266   9.933  2.5150  0.6053 -0.2215
 8096SOL    HW235925   2.730   1.132   9.887  0.2097 -0.6523 -2.2316
 8097SOL     OW35926   3.779   2.750   4.590 -0.1269 -0.4218 -0.4212
 8097SOL    HW135927   3.697   2.799   4.581  0.5727  0.9983  0.9845
 8097SOL    HW235928   3.835   2.822   4.618  0.2494 -1.2333  0.8998
 8098SOL     OW35929   0.521   0.814   1.386 -0.6498 -0.1520  0.1412
 8098SOL    HW135930   0.518   0.823   1.291  0.2744 -1.2014  0.0203
 8098SOL    HW235931   0.492   0.723   1.387 -0.6658 -0.1849 -4.0745
 8099SOL     OW35932   2.758   1.139   5.329  0.0489 -0.5910 -0.1545
 8099SOL    HW135933   2.701   1.064   5.318  0.3930 -1.0099  0.9673
 8099SOL    HW235934   2.787   1.154   5.239 -1.1566 -1.1301 -0.6221
 8100SOL     OW35935   2.444   0.864   2.204 -0.1679  0.1073  0.6060
 8100SOL    HW135936   2.469   0.944   2.250 -2.2586  0.6346  0.7808
 8100SOL    HW235937   2.351   0.865   2.182  0.2778 -2.4141 -1.3653
 8101SOL     OW35938   4.149   4.174  13.534 -0.2918 -0.3442 -0.5602
 8101SOL    HW135939   4.060   4.199  13.559 -0.3949 -1.6563  0.3572
 8101SOL    HW235940   4.194   4.258  13.524 -1.4452 -0.0151 -2.9304
 8102SOL     OW35941   2.260   4.362   9.192 -0.0378  0.2997 -0.3065
 8102SOL    HW135942   2.236   4.415   9.116 -0.8717  1.0155  0.4538
 8102SOL    HW235943   2.292   4.430   9.252  2.5826 -0.8364 -0.4003
 8103SOL     OW35944   2.297   4.010   9.040  0.3345  0.3107 -0.8047
 8103SOL    HW135945   2.324   3.931   8.994  2.5707  0.3122  0.4976
 8103SOL    HW235946   2.202   4.008   9.031  0.1941  0.3893  0.5412
 8104SOL     OW35947   1.388   3.607   8.385 -0.1620  0.3928 -0.1338
 8104SOL    HW135948   1.303   3.642   8.411  0.3643  0.1522  1.9209
 8104SOL    HW235949   1.378   3.585   8.293  1.6102  1.1747 -0.5159
 8105SOL     OW35950   2.600   3.147   4.230  0.1646  0.1746 -0.6851
 8105SOL    HW135951   2.524   3.159   4.287  0.7168  0.5894 -0.0219
 8105SOL    HW235952   2.596   3.053   4.214 -3.6905  0.2400  0.0254
 8106SOL     OW35953   0.406   3.338  14.481 -0.2718  0.1406  0.1998
 8106SOL    HW135954   0.464   3.349  14.557  0.4824 -1.6126 -0.1326
 8106SOL    HW235955   0.451   3.266  14.437  0.1198 -0.1434  1.0659
 8107SOL     OW35956   2.159   3.108   2.398 -0.0455 -0.0335  0.1406
 8107SOL    HW135957   2.202   3.159   2.467 -1.9891 -0.2304  1.4823
 8107SOL    HW235958   2.194   3.144   2.317  0.6691 -0.8734  0.0659
 8108SOL     OW35959   3.778   4.378   8.202  0.4171 -0.5099 -0.0239
 8108SOL    HW135960   3.849   4.332   8.156  0.8646  0.8183 -0.6439
 8108SOL    HW235961   3.826   4.449   8.244  0.2040 -1.5523  1.9730
 8109SOL     OW35962   2.431   3.678  16.440  0.1966  0.0399 -0.3517
 8109SOL    HW135963   2.523   3.676  16.465  0.6908 -0.0987 -2.1613
 8109SOL    HW235964   2.398   3.754  16.487 -2.9661 -0.8636 -1.1058
 8110SOL     OW35965   0.906   3.777   3.782  0.2639 -0.0634 -0.4728
 8110SOL    HW135966   0.961   3.754   3.707 -1.4200  0.6373 -1.9182
 8110SOL    HW235967   0.974   3.798   3.847  1.0566 -0.9824 -0.9975
 8111SOL     OW35968   4.384   1.629  11.349 -0.5286 -0.5785 -0.1593
 8111SOL    HW135969   4.368   1.589  11.263 -0.1478 -1.3336  0.1228
 8111SOL    HW235970   4.312   1.691  11.359 -2.4213 -2.9066  0.5962
 8112SOL     OW35971   0.478   1.375   4.669  0.7829  0.2493  0.3532
 8112SOL    HW135972   0.510   1.436   4.735 -1.1025 -0.8730  2.2928
 8112SOL    HW235973   0.565   1.350   4.635 -0.0207 -0.7207 -0.9884
 8113SOL     OW35974   2.760   2.631  13.712  0.0455  0.6465  0.4039
 8113SOL    HW135975   2.760   2.633  13.807 -1.3972 -1.3879  0.4580
 8113SOL    HW235976   2.851   2.613  13.686 -0.0753 -0.5118  0.7769
 8114SOL     OW35977   2.781   3.489  12.395 -0.5987 -0.2231  0.3124
 8114SOL    HW135978   2.741   3.415  12.441  1.1186 -0.9738  0.5916
 8114SOL    HW235979   2.725   3.561  12.422 -1.7815 -0.9321 -0.2304
 8115SOL     OW35980   0.137   2.869   7.271 -0.3418  0.7447  0.2136
 8115SOL    HW135981   0.188   2.789   7.282 -2.9234 -0.6928  1.9153
 8115SOL    HW235982   0.062   2.834   7.222  1.7417 -0.0249 -2.4023
 8116SOL     OW35983   2.806   1.254  16.733 -0.1749 -0.0962 -0.0397
 8116SOL    HW135984   2.720   1.272  16.773 -0.2298  0.2181 -0.2963
 8116SOL    HW235985   2.784   1.194  16.662  1.0495 -1.4051  0.7030
 8117SOL     OW35986   3.452   2.646  14.506  0.2205 -0.3802 -0.5883
 8117SOL    HW135987   3.363   2.676  14.523  0.1001 -0.9850 -0.1944
 8117SOL    HW235988   3.475   2.597  14.585 -0.5995  2.1424  1.2080
 8118SOL     OW35989   2.026   3.129  10.034 -0.1667 -0.1222 -0.3055
 8118SOL    HW135990   1.954   3.190  10.015  0.0746 -0.0024 -0.8452
 8118SOL    HW235991   2.043   3.150  10.126  0.4137 -1.5742 -0.0805
 8119SOL     OW35992   1.584   0.251   5.019  0.4700 -0.4043  0.2038
 8119SOL    HW135993   1.636   0.324   5.053 -1.9680  0.5151  1.9775
 8119SOL    HW235994   1.501   0.296   5.003  0.8113  0.3193  0.4593
 8120SOL     OW35995   2.296   1.456   5.133 -0.0155 -0.4494  0.1401
 8120SOL    HW135996   2.320   1.548   5.120 -1.0067 -0.2819 -0.4734
 8120SOL    HW235997   2.351   1.436   5.209  0.5192 -0.4204 -0.2421
 8121SOL     OW35998   0.626   3.681   4.143  0.3543  0.0269  1.0141
 8121SOL    HW135999   0.605   3.738   4.217 -1.1747  0.3255  0.3705
 8121SOL    HW236000   0.536   3.664   4.115  0.7827  1.0088 -1.0015
 8122SOL     OW36001   2.748   4.492  11.595  0.1430  0.2300 -0.6786
 8122SOL    HW136002   2.765   4.471  11.686  0.6732  1.1775 -0.5548
 8122SOL    HW236003   2.768   4.585  11.581  0.1593  0.2109 -0.7849
 8123SOL     OW36004   1.703   3.474   6.043  0.3825  0.6412  0.4318
 8123SOL    HW136005   1.772   3.489   6.107 -0.3041  0.1865  1.2818
 8123SOL    HW236006   1.624   3.512   6.083 -0.4159 -0.6016  0.0403
 8124SOL     OW36007   3.449   2.409   5.413  0.4754 -0.3830  0.5916
 8124SOL    HW136008   3.458   2.342   5.345 -2.1806  1.5057 -1.6621
 8124SOL    HW236009   3.537   2.436   5.439  1.5930 -2.3967 -1.0536
 8125SOL     OW36010   3.929   1.124   4.324 -0.0424  0.4602 -0.0507
 8125SOL    HW136011   4.015   1.155   4.295 -0.0099 -0.5678 -1.0677
 8125SOL    HW236012   3.950   1.130   4.417  0.5021  1.3029 -0.2236
 8126SOL     OW36013   1.459   2.158  13.005  0.1376  0.0832  0.3149
 8126SOL    HW136014   1.531   2.155  13.069 -0.5129 -0.1202  1.0333
 8126SOL    HW236015   1.434   2.066  13.010  0.3600 -0.1267 -2.2241
 8127SOL     OW36016   0.529   3.983   5.590  0.4803  0.8370 -0.3919
 8127SOL    HW136017   0.463   4.047   5.563  1.0900  2.2940  1.5705
 8127SOL    HW236018   0.531   3.928   5.511 -0.9707 -0.3442  0.4030
 8128SOL     OW36019   1.082   2.196   1.281 -0.3863  0.1776 -0.3149
 8128SOL    HW136020   1.016   2.158   1.339  1.9195 -1.1729  1.4231
 8128SOL    HW236021   1.030   2.229   1.208  0.4062 -0.6543 -1.2653
 8129SOL     OW36022   2.415   0.467   6.530  0.0559  0.2007  0.6704
 8129SOL    HW136023   2.378   0.382   6.509  1.0662  0.3165 -1.6392
 8129SOL    HW236024   2.343   0.520   6.563 -0.1672  0.4852 -0.2724
 8130SOL     OW36025   1.143   3.561   7.948 -0.1513 -0.2778 -0.4134
 8130SOL    HW136026   1.120   3.474   7.914 -0.5415 -0.5195  0.4675
 8130SOL    HW236027   1.062   3.595   7.986  0.9922 -0.6881  2.3879
 8131SOL     OW36028   0.570   3.967   8.322 -0.5053  0.4120 -0.2280
 8131SOL    HW136029   0.545   4.042   8.377  0.1791  1.7270 -1.7084
 8131SOL    HW236030   0.639   3.995   8.263 -0.6127 -0.9085 -0.9842
 8132SOL     OW36031   2.088   3.249   3.668  0.0336 -0.2648 -0.2199
 8132SOL    HW136032   2.052   3.220   3.584 -1.4370  1.8452 -0.3279
 8132SOL    HW236033   2.061   3.174   3.720  2.7441  0.6728  2.5421
 8133SOL     OW36034   1.020   2.554   6.690  0.2758 -0.3112 -0.4770
 8133SOL    HW136035   0.937   2.559   6.643 -0.5941 -1.2380  0.9531
 8133SOL    HW236036   1.082   2.548   6.618  0.4430 -0.9389 -0.2798
 8134SOL     OW36037   0.694   1.532  15.911 -0.5450  0.3743 -0.0146
 8134SOL    HW136038   0.736   1.618  15.900 -0.0957  0.1380 -0.1516
 8134SOL    HW236039   0.716   1.506  16.001 -1.8054 -1.3297 -0.2016
 8135SOL     OW36040   0.826   3.098   2.991 -0.2221 -0.3434  0.0142
 8135SOL    HW136041   0.774   3.161   2.941  3.0623  2.3298 -0.1013
 8135SOL    HW236042   0.793   3.021   2.945 -1.3199 -1.0218  1.9944
 8136SOL     OW36043   2.067   0.114   2.597 -0.2666 -0.1420  0.0429
 8136SOL    HW136044   2.079   0.043   2.534 -1.3717 -1.2648  1.0877
 8136SOL    HW236045   2.048   0.187   2.538  1.9914  0.5644  0.2032
 8137SOL     OW36046   4.547   1.218   6.119  0.3850  0.3496 -0.5307
 8137SOL    HW136047   4.618   1.159   6.095  1.4863  1.4166  0.1152
 8137SOL    HW236048   4.599   1.298   6.123  0.8370  0.0123  0.1829
 8138SOL     OW36049   0.289   4.659   3.198  0.0406  0.0082  0.1870
 8138SOL    HW136050   0.329   4.634   3.281 -0.5365  1.4884  0.9043
 8138SOL    HW236051   0.300   4.573   3.157  3.7104  1.2885 -1.5395
 8139SOL     OW36052   3.079   4.385   5.966  0.4290  0.0473 -0.2814
 8139SOL    HW136053   3.053   4.367   6.056 -1.7774  4.0153 -0.1264
 8139SOL    HW236054   3.157   4.330   5.959  0.1858 -0.5364  1.6321
 8140SOL     OW36055   1.223   3.440   6.019  0.3930 -1.0185 -0.0585
 8140SOL    HW136056   1.166   3.394   6.080  0.9023 -0.0047  1.1766
 8140SOL    HW236057   1.232   3.373   5.951  1.6923  1.0920 -1.9647
 8141SOL     OW36058   4.493   4.309  14.080 -0.6087  0.0442 -0.2173
 8141SOL    HW136059   4.547   4.292  14.158 -3.1535  1.4405  1.8701
 8141SOL    HW236060   4.519   4.399  14.065  0.7594 -0.5351 -1.2918
 8142SOL     OW36061   2.726   0.141   4.016 -0.0970 -0.1790 -0.4256
 8142SOL    HW136062   2.737   0.120   3.923 -1.0948  1.1848 -0.8531
 8142SOL    HW236063   2.644   0.095   4.029 -0.8071  1.4617  0.8775
 8143SOL     OW36064   1.733   0.534   1.237 -0.4276 -0.5351 -0.0622
 8143SOL    HW136065   1.775   0.506   1.156  0.1064  0.9427 -0.2750
 8143SOL    HW236066   1.759   0.461   1.294 -2.3037  0.1586  1.6653
 8144SOL     OW36067   2.959   0.873  13.921  0.3230 -0.1036 -0.4045
 8144SOL    HW136068   3.048   0.871  13.886  0.7294  2.1064  0.5206
 8144SOL    HW236069   2.947   0.786  13.960 -0.1044 -0.3134 -1.0078
 8145SOL     OW36070   0.038   3.711   2.462  0.2816 -0.2573 -0.1174
 8145SOL    HW136071   0.082   3.631   2.491  1.4189 -0.4261 -2.2513
 8145SOL    HW236072   0.088   3.723   2.381 -0.2550 -0.2880 -0.4529
 8146SOL     OW36073   2.591   4.538  17.744 -0.3361  0.1381 -0.0994
 8146SOL    HW136074   2.545   4.558  17.663  2.3836 -2.7544 -2.3127
 8146SOL    HW236075   2.683   4.549  17.721  0.1374 -1.8994  0.7921
 8147SOL     OW36076   2.244   1.726   6.835  0.5338 -1.3738 -0.3368
 8147SOL    HW136077   2.172   1.680   6.791  0.1791 -1.4249  0.3058
 8147SOL    HW236078   2.199   1.807   6.859  0.9300 -0.8922 -1.1901
 8148SOL     OW36079   4.321   1.644   6.714 -0.2099  0.3105 -0.2817
 8148SOL    HW136080   4.293   1.707   6.780 -0.5095 -2.0081  1.8163
 8148SOL    HW236081   4.295   1.559   6.752 -0.6166  1.2060  1.4314
 8149SOL     OW36082   4.382   0.982   3.897  0.5993  0.2446  0.3753
 8149SOL    HW136083   4.469   1.021   3.893  0.5772 -0.1274 -3.2984
 8149SOL    HW236084   4.338   1.017   3.820  0.7145 -1.0468 -0.2829
 8150SOL     OW36085   3.503   1.308   9.468  0.8456 -0.4065 -0.3071
 8150SOL    HW136086   3.522   1.376   9.403  1.5089 -0.8961 -0.6305
 8150SOL    HW236087   3.430   1.351   9.513  1.1837  1.9472 -2.0123
 8151SOL     OW36088   2.029   1.514   7.312  0.3876 -0.2418  0.0745
 8151SOL    HW136089   1.971   1.587   7.334  1.6445  0.7683  0.0085
 8151SOL    HW236090   2.051   1.512   7.219  3.7642  2.2329  0.8370
 8152SOL     OW36091   3.443   0.922  13.730 -0.5937 -1.0849  0.2277
 8152SOL    HW136092   3.426   0.927  13.636  0.8644 -1.1560 -0.0313
 8152SOL    HW236093   3.538   0.912  13.728 -0.4753  0.1873 -0.5781
 8153SOL     OW36094   3.609   1.526   6.980 -0.1748  0.6090  0.0184
 8153SOL    HW136095   3.640   1.451   7.030 -0.1065  1.4902  1.2998
 8153SOL    HW236096   3.516   1.504   6.974 -0.9036  4.3968 -2.7265
 8154SOL     OW36097   0.388   2.617   7.127  0.1536  0.4899  0.4190
 8154SOL    HW136098   0.340   2.624   7.209  2.9870  4.2775  1.7010
 8154SOL    HW236099   0.301   2.617   7.087 -0.9915  0.3013  2.9312
 8155SOL     OW36100   0.085   2.244   4.747 -0.9150 -0.8280 -0.3514
 8155SOL    HW136101   0.079   2.150   4.729 -1.2204 -0.7002 -0.9185
 8155SOL    HW236102   0.154   2.271   4.686  0.7723 -0.8695  1.5511
 8156SOL     OW36103   1.608   0.102  14.211 -0.1545 -0.7093 -0.1502
 8156SOL    HW136104   1.560   0.074  14.133 -0.3749  1.4827 -0.8084
 8156SOL    HW236105   1.583   0.194  14.217  0.8219 -0.4349 -0.3905
 8157SOL     OW36106   0.387   1.266   2.669 -0.3797 -0.0843  0.1195
 8157SOL    HW136107   0.366   1.179   2.636 -1.4901 -0.1253  0.9404
 8157SOL    HW236108   0.382   1.307   2.582 -0.6919  2.5194  1.3631
 8158SOL     OW36109   1.640   2.734   2.606 -0.2509  0.0582 -0.6420
 8158SOL    HW136110   1.701   2.776   2.545 -1.1131 -0.9962 -2.2456
 8158SOL    HW236111   1.577   2.797   2.642  1.1329  0.4361  1.1301
 8159SOL     OW36112   1.081   3.971   7.343  0.3762 -0.3667 -0.0703
 8159SOL    HW136113   1.037   3.996   7.262  1.3207  0.8269 -0.2217
 8159SOL    HW236114   1.133   4.051   7.356 -0.1135 -0.0418 -0.1157
 8160SOL     OW36115   3.183   2.387   0.598 -0.0241  0.3060  0.5155
 8160SOL    HW136116   3.235   2.351   0.670  0.2858 -1.2385 -0.4776
 8160SOL    HW236117   3.253   2.438   0.558 -0.6304  0.8182  0.1104
 8161SOL     OW36118   3.863   1.237   9.205  0.1168 -0.7725 -0.5754
 8161SOL    HW136119   3.837   1.180   9.133 -3.6728  1.0748 -0.6401
 8161SOL    HW236120   3.913   1.174   9.257  0.2555  0.2629  0.5574
 8162SOL     OW36121   4.463   1.213   7.243 -0.1255  0.3850 -0.3135
 8162SOL    HW136122   4.534   1.272   7.268 -0.8983  0.7032  1.1460
 8162SOL    HW236123   4.492   1.197   7.153  0.0583  0.1869 -0.2190
 8163SOL     OW36124   0.032   1.127   8.398 -0.2928 -0.3776  1.2643
 8163SOL    HW136125   4.704   1.061   8.378 -0.7866  1.1696 -2.1816
 8163SOL    HW236126   0.111   1.076   8.383 -1.5837 -2.3539  1.1779
 8164SOL     OW36127   2.893   2.618   3.277 -0.5275 -0.0638  0.3537
 8164SOL    HW136128   2.913   2.592   3.188  0.4627 -2.8874  1.4178
 8164SOL    HW236129   2.842   2.699   3.266  1.3369  1.1985  1.1072
 8165SOL     OW36130   4.677   0.096   8.675  0.0849 -1.2730 -0.5643
 8165SOL    HW136131   4.585   0.121   8.661  0.3969  0.9038  1.1295
 8165SOL    HW236132   4.669   0.063   8.764  2.3184  1.0229  0.4859
 8166SOL     OW36133   3.038   3.140   3.744  0.1273  0.3807 -0.0907
 8166SOL    HW136134   2.969   3.075   3.730  1.8259 -2.1106  3.0874
 8166SOL    HW236135   2.985   3.216   3.768  1.3661  0.7021  1.6639
 8167SOL     OW36136   3.617   3.477  16.607 -0.1321  0.2509  0.1782
 8167SOL    HW136137   3.601   3.536  16.533 -0.9558  0.7416  0.7456
 8167SOL    HW236138   3.703   3.446  16.576 -1.9217 -1.5014 -3.0684
 8168SOL     OW36139   3.582   0.116   3.864 -0.4565 -0.2134  0.0400
 8168SOL    HW136140   3.492   0.084   3.873 -0.4095  0.3015  2.3526
 8168SOL    HW236141   3.608   0.104   3.956 -0.9276  1.2868  0.3647
 8169SOL     OW36142   0.768   4.516   3.432  0.3820  0.3386  0.3644
 8169SOL    HW136143   0.777   4.586   3.497  1.1889  0.2665  0.3283
 8169SOL    HW236144   0.761   4.437   3.486 -1.7364  1.5917  1.9391
 8170SOL     OW36145   3.385   4.593  10.193 -0.3214 -0.4167 -0.6698
 8170SOL    HW136146   3.328   4.516  10.194 -1.3066  0.3167 -0.4952
 8170SOL    HW236147   3.342   4.645  10.125  0.3226 -0.9443 -1.4730
 8171SOL     OW36148   4.020   3.475   5.745  0.3334 -0.6190 -0.1395
 8171SOL    HW136149   3.965   3.406   5.782 -0.1653 -0.5503 -0.7537
 8171SOL    HW236150   4.073   3.497   5.822  1.8108 -0.2031 -1.2772
 8172SOL     OW36151   3.665   2.907  12.813 -0.0303 -0.2010  0.9710
 8172SOL    HW136152   3.623   2.973  12.758 -1.6360 -0.2880  2.0877
 8172SOL    HW236153   3.626   2.927  12.898 -0.2194 -2.5818  1.4548
 8173SOL     OW36154   3.712   2.242   4.724 -0.1144  0.5054  0.6104
 8173SOL    HW136155   3.767   2.171   4.690 -1.2891  0.3890 -1.0650
 8173SOL    HW236156   3.667   2.267   4.643  2.4705 -0.5742 -1.1880
 8174SOL     OW36157   1.080   3.952   2.190 -0.3442 -0.2873 -0.1848
 8174SOL    HW136158   1.104   4.026   2.245 -1.9335 -0.3952  0.6762
 8174SOL    HW236159   1.069   3.883   2.256  3.4242 -0.6702  0.0031
 8175SOL     OW36160   3.061   2.978   4.486 -0.2561 -0.1066  0.7325
 8175SOL    HW136161   3.108   2.918   4.429  0.9896  0.4443  1.1959
 8175SOL    HW236162   3.130   3.037   4.514 -0.1862  0.0245  0.2848
 8176SOL     OW36163   0.402   0.627   8.325  0.0303 -0.1856 -0.1034
 8176SOL    HW136164   0.434   0.642   8.236 -3.8331  1.2474 -1.2655
 8176SOL    HW236165   0.448   0.545   8.340  1.1496  0.0995 -1.8825
 8177SOL     OW36166   2.336   0.770   0.692  0.5760  0.4900  0.1545
 8177SOL    HW136167   2.305   0.851   0.653  2.0910  1.5092  1.0782
 8177SOL    HW236168   2.254   0.720   0.687  0.4019  0.7130  0.7196
 8178SOL     OW36169   1.703   4.188   6.300  0.2244  0.5565  0.0727
 8178SOL    HW136170   1.610   4.189   6.280  0.0439 -0.9299  0.7903
 8178SOL    HW236171   1.707   4.149   6.388  1.4350  2.3470  0.8045
 8179SOL     OW36172   0.553   1.955   6.575  0.2950  0.1656 -0.6067
 8179SOL    HW136173   0.587   2.044   6.566 -0.9161  0.8199  1.1270
 8179SOL    HW236174   0.594   1.930   6.657 -0.4238  2.7224  0.5475
 8180SOL     OW36175   1.777   2.134   5.030  0.4870  0.8802 -0.1381
 8180SOL    HW136176   1.778   2.085   5.113  1.9912  0.4732 -0.3946
 8180SOL    HW236177   1.701   2.190   5.049 -0.2272  0.0659 -0.5869
 8181SOL     OW36178   0.473   2.614   3.700 -0.4969  0.2553 -0.1918
 8181SOL    HW136179   0.559   2.599   3.739 -0.7431  0.9832  0.6412
 8181SOL    HW236180   0.492   2.675   3.628 -0.4238 -0.5988 -0.8937
 8182SOL     OW36181   3.262   2.232  10.936  0.1031 -0.5952 -0.2954
 8182SOL    HW136182   3.260   2.137  10.934  0.3969 -0.5993 -0.4666
 8182SOL    HW236183   3.188   2.252  10.879  1.2576  2.4374 -0.7570
 8183SOL     OW36184   4.222   1.702   7.152 -0.9595  0.5067 -0.3738
 8183SOL    HW136185   4.225   1.795   7.174  0.7383  0.9412 -2.3784
 8183SOL    HW236186   4.316   1.683   7.155 -1.0067  0.2767 -0.4111
 8184SOL     OW36187   1.990   3.428   2.055  0.5394  0.2735 -0.4272
 8184SOL    HW136188   2.082   3.402   2.060  0.5017  0.2967  0.5704
 8184SOL    HW236189   1.953   3.343   2.079 -1.4957  1.2837 -0.0403
 8185SOL     OW36190   1.170   0.465  12.869 -0.3358  0.1159  0.1843
 8185SOL    HW136191   1.147   0.381  12.830  4.2307 -0.2426 -1.7007
 8185SOL    HW236192   1.096   0.510  12.828  0.6991  1.2797 -0.4168
 8186SOL     OW36193   0.131   1.472  16.122 -0.5609  0.2117 -0.1160
 8186SOL    HW136194   0.154   1.483  16.030  1.7842  0.3453  0.4669
 8186SOL    HW236195   0.219   1.491  16.155 -1.2969 -0.9529  2.5555
 8187SOL     OW36196   1.503   1.616  16.781  0.2444  0.5906 -0.0043
 8187SOL    HW136197   1.555   1.579  16.710 -0.9414  0.1481 -0.6436
 8187SOL    HW236198   1.569   1.670  16.825 -2.0096  1.8628  1.8363
 8188SOL     OW36199   1.827   3.755  16.824 -0.4775 -0.2609  0.5453
 8188SOL    HW136200   1.747   3.706  16.844 -0.6035 -0.5744 -0.7205
 8188SOL    HW236201   1.819   3.835  16.875 -0.5498  0.6900 -0.9682
 8189SOL     OW36202   1.703   3.302   7.376 -0.5295 -0.0251  0.5131
 8189SOL    HW136203   1.743   3.259   7.451  1.7286 -0.6730 -1.0594
 8189SOL    HW236204   1.614   3.323   7.405 -1.2381 -2.8739  0.4415
 8190SOL     OW36205   3.004   3.320   4.843 -0.9366  0.6535  0.0688
 8190SOL    HW136206   2.995   3.362   4.929 -1.3439 -1.5338  1.0764
 8190SOL    HW236207   2.945   3.246   4.848 -0.5598  0.2497 -1.4486
 8191SOL     OW36208   0.722   4.111   2.596  0.5002  0.1887 -0.0517
 8191SOL    HW136209   0.630   4.136   2.593  0.5843  0.4038 -1.0963
 8191SOL    HW236210   0.705   4.043   2.661 -1.1659  2.9541  2.4014
 8192SOL     OW36211   2.264   4.515   3.032  0.5052 -0.0931 -0.3295
 8192SOL    HW136212   2.174   4.490   3.012  0.7257 -0.6877 -0.5938
 8192SOL    HW236213   2.295   4.505   2.942 -3.7560  0.1470 -1.8065
 8193SOL     OW36214   2.401   0.436   9.386  0.2374 -0.1606  0.3333
 8193SOL    HW136215   2.481   0.384   9.381 -0.5539 -1.5243  1.9334
 8193SOL    HW236216   2.418   0.514   9.333  1.4134 -0.2386  0.6125
 8194SOL     OW36217   0.443   4.212   3.175  0.0269  0.5530  0.2321
 8194SOL    HW136218   0.452   4.308   3.178 -1.2525  0.7135 -1.2344
 8194SOL    HW236219   0.401   4.201   3.090  1.8631 -0.2120 -0.5745
 8195SOL     OW36220   2.823   1.355   5.765 -0.3144 -0.2012 -0.0923
 8195SOL    HW136221   2.818   1.340   5.859 -0.6057 -3.3710 -0.5940
 8195SOL    HW236222   2.731   1.371   5.745 -0.3124  0.0044  0.0607
 8196SOL     OW36223   2.623   2.732   1.149  0.1212 -0.2989 -0.8426
 8196SOL    HW136224   2.632   2.824   1.125  0.6745 -0.0707  0.2209
 8196SOL    HW236225   2.673   2.684   1.084 -0.6230 -2.4557  0.1819
 8197SOL     OW36226   4.568   0.708  15.450 -0.2753  0.2110  0.4253
 8197SOL    HW136227   4.629   0.765  15.403  1.0844 -1.5740  0.0212
 8197SOL    HW236228   4.619   0.702  15.530  0.0668 -2.3011  0.0313
 8198SOL     OW36229   3.935   1.468   8.913  0.2591 -0.2117  0.3889
 8198SOL    HW136230   3.966   1.377   8.911 -1.3346 -0.8074  2.3612
 8198SOL    HW236231   3.937   1.492   8.821  0.6680  3.0236  1.2117
 8199SOL     OW36232   2.653   3.226   0.770  0.1365  0.1552  0.4513
 8199SOL    HW136233   2.675   3.243   0.861  0.5657  0.8849  0.2146
 8199SOL    HW236234   2.734   3.179   0.750 -0.0488 -0.8131  2.0106
 8200SOL     OW36235   4.401   2.447  10.116 -0.4525  0.1705 -0.0188
 8200SOL    HW136236   4.424   2.481  10.203  0.0653 -2.8283  1.0075
 8200SOL    HW236237   4.456   2.369  10.107 -2.7094 -1.4459  0.0668
 8201SOL     OW36238   1.967   0.881   8.068  0.0607  0.3277 -0.4486
 8201SOL    HW136239   2.046   0.904   8.019  0.9775  1.2619  1.4646
 8201SOL    HW236240   2.002   0.834   8.144 -2.6766  1.3570  1.4525
 8202SOL     OW36241   0.363   2.416   1.727 -0.2609  0.0977  0.0309
 8202SOL    HW136242   0.415   2.442   1.803 -1.7231  0.2042  0.9818
 8202SOL    HW236243   0.288   2.372   1.767 -0.0800  2.0539  2.5492
 8203SOL     OW36244   1.828   3.978  12.610  0.0836 -0.2886 -0.2021
 8203SOL    HW136245   1.741   4.002  12.643 -0.2226  0.5735 -1.6450
 8203SOL    HW236246   1.798   3.930  12.532  1.5814  1.1260 -1.6417
 8204SOL     OW36247   4.120   4.137   2.540  0.0409  0.0021  0.0861
 8204SOL    HW136248   4.090   4.224   2.517 -2.9424 -0.6356  1.5982
 8204SOL    HW236249   4.056   4.121   2.609  1.5554  0.1001  1.5070
 8205SOL     OW36250   2.270   1.164  15.142 -0.6527 -0.0412  0.3072
 8205SOL    HW136251   2.319   1.176  15.223  0.6323 -1.8482 -0.2018
 8205SOL    HW236252   2.325   1.102  15.094 -0.0931  0.7341 -0.0530
 8206SOL     OW36253   4.149   0.573   2.673  0.0583 -0.8067 -0.1330
 8206SOL    HW136254   4.161   0.500   2.612 -0.2984  0.3347 -1.5722
 8206SOL    HW236255   4.055   0.588   2.663  0.0221 -0.5963  0.4890
 8207SOL     OW36256   4.016   1.710   2.896  0.6520 -0.1133 -0.5041
 8207SOL    HW136257   4.020   1.752   2.982  0.1486  0.1139 -0.5859
 8207SOL    HW236258   4.079   1.639   2.903 -0.1539 -0.6578  1.3767
 8208SOL     OW36259   3.667   0.974  14.156  0.1518 -0.3323  0.2608
 8208SOL    HW136260   3.735   0.935  14.211 -2.4976 -1.2158  2.9161
 8208SOL    HW236261   3.675   1.068  14.172  0.4925 -0.0085 -1.7594
 8209SOL     OW36262   2.069   1.492  13.464 -0.1342  0.1159 -0.7726
 8209SOL    HW136263   2.086   1.586  13.476 -3.3460  0.8881 -2.0815
 8209SOL    HW236264   1.997   1.469  13.523  0.5828 -1.9545 -0.7341
 8210SOL     OW36265   4.211   2.730   7.909 -0.1774 -0.2178  0.3643
 8210SOL    HW136266   4.289   2.785   7.911  0.1288 -0.7034  1.6037
 8210SOL    HW236267   4.173   2.755   7.824 -1.1262 -0.9782  0.5702
 8211SOL     OW36268   1.490   3.967   8.755 -0.6445 -0.1505 -0.8661
 8211SOL    HW136269   1.492   4.053   8.712  0.5662  0.3342  0.1478
 8211SOL    HW236270   1.558   3.911   8.717  0.2304  1.6987 -2.0528
 8212SOL     OW36271   3.849   1.882   4.427 -0.3660  0.0521  0.2125
 8212SOL    HW136272   3.853   1.927   4.511 -2.3076  1.9146 -0.6945
 8212SOL    HW236273   3.799   1.939   4.369 -0.0622  0.6895  0.5805
 8213SOL     OW36274   2.621   2.984   1.054 -0.4203  0.3046 -0.1663
 8213SOL    HW136275   2.581   3.043   1.118 -0.1528 -1.1184  1.2961
 8213SOL    HW236276   2.699   3.040   1.053  0.5489 -1.0762 -0.9245
 8214SOL     OW36277   1.872   3.855   4.787 -0.2592 -0.3914  0.1095
 8214SOL    HW136278   1.787   3.871   4.746 -0.4186  1.8832  1.3198
 8214SOL    HW236279   1.877   3.927   4.850 -0.8257 -1.2674  1.1549
 8215SOL     OW36280   1.610   3.538   1.170 -0.1092  0.3577  0.0934
 8215SOL    HW136281   1.548   3.595   1.216 -1.4787 -1.3001  0.3281
 8215SOL    HW236282   1.681   3.602   1.165 -1.7513  2.2614  1.0937
 8216SOL     OW36283   3.464   0.773  11.693  0.0019  0.0160 -0.4272
 8216SOL    HW136284   3.521   0.805  11.623  1.5465  0.9555  1.2714
 8216SOL    HW236285   3.519   0.702  11.725 -0.7137 -0.3079  0.0756
 8217SOL     OW36286   0.938   1.147   3.024 -0.0780  0.1910 -1.4612
 8217SOL    HW136287   0.867   1.115   2.969 -1.2221 -2.2591  1.4311
 8217SOL    HW236288   0.995   1.197   2.965  1.3029  0.5509  0.1616
 8218SOL     OW36289   2.468   0.379   2.977  0.4257 -0.1180 -0.3956
 8218SOL    HW136290   2.551   0.377   2.930 -0.4219  1.5579 -1.9405
 8218SOL    HW236291   2.443   0.287   2.981 -2.0332  0.5258 -1.5758
 8219SOL     OW36292   3.607   4.011   8.808 -0.4931 -0.2012 -0.5449
 8219SOL    HW136293   3.631   4.049   8.724  0.7449  2.2836  0.9040
 8219SOL    HW236294   3.688   4.017   8.859  0.3096  0.6555 -1.9349
 8220SOL     OW36295   1.770   2.486  11.661  0.4067 -0.0140  0.1915
 8220SOL    HW136296   1.722   2.569  11.652 -1.1237 -1.0963 -1.5246
 8220SOL    HW236297   1.838   2.493  11.594  0.1284 -1.2536 -0.2056
 8221SOL     OW36298   0.178   3.687   5.414  0.6195  0.1095  0.3909
 8221SOL    HW136299   0.157   3.764   5.467 -1.4174 -0.8709  1.0088
 8221SOL    HW236300   0.122   3.700   5.338 -1.6787 -0.1293  2.0189
 8222SOL     OW36301   2.529   0.908   3.544 -0.1518 -0.2557  0.0584
 8222SOL    HW136302   2.555   0.974   3.479  0.1036  0.2178  0.6479
 8222SOL    HW236303   2.595   0.838   3.544 -1.0650 -1.1214  1.4711
 8223SOL     OW36304   1.370   4.501   5.568 -0.5142  0.1740 -0.8429
 8223SOL    HW136305   1.464   4.496   5.552 -0.2124  0.1488  0.9977
 8223SOL    HW236306   1.368   4.511   5.663  0.9980 -0.6066 -0.7231
 8224SOL     OW36307   1.347   0.685   8.440  0.2559  0.2190  0.1729
 8224SOL    HW136308   1.273   0.716   8.390  0.3640 -0.2411 -0.2751
 8224SOL    HW236309   1.309   0.668   8.527  1.4858  0.0691  0.6902
 8225SOL     OW36310   1.122   4.035   9.339 -0.1793  0.3782  0.0372
 8225SOL    HW136311   1.030   4.057   9.357 -0.6722 -1.0954 -0.6224
 8225SOL    HW236312   1.155   4.037   9.429 -0.8302  0.4090  0.2812
 8226SOL     OW36313   1.902   3.819   5.748  0.1996  0.0294 -0.3539
 8226SOL    HW136314   1.820   3.857   5.719 -0.2552 -0.5312  0.1887
 8226SOL    HW236315   1.902   3.735   5.702  1.4482 -0.5647  0.7099
 8227SOL     OW36316   3.336   2.025   4.955  0.5765 -0.3843 -0.2256
 8227SOL    HW136317   3.301   1.942   4.922 -0.1752 -0.6608  1.2837
 8227SOL    HW236318   3.347   1.999   5.046 -1.5442  2.2063  0.7650
 8228SOL     OW36319   1.431   3.162   9.255  0.7077  0.1519 -0.3642
 8228SOL    HW136320   1.476   3.245   9.270  3.5265 -1.6772  1.2543
 8228SOL    HW236321   1.478   3.108   9.318  1.1659  0.0600 -0.7946
 8229SOL     OW36322   4.162   2.434   2.120 -0.5503 -0.2245  0.1449
 8229SOL    HW136323   4.245   2.387   2.124  0.0883  0.7568 -1.4422
 8229SOL    HW236324   4.120   2.403   2.201 -1.7994 -0.6742 -0.6726
 8230SOL     OW36325   4.014   0.082   5.784  0.3379  0.4457 -0.4437
 8230SOL    HW136326   3.996   0.131   5.704  1.1568 -1.0612 -1.5653
 8230SOL    HW236327   3.924   0.068   5.814  0.0537 -0.3809 -1.6886
 8231SOL     OW36328   1.453   3.227   8.976  0.7886  0.4178 -0.4309
 8231SOL    HW136329   1.537   3.180   8.974  0.7488  0.3743 -1.0002
 8231SOL    HW236330   1.420   3.220   9.066  1.1957 -0.0505 -0.3169
 8232SOL     OW36331   3.250   1.949   1.401 -0.2876  0.4449 -0.8584
 8232SOL    HW136332   3.210   1.884   1.343 -0.9371  0.2802 -0.2359
 8232SOL    HW236333   3.342   1.925   1.398 -0.2299  1.0012 -3.1309
 8233SOL     OW36334   0.286   3.544   9.158 -0.1960 -0.1791 -0.4205
 8233SOL    HW136335   0.210   3.553   9.216  0.6718 -0.3208  0.7123
 8233SOL    HW236336   0.348   3.553   9.230 -0.7326  4.0664 -0.4862
 8234SOL     OW36337   0.523   3.776   1.932 -0.8990 -0.1518 -0.3747
 8234SOL    HW136338   0.592   3.816   1.984 -1.1229 -0.4765  0.1670
 8234SOL    HW236339   0.450   3.837   1.942 -1.5585 -0.7944 -1.2916
 8235SOL     OW36340   2.642   2.159  16.668  0.5012  0.1715 -0.1411
 8235SOL    HW136341   2.679   2.144  16.581 -2.0951  0.2635 -1.2698
 8235SOL    HW236342   2.556   2.196  16.649  0.5367  1.3509  1.9561
 8236SOL     OW36343   3.406   4.727   3.440  0.3943  0.2364  0.2114
 8236SOL    HW136344   3.401   0.003   3.346 -1.2965 -0.8259  0.1287
 8236SOL    HW236345   3.471   0.058   3.453  2.0389 -1.2342 -0.1751
 8237SOL     OW36346   2.563   1.861   9.572 -0.4854 -0.2713  0.3944
 8237SOL    HW136347   2.656   1.866   9.597  0.5084 -4.3850 -2.3444
 8237SOL    HW236348   2.552   1.768   9.591  1.3462 -0.0517  2.6005
 8238SOL     OW36349   0.410   0.572   3.281 -0.1956  0.4823  0.1269
 8238SOL    HW136350   0.418   0.548   3.189  0.8316 -4.5316  1.5124
 8238SOL    HW236351   0.500   0.556   3.311 -0.4692 -0.5659  0.4033
 8239SOL     OW36352   0.095   2.781  14.860  0.2048 -0.0691  0.3988
 8239SOL    HW136353   0.006   2.766  14.829  1.3527  0.3923 -3.1237
 8239SOL    HW236354   0.136   2.813  14.780  3.3695  0.9115  2.3996
 8240SOL     OW36355   2.227   1.445   4.030  0.1059  0.4198 -0.1350
 8240SOL    HW136356   2.274   1.388   4.090  2.5306  0.2179 -2.2288
 8240SOL    HW236357   2.305   1.483   3.989  1.1853 -1.2666  0.3629
 8241SOL     OW36358   3.528   3.831   3.292 -0.4651  0.2249 -0.1319
 8241SOL    HW136359   3.623   3.846   3.289 -0.5271  0.1785 -2.2297
 8241SOL    HW236360   3.487   3.904   3.338  1.0437  0.6595  0.5420
 8242SOL     OW36361   4.387   1.309   5.456  0.5402  0.2329 -0.1681
 8242SOL    HW136362   4.306   1.309   5.405  0.3420 -0.7335  0.1423
 8242SOL    HW236363   4.452   1.313   5.385 -2.6515 -0.1481 -3.0992
 8243SOL     OW36364   2.623   3.437   7.965 -0.0529 -0.2183 -0.4044
 8243SOL    HW136365   2.573   3.507   7.924  1.1919  1.7087  1.3493
 8243SOL    HW236366   2.694   3.427   7.903 -2.3105  0.9008 -3.1689
 8244SOL     OW36367   0.142   2.666   3.285  0.2243 -0.9705 -0.2065
 8244SOL    HW136368   0.205   2.650   3.356  0.5830  1.3712  0.0170
 8244SOL    HW236369   0.187   2.741   3.245  0.1810 -0.5661  0.4955
 8245SOL     OW36370   1.465   2.871   9.045 -0.4530  0.7787 -0.0666
 8245SOL    HW136371   1.460   2.809   9.118 -0.7004 -0.7828 -1.4059
 8245SOL    HW236372   1.543   2.924   9.064  0.5361 -0.0217 -1.9194
 8246SOL     OW36373   1.432   0.842   6.991  1.0747  0.2585 -0.3818
 8246SOL    HW136374   1.501   0.796   6.944  0.3069  0.4693 -1.7057
 8246SOL    HW236375   1.479   0.920   7.018 -1.2891  2.0310 -1.3407
 8247SOL     OW36376   1.160   3.914   5.246 -0.3912 -0.0675 -0.2545
 8247SOL    HW136377   1.148   3.820   5.255  0.2799 -0.1553 -0.2748
 8247SOL    HW236378   1.077   3.941   5.283 -0.5093  1.2330 -1.4703
 8248SOL     OW36379   0.213   2.193  10.979 -0.0412 -0.1781  0.1550
 8248SOL    HW136380   0.191   2.100  10.967  0.8950 -0.4441  0.4723
 8248SOL    HW236381   0.308   2.183  10.983 -0.0632 -0.3047  0.4045
 8249SOL     OW36382   3.383   0.811  17.056  0.3895  0.4441 -0.0981
 8249SOL    HW136383   3.452   0.795  17.120  0.2276  0.3203  0.0450
 8249SOL    HW236384   3.307   0.798  17.113  2.3243 -0.0654  2.3498
 8250SOL     OW36385   0.514   2.013  15.392  0.6249 -0.1109 -0.4093
 8250SOL    HW136386   0.605   2.039  15.377 -0.1416  3.0911  0.4800
 8250SOL    HW236387   0.472   2.028  15.307  0.2562  1.7669  0.1007
 8251SOL     OW36388   0.570   2.723  16.529  0.0639 -0.0561  0.3947
 8251SOL    HW136389   0.638   2.681  16.582 -0.9446 -2.5660 -0.3201
 8251SOL    HW236390   0.534   2.793  16.584 -0.8635 -1.3543  1.4289
 8252SOL     OW36391   1.238   4.226   3.504  0.6793 -0.1948 -0.0030
 8252SOL    HW136392   1.238   4.240   3.410 -2.3606  1.1557  0.2009
 8252SOL    HW236393   1.191   4.143   3.514 -0.4978  0.7755  2.5890
 8253SOL     OW36394   2.453   3.478   5.353 -0.3729 -0.0485 -0.3189
 8253SOL    HW136395   2.387   3.447   5.291  0.3554  1.4497 -1.8374
 8253SOL    HW236396   2.467   3.397   5.403 -2.4715  0.3542  0.9257
 8254SOL     OW36397   2.014   2.986   4.737 -0.0672  0.2920  0.3707
 8254SOL    HW136398   2.061   2.941   4.807 -0.7479 -2.4423 -0.9392
 8254SOL    HW236399   2.061   3.067   4.758  1.0103 -0.1714 -0.2272
 8255SOL     OW36400   3.349   0.364   7.462 -0.6125  0.1464 -0.7580
 8255SOL    HW136401   3.367   0.444   7.412 -0.0450  0.8263  0.5296
 8255SOL    HW236402   3.331   0.395   7.551 -0.5367  1.8654 -1.3399
 8256SOL     OW36403   0.943   3.431   5.586  0.0147 -0.0795 -0.4317
 8256SOL    HW136404   1.023   3.454   5.634 -1.3351  1.2218  1.1967
 8256SOL    HW236405   0.883   3.432   5.661  0.9693 -1.0962  0.3476
 8257SOL     OW36406   1.444   2.846   0.539 -0.3458  0.3235 -0.1024
 8257SOL    HW136407   1.498   2.924   0.530 -1.6948  1.1928 -0.6778
 8257SOL    HW236408   1.498   2.783   0.491  0.5976  0.8230  0.3155
 8258SOL     OW36409   2.147   1.143  11.172 -0.5738 -0.4561  0.2790
 8258SOL    HW136410   2.123   1.082  11.102  1.8371  0.1128 -1.0404
 8258SOL    HW236411   2.233   1.106  11.192 -1.3382 -2.1036  0.5711
 8259SOL     OW36412   4.412   2.951  16.458  0.4924  0.7487  0.2400
 8259SOL    HW136413   4.378   3.021  16.514 -1.0186  0.6368 -0.5194
 8259SOL    HW236414   4.343   2.957  16.392 -1.0166  0.1857  1.7556
 8260SOL     OW36415   3.793   2.398   8.838  0.2501  0.5486  0.4719
 8260SOL    HW136416   3.873   2.354   8.867 -0.0632 -0.7770 -0.6466
 8260SOL    HW236417   3.733   2.338   8.883 -1.3645 -0.2584 -2.6953
 8261SOL     OW36418   0.579   2.891   8.589  0.1541 -0.6185 -0.3947
 8261SOL    HW136419   0.601   2.810   8.542 -0.4990 -0.5439 -0.8197
 8261SOL    HW236420   0.537   2.947   8.524 -0.0231 -0.8719 -0.4996
 8262SOL     OW36421   0.781   0.667   9.453 -0.0083  0.1706  0.2324
 8262SOL    HW136422   0.760   0.757   9.429 -0.4796  0.5981  2.2021
 8262SOL    HW236423   0.816   0.636   9.370 -1.2190  0.6810 -0.4657
 8263SOL     OW36424   2.460   0.093  13.524 -0.2415  0.0979  0.2135
 8263SOL    HW136425   2.406   0.151  13.471 -1.5881 -1.1441  0.2269
 8263SOL    HW236426   2.394   0.055  13.581  0.4223 -2.5655 -0.7816
 8264SOL     OW36427   3.960   0.988   7.196  0.2755 -0.0088 -0.0696
 8264SOL    HW136428   4.027   1.056   7.201 -0.7060  1.1697 -2.8007
 8264SOL    HW236429   4.007   0.918   7.151  2.3903  1.2527  0.1918
 8265SOL     OW36430   3.349   0.862  17.526  0.2603 -0.0444 -0.1152
 8265SOL    HW136431   3.380   0.935  17.580 -1.3094  0.3181  0.3034
 8265SOL    HW236432   3.403   0.795  17.567  1.1319  1.0854  0.5812
 8266SOL     OW36433   1.893   2.204   7.872  0.4832 -0.2478 -0.0463
 8266SOL    HW136434   1.868   2.116   7.899 -1.2720  0.9296  2.1984
 8266SOL    HW236435   1.820   2.225   7.814  2.2299 -0.8883 -2.4928
 8267SOL     OW36436   0.359   1.334   7.582 -0.4355 -0.6841 -0.7002
 8267SOL    HW136437   0.358   1.244   7.547  2.4171 -0.9650 -0.0583
 8267SOL    HW236438   0.371   1.389   7.505  1.5921  0.1922  0.2674
 8268SOL     OW36439   1.518   1.170   9.346  0.2882 -0.5016  0.4368
 8268SOL    HW136440   1.480   1.204   9.265  0.0961  1.4001  1.3121
 8268SOL    HW236441   1.550   1.256   9.374 -2.9050  1.1251 -0.8586
 8269SOL     OW36442   1.745   3.237  13.108  0.0717  0.2661 -0.4479
 8269SOL    HW136443   1.701   3.276  13.032  0.9131  0.2474 -0.9498
 8269SOL    HW236444   1.717   3.293  13.180  2.4092 -1.9050  2.1375
 8270SOL     OW36445   1.808   0.772   2.831  0.5685 -0.0099  0.1790
 8270SOL    HW136446   1.868   0.836   2.792 -2.5646  1.9781 -1.3572
 8270SOL    HW236447   1.730   0.794   2.781  0.4306 -0.0855  0.3585
 8271SOL     OW36448   4.033   4.719   7.863  0.0766  0.2180 -0.2779
 8271SOL    HW136449   4.046   0.049   7.928 -1.2202  0.0554  0.1585
 8271SOL    HW236450   3.939   4.701   7.861  0.4920 -1.8090 -2.1731
 8272SOL     OW36451   0.036   1.686   7.093 -0.3127  0.3507 -0.1743
 8272SOL    HW136452   0.064   1.751   7.029  1.7673 -1.4935 -1.1721
 8272SOL    HW236453   0.078   1.608   7.055 -1.7629 -0.4864 -0.0643
 8273SOL     OW36454   3.856   1.112   7.626  0.0487 -0.3727 -0.2177
 8273SOL    HW136455   3.940   1.138   7.589  1.3355 -2.4392  1.2137
 8273SOL    HW236456   3.803   1.139   7.551 -0.9472 -1.0621  0.2298
 8274SOL     OW36457   4.257   2.825   3.849  0.2045 -0.4713 -0.2391
 8274SOL    HW136458   4.235   2.733   3.833  1.9137 -0.7919 -0.7921
 8274SOL    HW236459   4.320   2.811   3.920  0.4236 -0.6001 -0.4593
 8275SOL     OW36460   1.450   4.678   6.287 -0.5320  0.1279 -0.3263
 8275SOL    HW136461   1.374   4.701   6.341 -1.3636  1.4126 -2.0413
 8275SOL    HW236462   1.465   0.015   6.231 -0.0140 -0.3851 -0.8861
 8276SOL     OW36463   3.294   2.130   6.646 -0.3568  0.0458  0.2446
 8276SOL    HW136464   3.215   2.121   6.593  1.1475 -1.8782 -1.6688
 8276SOL    HW236465   3.260   2.099   6.730 -0.7031  0.0239  0.0961
 8277SOL     OW36466   4.551   2.986  13.096  0.2519 -0.1485 -0.3289
 8277SOL    HW136467   4.473   3.039  13.112 -0.2446 -1.6513  2.3946
 8277SOL    HW236468   4.575   3.026  13.013  0.8515  0.3492  0.0840
 8278SOL     OW36469   0.213   4.354  13.158 -0.2826  0.0998 -0.1925
 8278SOL    HW136470   0.271   4.396  13.095 -0.8990 -0.9005 -1.4030
 8278SOL    HW236471   0.254   4.268  13.165  2.4365  1.6221  3.1020
 8279SOL     OW36472   2.934   4.731   4.478  0.2854 -0.6270  0.1526
 8279SOL    HW136473   3.002   4.705   4.540 -2.1952 -1.9682  2.3285
 8279SOL    HW236474   2.963   0.083   4.470  1.6612 -1.0504  0.3252
 8280SOL     OW36475   2.882   3.019   5.865 -0.1606  0.7473 -0.1135
 8280SOL    HW136476   2.804   3.059   5.827 -0.3819 -0.0233 -0.4623
 8280SOL    HW236477   2.848   2.931   5.882 -2.0247  1.8995  2.0561
 8281SOL     OW36478   3.223   1.141   6.246  0.8755  0.2841  0.0676
 8281SOL    HW136479   3.246   1.234   6.238 -0.0705  0.3247 -2.1248
 8281SOL    HW236480   3.175   1.125   6.165  0.3521 -1.9152  0.7992
 8282SOL     OW36481   3.282   3.789   3.471  0.1064  0.0542  0.1996
 8282SOL    HW136482   3.223   3.857   3.502 -1.1483 -0.5178 -0.9378
 8282SOL    HW236483   3.288   3.794   3.375 -1.3048  0.4676  0.1373
 8283SOL     OW36484   4.383   0.285   3.454 -0.4331 -0.0964  0.1483
 8283SOL    HW136485   4.408   0.339   3.379  0.5384  0.2488  0.7219
 8283SOL    HW236486   4.462   0.231   3.444  0.3999  1.2842 -0.7464
 8284SOL     OW36487   3.145   4.624  15.954 -0.5816  0.1445  0.1163
 8284SOL    HW136488   3.177   4.710  15.927 -0.1709 -1.0052 -3.0268
 8284SOL    HW236489   3.131   4.578  15.872  0.3256  0.1195 -0.0183
 8285SOL     OW36490   0.382   2.847   1.254 -0.1838  0.2905  0.4958
 8285SOL    HW136491   0.462   2.798   1.273  0.3416  1.2635  0.7943
 8285SOL    HW236492   0.328   2.822   1.329 -1.0223 -0.3406 -0.3145
 8286SOL     OW36493   1.444   0.961  16.764  0.1196  0.3028  0.4921
 8286SOL    HW136494   1.406   1.015  16.834  3.1892 -0.0655  2.4387
 8286SOL    HW236495   1.485   0.892  16.816 -2.8458 -2.0761 -0.3359
 8287SOL     OW36496   3.314   3.185   8.288 -0.3854  0.2016 -0.2221
 8287SOL    HW136497   3.326   3.114   8.352  0.6135 -0.4827 -1.1829
 8287SOL    HW236498   3.354   3.146   8.211 -1.7919 -1.5959 -0.0692
 8288SOL     OW36499   4.686   0.445   4.245 -0.0622  0.1888 -0.2971
 8288SOL    HW136500   4.595   0.415   4.247  0.4576 -1.3290  0.4072
 8288SOL    HW236501   4.700   0.506   4.173  0.4454 -0.2452 -0.5677
 8289SOL     OW36502   1.802   1.042   6.777 -0.5089 -0.2509 -0.1952
 8289SOL    HW136503   1.781   0.949   6.775 -1.7265  0.0190 -0.3732
 8289SOL    HW236504   1.765   1.068   6.693  3.1769  2.1752 -1.0512
 8290SOL     OW36505   0.887   1.508  13.110  0.3524 -0.3818  0.1942
 8290SOL    HW136506   0.875   1.591  13.064 -0.3137 -2.1157 -2.7167
 8290SOL    HW236507   0.958   1.469  13.060  0.1856 -1.4876  0.8214
 8291SOL     OW36508   3.441   2.682   0.946  0.5876  0.2998 -0.3569
 8291SOL    HW136509   3.525   2.647   0.976  0.5700  0.1977 -0.4263
 8291SOL    HW236510   3.416   2.737   1.020  1.4409  0.4054 -0.1486
 8292SOL     OW36511   3.782   3.829   2.809  0.2848  0.4408 -0.1431
 8292SOL    HW136512   3.874   3.829   2.783  0.5955  1.0209  0.9251
 8292SOL    HW236513   3.769   3.743   2.849  1.1860  0.5129  0.3117
 8293SOL     OW36514   3.771   3.247   6.461  0.1303  0.2336  0.1319
 8293SOL    HW136515   3.794   3.324   6.409  0.6642 -0.2550 -0.3602
 8293SOL    HW236516   3.683   3.231   6.429 -0.7135  0.6274  2.2724
 8294SOL     OW36517   0.331   1.663   2.806 -0.0061 -0.1483  0.0794
 8294SOL    HW136518   0.364   1.707   2.884  1.4896 -1.6110  0.2810
 8294SOL    HW236519   0.370   1.708   2.731 -0.8256 -0.2939 -0.4443
 8295SOL     OW36520   1.091   3.596   9.556  0.6738  0.6103 -0.2071
 8295SOL    HW136521   1.054   3.682   9.535 -1.4891 -0.1504  0.4666
 8295SOL    HW236522   1.084   3.551   9.472  2.4980  0.0141 -0.0351
 8296SOL     OW36523   1.417   3.357   5.264  0.2627 -0.8312 -0.1661
 8296SOL    HW136524   1.438   3.266   5.285  0.5327 -0.6069  0.5350
 8296SOL    HW236525   1.504   3.388   5.237 -0.2913  1.9654  1.2553
 8297SOL     OW36526   4.546   3.663   7.223 -0.2268  0.2944  0.0988
 8297SOL    HW136527   4.490   3.703   7.290  1.4778 -0.4961  2.0111
 8297SOL    HW236528   4.584   3.739   7.178 -1.9438  0.3715 -1.2117
 8298SOL     OW36529   4.006   0.442   2.958 -0.3866  0.5713  0.4129
 8298SOL    HW136530   3.921   0.442   3.002 -1.6953 -3.3775 -2.0904
 8298SOL    HW236531   3.981   0.494   2.881 -0.7320 -0.1560  0.0384
 8299SOL     OW36532   0.357   2.875   6.656  0.2501  0.0960  0.1346
 8299SOL    HW136533   0.275   2.924   6.661  0.1964 -0.0429  0.6419
 8299SOL    HW236534   0.331   2.797   6.705 -0.8722 -0.4519 -1.3307
 8300SOL     OW36535   1.386   0.323   3.878  0.1279  0.7383  0.3764
 8300SOL    HW136536   1.405   0.409   3.916 -0.2938  1.7758 -1.7891
 8300SOL    HW236537   1.414   0.336   3.788 -0.4066 -0.3926  0.0503
 8301SOL     OW36538   4.641   1.789   7.523 -0.1295  0.1557 -0.4138
 8301SOL    HW136539   4.578   1.827   7.462 -0.2732  0.0855 -0.3084
 8301SOL    HW236540   4.593   1.708   7.538  3.4091 -1.9792 -0.5425
 8302SOL     OW36541   4.231   0.663   6.358 -0.0527  0.2915 -0.2073
 8302SOL    HW136542   4.243   0.723   6.431  0.8558  0.1022 -0.2015
 8302SOL    HW236543   4.173   0.720   6.307 -0.5911 -0.6311 -0.6033
 8303SOL     OW36544   4.134   2.397   4.278  0.4573  0.0622 -0.5744
 8303SOL    HW136545   4.203   2.463   4.280 -0.9515  1.4501  1.9008
 8303SOL    HW236546   4.085   2.413   4.197 -0.2681 -0.4544 -0.2315
 8304SOL     OW36547   3.325   2.391  10.606 -0.1913 -0.0361  0.5204
 8304SOL    HW136548   3.257   2.433  10.659  0.5204 -0.9849  2.1888
 8304SOL    HW236549   3.399   2.438  10.644 -2.2669  3.5492  0.1063
 8305SOL     OW36550   4.427   1.976   8.310  0.0645 -0.2415  0.3739
 8305SOL    HW136551   4.371   1.904   8.281 -1.3129  1.0398 -0.1112
 8305SOL    HW236552   4.362   2.022   8.363 -1.4082 -0.6745 -1.0654
 8306SOL     OW36553   3.861   0.813   6.883 -0.1617 -0.7310 -0.1386
 8306SOL    HW136554   3.901   0.831   6.798  0.1590 -0.0145  0.1620
 8306SOL    HW236555   3.802   0.745   6.849  1.5677 -2.4401  0.2620
 8307SOL     OW36556   0.124   2.444   5.191  0.3209 -0.1093 -0.2301
 8307SOL    HW136557   0.096   2.360   5.226  0.9342  0.3653  1.3706
 8307SOL    HW236558   0.065   2.466   5.119  3.4419  2.4909 -2.0023
 8308SOL     OW36559   3.077   2.428   7.110  0.8893  0.0876  0.2505
 8308SOL    HW136560   3.112   2.407   7.023  0.7912 -2.0515  0.7158
 8308SOL    HW236561   3.131   2.504   7.132 -1.1099  1.4471  0.4301
 8309SOL     OW36562   2.450   4.359   4.794 -0.0981  0.2003 -0.1957
 8309SOL    HW136563   2.515   4.289   4.797 -2.3539 -1.9302 -0.7291
 8309SOL    HW236564   2.372   4.317   4.757  0.1533  0.3617 -0.9075
 8310SOL     OW36565   1.484   1.650   4.625  0.1230 -0.2371 -0.7516
 8310SOL    HW136566   1.530   1.685   4.549 -0.7229  1.0262 -0.6873
 8310SOL    HW236567   1.507   1.559   4.606  0.1480 -1.1105  3.4846
 8311SOL     OW36568   2.571   3.933   8.685  0.0102  0.3607 -0.0715
 8311SOL    HW136569   2.511   3.885   8.742 -0.1633  0.5375 -0.1073
 8311SOL    HW236570   2.653   3.886   8.703 -1.6907 -2.0596  1.4392
 8312SOL     OW36571   4.672   3.184  17.255  0.3102 -0.5844  1.0020
 8312SOL    HW136572   4.592   3.160  17.303  1.1234 -2.0978  1.5975
 8312SOL    HW236573   4.720   3.253  17.301  1.4342  0.7838 -2.2230
 8313SOL     OW36574   1.777   1.425   6.270 -0.3661 -0.2819  0.1338
 8313SOL    HW136575   1.805   1.336   6.248 -0.9472 -0.5097  0.2969
 8313SOL    HW236576   1.863   1.454   6.299  0.2103  0.0241 -1.8739
 8314SOL     OW36577   3.213   3.600   6.132  0.1507  0.1746 -0.1128
 8314SOL    HW136578   3.188   3.653   6.057 -0.9487 -1.4454 -0.8813
 8314SOL    HW236579   3.241   3.667   6.194  1.0947  1.5640 -2.0601
 8315SOL     OW36580   3.761   0.280   2.797  0.1674  0.3682 -0.0736
 8315SOL    HW136581   3.685   0.257   2.850  0.5566  1.5069  0.9854
 8315SOL    HW236582   3.781   0.368   2.829 -0.4997  0.6404 -0.4044
 8316SOL     OW36583   4.192   2.407  12.666  0.0534  0.0318 -0.6780
 8316SOL    HW136584   4.169   2.314  12.656  1.1145 -0.0727 -2.1171
 8316SOL    HW236585   4.114   2.455  12.639  1.4024  2.2684 -0.5320
 8317SOL     OW36586   3.428   0.755  10.899  0.5239 -0.3509 -0.2091
 8317SOL    HW136587   3.343   0.713  10.886  0.6720 -1.4285  2.2941
 8317SOL    HW236588   3.392   0.820  10.960 -0.4292  0.2835 -1.4449
 8318SOL     OW36589   0.565   1.068   8.916 -0.4075  0.2044 -0.1602
 8318SOL    HW136590   0.563   1.163   8.912 -0.8458  0.1467 -1.3908
 8318SOL    HW236591   0.644   1.048   8.866 -1.1190  0.0851 -1.2293
 8319SOL     OW36592   0.717   0.056  17.741 -0.8086 -0.5799  0.1511
 8319SOL    HW136593   0.811   0.072   0.003 -0.7964  0.0708 -0.6262
 8319SOL    HW236594   0.697   0.149   0.004 -0.7857 -0.1238 -2.5482
 8320SOL     OW36595   1.815   3.958  16.997 -0.8552 -0.0677  0.2159
 8320SOL    HW136596   1.750   3.980  17.064 -1.0476  1.0277 -0.3382
 8320SOL    HW236597   1.789   4.021  16.930  0.0978  1.5941  1.4064
 8321SOL     OW36598   4.308   1.491   8.478 -0.2681 -0.2899 -0.0761
 8321SOL    HW136599   4.346   1.575   8.502  1.7013 -0.4305 -2.7505
 8321SOL    HW236600   4.230   1.495   8.533 -0.1267 -1.0620  0.1797
 8322SOL     OW36601   2.177   1.294   6.733  0.0093  0.0950 -0.4764
 8322SOL    HW136602   2.240   1.233   6.773 -0.8552 -0.4167  0.1215
 8322SOL    HW236603   2.236   1.367   6.719 -1.2179  1.0230 -0.8120
 8323SOL     OW36604   1.850   0.468   2.359  0.3604  0.0912  0.4647
 8323SOL    HW136605   1.784   0.442   2.294 -0.2078  0.7024  0.8005
 8323SOL    HW236606   1.901   0.526   2.302 -0.5719  0.6999  0.2546
 8324SOL     OW36607   0.364   4.612   5.186 -0.4115  0.0721  0.1547
 8324SOL    HW136608   0.327   4.581   5.103 -3.3177 -0.2405  1.5739
 8324SOL    HW236609   0.285   4.647   5.227 -0.0878 -0.1363  0.9515
 8325SOL     OW36610   4.297   3.788  14.233 -0.2283 -0.0121 -0.1669
 8325SOL    HW136611   4.388   3.773  14.256 -0.4023 -1.9149 -0.6925
 8325SOL    HW236612   4.308   3.816  14.142 -0.3894  0.8248  0.0709
 8326SOL     OW36613   2.594   0.844  11.444  0.6823 -0.2237  0.2066
 8326SOL    HW136614   2.590   0.797  11.527 -1.5908 -0.4749 -0.0444
 8326SOL    HW236615   2.579   0.934  11.472 -1.4034 -1.0903  1.8237
 8327SOL     OW36616   0.695   3.907   6.119  0.6489 -0.0309  0.0088
 8327SOL    HW136617   0.659   3.895   6.032  3.0449 -0.5750 -0.9177
 8327SOL    HW236618   0.690   3.831   6.177  0.4394  0.2408  0.3546
 8328SOL     OW36619   2.410   2.521   9.112  0.2306 -0.1725  0.2889
 8328SOL    HW136620   2.458   2.587   9.163  0.0431  0.1483  0.0486
 8328SOL    HW236621   2.453   2.444   9.151  1.3369  0.8157  1.0326
 8329SOL     OW36622   1.956   0.672  16.046 -0.3847 -0.9983 -0.4087
 8329SOL    HW136623   1.986   0.763  16.036 -0.4688 -1.0018 -0.6904
 8329SOL    HW236624   1.875   0.678  15.995 -0.8829 -1.6332  0.3033
 8330SOL     OW36625   2.150   4.222  14.851 -0.0672 -0.2253  0.0228
 8330SOL    HW136626   2.161   4.168  14.929  2.3906 -0.0820 -0.2503
 8330SOL    HW236627   2.221   4.184  14.800 -2.2923 -0.3787 -2.9855
 8331SOL     OW36628   2.199   0.493   4.045  0.0074 -0.0859 -0.1868
 8331SOL    HW136629   2.290   0.493   4.016  0.7654 -0.1606  2.1806
 8331SOL    HW236630   2.153   0.524   3.967  3.3418  0.2802 -1.9954
 8332SOL     OW36631   2.014   1.216   9.233 -0.0882 -0.3864  0.0276
 8332SOL    HW136632   1.951   1.274   9.275  0.5485  0.3663 -0.0591
 8332SOL    HW236633   1.987   1.231   9.142  1.4783 -0.5862 -0.4643
 8333SOL     OW36634   2.894   4.548   3.853 -0.5059 -0.5766  0.3635
 8333SOL    HW136635   2.854   4.554   3.940 -2.1965  3.1119 -0.6237
 8333SOL    HW236636   2.970   4.495   3.875 -0.5170 -1.6303 -2.1430
 8334SOL     OW36637   0.557   3.956   9.314 -0.1401 -0.1390  0.1469
 8334SOL    HW136638   0.512   3.875   9.340 -0.0230 -0.8916 -1.9520
 8334SOL    HW236639   0.515   4.014   9.377 -0.8543  0.0381 -0.4900
 8335SOL     OW36640   0.415   0.364   4.292 -0.4285  0.3195  0.0445
 8335SOL    HW136641   0.373   0.316   4.363  2.8175 -0.7778  1.2474
 8335SOL    HW236642   0.340   0.383   4.236 -0.9419  0.9413  0.9472
 8336SOL     OW36643   2.967   3.505   3.745  1.0940  0.3188  0.1645
 8336SOL    HW136644   3.014   3.478   3.666  2.6666 -0.5384  1.3634
 8336SOL    HW236645   2.910   3.431   3.766  1.2162 -0.1866 -1.3372
 8337SOL     OW36646   3.169   0.636   5.570 -0.2168  0.0094 -0.3333
 8337SOL    HW136647   3.100   0.571   5.579 -0.7564  0.9175  2.0346
 8337SOL    HW236648   3.234   0.591   5.514 -1.6195 -0.4794 -1.5663
 8338SOL     OW36649   3.194   0.149   6.220 -0.2260 -0.4929  0.0267
 8338SOL    HW136650   3.235   0.116   6.300  1.3806 -1.2778 -1.1147
 8338SOL    HW236651   3.104   0.161   6.252  0.0441 -0.6114  0.8179
 8339SOL     OW36652   4.191   1.421   9.928  0.4268 -0.0360  0.8705
 8339SOL    HW136653   4.154   1.336   9.904  1.0743 -0.1544  0.2821
 8339SOL    HW236654   4.112   1.473   9.918  1.0805  0.7725 -0.0038
 8340SOL     OW36655   4.040   2.496   6.924  0.1024  0.2548  1.0178
 8340SOL    HW136656   3.989   2.424   6.961 -0.1223  1.3929  2.9265
 8340SOL    HW236657   4.131   2.475   6.945  0.2876  0.4059  0.3826
 8341SOL     OW36658   1.061   3.087   3.099  0.5875  0.3458  0.2803
 8341SOL    HW136659   1.081   3.053   3.012  0.6024 -0.0104  0.4239
 8341SOL    HW236660   0.966   3.099   3.098  0.6364  0.9181  1.4943
 8342SOL     OW36661   4.034   0.728   7.063 -0.1764 -0.0391 -0.1758
 8342SOL    HW136662   3.993   0.647   7.094  0.2540 -0.0958  0.2508
 8342SOL    HW236663   3.978   0.753   6.989  0.7745 -0.5598 -1.0692
 8343SOL     OW36664   0.098   2.473   4.108  0.4699 -0.2062  0.1170
 8343SOL    HW136665   0.157   2.503   4.038  0.3949  0.5617  0.3946
 8343SOL    HW236666   0.014   2.443   4.072 -0.3006  2.4300 -0.2883
 8344SOL     OW36667   1.330   0.442   2.339 -0.3088  0.1430  0.1022
 8344SOL    HW136668   1.268   0.439   2.412 -1.8373 -2.1145 -1.2655
 8344SOL    HW236669   1.417   0.450   2.379 -0.4418  1.8913  0.0350
 8345SOL     OW36670   4.217   1.411  13.351 -0.5909 -0.0283 -0.4389
 8345SOL    HW136671   4.252   1.450  13.431 -0.8102 -1.5439  0.3812
 8345SOL    HW236672   4.282   1.410  13.280 -1.8850  1.9988 -1.6798
 8346SOL     OW36673   2.389   4.382   3.245  0.4189 -0.0079  0.5836
 8346SOL    HW136674   2.333   4.424   3.180  1.1969  2.3006  1.4277
 8346SOL    HW236675   2.457   4.356   3.183 -0.4150 -0.3332 -0.1953
 8347SOL     OW36676   0.808   3.081   2.113  0.0467 -0.1594 -0.5486
 8347SOL    HW136677   0.887   3.031   2.092  1.0132  1.4847 -0.7553
 8347SOL    HW236678   0.847   3.136   2.181 -1.3499 -0.9266  0.8723
 8348SOL     OW36679   4.074   1.460  12.157  0.2136  0.1310  0.0532
 8348SOL    HW136680   4.133   1.511  12.211 -1.4230  2.5531 -0.4598
 8348SOL    HW236681   4.066   1.378  12.207  0.0662  0.6325  0.8466
 8349SOL     OW36682   0.908   0.187   7.073 -0.5671 -0.2365  0.0061
 8349SOL    HW136683   0.873   0.276   7.072  3.2113  1.2468 -1.0962
 8349SOL    HW236684   0.917   0.162   6.981 -1.9345  1.3985 -0.5729
 8350SOL     OW36685   1.444   3.332  11.601 -0.0136  0.4690 -0.5300
 8350SOL    HW136686   1.394   3.366  11.527 -2.3127  0.0364  0.8201
 8350SOL    HW236687   1.529   3.306  11.565 -0.1016 -0.2035 -0.2542
 8351SOL     OW36688   2.336   2.699   2.794  0.4215  0.2470  0.0351
 8351SOL    HW136689   2.366   2.677   2.705 -0.4334  0.0389 -0.2029
 8351SOL    HW236690   2.353   2.793   2.786  2.1526 -0.1717 -1.1736
 8352SOL     OW36691   0.186   3.353   1.482 -0.0070 -0.1790 -0.2103
 8352SOL    HW136692   0.240   3.303   1.419 -1.0443  2.2006 -3.0098
 8352SOL    HW236693   0.246   3.359   1.556  0.6120  1.4138 -0.8262
 8353SOL     OW36694   1.610   3.476  13.957 -0.8430 -0.2598 -0.8298
 8353SOL    HW136695   1.544   3.453  14.022 -0.8060  4.6743  0.8890
 8353SOL    HW236696   1.581   3.546  13.899  0.0614  1.8235  1.2677
 8354SOL     OW36697   0.675   3.175   3.317 -0.0418  0.6627  0.0003
 8354SOL    HW136698   0.677   3.082   3.295  2.6908  0.7839 -0.2941
 8354SOL    HW236699   0.581   3.188   3.333 -0.7310 -2.3858 -1.5717
 8355SOL     OW36700   1.674   3.235   7.105  0.5160  0.4571 -0.0051
 8355SOL    HW136701   1.666   3.329   7.095  1.0750  0.6946  1.7723
 8355SOL    HW236702   1.687   3.234   7.200  0.2560  0.2524  0.0288
 8356SOL     OW36703   2.626   2.077   1.574  0.1835  0.4905 -0.1394
 8356SOL    HW136704   2.659   2.102   1.661  0.5967 -1.6894  0.3516
 8356SOL    HW236705   2.542   2.040   1.598  0.3212  0.0589 -0.3215
 8357SOL     OW36706   3.964   1.204   0.237  0.2074  0.9260  0.3046
 8357SOL    HW136707   4.018   1.194   0.159  1.4511 -0.7689  1.3997
 8357SOL    HW236708   3.884   1.250   0.210 -0.7791  0.1577  1.8908
 8358SOL     OW36709   4.658   4.522   5.412  0.5165  0.6637  0.1619
 8358SOL    HW136710   4.658   4.612   5.444 -1.1653  0.7303 -0.0332
 8358SOL    HW236711   0.011   4.497   5.422 -0.2707 -2.3402 -0.1353
 8359SOL     OW36712   0.596   1.049   8.039  0.0183  0.4136  0.4075
 8359SOL    HW136713   0.566   0.959   8.040 -0.8821  0.6835 -2.2600
 8359SOL    HW236714   0.637   1.039   7.953 -0.2562  0.1522  0.3099
 8360SOL     OW36715   2.314   4.571   8.909 -0.0369  0.6948  0.4037
 8360SOL    HW136716   2.400   4.582   8.870 -0.7991  0.0247 -1.4994
 8360SOL    HW236717   2.277   4.659   8.895  0.2971  0.3291 -2.6952
 8361SOL     OW36718   2.384   1.421  11.224  0.3027 -0.4375  0.3013
 8361SOL    HW136719   2.349   1.332  11.219 -1.4416  0.1906  1.5111
 8361SOL    HW236720   2.410   1.431  11.132 -1.9806 -1.1311 -0.4226
 8362SOL     OW36721   3.561   3.289   6.109 -0.1476 -0.1794  0.2045
 8362SOL    HW136722   3.549   3.365   6.167  1.2638 -1.9424  2.8173
 8362SOL    HW236723   3.485   3.288   6.051  0.1317  0.3084 -0.1727
 8363SOL     OW36724   3.952   3.929  10.312 -0.0839 -0.4998  0.2251
 8363SOL    HW136725   4.004   3.877  10.250  0.6672 -1.2285  1.4833
 8363SOL    HW236726   3.981   4.018  10.290 -0.7578 -0.4959 -0.6432
 8364SOL     OW36727   3.997   2.598   1.993 -0.5117 -0.8694  0.0443
 8364SOL    HW136728   3.906   2.613   2.019 -0.6265  0.6391 -1.2695
 8364SOL    HW236729   4.026   2.537   2.061  0.2072 -1.2051 -0.5745
 8365SOL     OW36730   1.636   3.186   4.325 -0.5825  0.2333 -0.3318
 8365SOL    HW136731   1.629   3.282   4.332 -1.0120  0.2023 -0.3869
 8365SOL    HW236732   1.633   3.187   4.229 -1.8470  0.2229 -0.2923
 8366SOL     OW36733   1.784   1.775   3.120  0.4802 -0.1104 -0.0021
 8366SOL    HW136734   1.733   1.826   3.183 -1.0640 -2.2320  0.4790
 8366SOL    HW236735   1.830   1.838   3.065 -0.1903 -0.0397 -0.4816
 8367SOL     OW36736   4.278   2.240   3.973 -0.1307 -0.4671  0.3445
 8367SOL    HW136737   4.232   2.238   4.057 -0.7142 -1.2049  0.0131
 8367SOL    HW236738   4.368   2.248   4.004 -0.9678  0.5477  2.4709
 8368SOL     OW36739   3.620   0.475   7.310  1.0572 -0.0395  0.3032
 8368SOL    HW136740   3.608   0.381   7.325  2.5568  0.0190  1.7970
 8368SOL    HW236741   3.540   0.506   7.352  1.1424  1.6658 -0.7886
 8369SOL     OW36742   2.000   2.592   6.271 -0.1593 -0.0142  0.9741
 8369SOL    HW136743   1.967   2.681   6.259  1.3297  0.4794  0.6314
 8369SOL    HW236744   2.051   2.587   6.191 -2.0677  0.8205 -0.2950
 8370SOL     OW36745   1.817   2.062  17.592 -0.3920 -0.0632 -0.4677
 8370SOL    HW136746   1.777   2.146  17.570  1.1606  0.6433 -0.6409
 8370SOL    HW236747   1.875   2.088  17.664 -3.9491  2.5747  1.4369
 8371SOL     OW36748   3.598   2.163   7.640 -0.7120  0.2293 -0.4385
 8371SOL    HW136749   3.668   2.156   7.574 -1.8537 -1.4215 -1.4727
 8371SOL    HW236750   3.577   2.071   7.656  1.0815 -0.0477  0.3064
 8372SOL     OW36751   2.935   2.824   0.953  0.6680  0.7086 -0.1381
 8372SOL    HW136752   2.981   2.754   1.000  0.1113  1.1879  1.1038
 8372SOL    HW236753   2.852   2.778   0.944  1.7919 -1.4920  0.4361
 8373SOL     OW36754   3.395   3.074   5.865 -0.6032  0.0730  0.1212
 8373SOL    HW136755   3.342   3.038   5.936  0.5014  0.5780  1.2054
 8373SOL    HW236756   3.329   3.097   5.799 -1.6248  1.5165  1.6541
 8374SOL     OW36757   4.723   2.388   4.967 -0.2473  0.6029  0.2295
 8374SOL    HW136758   0.012   2.332   4.894 -1.8624  0.0136  0.0611
 8374SOL    HW236759   4.714   2.472   4.921  1.6036 -0.0086 -1.2425
 8375SOL     OW36760   0.665   1.042   1.482  0.5988  0.0995 -0.0451
 8375SOL    HW136761   0.618   0.959   1.473  0.7330  0.1451 -1.1430
 8375SOL    HW236762   0.731   1.024   1.414  0.8269  0.7026  0.0226
 8376SOL     OW36763   0.610   1.813  14.262  0.3733 -0.1848 -0.1918
 8376SOL    HW136764   0.655   1.870  14.199  0.4119 -0.1657 -0.1468
 8376SOL    HW236765   0.652   1.842  14.343  0.3774 -1.1390  0.1460
 8377SOL     OW36766   0.335   2.708  16.883 -0.5770 -0.4460 -0.2748
 8377SOL    HW136767   0.340   2.799  16.855 -2.0817  0.3691  2.1809
 8377SOL    HW236768   0.240   2.699  16.897 -0.3731  1.7676  2.4895
 8378SOL     OW36769   4.234   1.502   2.880 -0.2075 -0.4230  0.0230
 8378SOL    HW136770   4.232   1.488   2.975  0.9051 -1.2894 -0.0928
 8378SOL    HW236771   4.307   1.448   2.851  0.7743  0.8358  0.1425
 8379SOL     OW36772   1.192   2.609   2.857  0.1410  0.1864  0.7922
 8379SOL    HW136773   1.204   2.651   2.772 -2.1689  0.6528  0.6806
 8379SOL    HW236774   1.277   2.616   2.901 -0.0867 -1.4825  1.4997
 8380SOL     OW36775   3.661   3.726   4.363 -0.4944  0.1055  0.4273
 8380SOL    HW136776   3.574   3.756   4.388 -0.5412  0.9503 -0.7238
 8380SOL    HW236777   3.693   3.806   4.320  1.1681 -0.6439  0.2876
 8381SOL     OW36778   1.572   2.543   7.723 -0.1477 -0.2766  0.3157
 8381SOL    HW136779   1.664   2.565   7.735 -0.2520  0.9684 -1.1153
 8381SOL    HW236780   1.527   2.626   7.703  2.2166  0.7223 -0.8166
 8382SOL     OW36781   4.536   4.472  12.600  0.1565  0.1206  0.1595
 8382SOL    HW136782   4.571   4.473  12.689  0.1635 -0.9058  0.1595
 8382SOL    HW236783   4.475   4.399  12.613  0.0730  0.2998  0.7749
 8383SOL     OW36784   3.150   2.700   6.435 -0.0623  0.1724  0.1240
 8383SOL    HW136785   3.154   2.780   6.487 -0.1509  1.6263 -2.1326
 8383SOL    HW236786   3.100   2.723   6.357  1.0336 -1.2592 -0.9998
 8384SOL     OW36787   2.324   2.601   4.399 -0.9823 -0.0839 -0.3892
 8384SOL    HW136788   2.242   2.561   4.371 -1.0982  0.8277 -1.3671
 8384SOL    HW236789   2.338   2.668   4.332 -0.0568 -0.3995 -0.5110
 8385SOL     OW36790   3.070   1.215   5.752  0.4736  0.7904  0.2561
 8385SOL    HW136791   2.981   1.245   5.772 -0.5000 -1.3838 -0.6950
 8385SOL    HW236792   3.091   1.172   5.835 -0.4347  2.8968  1.5674
 8386SOL     OW36793   2.696   3.197  12.488 -0.0058  0.0608 -0.0345
 8386SOL    HW136794   2.706   3.227  12.579 -1.1873 -1.6413  0.6584
 8386SOL    HW236795   2.600   3.194  12.486  0.0281 -1.2195  0.3926
 8387SOL     OW36796   0.460   4.492  11.407  0.5107  0.4922 -0.6075
 8387SOL    HW136797   0.529   4.478  11.473 -0.0287  1.1251  0.0987
 8387SOL    HW236798   0.451   4.410  11.359  2.0556  1.5943 -2.7828
 8388SOL     OW36799   1.802   1.945   7.884  0.1580 -0.1007  0.5830
 8388SOL    HW136800   1.711   1.975   7.890  0.3123  0.9772 -2.7615
 8388SOL    HW236801   1.782   1.852   7.888 -0.2991  0.0788  2.9023
 8389SOL     OW36802   1.886   2.580   4.916  0.0176  0.0251 -0.0774
 8389SOL    HW136803   1.892   2.672   4.942 -2.5668 -0.3279  1.7905
 8389SOL    HW236804   1.796   2.563   4.944  0.3152 -1.3549  0.0226
 8390SOL     OW36805   3.517   1.868   5.699  0.3049  0.3583  0.1170
 8390SOL    HW136806   3.602   1.826   5.716  0.1555  0.0294  0.0607
 8390SOL    HW236807   3.461   1.793   5.681 -1.3646  1.7490 -0.4282
 8391SOL     OW36808   1.089   1.753   6.255  0.2548  0.1072 -0.5149
 8391SOL    HW136809   1.109   1.703   6.335 -2.4923 -2.1524 -1.2177
 8391SOL    HW236810   1.168   1.726   6.210  0.9704  1.0463  0.1840
 8392SOL     OW36811   1.417   3.883   2.106 -0.3425  0.0014 -0.2617
 8392SOL    HW136812   1.375   3.806   2.145 -1.3704 -0.5537 -2.4579
 8392SOL    HW236813   1.345   3.903   2.047 -0.6468  0.8637  0.4035
 8393SOL     OW36814   4.124   3.158   6.875 -0.3416  0.6566  0.0376
 8393SOL    HW136815   4.176   3.081   6.894  0.5376  1.3310  0.3551
 8393SOL    HW236816   4.108   3.151   6.780  2.4719 -2.7862 -0.1748
 8394SOL     OW36817   3.141   2.238  13.879 -0.0466 -0.2543 -0.1516
 8394SOL    HW136818   3.102   2.172  13.937  1.8821 -1.9386 -0.7638
 8394SOL    HW236819   3.221   2.263  13.925 -0.8341  1.1544  0.4573
 8395SOL     OW36820   4.254   1.650   4.542  0.0253  0.5046 -0.0639
 8395SOL    HW136821   4.348   1.646   4.526  0.3417  2.0214  1.4193
 8395SOL    HW236822   4.224   1.673   4.454  0.3131 -2.1356 -0.8414
 8396SOL     OW36823   0.699   0.686   7.829  0.0934 -0.5835 -0.2010
 8396SOL    HW136824   0.707   0.622   7.759 -0.4466  0.2127 -0.9964
 8396SOL    HW236825   0.647   0.752   7.783 -1.9407 -1.9780  0.1268
 8397SOL     OW36826   4.375   0.552   9.999  0.2302  0.2592  0.0621
 8397SOL    HW136827   4.335   0.469  10.024  2.7051 -0.6488  0.9236
 8397SOL    HW236828   4.465   0.526   9.981  0.9138  1.5868  1.6151
 8398SOL     OW36829   1.387   0.672   1.191 -0.0382 -0.6686 -0.4297
 8398SOL    HW136830   1.302   0.683   1.234  0.6975  2.1223  0.2749
 8398SOL    HW236831   1.426   0.756   1.214 -1.2033  0.0584 -1.1386
 8399SOL     OW36832   0.358   1.170   9.254  0.0307 -0.1750 -0.5824
 8399SOL    HW136833   0.378   1.105   9.186 -1.2236 -2.6097  1.4190
 8399SOL    HW236834   0.270   1.149   9.283  0.1845 -0.9373 -0.6638
 8400SOL     OW36835   4.089   0.657   1.925 -0.0836 -0.2627  0.2393
 8400SOL    HW136836   4.067   0.655   1.832 -2.0662  2.0175  0.6555
 8400SOL    HW236837   4.026   0.722   1.955  0.3141  1.1679 -2.0281
 8401SOL     OW36838   4.199   2.684   3.545 -0.2247  0.0370 -0.3798
 8401SOL    HW136839   4.160   2.772   3.550 -1.2243 -0.2308 -3.1201
 8401SOL    HW236840   4.136   2.625   3.587 -0.9523  0.9376 -0.2033
 8402SOL     OW36841   0.310   0.690  14.484  0.2098 -0.1396 -0.1145
 8402SOL    HW136842   0.226   0.650  14.508 -1.1001  2.2088 -0.7774
 8402SOL    HW236843   0.285   0.782  14.487  1.5601  0.2738 -1.9287
 8403SOL     OW36844   1.052   2.728   4.919  0.4591  1.0136  0.3472
 8403SOL    HW136845   0.969   2.681   4.909  0.7704  0.8510 -1.5166
 8403SOL    HW236846   1.099   2.699   4.840 -1.1379 -0.8438  0.0757
 8404SOL     OW36847   2.061   1.684   2.799  0.2063  0.1071  0.4276
 8404SOL    HW136848   2.091   1.622   2.733  0.5442  0.0584  0.6236
 8404SOL    HW236849   1.978   1.716   2.763  0.2008 -0.9201 -0.4820
 8405SOL     OW36850   2.321   3.796  16.994 -0.4800  0.4769  0.2575
 8405SOL    HW136851   2.323   3.718  16.938  1.1287  0.5295  0.2352
 8405SOL    HW236852   2.243   3.836  16.958 -1.2839 -0.6319  0.7579
 8406SOL     OW36853   2.795   3.099   2.224  0.3276 -0.0445 -0.2601
 8406SOL    HW136854   2.846   3.149   2.160  0.1463 -0.5191 -0.7850
 8406SOL    HW236855   2.854   3.033   2.261  1.1477  1.0122  0.2854
 8407SOL     OW36856   4.204   0.365   3.717 -0.1092  0.1830  0.0894
 8407SOL    HW136857   4.136   0.336   3.777 -1.4168  1.7833 -0.6249
 8407SOL    HW236858   4.162   0.348   3.633  0.1249 -0.4226  0.0975
 8408SOL     OW36859   2.644   1.953  14.788 -0.4804  0.7215  0.0382
 8408SOL    HW136860   2.733   1.947  14.754  0.5402  1.4110  2.5656
 8408SOL    HW236861   2.588   1.977  14.714  0.6463  0.2502 -0.9748
 8409SOL     OW36862   3.723   2.183   1.186 -0.1135  0.2257  0.6036
 8409SOL    HW136863   3.730   2.196   1.281 -0.7605  0.0199  0.6788
 8409SOL    HW236864   3.758   2.094   1.179  0.9813  0.7376 -0.3661
 8410SOL     OW36865   1.853   2.352   7.099 -0.0875  0.4310  0.2003
 8410SOL    HW136866   1.848   2.333   7.005  2.1745  4.2703 -0.7154
 8410SOL    HW236867   1.762   2.336   7.125 -0.3566  0.5500 -0.6875
 8411SOL     OW36868   3.280   3.143   4.607  0.0591 -0.1092  0.2627
 8411SOL    HW136869   3.300   3.228   4.569 -2.8770  1.7325  2.8708
 8411SOL    HW236870   3.262   3.174   4.696  0.2164  0.6710  0.0161
 8412SOL     OW36871   2.175   1.266   9.465 -0.0746 -0.0228  0.4824
 8412SOL    HW136872   2.121   1.308   9.532  0.1778  0.4857  0.3661
 8412SOL    HW236873   2.118   1.254   9.389  2.5456 -2.8697 -1.0201
 8413SOL     OW36874   3.239   1.322   3.164 -0.2617 -0.5719  0.0979
 8413SOL    HW136875   3.327   1.339   3.199 -0.6427  0.1198  0.7093
 8413SOL    HW236876   3.207   1.258   3.228  0.2239 -2.3146 -1.3837
 8414SOL     OW36877   4.418   2.922  12.834  0.1492 -0.1933  0.2573
 8414SOL    HW136878   4.502   2.968  12.837 -0.0245  0.2637 -1.7065
 8414SOL    HW236879   4.365   3.002  12.827 -1.5916 -1.2799  1.0546
 8415SOL     OW36880   2.562   3.288   4.727  0.2319 -0.4478 -0.0645
 8415SOL    HW136881   2.514   3.219   4.681 -0.5299 -0.8268  1.2761
 8415SOL    HW236882   2.578   3.230   4.802  0.8096 -0.3718 -0.1301
 8416SOL     OW36883   3.269   4.735  16.644  0.0162  0.3295  0.6668
 8416SOL    HW136884   3.298   4.714  16.555  1.2536  1.5030  0.8010
 8416SOL    HW236885   3.204   0.062  16.619  1.3018  0.8194 -1.3515
 8417SOL     OW36886   1.664   4.663   8.749  0.4156  0.0984  0.2573
 8417SOL    HW136887   1.737   4.680   8.809  0.0308  0.6854  0.5542
 8417SOL    HW236888   1.640   0.014   8.727 -0.5027 -0.0008  0.8801
 8418SOL     OW36889   3.726   4.005   6.202  0.6577 -0.1809  0.1364
 8418SOL    HW136890   3.744   3.936   6.138 -0.3179  1.6268 -2.0981
 8418SOL    HW236891   3.654   3.967   6.253 -1.0046 -1.6560 -3.3034
 8419SOL     OW36892   0.873   1.449   0.468  0.8313 -0.6696 -0.4122
 8419SOL    HW136893   0.864   1.460   0.563 -1.2003 -0.0039 -0.6908
 8419SOL    HW236894   0.958   1.490   0.451  1.3234 -0.9419  1.3675
 8420SOL     OW36895   0.210   2.559   6.719  0.1506  0.1668  0.0467
 8420SOL    HW136896   0.158   2.633   6.751  0.5593  0.7585 -0.6711
 8420SOL    HW236897   0.283   2.573   6.780 -0.5090  2.9869  0.1745
 8421SOL     OW36898   0.403   3.828   2.917  0.4857 -0.5469 -0.1241
 8421SOL    HW136899   0.378   3.839   2.825  0.6140  0.1732 -0.0752
 8421SOL    HW236900   0.325   3.827   2.972  0.4344  0.0538 -0.1861
 8422SOL     OW36901   0.624   0.365   4.460  0.5670  0.0672 -0.1190
 8422SOL    HW136902   0.544   0.386   4.412  1.0370 -1.6214 -1.6328
 8422SOL    HW236903   0.625   0.270   4.468  3.6467  0.0922 -0.1876
 8423SOL     OW36904   1.094   1.337   0.784  0.1449  0.4337  0.3245
 8423SOL    HW136905   1.019   1.355   0.728 -1.4601 -3.7383  1.1473
 8423SOL    HW236906   1.112   1.243   0.787  0.7340  0.5813  1.5175
 8424SOL     OW36907   3.926   4.682  12.660 -0.1786 -0.4580 -0.1050
 8424SOL    HW136908   4.012   4.663  12.698 -0.9292  2.9043  3.2827
 8424SOL    HW236909   3.939   4.627  12.584 -1.2699  0.0078 -0.6249
 8425SOL     OW36910   3.781   1.174   3.210 -0.2067 -0.9514 -0.5233
 8425SOL    HW136911   3.843   1.101   3.213  2.0843  1.0943  1.4718
 8425SOL    HW236912   3.694   1.135   3.221  0.4087 -2.1664  0.1267
 8426SOL     OW36913   2.243   3.121   9.862 -0.7896 -0.1499  0.0836
 8426SOL    HW136914   2.238   3.029   9.887 -2.1331  0.0414  0.5229
 8426SOL    HW236915   2.192   3.155   9.936  0.9570  0.2992  1.0655
 8427SOL     OW36916   0.968   1.788  17.589  0.7816 -0.2408  0.4635
 8427SOL    HW136917   1.043   1.825  17.543 -0.4763  1.2144 -0.4324
 8427SOL    HW236918   0.896   1.842  17.557  0.8467 -1.0109 -0.9956
 8428SOL     OW36919   2.324   1.155   6.440 -0.3062  0.1326 -0.2474
 8428SOL    HW136920   2.298   1.133   6.530 -1.6437 -1.2148 -0.9709
 8428SOL    HW236921   2.313   1.064   6.414  0.3718 -0.0845  0.1996
 8429SOL     OW36922   4.314   0.172   7.204  0.3642 -0.4981 -0.2390
 8429SOL    HW136923   4.304   0.118   7.126 -0.6420 -3.0384  1.6855
 8429SOL    HW236924   4.268   0.124   7.272  1.2121  0.9301  1.3393
 8430SOL     OW36925   4.154   1.429   9.541  0.1109  0.4865  0.0852
 8430SOL    HW136926   4.229   1.430   9.600  1.0225  0.1436 -1.0649
 8430SOL    HW236927   4.153   1.514   9.496 -1.1052  0.4036 -0.0320
 8431SOL     OW36928   0.410   1.974   9.050 -0.1164 -0.3309 -0.3804
 8431SOL    HW136929   0.375   2.054   9.009 -2.3422 -1.4873 -0.7635
 8431SOL    HW236930   0.496   1.979   9.009 -0.2359 -2.0041 -0.8168
 8432SOL     OW36931   1.774   1.894  13.833  0.4584 -0.4831  0.1090
 8432SOL    HW136932   1.867   1.913  13.838  0.0844  1.1347  1.0589
 8432SOL    HW236933   1.749   1.929  13.748 -0.8417 -0.9627  0.2801
 8433SOL     OW36934   4.062   4.697   4.183 -0.6100  0.0492 -0.2757
 8433SOL    HW136935   4.031   0.040   4.222 -1.7414 -1.0951  1.2292
 8433SOL    HW236936   4.130   4.725   4.122  0.0204 -0.3530  0.2496
 8434SOL     OW36937   1.977   2.068   7.206 -0.5603  0.3647 -0.3018
 8434SOL    HW136938   1.928   2.148   7.190 -1.0524 -0.3567 -2.4587
 8434SOL    HW236939   2.067   2.098   7.191  0.2881 -1.5286  0.8606
 8435SOL     OW36940   0.803   0.692   5.227  0.2123  0.1339  0.8017
 8435SOL    HW136941   0.745   0.626   5.189 -0.7533  0.6855  1.3307
 8435SOL    HW236942   0.748   0.726   5.297 -0.0834  0.9502  0.1706
 8436SOL     OW36943   4.512   3.104   1.573  0.2986  0.0449  0.1591
 8436SOL    HW136944   4.578   3.147   1.628 -1.6377  0.7427  1.9512
 8436SOL    HW236945   4.493   3.034   1.636  2.3315 -0.5165  0.1372
 8437SOL     OW36946   4.030   0.037  13.020  0.0902  0.3629  0.0808
 8437SOL    HW136947   4.028   0.069  13.111 -1.6021  0.9641 -0.1529
 8437SOL    HW236948   3.937   0.023  12.999  0.3899 -1.4289 -0.0394
 8438SOL     OW36949   4.065   3.178   6.574  0.2215 -0.0849 -0.0007
 8438SOL    HW136950   3.982   3.182   6.526  1.0039  0.3162 -1.3153
 8438SOL    HW236951   4.108   3.106   6.528  1.7197  1.3364 -0.8177
 8439SOL     OW36952   0.575   2.252   9.385 -0.3212 -0.2272 -0.3230
 8439SOL    HW136953   0.609   2.309   9.454  0.9073 -0.1652 -0.9736
 8439SOL    HW236954   0.626   2.284   9.310 -0.6606  0.9204 -0.0619
 8440SOL     OW36955   2.663   2.120   3.444 -0.2681  0.1994  0.1338
 8440SOL    HW136956   2.751   2.152   3.463 -0.0047  0.9215 -2.3371
 8440SOL    HW236957   2.609   2.198   3.451  1.0659  1.2274 -1.2496
 8441SOL     OW36958   4.114   3.248  12.116  0.4645  0.1926 -0.2295
 8441SOL    HW136959   4.035   3.292  12.148 -0.3585 -0.4302 -1.4104
 8441SOL    HW236960   4.094   3.231  12.024  2.8185 -0.9681 -0.5287
 8442SOL     OW36961   0.397   1.203   4.948  0.4771  0.1926  0.0100
 8442SOL    HW136962   0.317   1.243   4.915 -0.0656 -2.3941 -1.8689
 8442SOL    HW236963   0.461   1.222   4.879  0.6922  0.1808  0.2082
 8443SOL     OW36964   2.180   1.000   8.813  0.2138 -0.7131 -0.3769
 8443SOL    HW136965   2.195   1.063   8.743  1.5220 -0.3337  0.2349
 8443SOL    HW236966   2.229   1.054   8.875  1.1825 -0.0908 -1.7063
 8444SOL     OW36967   3.931   1.436   1.650  0.1260  0.0079  0.7796
 8444SOL    HW136968   3.942   1.374   1.578  3.3089 -0.2006  1.4799
 8444SOL    HW236969   4.023   1.458   1.660 -0.4757  2.8070  0.2125
 8445SOL     OW36970   1.683   4.561   1.032  0.0524  0.3356 -0.3300
 8445SOL    HW136971   1.701   4.579   0.940  1.0442  1.1434  0.0235
 8445SOL    HW236972   1.610   4.499   1.025 -0.9248  1.3169  1.0864
 8446SOL     OW36973   1.729   3.811  11.496  0.6318 -0.0012 -0.0956
 8446SOL    HW136974   1.670   3.861  11.553  1.8138 -0.3664  1.4569
 8446SOL    HW236975   1.812   3.817  11.544  1.5547 -0.4626 -1.6468
 8447SOL     OW36976   4.053   1.320  10.201  0.0003 -0.5061  0.8574
 8447SOL    HW136977   4.117   1.384  10.171 -2.7574  1.9457  0.2132
 8447SOL    HW236978   4.025   1.364  10.282 -1.7551  0.4960 -0.2960
 8448SOL     OW36979   0.064   0.048   2.921 -0.3223 -0.6821  0.0666
 8448SOL    HW136980   0.059   0.011   3.009  1.4123  0.2126  0.5403
 8448SOL    HW236981   0.032   0.135   2.944  1.8229 -0.1812  1.1219
 8449SOL     OW36982   0.004   0.546   0.053  0.6309 -0.0196 -0.0760
 8449SOL    HW136983   0.037   0.565   0.141  3.1440 -3.1397 -0.3400
 8449SOL    HW236984   4.652   0.578   0.048 -0.4568 -3.4064 -1.8460
 8450SOL     OW36985   1.501   2.180   2.952 -0.1987 -0.2939  0.5189
 8450SOL    HW136986   1.525   2.262   2.996  0.1202 -0.4638  0.6621
 8450SOL    HW236987   1.563   2.188   2.879 -0.9310 -0.7824 -0.1465
 8451SOL     OW36988   2.176   2.005  13.034  0.3071 -0.0052  0.0902
 8451SOL    HW136989   2.151   1.917  13.061 -0.6369  0.3867  0.4740
 8451SOL    HW236990   2.244   1.987  12.968  0.3125 -0.7845  0.3108
 8452SOL     OW36991   3.273   0.125  17.223 -0.1953  0.1138 -0.7131
 8452SOL    HW136992   3.258   0.068  17.147 -0.3551  0.2690 -0.7996
 8452SOL    HW236993   3.278   0.052  17.285 -1.2924 -0.2487 -1.0467
 8453SOL     OW36994   0.181   2.456  14.698 -0.1471 -0.2934  0.4352
 8453SOL    HW136995   0.185   2.387  14.764  0.3356  1.6680  2.4281
 8453SOL    HW236996   0.217   2.534  14.740 -2.1559  0.5241  0.6666
 8454SOL     OW36997   4.494   0.993   7.820  0.5751  0.1809  0.3097
 8454SOL    HW136998   4.452   0.907   7.828  1.7954 -0.4236  0.3239
 8454SOL    HW236999   4.578   0.973   7.863 -0.7179 -4.4525  0.6509
 8455SOL     OW37000   4.698   3.365  14.010 -0.2079 -0.8886  0.1764
 8455SOL    HW137001   4.672   3.276  13.988 -0.5033 -0.7452 -0.0578
 8455SOL    HW237002   4.627   3.389  14.070 -1.0412 -2.0825 -0.3446
 8456SOL     OW37003   4.027   2.894   8.668 -0.4804  0.1935 -0.4367
 8456SOL    HW137004   4.058   2.809   8.699  0.5496  0.4743 -0.7058
 8456SOL    HW237005   4.034   2.882   8.574  1.2589 -1.3296 -0.1188
 8457SOL     OW37006   4.596   2.925  13.538  0.1066 -0.5395  0.2252
 8457SOL    HW137007   4.556   2.999  13.492  0.8735 -0.1480  0.1951
 8457SOL    HW237008   4.569   2.848  13.487 -0.6092  0.7034 -1.2760
 8458SOL     OW37009   0.531   2.045   4.711 -0.5849  0.3841 -0.4068
 8458SOL    HW137010   0.607   2.070   4.658 -0.1067  0.9059  0.5305
 8458SOL    HW237011   0.532   2.129   4.755  1.6893 -1.4712  3.0852
 8459SOL     OW37012   4.089   2.763   9.840  0.2099  0.5637  0.0479
 8459SOL    HW137013   4.063   2.675   9.816  0.2619  0.2702  1.0735
 8459SOL    HW237014   4.105   2.754   9.935  0.6603 -0.3406 -0.1132
 8460SOL     OW37015   0.638   3.571   5.062  0.3508 -0.0310 -0.0388
 8460SOL    HW137016   0.659   3.652   5.108 -1.9058  0.1722  0.6354
 8460SOL    HW237017   0.703   3.565   4.992 -1.3485  0.5492 -1.6700
 8461SOL     OW37018   3.438   1.357   1.950  0.3750 -0.2989 -0.5198
 8461SOL    HW137019   3.531   1.335   1.948  0.8288  1.3117  3.3650
 8461SOL    HW237020   3.413   1.301   2.023  0.6201  0.3244  0.0408
 8462SOL     OW37021   0.766   2.220   6.912 -0.2993  0.3126  0.3778
 8462SOL    HW137022   0.853   2.181   6.913  0.2325  1.5246  1.1898
 8462SOL    HW237023   0.704   2.152   6.940 -0.6122  0.9098  1.1331
 8463SOL     OW37024   4.421   0.640  13.753 -0.1592 -0.2061 -0.2703
 8463SOL    HW137025   4.501   0.588  13.749 -0.2520 -0.2969 -0.9369
 8463SOL    HW237026   4.444   0.723  13.709  0.5919 -0.5669 -0.5732
 8464SOL     OW37027   2.819   2.385  14.600 -0.0668 -0.0005  0.1871
 8464SOL    HW137028   2.901   2.382  14.650 -0.0471 -1.7233  0.0404
 8464SOL    HW237029   2.761   2.449  14.641  0.6912  0.0118  1.2312
 8465SOL     OW37030   1.451   0.662   5.083  0.2379  0.0367 -0.1023
 8465SOL    HW137031   1.457   0.711   5.001 -3.4139  2.0436  0.8164
 8465SOL    HW237032   1.357   0.669   5.100 -0.2116 -1.8885 -1.7419
 8466SOL     OW37033   0.372   0.417   9.906 -0.3371 -0.1298  0.5470
 8466SOL    HW137034   0.455   0.399   9.862 -1.7520 -0.8712 -1.7769
 8466SOL    HW237035   0.406   0.420   9.996  0.5317  0.9000  0.1809
 8467SOL     OW37036   2.021   1.769   1.789  0.3813  0.2832  0.3138
 8467SOL    HW137037   1.972   1.849   1.767  0.0975  0.3392  1.1554
 8467SOL    HW237038   2.019   1.767   1.885  1.9039 -1.1566  0.3091
 8468SOL     OW37039   1.598   1.926   2.926  0.6358  0.1317  0.0410
 8468SOL    HW137040   1.544   1.868   2.979  0.5700 -0.7531 -0.9936
 8468SOL    HW237041   1.576   2.014   2.957 -0.5143 -0.8161  1.9169
 8469SOL     OW37042   1.998   3.760   1.371 -0.7730 -0.1202 -0.4028
 8469SOL    HW137043   2.080   3.728   1.409  0.8935 -0.5374 -4.3556
 8469SOL    HW237044   2.037   3.823   1.310  1.2353  0.4962  1.4988
 8470SOL     OW37045   1.247   0.952   1.686 -0.3793  0.2840  0.1178
 8470SOL    HW137046   1.319   1.014   1.690  1.6709 -2.1297  0.6024
 8470SOL    HW237047   1.299   0.872   1.698  1.3109  1.6848  2.1174
 8471SOL     OW37048   4.277   0.803  16.653 -0.5522  0.3572  0.5753
 8471SOL    HW137049   4.295   0.851  16.734  0.7732  0.4015  0.2578
 8471SOL    HW237050   4.292   0.713  16.683  0.2173 -0.5343 -2.4361
 8472SOL     OW37051   2.799   2.525   4.976  0.1842 -0.7372  0.0647
 8472SOL    HW137052   2.725   2.584   4.958  0.6658 -0.0359  0.3816
 8472SOL    HW237053   2.775   2.467   5.047  1.1303 -0.0958  0.9089
 8473SOL     OW37054   4.023   1.549   6.172  0.0705  0.6077  0.6387
 8473SOL    HW137055   4.081   1.508   6.108  2.3758  2.6827  1.3588
 8473SOL    HW237056   4.009   1.465   6.215 -1.6306  1.0731  0.9870
 8474SOL     OW37057   1.693   2.255   3.147 -0.1030 -0.2742  0.6528
 8474SOL    HW137058   1.651   2.180   3.188  1.5090 -2.0937 -0.9935
 8474SOL    HW237059   1.767   2.211   3.106 -1.4559 -2.5365  0.6489
 8475SOL     OW37060   2.645   4.364  17.274 -0.4488 -0.5287  0.4808
 8475SOL    HW137061   2.683   4.340  17.190 -2.9052 -1.9347 -0.2427
 8475SOL    HW237062   2.551   4.356  17.255 -0.6039  1.1393  0.5776
 8476SOL     OW37063   2.590   3.605  10.031 -0.0903 -0.3843 -0.0186
 8476SOL    HW137064   2.523   3.542  10.059 -0.7106  1.0012  1.6404
 8476SOL    HW237065   2.630   3.625  10.116 -1.5218 -0.1970  0.6013
 8477SOL     OW37066   0.608   0.513   5.224  0.8871  0.3397 -0.4444
 8477SOL    HW137067   0.540   0.527   5.157  0.0196  2.2842  0.8294
 8477SOL    HW237068   0.559   0.462   5.287 -0.1183 -0.8063 -2.1503
 8478SOL     OW37069   3.330   0.810   0.219  0.2722  0.1415 -0.4030
 8478SOL    HW137070   3.307   0.734   0.165  2.8769 -0.9343 -0.0015
 8478SOL    HW237071   3.323   0.878   0.152  0.4152  0.6429  0.0925
 8479SOL     OW37072   1.393   0.779  10.897 -0.4990  0.1732  0.9151
 8479SOL    HW137073   1.305   0.808  10.920 -0.2103  0.5280  1.5688
 8479SOL    HW237074   1.440   0.862  10.908 -0.5670  0.0001  2.5928
 8480SOL     OW37075   4.713   3.411  13.078 -0.5764 -0.4175 -0.1313
 8480SOL    HW137076   4.700   3.393  12.985 -2.1014 -0.4006  0.0722
 8480SOL    HW237077   4.621   3.412  13.106 -0.4956  2.7178 -0.0005
 8481SOL     OW37078   2.558   4.701  10.854 -0.5118  0.8976  0.7630
 8481SOL    HW137079   2.653   4.708  10.865 -0.3077  0.5040 -0.8806
 8481SOL    HW237080   2.547   4.607  10.846  0.4687  0.9958 -1.5165
 8482SOL     OW37081   2.115   2.100   9.456  0.0621  1.0352 -0.6013
 8482SOL    HW137082   2.155   2.172   9.505 -0.7249  0.3988  0.9841
 8482SOL    HW237083   2.077   2.048   9.526 -0.8670  0.6386 -1.4150
 8483SOL     OW37084   0.861   2.737   2.961 -0.7047 -0.4868 -0.8607
 8483SOL    HW137085   0.882   2.679   2.888 -1.8731 -1.5528 -0.3511
 8483SOL    HW237086   0.806   2.803   2.919 -1.4526 -0.4592  0.1504
 8484SOL     OW37087   1.344   0.522  16.777 -0.3975 -0.5601  0.1536
 8484SOL    HW137088   1.369   0.506  16.868  0.0849 -1.3468 -0.1256
 8484SOL    HW237089   1.262   0.564  16.805  0.2093  1.1945 -0.6629
 8485SOL     OW37090   3.893   3.675   8.464 -0.4348  0.0499 -0.0838
 8485SOL    HW137091   3.854   3.588   8.453  0.1964 -0.5234  2.0411
 8485SOL    HW237092   3.972   3.654   8.514 -0.1282 -1.6028 -1.2665
 8486SOL     OW37093   2.088   3.063  10.735  0.0200 -0.2144 -0.5027
 8486SOL    HW137094   2.115   3.104  10.817 -1.4649  0.1485 -0.1937
 8486SOL    HW237095   2.094   2.972  10.765 -1.6806 -0.4052 -0.7367
 8487SOL     OW37096   4.373   4.093   5.016 -0.0300 -0.9351  0.1488
 8487SOL    HW137097   4.446   4.134   5.063 -0.5477  0.5380 -0.3379
 8487SOL    HW237098   4.335   4.170   4.975  1.3016  0.9956  2.5493
 8488SOL     OW37099   3.305   3.300   7.599 -0.2378  0.0892 -0.3487
 8488SOL    HW137100   3.246   3.311   7.524  0.1840  1.3884 -0.4871
 8488SOL    HW237101   3.278   3.383   7.638 -0.5439  0.1717 -0.7303
 8489SOL     OW37102   3.526   3.944  17.031 -0.1488  0.0482 -1.3760
 8489SOL    HW137103   3.482   3.896  16.961  1.9955 -2.1840 -1.1695
 8489SOL    HW237104   3.449   3.985  17.070  1.7061  2.1675  0.1327
 8490SOL     OW37105   1.660   1.412   7.499 -0.4434  0.3414 -0.0029
 8490SOL    HW137106   1.690   1.460   7.421 -0.7809 -1.9406 -1.5302
 8490SOL    HW237107   1.595   1.471   7.538  1.7019  2.4654  0.4093
 8491SOL     OW37108   3.441   2.450   8.730  0.4903 -0.5213 -0.5706
 8491SOL    HW137109   3.486   2.523   8.687 -1.4281  1.6087  1.0605
 8491SOL    HW237110   3.391   2.421   8.653 -2.2900  0.4896  0.8542
 8492SOL     OW37111   3.951   3.537   2.594  0.0851  0.7500  0.0808
 8492SOL    HW137112   3.861   3.549   2.563 -0.2192  0.1075  0.7201
 8492SOL    HW237113   3.974   3.620   2.635  1.0571  0.2912  0.4568
 8493SOL     OW37114   1.588   2.321   7.154 -0.5346  0.1219  0.1978
 8493SOL    HW137115   1.531   2.371   7.094 -0.1694 -0.7067 -0.8334
 8493SOL    HW237116   1.515   2.298   7.212 -0.4604  1.2771  0.7436
 8494SOL     OW37117   0.035   1.039  13.364  0.3241  0.1431  0.2540
 8494SOL    HW137118   0.084   1.034  13.282  2.0672 -2.5348  1.4847
 8494SOL    HW237119   4.701   0.980  13.343  0.2211  0.1088  0.7065
 8495SOL     OW37120   3.816   1.251   5.037  0.5845 -0.1948  0.1832
 8495SOL    HW137121   3.843   1.269   5.127  1.6982 -0.7662 -0.0285
 8495SOL    HW237122   3.808   1.336   4.995 -0.2357  0.5442  1.8625
 8496SOL     OW37123   0.389   2.171   9.924 -0.0806  0.1718  0.0829
 8496SOL    HW137124   0.436   2.245   9.961 -0.6744  0.2404  0.6888
 8496SOL    HW237125   0.308   2.211   9.892 -1.8523 -1.9522  1.8528
 8497SOL     OW37126   0.322   0.276   8.595  0.1751  0.7492  0.1867
 8497SOL    HW137127   0.263   0.340   8.556  0.2424  1.1337  0.7246
 8497SOL    HW237128   0.375   0.330   8.653  2.0759 -2.3401  1.3070
 8498SOL     OW37129   0.122   1.722   0.482 -0.0295  0.1428 -0.6637
 8498SOL    HW137130   0.042   1.723   0.533 -0.4295  0.3804 -1.2938
 8498SOL    HW237131   0.125   1.804   0.432 -1.5451 -0.2141 -1.3237
 8499SOL     OW37132   0.990   1.384   3.834  0.5395  0.8977  0.0444
 8499SOL    HW137133   0.978   1.374   3.740  0.6685  1.5249 -0.0431
 8499SOL    HW237134   1.002   1.297   3.873  3.1960 -0.6898 -4.3700
 8500SOL     OW37135   4.468   0.638  14.829 -0.4434 -0.6060 -0.6185
 8500SOL    HW137136   4.493   0.720  14.786 -2.2064  0.2841  0.0554
 8500SOL    HW237137   4.378   0.663  14.851 -1.5649 -1.1344 -4.5099
 8501SOL     OW37138   1.740   3.623   2.174 -0.0772  1.0949 -0.1966
 8501SOL    HW137139   1.727   3.648   2.265 -3.0434  1.5054 -0.7378
 8501SOL    HW237140   1.825   3.578   2.171 -0.0880  1.0431  0.2547
 8502SOL     OW37141   4.432   3.461  13.868 -0.2094 -0.6978 -0.3261
 8502SOL    HW137142   4.364   3.525  13.847 -1.7383 -2.3302 -0.3471
 8502SOL    HW237143   4.499   3.517  13.908 -1.9137 -0.1921  1.8544
 8503SOL     OW37144   3.979   2.887   4.776 -0.4088 -0.4461 -0.0446
 8503SOL    HW137145   3.995   2.975   4.811 -0.7980  0.2054 -1.5405
 8503SOL    HW237146   4.059   2.876   4.724 -0.8920  2.6935 -1.4409
 8504SOL     OW37147   2.372   2.032  14.884 -0.0633 -0.3019 -0.6815
 8504SOL    HW137148   2.438   2.022  14.952 -2.7733 -0.7349  1.8881
 8504SOL    HW237149   2.431   2.042  14.809  0.0157 -0.7065 -0.6738
 8505SOL     OW37150   4.347   0.201   2.361 -0.3301 -0.3636 -0.4291
 8505SOL    HW137151   4.400   0.124   2.340  0.6680 -0.1202  1.2424
 8505SOL    HW237152   4.316   0.235   2.277 -2.0143  0.9993  0.7389
 8506SOL     OW37153   0.389   1.212   6.506  0.5621  0.0639  0.3660
 8506SOL    HW137154   0.343   1.143   6.458  1.6113 -1.1912  1.1390
 8506SOL    HW237155   0.438   1.262   6.441 -2.7032  0.8115 -1.5316
 8507SOL     OW37156   0.705   3.004   8.827  0.0512  0.4016  0.1573
 8507SOL    HW137157   0.672   3.094   8.832  1.7561  1.0796 -1.0480
 8507SOL    HW237158   0.684   2.980   8.737 -0.9441  1.2052  0.1740
 8508SOL     OW37159   4.675   4.229  12.461 -0.2303 -0.2104 -0.6870
 8508SOL    HW137160   4.718   4.216  12.545  0.0912 -1.2246 -1.0096
 8508SOL    HW237161   4.585   4.243  12.492 -0.3159 -0.5441 -0.7849
 8509SOL     OW37162   1.785   0.217   4.212 -0.3280  0.0317 -0.0789
 8509SOL    HW137163   1.799   0.309   4.189  2.0681 -0.7476 -1.7674
 8509SOL    HW237164   1.691   0.218   4.195 -0.4802  2.6311  0.8051
 8510SOL     OW37165   3.294   2.113   8.801  0.1979 -0.4133  0.5068
 8510SOL    HW137166   3.321   2.059   8.875  2.5068  1.8981  1.3391
 8510SOL    HW237167   3.292   2.048   8.731 -0.4866 -0.2806  0.3968
 8511SOL     OW37168   0.949   0.760   1.232 -0.5732 -0.0228 -0.3437
 8511SOL    HW137169   0.880   0.698   1.213  1.3448 -3.0574  2.5172
 8511SOL    HW237170   0.993   0.709   1.300  1.0702 -1.0075 -2.1466
 8512SOL     OW37171   2.734   2.550   1.319 -0.1340  0.0381 -0.4575
 8512SOL    HW137172   2.780   2.618   1.368  0.6711 -0.2519 -0.7958
 8512SOL    HW237173   2.673   2.607   1.273  1.6574  0.0872 -2.7741
 8513SOL     OW37174   1.771   0.778   5.067  0.5120  0.1578  0.3838
 8513SOL    HW137175   1.704   0.727   5.021 -1.3065 -1.4110  4.7318
 8513SOL    HW237176   1.793   0.722   5.141  1.5436 -1.8204 -1.4287
 8514SOL     OW37177   2.702   1.260  17.363  0.3148  0.2073 -0.3509
 8514SOL    HW137178   2.711   1.354  17.375 -1.0681  0.2773  0.0898
 8514SOL    HW237179   2.678   1.253  17.271  0.4056 -1.4517 -0.2485
 8515SOL     OW37180   0.761   3.108   9.470 -0.0395 -0.5203 -0.0415
 8515SOL    HW137181   0.822   3.091   9.398 -0.9514 -1.5144 -0.5811
 8515SOL    HW237182   0.678   3.066   9.448  0.6157 -1.0488 -1.5169
 8516SOL     OW37183   4.429   2.739  13.048  0.2550  0.8082  0.4106
 8516SOL    HW137184   4.476   2.810  13.093  0.8577  0.4075  0.4111
 8516SOL    HW237185   4.425   2.772  12.958  0.7302  2.4088  0.9714
 8517SOL     OW37186   2.115   2.449   8.281  0.3468  0.7260 -0.1151
 8517SOL    HW137187   2.044   2.496   8.238 -1.3775  0.9676  3.0437
 8517SOL    HW237188   2.187   2.456   8.218 -1.0108 -2.0977 -1.9852
 8518SOL     OW37189   2.052   0.244   5.082 -0.4480  0.0932  0.3387
 8518SOL    HW137190   2.092   0.162   5.112  2.5732  0.7999 -1.7300
 8518SOL    HW237191   2.070   0.293   5.162  0.8105  0.9861 -0.4885
 8519SOL     OW37192   3.382   2.521   4.871 -0.1174  0.8846 -0.1706
 8519SOL    HW137193   3.331   2.558   4.942 -2.2238 -1.0158 -0.6900
 8519SOL    HW237194   3.330   2.441   4.860 -2.2500  2.2613 -0.0316
 8520SOL     OW37195   4.671   1.728   4.107 -0.0234 -0.7621 -0.4199
 8520SOL    HW137196   4.705   1.661   4.166 -1.0648 -2.3111 -1.5774
 8520SOL    HW237197   4.655   1.801   4.166 -0.7502  0.0854 -1.6567
 8521SOL     OW37198   0.019   1.254   5.386  0.4578  0.1369 -0.1696
 8521SOL    HW137199   4.684   1.201   5.355  1.4153 -0.7575 -0.9291
 8521SOL    HW237200   4.723   1.338   5.415  0.4203 -0.2522  0.9055
 8522SOL     OW37201   2.402   3.816   6.549 -0.1245  0.1460  0.6232
 8522SOL    HW137202   2.389   3.853   6.462  1.0746 -1.5265 -0.2703
 8522SOL    HW237203   2.399   3.894   6.605  0.8304  0.7222 -0.1346
 8523SOL     OW37204   0.615   4.132   8.752 -0.1295  0.4636  0.1760
 8523SOL    HW137205   0.635   4.057   8.808  1.2391  2.1777  1.9788
 8523SOL    HW237206   0.556   4.092   8.688  3.6700 -1.4009 -2.2084
 8524SOL     OW37207   1.057   0.758   7.038  0.0375 -0.0863 -0.3310
 8524SOL    HW137208   1.092   0.812   6.967 -1.6665  0.1562 -0.9803
 8524SOL    HW237209   1.128   0.696   7.055  0.0754  0.3547  1.1297
 8525SOL     OW37210   3.831   3.000   8.112 -0.3209  0.1602  0.2511
 8525SOL    HW137211   3.839   2.957   8.027 -0.9163  1.3160 -0.3973
 8525SOL    HW237212   3.747   3.044   8.097 -0.7178 -1.2437 -1.7065
 8526SOL     OW37213   0.875   2.753   2.063 -0.4315  0.0879 -1.0927
 8526SOL    HW137214   0.935   2.827   2.059  0.0871 -0.0490  4.6077
 8526SOL    HW237215   0.925   2.677   2.094  0.5871  0.6336 -1.3976
 8527SOL     OW37216   3.493   0.059   5.360  0.2178 -0.2612 -0.1645
 8527SOL    HW137217   3.403   0.027   5.346 -0.5940  1.0488  2.1859
 8527SOL    HW237218   3.542   4.723   5.395 -0.8897 -0.4491  0.9739
 8528SOL     OW37219   4.332   0.495   2.872 -0.4810 -0.3277 -1.0494
 8528SOL    HW137220   4.258   0.537   2.828  0.2654  2.1922  0.0753
 8528SOL    HW237221   4.376   0.459   2.796  0.1068 -0.2410 -0.7495
 8529SOL     OW37222   2.819   3.462   7.377  0.4356  0.2156  0.1218
 8529SOL    HW137223   2.741   3.471   7.323 -0.3135 -2.4748  0.7704
 8529SOL    HW237224   2.780   3.523   7.441 -0.8546 -1.2925  0.7594
 8530SOL     OW37225   4.528   2.491   9.010 -0.0631 -0.4863  0.7042
 8530SOL    HW137226   4.606   2.505   9.063 -0.5461  1.1396  0.9787
 8530SOL    HW237227   4.555   2.436   8.937  0.6720 -0.8117  1.2209
 8531SOL     OW37228   1.241   1.706   7.705 -0.4793 -0.6795 -0.6570
 8531SOL    HW137229   1.231   1.762   7.628 -0.9377 -0.4723 -0.4446
 8531SOL    HW237230   1.297   1.641   7.662  2.4960  0.7100  1.0593
 8532SOL     OW37231   0.145   0.381   5.752 -0.1442  0.0627 -0.0045
 8532SOL    HW137232   0.160   0.288   5.732  3.2190  1.1488 -2.5386
 8532SOL    HW237233   0.214   0.399   5.816  0.8361 -1.5748 -0.5997
 8533SOL     OW37234   2.087   2.316  13.229 -0.1169 -0.0144 -0.1823
 8533SOL    HW137235   2.150   2.366  13.280 -1.5374 -0.7183  2.2753
 8533SOL    HW237236   2.032   2.276  13.296 -0.9994 -0.0861 -0.9459
 8534SOL     OW37237   0.385   1.327   8.707  0.3094 -0.6490 -0.4819
 8534SOL    HW137238   0.327   1.325   8.783  0.1993 -2.1368 -0.6118
 8534SOL    HW237239   0.367   1.247   8.658  1.3686 -0.3075 -1.4250
 8535SOL     OW37240   1.052   2.967   6.257  0.4079  0.2246 -0.1735
 8535SOL    HW137241   1.131   2.914   6.247  0.9621  0.6144  2.0492
 8535SOL    HW237242   1.010   2.946   6.174 -0.6026 -0.5418  0.5459
 8536SOL     OW37243   0.794   3.583   2.138  0.3698 -0.1262  0.0556
 8536SOL    HW137244   0.725   3.529   2.102  0.4567 -0.1917 -0.0132
 8536SOL    HW237245   0.787   3.660   2.082  1.0083 -0.9274 -1.1165
 8537SOL     OW37246   4.248   4.219   7.050  0.3700  0.1764  0.2203
 8537SOL    HW137247   4.200   4.232   7.132 -1.4069  2.3761 -1.1681
 8537SOL    HW237248   4.187   4.166   6.998  1.2432 -0.0272 -0.6025
 8538SOL     OW37249   1.494   2.581   6.491 -0.3423  0.2984  0.2931
 8538SOL    HW137250   1.561   2.622   6.545  1.4152 -0.9856 -0.9252
 8538SOL    HW237251   1.527   2.602   6.404 -2.4609 -1.5877 -0.9849
 8539SOL     OW37252   2.228   4.440  13.241 -0.4759 -0.4175 -0.4597
 8539SOL    HW137253   2.239   4.532  13.214  0.7270 -0.3427  0.3127
 8539SOL    HW237254   2.240   4.407  13.152 -1.1811 -0.3193 -0.5975
 8540SOL     OW37255   4.522   3.593   3.001 -0.2257 -0.1486 -0.0390
 8540SOL    HW137256   4.468   3.514   2.997  0.4553 -0.5405 -1.9354
 8540SOL    HW237257   4.557   3.596   2.912  0.1621  1.6449  0.1734
 8541SOL     OW37258   2.486   4.362   6.071 -0.4897  0.3937 -0.3026
 8541SOL    HW137259   2.575   4.336   6.047 -0.7659 -1.2058  0.4287
 8541SOL    HW237260   2.472   4.445   6.026 -0.3804  0.7532  0.3351
 8542SOL     OW37261   3.699   0.365   2.502 -0.7530  0.1910 -0.3726
 8542SOL    HW137262   3.620   0.411   2.530  1.7902  3.7668  0.9675
 8542SOL    HW237263   3.721   0.326   2.587  0.2801  2.1488  0.2585
 8543SOL     OW37264   1.142   0.057   4.909 -0.3026  0.2860  0.4050
 8543SOL    HW137265   1.123   0.071   4.816 -0.0170  1.2325  0.4899
 8543SOL    HW237266   1.164   4.703   4.908 -2.3382 -0.1717 -0.5411
 8544SOL     OW37267   2.421   4.402   7.338 -0.1805  0.4036 -0.0857
 8544SOL    HW137268   2.376   4.413   7.255 -1.4441 -0.1986  0.5213
 8544SOL    HW237269   2.400   4.483   7.384 -0.9571 -0.4113  1.0024
 8545SOL     OW37270   4.028   0.477   9.713  0.4861 -1.0718  0.1037
 8545SOL    HW137271   3.984   0.436   9.787 -1.5856  0.2351 -0.4241
 8545SOL    HW237272   4.006   0.422   9.638 -1.8103  1.9950 -1.4394
 8546SOL     OW37273   0.393   1.534  17.164 -0.1055 -0.2835 -0.6957
 8546SOL    HW137274   0.313   1.484  17.175 -0.8182  1.2899  1.2734
 8546SOL    HW237275   0.372   1.575  17.248 -2.0163  0.3879 -1.5071
 8547SOL     OW37276   3.688   2.407   7.717  0.1778  0.7773 -0.2502
 8547SOL    HW137277   3.643   2.459   7.651  0.0855  0.3158 -0.5506
 8547SOL    HW237278   3.646   2.324   7.695  1.3244 -0.5513  2.5827
 8548SOL     OW37279   1.510   3.707   3.817  0.1958 -0.7103  0.2069
 8548SOL    HW137280   1.602   3.684   3.826 -0.7093 -4.6618 -0.6029
 8548SOL    HW237281   1.506   3.791   3.864  0.4442 -0.1012 -0.8599
 8549SOL     OW37282   3.754   3.023  17.380 -0.1150  0.6219  0.1400
 8549SOL    HW137283   3.766   2.998  17.472  1.2941 -2.5522 -0.8966
 8549SOL    HW237284   3.788   3.112  17.378  0.6521  0.3488  0.9775
 8550SOL     OW37285   0.300   0.034   7.544 -0.1864  0.1327 -0.5823
 8550SOL    HW137286   0.213   0.064   7.520 -0.2450 -0.7575 -1.4932
 8550SOL    HW237287   0.300   0.059   7.637 -0.2055 -4.1371  0.5836
 8551SOL     OW37288   0.359   3.131  17.144  0.1334 -0.1758 -0.1773
 8551SOL    HW137289   0.299   3.079  17.197  1.3986 -2.1342 -0.6331
 8551SOL    HW237290   0.312   3.214  17.145 -0.9309 -0.7649 -1.0325
 8552SOL     OW37291   4.285   4.277   4.297  0.8307 -0.2511 -0.3111
 8552SOL    HW137292   4.275   4.253   4.205  0.2068 -2.5992  0.3803
 8552SOL    HW237293   4.305   4.371   4.292  2.3881 -0.6637 -1.5006
 8553SOL     OW37294   1.511   0.460   3.046  0.3199 -0.1199  0.2853
 8553SOL    HW137295   1.457   0.428   3.119 -0.8350 -1.3643 -1.0965
 8553SOL    HW237296   1.450   0.456   2.973 -0.2077 -0.7819  0.7502
 8554SOL     OW37297   3.196   3.132   2.010 -0.7582 -0.0127  0.3255
 8554SOL    HW137298   3.280   3.149   2.053 -0.3448  0.6665 -0.7495
 8554SOL    HW237299   3.183   3.037   2.013  0.7441 -0.1651  2.2336
 8555SOL     OW37300   1.197   1.673  11.923 -0.5559  0.0053  0.2542
 8555SOL    HW137301   1.169   1.747  11.870  1.5647  2.3000  2.3120
 8555SOL    HW237302   1.193   1.707  12.013 -0.7409  1.5703 -0.3578
 8556SOL     OW37303   0.785   3.076   5.452 -0.0583 -0.0887 -0.5123
 8556SOL    HW137304   0.849   3.039   5.513 -0.8931  0.6319  0.7901
 8556SOL    HW237305   0.835   3.138   5.399  0.6576 -1.0819 -0.9949
 8557SOL     OW37306   1.395   3.136   3.752 -0.1075  0.2881  0.5583
 8557SOL    HW137307   1.333   3.140   3.679 -0.2036 -1.5448  0.5379
 8557SOL    HW237308   1.458   3.195   3.713  2.6385 -0.6392  3.6509
 8558SOL     OW37309   3.504   0.807   7.586  0.1316  0.1391 -0.3251
 8558SOL    HW137310   3.492   0.725   7.636 -1.1351  1.3693  1.3825
 8558SOL    HW237311   3.597   0.830   7.596  0.6565 -1.2295 -1.9487
 8559SOL     OW37312   1.790   2.842   1.526  0.4586  0.2213  0.8161
 8559SOL    HW137313   1.719   2.857   1.463  0.0598 -0.4278  1.1075
 8559SOL    HW237314   1.869   2.826   1.474 -0.3851 -1.4445  0.0435
 8560SOL     OW37315   1.836   0.033   8.937 -0.1531  0.3508 -0.4393
 8560SOL    HW137316   1.817   0.074   9.022 -0.0516  2.5505 -1.4795
 8560SOL    HW237317   1.887   0.104   8.899  1.0948  1.5025  3.3064
 8561SOL     OW37318   0.267   4.222   6.667  0.0122 -0.4770 -0.3360
 8561SOL    HW137319   0.232   4.311   6.666  2.3149  0.4536  1.1337
 8561SOL    HW237320   0.270   4.214   6.572  1.3445 -0.8780 -0.2651
 8562SOL     OW37321   1.451   3.706   7.426  0.2142  0.3028 -0.1660
 8562SOL    HW137322   1.512   3.773   7.396  0.9505  0.0769  0.8429
 8562SOL    HW237323   1.368   3.754   7.422 -0.4785 -0.6938  1.8034
 8563SOL     OW37324   3.950   0.167   2.123  0.3478 -0.2779 -0.3120
 8563SOL    HW137325   3.932   0.198   2.035  0.2927 -0.5063 -0.3815
 8563SOL    HW237326   3.904   0.084   2.110  0.6721 -0.4109 -0.6084
 8564SOL     OW37327   3.358   1.382  15.504 -0.5878 -0.7688 -0.1412
 8564SOL    HW137328   3.295   1.409  15.570 -0.2947  0.6374 -0.4232
 8564SOL    HW237329   3.341   1.449  15.437  2.8364 -1.1492 -1.3931
 8565SOL     OW37330   3.596   0.072  16.495 -0.1457  0.3435 -0.1008
 8565SOL    HW137331   3.666   0.135  16.512  0.1291  0.0209 -0.0334
 8565SOL    HW237332   3.526   0.135  16.515  0.3186  1.0768 -0.8004
 8566SOL     OW37333   3.444   1.102  13.075  0.2195  0.6381 -0.0821
 8566SOL    HW137334   3.371   1.163  13.083  0.6877  1.0930  0.6396
 8566SOL    HW237335   3.498   1.122  13.151  2.2256  2.5928 -2.0414
 8567SOL     OW37336   4.378   2.542   8.570  0.3312 -0.2463  0.2585
 8567SOL    HW137337   4.433   2.471   8.539  1.0601  1.7439 -2.9770
 8567SOL    HW237338   4.447   2.588   8.617 -0.9539  1.5434  0.4080
 8568SOL     OW37339   2.022   4.287   3.951 -0.6333 -0.6717  0.2623
 8568SOL    HW137340   2.004   4.314   4.041  1.4331 -1.1713  0.8247
 8568SOL    HW237341   1.932   4.271   3.921 -1.1099 -1.1243  1.9430
 8569SOL     OW37342   0.685   2.925   2.838 -0.0666 -0.2379  0.1485
 8569SOL    HW137343   0.666   2.921   2.744 -0.4322  2.5290  0.0924
 8569SOL    HW237344   0.595   2.929   2.871 -0.1105  1.0370 -0.0877
 8570SOL     OW37345   2.201   2.390   2.529  0.1822 -0.2930 -1.0078
 8570SOL    HW137346   2.124   2.443   2.550  0.2055 -1.3634  1.8959
 8570SOL    HW237347   2.271   2.442   2.568 -2.3361  1.4997  1.1266
 8571SOL     OW37348   3.289   4.401  14.884 -0.1413  0.2625 -0.0591
 8571SOL    HW137349   3.240   4.372  14.807  0.3229 -1.8193  0.4284
 8571SOL    HW237350   3.214   4.433  14.935  0.3989  0.0320  0.8838
 8572SOL     OW37351   2.118   1.978   7.756  1.0081 -0.1277 -0.2639
 8572SOL    HW137352   2.098   2.051   7.815 -1.4274 -0.8818 -0.1570
 8572SOL    HW237353   2.208   2.003   7.739  0.3829  1.2248 -1.5581
 8573SOL     OW37354   2.771   4.683   6.796 -0.3193 -0.5093  0.5660
 8573SOL    HW137355   2.746   0.025   6.751 -0.0202 -1.2012 -0.8393
 8573SOL    HW237356   2.835   4.639   6.740  0.2355  1.7290 -0.5679
 8574SOL     OW37357   4.412   1.441   3.417 -0.6915  0.0371 -0.3782
 8574SOL    HW137358   4.435   1.359   3.461 -0.7854  0.9065  1.3013
 8574SOL    HW237359   4.504   1.467   3.422 -1.0702  1.6605 -2.0172
 8575SOL     OW37360   4.100   3.202   1.721 -0.3695  0.4720  0.0624
 8575SOL    HW137361   4.097   3.232   1.630 -1.2410 -2.4497 -0.8921
 8575SOL    HW237362   4.157   3.269   1.757 -0.7172  1.0892 -0.5373
 8576SOL     OW37363   1.723   3.123   5.283  0.1772 -0.2248 -0.1307
 8576SOL    HW137364   1.779   3.186   5.329 -1.4319  0.9516  0.2140
 8576SOL    HW237365   1.751   3.152   5.196 -0.2446 -2.3491 -0.9741
 8577SOL     OW37366   2.963   3.027  11.598  0.6546 -0.3332 -0.2367
 8577SOL    HW137367   3.033   2.963  11.596 -0.5561 -1.6527 -0.6097
 8577SOL    HW237368   2.924   3.006  11.683 -1.1501 -0.0420 -0.9758
 8578SOL     OW37369   0.177   3.200  11.991 -0.0183  0.5373 -0.3488
 8578SOL    HW137370   0.115   3.247  11.935 -0.5420 -1.1937 -1.2310
 8578SOL    HW237371   0.193   3.260  12.064  3.6557 -3.0955  1.8303
 8579SOL     OW37372   4.129   1.179   3.957 -0.2288  0.4689  0.0481
 8579SOL    HW137373   4.197   1.112   3.949 -1.7757 -0.8427 -1.9254
 8579SOL    HW237374   4.178   1.261   3.959  4.9248 -2.5729 -1.3993
 8580SOL     OW37375   0.699   0.637   2.522  0.4186 -0.0107 -0.3166
 8580SOL    HW137376   0.604   0.649   2.527  0.3782 -0.8953  1.0086
 8580SOL    HW237377   0.740   0.702   2.579  2.0929 -0.7670 -0.6690
 8581SOL     OW37378   4.127   4.175   6.515  0.5014  0.2198  0.0080
 8581SOL    HW137379   4.134   4.266   6.487 -3.7642  0.2925 -0.8772
 8581SOL    HW237380   4.206   4.145   6.472 -0.4898 -0.8899 -1.0369
 8582SOL     OW37381   0.656   2.916   3.284  0.1535 -0.3155 -0.2356
 8582SOL    HW137382   0.589   2.893   3.219 -1.3761 -1.5540  1.7722
 8582SOL    HW237383   0.735   2.918   3.230  0.0850 -0.4410 -0.3404
 8583SOL     OW37384   1.169   4.711   5.480 -0.1030 -0.2216  0.4002
 8583SOL    HW137385   1.254   4.673   5.502  1.6928  4.2416  1.1879
 8583SOL    HW237386   1.122   4.628   5.489 -0.3766 -0.3025 -1.6852
 8584SOL     OW37387   1.934   0.009   7.741 -0.2979  0.3220  0.5955
 8584SOL    HW137388   1.893   0.041   7.821  1.6810  0.7563  1.4244
 8584SOL    HW237389   2.008   4.697   7.773 -0.1497 -0.3474 -0.7866
 8585SOL     OW37390   4.243   0.763   5.504  0.5498  0.0015 -0.0570
 8585SOL    HW137391   4.248   0.668   5.494  0.1817  0.1941 -1.9909
 8585SOL    HW237392   4.264   0.791   5.415  2.4260  2.3085  1.1277
 8586SOL     OW37393   3.262   2.546   7.515  0.0149 -0.1935 -0.9388
 8586SOL    HW137394   3.267   2.491   7.594  0.5722  0.6056 -0.4102
 8586SOL    HW237395   3.333   2.609   7.532 -0.5244 -0.0232  0.7198
 8587SOL     OW37396   0.768   2.736   8.876 -0.3672  0.5148 -0.7532
 8587SOL    HW137397   0.846   2.728   8.821 -0.0665  2.0770 -0.5657
 8587SOL    HW237398   0.756   2.831   8.881  0.8015  0.5685  1.0315
 8588SOL     OW37399   4.658   3.055  11.740 -0.1603  0.5932  0.0141
 8588SOL    HW137400   4.707   3.134  11.761 -0.3834  0.5697  0.6262
 8588SOL    HW237401   4.725   2.987  11.730 -0.1898  0.3480  1.4996
 8589SOL     OW37402   4.113   4.704   7.304 -0.0799 -0.3100 -0.6913
 8589SOL    HW137403   4.037   4.716   7.247 -0.2713  1.0445 -0.1475
 8589SOL    HW237404   4.162   4.637   7.256 -3.0552 -3.7161  1.0343
 8590SOL     OW37405   2.584   1.680   6.683 -0.3197 -0.5191  0.0483
 8590SOL    HW137406   2.659   1.632   6.719  0.3848  0.2984 -0.3238
 8590SOL    HW237407   2.601   1.675   6.589 -1.2154  2.4258 -0.2865
 8591SOL     OW37408   3.991   4.093   1.327  0.5468 -0.4182 -0.0438
 8591SOL    HW137409   3.957   4.056   1.246  0.6714  1.7775 -1.1107
 8591SOL    HW237410   3.909   4.120   1.368  1.3326  2.2590 -0.2066
 8592SOL     OW37411   3.899   0.519   6.210 -0.4735  0.2253  0.8779
 8592SOL    HW137412   3.932   0.609   6.204 -2.0663  0.6487 -1.2613
 8592SOL    HW237413   3.954   0.488   6.283 -1.1824 -1.5448  0.6334
 8593SOL     OW37414   1.755   4.067   9.116 -0.3486  0.2300  0.0016
 8593SOL    HW137415   1.691   4.136   9.134 -0.4829  0.0104  0.3726
 8593SOL    HW237416   1.703   3.988   9.109 -0.5835  0.4093 -0.2699
 8594SOL     OW37417   0.722   3.047  16.617  0.2248 -0.3372  0.2519
 8594SOL    HW137418   0.769   2.973  16.654 -1.9102 -1.0535  1.5214
 8594SOL    HW237419   0.792   3.089  16.567  0.5377 -0.4300  0.6137
 8595SOL     OW37420   1.047   3.650   8.268  0.5221  0.4412 -0.1835
 8595SOL    HW137421   1.060   3.557   8.287 -1.3282  0.6359  2.0992
 8595SOL    HW237422   1.023   3.685   8.354 -0.9720 -0.2120 -0.3439
 8596SOL     OW37423   2.201   2.746  13.559 -0.4623  0.2563  0.0425
 8596SOL    HW137424   2.259   2.819  13.579  0.3715 -0.5264  0.4938
 8596SOL    HW237425   2.158   2.733  13.643  0.5909 -0.0184  0.5377
 8597SOL     OW37426   1.408   1.148   8.178 -0.0680  0.4535 -0.4224
 8597SOL    HW137427   1.328   1.109   8.144 -0.8892  1.8977 -0.1231
 8597SOL    HW237428   1.423   1.088   8.250  1.4175 -0.7021 -1.6841
 8598SOL     OW37429   2.144   1.433   8.336 -0.3186  0.2678 -0.3005
 8598SOL    HW137430   2.100   1.396   8.412  1.9321  0.4340  1.1064
 8598SOL    HW237431   2.228   1.456   8.378 -0.3564  3.5431 -1.9957
 8599SOL     OW37432   1.874   4.388   6.727  0.3315 -0.0313 -0.2603
 8599SOL    HW137433   1.920   4.458   6.772  0.0561  0.2681 -0.4447
 8599SOL    HW237434   1.921   4.308   6.753 -0.4744 -0.6592 -0.7209
 8600SOL     OW37435   0.950   2.940   6.007  0.1138 -0.2829  0.1269
 8600SOL    HW137436   0.930   3.026   5.971 -0.6800 -0.5664 -0.0913
 8600SOL    HW237437   0.979   2.884   5.935 -1.2361  2.2277 -2.3108
 8601SOL     OW37438   1.312   0.181   2.962 -0.3709 -0.1625 -0.0978
 8601SOL    HW137439   1.337   0.152   3.050 -0.6683  1.9406  0.6656
 8601SOL    HW237440   1.364   0.115   2.915  0.1127  0.4327 -0.3946
 8602SOL     OW37441   3.554   2.373  16.498  0.0919 -0.0858 -0.3132
 8602SOL    HW137442   3.600   2.323  16.431  1.1118  0.9284 -0.3757
 8602SOL    HW237443   3.612   2.380  16.574 -0.8750 -2.1824  0.6086
 8603SOL     OW37444   4.326   0.681   3.149  0.1266  0.0719  0.2921
 8603SOL    HW137445   4.341   0.603   3.202 -0.8053 -0.2656  0.0622
 8603SOL    HW237446   4.319   0.648   3.060  2.1442  1.7453 -0.4789
 8604SOL     OW37447   4.496   0.807   4.882 -0.2827 -0.4185 -0.1255
 8604SOL    HW137448   4.577   0.756   4.876  0.1398  0.4706 -2.2167
 8604SOL    HW237449   4.433   0.747   4.921  0.9640 -1.1300  0.7933
 8605SOL     OW37450   1.668   1.227   8.204  0.0179  0.3181 -0.4864
 8605SOL    HW137451   1.599   1.184   8.154  1.3395  0.3406 -2.3385
 8605SOL    HW237452   1.739   1.214   8.141 -1.8170 -0.7584 -2.3336
 8606SOL     OW37453   0.202   0.599   9.255  0.2911 -0.2423 -0.2296
 8606SOL    HW137454   0.127   0.552   9.292  1.0096 -0.6724  0.6553
 8606SOL    HW237455   0.273   0.559   9.305  1.1368  3.2463  1.4033
 8607SOL     OW37456   3.140   1.626   7.812 -0.3479  0.3335 -0.1208
 8607SOL    HW137457   3.111   1.715   7.831  1.2304  1.3368 -2.5031
 8607SOL    HW237458   3.216   1.641   7.756  0.5395 -0.3164  0.9228
 8608SOL     OW37459   4.527   3.781   9.176 -0.1236  0.4418  0.6052
 8608SOL    HW137460   4.492   3.780   9.265 -0.8377 -0.4059  0.3125
 8608SOL    HW237461   4.523   3.687   9.156  1.2599  0.5812 -0.3949
 8609SOL     OW37462   2.403   2.068   9.143  0.3776 -0.3617 -0.4685
 8609SOL    HW137463   2.394   2.012   9.220  1.5182  0.6753  0.4209
 8609SOL    HW237464   2.379   2.017   9.066 -3.8896  1.4624 -0.3435
 8610SOL     OW37465   3.294   4.131   6.446  0.4531 -0.0785  0.5282
 8610SOL    HW137466   3.200   4.115   6.452  0.1825  1.1489 -0.2821
 8610SOL    HW237467   3.326   4.051   6.486  1.2593  0.7525  1.5595
 8611SOL     OW37468   1.051   2.112  14.405  0.1980 -0.0459 -0.2101
 8611SOL    HW137469   1.107   2.118  14.328  0.1671 -1.7493 -0.3550
 8611SOL    HW237470   1.109   2.162  14.463 -2.5282  0.0309  2.4534
 8612SOL     OW37471   0.846   1.513   8.028 -0.3110  0.0792  0.0717
 8612SOL    HW137472   0.922   1.522   7.972  1.4438 -1.6902  2.1547
 8612SOL    HW237473   0.878   1.520   8.118  1.7208  2.7820 -0.8746
 8613SOL     OW37474   2.770   3.061   3.571 -0.4774  0.2638 -0.1937
 8613SOL    HW137475   2.695   3.040   3.515  1.1230  0.6097 -2.4810
 8613SOL    HW237476   2.748   3.152   3.593  3.7653  1.1767  0.2220
 8614SOL     OW37477   3.541   4.193  12.960 -0.2205 -0.1974 -0.0469
 8614SOL    HW137478   3.528   4.170  12.868  1.0345 -2.9260  0.4855
 8614SOL    HW237479   3.620   4.247  12.959  1.4299 -2.6528 -0.4520
 8615SOL     OW37480   1.785   3.475   7.011  0.4644  0.3411  0.9727
 8615SOL    HW137481   1.850   3.542   7.030 -0.6752  1.8274 -0.3676
 8615SOL    HW237482   1.713   3.526   6.974 -1.1841 -0.9120  2.4379
 8616SOL     OW37483   1.179   3.516  10.717  0.3207  0.5947 -0.5142
 8616SOL    HW137484   1.250   3.484  10.661 -0.2133 -1.8604  0.2402
 8616SOL    HW237485   1.193   3.611  10.714 -1.0704  0.7490 -2.1339
 8617SOL     OW37486   4.444   0.721   4.135 -0.8227  0.3961 -0.6163
 8617SOL    HW137487   4.389   0.693   4.209 -1.5638  1.0285 -0.9319
 8617SOL    HW237488   4.447   0.816   4.142 -0.5744  0.3227  0.3474
 8618SOL     OW37489   2.130   2.114   5.834 -0.0016  0.0136  0.6605
 8618SOL    HW137490   2.169   2.035   5.873  1.4257 -0.2134 -1.2304
 8618SOL    HW237491   2.205   2.150   5.787 -0.5471  0.1468 -0.0952
 8619SOL     OW37492   0.920   1.836  15.083  0.9426  0.1160 -0.0730
 8619SOL    HW137493   0.853   1.771  15.105  0.3677  0.7085 -0.0692
 8619SOL    HW237494   0.990   1.804  15.139  1.7297 -2.3035 -2.4263
 8620SOL     OW37495   3.220   0.508   8.156  0.0946  0.1122 -0.0023
 8620SOL    HW137496   3.285   0.478   8.219  0.8414  1.1788 -0.2792
 8620SOL    HW237497   3.219   0.435   8.095  1.2962  0.9020 -0.9635
 8621SOL     OW37498   0.853   2.351  13.816 -0.5941  0.5625  0.6157
 8621SOL    HW137499   0.868   2.321  13.906  1.6081  2.2578  0.8028
 8621SOL    HW237500   0.943   2.372  13.793  0.0568 -2.7385  0.1599
 8622SOL     OW37501   0.108   2.018   9.063 -0.4719  0.4747 -0.1003
 8622SOL    HW137502   0.178   1.953   9.074 -0.8069  0.1244 -0.0514
 8622SOL    HW237503   0.083   2.035   9.153 -0.1485 -2.8198  0.6332
 8623SOL     OW37504   2.397   4.424   4.312  0.5972 -0.2734 -0.2102
 8623SOL    HW137505   2.364   4.511   4.291  0.5619 -0.2244  0.0425
 8623SOL    HW237506   2.423   4.443   4.403 -1.5406 -1.8051  0.7063
 8624SOL     OW37507   2.366   1.147   7.256  0.3721 -0.1880  0.0682
 8624SOL    HW137508   2.363   1.242   7.265  1.7852 -0.0728 -0.6809
 8624SOL    HW237509   2.273   1.132   7.270  0.7069 -2.3073 -0.0706
 8625SOL     OW37510   1.655   3.872   7.374 -0.5182  0.4917  0.1453
 8625SOL    HW137511   1.729   3.870   7.435 -0.0754  1.7534 -0.3346
 8625SOL    HW237512   1.651   3.963   7.345  2.7944 -0.2620 -2.7397
 8626SOL     OW37513   2.530   1.952   1.139  0.1831 -0.1253 -0.4403
 8626SOL    HW137514   2.590   1.901   1.193 -0.1402 -1.9354 -1.7773
 8626SOL    HW237515   2.497   2.009   1.209  0.0509 -0.5092 -0.1917
 8627SOL     OW37516   2.459   3.218  13.224 -0.6992 -0.0112 -0.3439
 8627SOL    HW137517   2.413   3.152  13.172  1.2447 -1.1771 -0.5585
 8627SOL    HW237518   2.544   3.208  13.181 -0.1052 -0.5470  0.9614
 8628SOL     OW37519   2.377   4.289   8.868 -0.0171  0.4180  0.0094
 8628SOL    HW137520   2.332   4.373   8.865 -1.9519 -0.5321  2.5587
 8628SOL    HW237521   2.321   4.231   8.920 -0.4065 -1.0123 -1.9663
 8629SOL     OW37522   4.463   1.329   9.880  0.3198 -0.3197  0.0211
 8629SOL    HW137523   4.390   1.376   9.841 -0.1176 -0.2390  0.9399
 8629SOL    HW237524   4.456   1.354   9.972  0.6957  0.3395 -0.1300
 8630SOL     OW37525   2.857   4.280   8.296  0.1216  0.1993  0.0986
 8630SOL    HW137526   2.787   4.271   8.231  1.2850  0.2921 -1.1848
 8630SOL    HW237527   2.823   4.360   8.335  0.9292  0.5645  0.0655
 8631SOL     OW37528   2.359   1.214   2.880  0.7843  0.1827 -0.0610
 8631SOL    HW137529   2.272   1.217   2.920  1.6892  2.2800  1.7222
 8631SOL    HW237530   2.360   1.118   2.885  1.0846  0.2324  0.7879
 8632SOL     OW37531   1.013   4.007   8.341  0.6826 -0.1821  0.1997
 8632SOL    HW137532   1.052   4.086   8.378 -1.6661  1.8672 -1.7501
 8632SOL    HW237533   1.014   3.946   8.415  0.6826 -1.5653 -0.9485
 8633SOL     OW37534   2.160   1.184  10.825 -0.2608  0.0558 -0.2122
 8633SOL    HW137535   2.230   1.182  10.891 -1.5678  0.4115  1.1896
 8633SOL    HW237536   2.204   1.224  10.750 -0.7050 -2.6282 -1.9129
 8634SOL     OW37537   0.162   0.368   5.317  0.2901  0.3752  0.0349
 8634SOL    HW137538   0.198   0.306   5.380  0.4946 -0.1051 -0.5584
 8634SOL    HW237539   0.155   0.439   5.381 -1.6850 -0.9411  1.2816
 8635SOL     OW37540   0.829   0.780   2.738  0.2306  0.1120  0.3625
 8635SOL    HW137541   0.880   0.854   2.705  0.8701 -1.0260 -1.2343
 8635SOL    HW237542   0.890   0.744   2.803  2.7249  1.8642 -1.0267
 8636SOL     OW37543   1.907   3.877   4.380 -0.1759 -0.0173 -0.9445
 8636SOL    HW137544   1.981   3.906   4.327  0.1168 -0.1357 -0.5943
 8636SOL    HW237545   1.934   3.911   4.465  2.2216 -1.3227 -1.1959
 8637SOL     OW37546   0.797   0.210   5.553 -0.2052  0.2300 -0.6642
 8637SOL    HW137547   0.769   0.261   5.477 -0.0748  1.3434  0.0456
 8637SOL    HW237548   0.885   0.189   5.521 -0.6007 -1.9184 -0.3145
 8638SOL     OW37549   1.104   0.548   3.064 -0.2139 -0.0081 -0.4784
 8638SOL    HW137550   1.030   0.521   3.118  2.0991  0.9706  3.1970
 8638SOL    HW237551   1.086   0.642   3.055  0.1909  0.1940  0.8312
 8639SOL     OW37552   1.292   3.154   6.579 -0.0801 -0.5349 -0.1890
 8639SOL    HW137553   1.220   3.151   6.643 -0.5398 -1.1837 -0.7359
 8639SOL    HW237554   1.300   3.065   6.545 -0.6751 -0.6500 -0.0353
 8640SOL     OW37555   0.943   1.468   4.622 -0.0841 -0.1767  0.2784
 8640SOL    HW137556   0.946   1.530   4.550  0.3108 -0.7869 -0.2294
 8640SOL    HW237557   1.034   1.475   4.650  0.7045 -0.1593 -2.3722
 8641SOL     OW37558   4.599   3.292   6.433 -0.0815 -1.0969  0.2606
 8641SOL    HW137559   4.520   3.291   6.379  1.1332  2.1658 -1.5468
 8641SOL    HW237560   4.618   3.385   6.426 -0.0438 -1.2926 -2.0130
 8642SOL     OW37561   4.660   0.572  10.739  0.2420 -0.1131 -0.6336
 8642SOL    HW137562   4.701   0.573  10.825 -1.6715 -0.3607  0.2723
 8642SOL    HW237563   4.642   0.478  10.732 -0.5692  0.0179 -0.2356
 8643SOL     OW37564   2.826   0.835  11.855  0.1120  0.5182 -0.2244
 8643SOL    HW137565   2.732   0.851  11.856  0.0060 -0.2798  2.8795
 8643SOL    HW237566   2.845   0.846  11.762  2.3832 -0.0014  0.1721
 8644SOL     OW37567   0.669   3.956   0.756  0.1124 -0.8274 -0.3612
 8644SOL    HW137568   0.595   4.017   0.756  0.8472  0.0547  1.8030
 8644SOL    HW237569   0.688   3.956   0.662  4.1753 -0.3100  0.4681
 8645SOL     OW37570   2.881   4.583  16.374 -0.5864 -0.0537 -0.2625
 8645SOL    HW137571   2.966   4.569  16.416 -0.8760  0.2534  0.4265
 8645SOL    HW237572   2.899   4.558  16.284 -0.2349 -1.1193  0.0997
 8646SOL     OW37573   0.488   3.202  15.534 -0.2557  0.7337 -0.0176
 8646SOL    HW137574   0.433   3.227  15.460 -1.7391 -1.5321  0.3172
 8646SOL    HW237575   0.435   3.137  15.580 -0.6645  0.2272 -1.2060
 8647SOL     OW37576   0.913   3.875   5.658 -0.0707  0.8716  0.0048
 8647SOL    HW137577   1.008   3.866   5.655 -0.1888  0.1451 -1.6601
 8647SOL    HW237578   0.905   3.950   5.717 -1.1351  0.8485 -0.1107
 8648SOL     OW37579   3.837   3.801   6.040  0.0420  0.7663 -0.0132
 8648SOL    HW137580   3.748   3.773   6.063  0.5662  0.0950  1.1813
 8648SOL    HW237581   3.832   3.811   5.945  1.9086  0.4142 -0.1504
 8649SOL     OW37582   0.494   1.341  13.013 -0.0216  0.8437  0.0979
 8649SOL    HW137583   0.451   1.261  12.984  3.5697 -0.1803 -2.3395
 8649SOL    HW237584   0.576   1.338  12.965 -0.5310  1.5653 -0.8162
 8650SOL     OW37585   3.969   2.163   0.412  0.0829 -0.1646  0.1823
 8650SOL    HW137586   3.882   2.138   0.382  0.3954  0.0086 -0.8597
 8650SOL    HW237587   3.997   2.226   0.346 -0.4739  1.4167  1.4685
 8651SOL     OW37588   0.151   0.591   1.558 -0.8870  0.2264  0.0811
 8651SOL    HW137589   0.119   0.563   1.643  0.3016 -0.3936  0.3390
 8651SOL    HW237590   0.180   0.681   1.567 -1.2135  0.0694  2.6467
 8652SOL     OW37591   1.088   0.972  12.603 -0.2513 -0.1846  0.2751
 8652SOL    HW137592   1.081   0.883  12.636  0.5415 -1.2968 -2.5797
 8652SOL    HW237593   1.001   1.002  12.578 -0.4867  0.6476  2.0364
 8653SOL     OW37594   2.848   2.660   0.309 -0.7977 -0.7443  0.0711
 8653SOL    HW137595   2.913   2.705   0.363 -0.2209 -0.1357 -1.1231
 8653SOL    HW237596   2.845   2.570   0.343  0.7534 -1.1653 -0.9058
 8654SOL     OW37597   2.724   3.190  13.160 -0.0921  0.7539  0.0757
 8654SOL    HW137598   2.762   3.132  13.226 -3.1500 -0.6871  0.5739
 8654SOL    HW237599   2.762   3.276  13.173  1.6135 -0.0779  0.5532
 8655SOL     OW37600   4.129   3.293   7.951 -0.0646 -0.6701 -0.1351
 8655SOL    HW137601   4.104   3.301   7.859  1.7500 -0.2600 -0.5888
 8655SOL    HW237602   4.222   3.312   7.943 -0.5087  1.9682  0.7146
 8656SOL     OW37603   2.250   1.432   4.827 -0.5357  0.8814  0.2704
 8656SOL    HW137604   2.259   1.448   4.920 -0.8696 -2.7512  0.9483
 8656SOL    HW237605   2.185   1.502   4.817 -1.5478 -0.1195 -0.2422
 8657SOL     OW37606   4.599   1.371  15.493 -0.1810  0.9280 -0.3208
 8657SOL    HW137607   4.552   1.309  15.436 -1.5076  1.4552  0.2250
 8657SOL    HW237608   4.655   1.312  15.543  0.8009  0.5129 -1.8829
 8658SOL     OW37609   2.753   3.613   3.381 -0.2651  0.6799  0.3768
 8658SOL    HW137610   2.729   3.636   3.470 -1.4819 -0.0024  0.2151
 8658SOL    HW237611   2.689   3.652   3.321  1.7778 -0.5157 -2.6037
 8659SOL     OW37612   1.193   2.705   0.572 -0.2393 -0.4361 -0.2631
 8659SOL    HW137613   1.165   2.771   0.635 -1.6549 -1.6597  0.3903
 8659SOL    HW237614   1.285   2.724   0.553  0.0324 -1.7763 -0.2228
 8660SOL     OW37615   3.428   1.065  11.481  0.0249  0.1640 -0.0948
 8660SOL    HW137616   3.481   1.141  11.458 -1.2491  0.9181 -0.5200
 8660SOL    HW237617   3.499   1.002  11.496  1.3190  1.8117  0.6448
 8661SOL     OW37618   2.923   3.066   0.336 -0.0143 -0.7121  0.1445
 8661SOL    HW137619   2.961   3.085   0.250 -0.9920  2.5340  0.4348
 8661SOL    HW237620   2.845   3.015   0.312 -0.7567 -0.5532  2.1653
 8662SOL     OW37621   3.467   0.403   3.149 -0.5742 -0.1739 -0.2862
 8662SOL    HW137622   3.447   0.475   3.208  1.4133  1.5095 -1.6696
 8662SOL    HW237623   3.528   0.358   3.206 -0.4740 -0.6135 -0.7422
 8663SOL     OW37624   1.479   2.310   3.522  0.1762 -0.2794  0.9271
 8663SOL    HW137625   1.414   2.247   3.490  0.3665 -0.4862  0.9522
 8663SOL    HW237626   1.422   2.377   3.560 -1.4695 -2.3062  2.0881
 8664SOL     OW37627   3.177   1.470   5.747  0.0149 -0.2165 -0.0223
 8664SOL    HW137628   3.106   1.513   5.700  0.7765 -1.7471 -2.6531
 8664SOL    HW237629   3.149   1.379   5.736  0.9339 -0.6888  1.5351
 8665SOL     OW37630   3.158   1.654   6.671  0.6084  0.0041 -0.1037
 8665SOL    HW137631   3.091   1.707   6.712  0.8449  0.8874 -0.8596
 8665SOL    HW237632   3.236   1.710   6.675  0.0111  0.9235 -1.3170
 8666SOL     OW37633   0.895   4.099   4.112 -0.2571 -0.1409  0.2878
 8666SOL    HW137634   0.935   4.031   4.058 -2.1797 -2.0608  1.2797
 8666SOL    HW237635   0.948   4.092   4.192 -0.2781 -0.1053  0.3047
 8667SOL     OW37636   3.004   3.775  13.930  0.0532  0.0362  0.1388
 8667SOL    HW137637   2.922   3.780  13.979 -0.3263 -0.3281 -0.4621
 8667SOL    HW237638   3.006   3.686  13.895 -0.5816 -0.3310  1.0508
 8668SOL     OW37639   1.034   3.610   2.971  0.1495  0.0115  0.1442
 8668SOL    HW137640   0.994   3.621   3.057  0.7396 -0.4568  0.4755
 8668SOL    HW237641   0.963   3.640   2.914 -1.0236 -1.3355  0.9046
 8669SOL     OW37642   3.036   2.642   4.841 -0.3237 -0.4957  0.1431
 8669SOL    HW137643   3.011   2.682   4.925 -0.5911 -0.1054 -0.1207
 8669SOL    HW237644   2.989   2.559   4.846  2.3030 -2.0636 -1.1674
 8670SOL     OW37645   0.274   1.413   4.359 -0.2964  0.4740 -0.1360
 8670SOL    HW137646   0.261   1.325   4.325 -0.1160  0.3750  0.0446
 8670SOL    HW237647   0.355   1.404   4.410  1.4199  1.9039 -2.5873
 8671SOL     OW37648   2.023   1.478   8.825  0.9080  0.2062 -0.3905
 8671SOL    HW137649   1.947   1.502   8.771  0.4445  1.4751  0.7997
 8671SOL    HW237650   2.087   1.440   8.766  0.2457 -0.4397 -0.6983
 8672SOL     OW37651   2.372   4.124   9.265 -0.5029  0.1105  0.0654
 8672SOL    HW137652   2.322   4.069   9.204 -0.9089  1.5109 -0.8738
 8672SOL    HW237653   2.331   4.208   9.242 -1.1366  0.2136  1.6034
 8673SOL     OW37654   3.785   4.425   6.306  0.3961 -0.7125 -0.4378
 8673SOL    HW137655   3.829   4.341   6.319 -1.1692 -1.2796  1.0662
 8673SOL    HW237656   3.721   4.417   6.376  0.2926  0.5076 -0.3942
 8674SOL     OW37657   3.155   2.408   7.753  0.9198  0.0664  0.1439
 8674SOL    HW137658   3.185   2.318   7.762  2.3314  0.3654 -1.4904
 8674SOL    HW237659   3.066   2.390   7.721  0.4514  0.5086  1.1930
 8675SOL     OW37660   0.884   3.653  16.838 -0.5250  0.7414 -0.0763
 8675SOL    HW137661   0.875   3.747  16.820  0.4448  1.0316  0.8657
 8675SOL    HW237662   0.839   3.643  16.922  1.4363  0.8151  1.0117
 8676SOL     OW37663   0.608   0.140  12.607  0.3318 -0.3365  0.0208
 8676SOL    HW137664   0.665   0.101  12.540  0.7562  2.1183 -1.0813
 8676SOL    HW237665   0.523   0.116  12.571  0.4382  1.2746 -1.3164
 8677SOL     OW37666   1.394   0.261   1.663  0.2139  0.2232  0.1341
 8677SOL    HW137667   1.419   0.183   1.613  1.6010 -0.1842  1.4865
 8677SOL    HW237668   1.353   0.226   1.742  0.1684 -0.5642 -0.2312
 8678SOL     OW37669   0.975   2.429   7.637  0.0797 -0.5521 -0.1500
 8678SOL    HW137670   0.934   2.513   7.619 -0.5912 -0.5562  1.3728
 8678SOL    HW237671   0.896   2.379   7.617  1.4981 -2.4463 -1.1084
 8679SOL     OW37672   2.866   1.296  13.113  0.1782  0.1616 -0.0687
 8679SOL    HW137673   2.789   1.320  13.062  0.1187 -0.5242 -0.3023
 8679SOL    HW237674   2.913   1.238  13.054  1.1403 -1.0052  1.8356
 8680SOL     OW37675   4.559   0.746  16.023  0.2529 -0.0532 -0.6202
 8680SOL    HW137676   4.615   0.803  16.076 -0.4886  0.6214 -0.5758
 8680SOL    HW237677   4.625   0.707  15.965 -0.2636 -0.0283 -1.2200
 8681SOL     OW37678   2.774   2.192   8.826 -0.0279  0.4281  0.0664
 8681SOL    HW137679   2.751   2.262   8.887  0.1501  0.7680 -0.2594
 8681SOL    HW237680   2.844   2.144   8.871 -1.1904 -0.7226  0.6695
 8682SOL     OW37681   1.653   3.591   4.767 -0.1542 -0.5932 -0.3652
 8682SOL    HW137682   1.558   3.590   4.773 -0.1007 -0.4484  0.4743
 8682SOL    HW237683   1.667   3.654   4.696  0.8295 -0.3807  0.0182
 8683SOL     OW37684   2.081   0.669   4.295 -0.0810 -0.0669 -1.2513
 8683SOL    HW137685   2.171   0.644   4.314 -0.6187 -0.3785  0.8525
 8683SOL    HW237686   2.039   0.584   4.305  1.1321 -0.5030  0.2050
 8684SOL     OW37687   2.099   1.953   9.700  0.1759  0.1547  0.2278
 8684SOL    HW137688   2.072   2.006   9.775 -4.3412 -0.1854 -1.1935
 8684SOL    HW237689   2.179   1.906   9.725  1.8360  2.2827 -1.0614
 8685SOL     OW37690   0.049   3.024   0.340 -0.2436  0.2972  0.0386
 8685SOL    HW137691   0.057   2.937   0.377  0.8990  1.1061  1.7026
 8685SOL    HW237692   0.056   3.070   0.424  0.1492 -1.5917  1.0240
 8686SOL     OW37693   0.934   1.993   7.269 -0.0342 -0.0333 -0.1891
 8686SOL    HW137694   0.974   1.970   7.185  0.6004 -0.6167  0.2780
 8686SOL    HW237695   0.845   2.005   7.238 -0.4475 -2.5400  0.0451
 8687SOL     OW37696   3.709   4.434   2.084  0.1468  0.1528 -0.7647
 8687SOL    HW137697   3.673   4.368   2.025 -2.0882  2.7837 -2.3267
 8687SOL    HW237698   3.780   4.385   2.124 -0.3750 -2.0302 -2.5375
 8688SOL     OW37699   3.922   3.144  15.393  0.0754 -0.3722 -0.1696
 8688SOL    HW137700   3.901   3.083  15.464 -2.4192 -0.6848 -1.1839
 8688SOL    HW237701   3.871   3.223  15.414 -0.7146 -1.0508  0.4611
 8689SOL     OW37702   3.940   4.555   4.460 -0.2488 -0.0917  0.0118
 8689SOL    HW137703   4.034   4.553   4.474 -0.2522 -2.7217 -0.2832
 8689SOL    HW237704   3.906   4.585   4.545 -2.7465 -0.1200 -0.9704
 8690SOL     OW37705   3.593   3.244   4.559 -0.0092 -0.1512 -0.7840
 8690SOL    HW137706   3.621   3.274   4.472  1.5353 -1.2193 -0.6356
 8690SOL    HW237707   3.534   3.319   4.573  1.9607  0.9443  1.6186
 8691SOL     OW37708   0.120   3.664   8.189  0.4504  0.0709  0.1443
 8691SOL    HW137709   0.165   3.618   8.118 -0.8708  0.5334 -1.0088
 8691SOL    HW237710   0.104   3.585   8.241 -1.7713  0.1126 -0.4380
 8692SOL     OW37711   0.588   3.622   6.754  0.1406 -0.2323  0.5417
 8692SOL    HW137712   0.559   3.530   6.758  0.1301 -0.3564 -1.9202
 8692SOL    HW237713   0.590   3.646   6.846  1.4979  0.4490  0.3210
 8693SOL     OW37714   4.659   3.104   3.245 -0.0873 -0.4504 -0.9241
 8693SOL    HW137715   4.714   3.033   3.211 -0.3284 -2.3018  2.5341
 8693SOL    HW237716   4.579   3.064   3.279  0.0259 -0.0090 -0.1405
 8694SOL     OW37717   4.714   0.656   7.970  0.1097 -0.0649 -0.1888
 8694SOL    HW137718   0.063   0.645   8.006  0.8711  1.3042 -1.6038
 8694SOL    HW237719   4.716   0.582   7.909  0.2801  2.1828 -2.9128
 8695SOL     OW37720   4.302   3.972   2.422  0.6584 -0.5766  0.0177
 8695SOL    HW137721   4.235   3.946   2.359  0.7576  2.0273 -1.1734
 8695SOL    HW237722   4.256   4.041   2.470 -0.7442 -1.7979  0.4071
 8696SOL     OW37723   0.784   0.444   2.992  0.1255  0.5334 -0.0047
 8696SOL    HW137724   0.784   0.512   2.925 -2.0252  0.5060 -0.0278
 8696SOL    HW237725   0.811   0.367   2.941 -1.1487 -0.2204  0.4610
 8697SOL     OW37726   3.682   3.141   5.208  0.1243 -0.3784  0.6465
 8697SOL    HW137727   3.698   3.069   5.269 -1.3458  0.2037  1.7247
 8697SOL    HW237728   3.641   3.105   5.130  0.3244 -0.5473  0.6181
 8698SOL     OW37729   0.135   3.620  15.395 -0.3789  0.4331  0.5266
 8698SOL    HW137730   0.142   3.605  15.301  0.7155  1.5275  0.4411
 8698SOL    HW237731   0.043   3.636  15.415 -1.3061 -1.2632 -2.2686
 8699SOL     OW37732   1.221   4.488   3.322  0.4085  0.4960 -0.0023
 8699SOL    HW137733   1.191   4.515   3.408 -0.7954  0.5787 -0.4480
 8699SOL    HW237734   1.153   4.423   3.304  1.0234 -0.2981  0.5188
 8700SOL     OW37735   1.045   2.549   7.953 -0.2861  0.1464 -0.4723
 8700SOL    HW137736   0.994   2.484   7.904 -2.3059  0.4242  1.2026
 8700SOL    HW237737   1.099   2.582   7.882 -1.6182 -0.2118 -1.6592
 8701SOL     OW37738   0.657   1.269   6.674 -0.2504  0.3225  0.7095
 8701SOL    HW137739   0.586   1.222   6.629 -1.0272  0.8132  1.4148
 8701SOL    HW237740   0.726   1.227   6.622  0.1904  0.4123  1.2339
 8702SOL     OW37741   0.636   1.469  12.636  0.5050  0.1665  0.1624
 8702SOL    HW137742   0.663   1.546  12.587  2.8819  0.6768  2.2939
 8702SOL    HW237743   0.579   1.516  12.697 -1.4065  0.3886 -1.8002
 8703SOL     OW37744   3.812   3.337   5.897 -0.1152  0.7937 -0.1967
 8703SOL    HW137745   3.801   3.327   5.991 -1.2092  0.1777 -0.3909
 8703SOL    HW237746   3.735   3.292   5.863 -1.0240  1.4337  1.0316
 8704SOL     OW37747   1.197   0.964   3.931 -0.8016 -0.5860 -0.0174
 8704SOL    HW137748   1.256   1.039   3.931 -1.0993 -0.3480  1.9249
 8704SOL    HW237749   1.107   0.993   3.947 -0.6851  0.6047 -1.5574
 8705SOL     OW37750   2.056   0.531   5.695  0.1599  0.3559  0.1623
 8705SOL    HW137751   2.034   0.563   5.608 -0.2436  1.8655  0.8225
 8705SOL    HW237752   2.079   0.617   5.731  0.8414  0.5479 -0.7649
 8706SOL     OW37753   3.174   3.433   8.371 -0.0809 -0.0608  0.2131
 8706SOL    HW137754   3.218   3.372   8.311  3.2210  0.0569  2.5518
 8706SOL    HW237755   3.183   3.375   8.447  0.8360  0.4993  0.5352
 8707SOL     OW37756   3.609   4.214   1.912  0.3917  0.1310 -0.7730
 8707SOL    HW137757   3.566   4.129   1.923  1.6358 -0.4868 -0.6872
 8707SOL    HW237758   3.576   4.238   1.826 -1.6119  1.1524  0.2968
 8708SOL     OW37759   4.258   2.138   9.216  0.3586  0.1916  0.0086
 8708SOL    HW137760   4.274   2.044   9.215  0.7206  0.2345  1.8513
 8708SOL    HW237761   4.317   2.169   9.284  0.1432 -1.3270  0.8857
 8709SOL     OW37762   4.177   1.165   7.213 -0.1168  0.0980 -0.9300
 8709SOL    HW137763   4.248   1.125   7.162  2.6286  1.9498  1.4717
 8709SOL    HW237764   4.176   1.250   7.169 -0.1739  1.4590  1.7296
 8710SOL     OW37765   1.151   2.208   5.371  0.5333 -0.2084  0.4860
 8710SOL    HW137766   1.105   2.181   5.450 -2.3641  2.0144 -0.4465
 8710SOL    HW237767   1.107   2.153   5.306 -3.4283 -1.1285  3.9505
 8711SOL     OW37768   1.394   1.854  13.447 -0.1197  0.1907  0.1517
 8711SOL    HW137769   1.468   1.896  13.403  1.5538 -1.6977  1.1854
 8711SOL    HW237770   1.345   1.936  13.456  0.5597  0.6692 -0.5758
 8712SOL     OW37771   1.093   4.592   7.152 -0.1341 -0.5686  0.0455
 8712SOL    HW137772   1.183   4.611   7.127 -0.9353  1.7793 -1.0224
 8712SOL    HW237773   1.076   4.532   7.079  0.9531 -2.4242  1.3138
 8713SOL     OW37774   4.342   1.109   4.691  0.0985 -0.1037 -0.2679
 8713SOL    HW137775   4.350   1.016   4.670 -1.7754 -0.2136 -0.5526
 8713SOL    HW237776   4.411   1.126   4.754  0.8850 -2.5036 -0.4706
 8714SOL     OW37777   1.405   0.492   1.805  0.4267  0.2661  0.3369
 8714SOL    HW137778   1.417   0.572   1.754 -1.9803 -0.0243 -0.6853
 8714SOL    HW237779   1.378   0.428   1.739 -0.6762  1.0105  0.0775
 8715SOL     OW37780   2.196   4.359   8.450  0.3179  0.1481  0.5222
 8715SOL    HW137781   2.203   4.450   8.423  1.9317  0.3822  1.7471
 8715SOL    HW237782   2.132   4.322   8.388  0.9533 -1.2056  0.6689
 8716SOL     OW37783   2.257   0.712   2.748  0.1672  0.0417 -0.0305
 8716SOL    HW137784   2.194   0.667   2.803  2.0989 -0.7368  1.5653
 8716SOL    HW237785   2.263   0.646   2.680 -0.1529  2.2885 -2.2299
 8717SOL     OW37786   1.812   4.368  10.349  0.2278  0.3086 -0.2216
 8717SOL    HW137787   1.854   4.292  10.390  2.0749  0.8852 -1.0499
 8717SOL    HW237788   1.805   4.345  10.257 -0.4674 -0.1100 -0.0688
 8718SOL     OW37789   0.167   3.676   3.783 -0.1222  0.8020 -0.2277
 8718SOL    HW137790   0.215   3.708   3.859  0.0739 -1.3904  0.5594
 8718SOL    HW237791   0.077   3.682   3.815  0.1891 -0.0748  0.8023
 8719SOL     OW37792   3.420   2.387   6.153 -0.2732 -0.1518  0.5228
 8719SOL    HW137793   3.394   2.475   6.127  0.7906  0.3635  1.1816
 8719SOL    HW237794   3.450   2.397   6.244 -0.1761 -0.8115  0.5600
 8720SOL     OW37795   3.899   4.643   2.741  0.4688 -0.1758  0.0549
 8720SOL    HW137796   3.855   4.633   2.656 -2.2273 -0.1762  1.4683
 8720SOL    HW237797   3.848   4.586   2.797  1.7917 -0.6000  0.8189
 8721SOL     OW37798   2.451   1.009  13.015 -0.1899 -0.2732 -0.3585
 8721SOL    HW137799   2.446   0.963  13.099  1.9181 -0.4196 -0.3240
 8721SOL    HW237800   2.357   1.012  12.995 -0.2621  0.2087  0.0602
 8722SOL     OW37801   0.508   0.238   5.984 -0.1132 -0.2956  0.1348
 8722SOL    HW137802   0.450   0.311   5.960 -0.9486 -0.5974  1.2153
 8722SOL    HW237803   0.574   0.246   5.916  1.7691 -0.2567  1.9836
 8723SOL     OW37804   3.319   1.831   4.254  0.1349 -0.7942  0.0988
 8723SOL    HW137805   3.361   1.883   4.322 -1.1737  0.6327 -0.1700
 8723SOL    HW237806   3.386   1.766   4.233  0.7632  0.0954 -0.6633
 8724SOL     OW37807   0.008   2.587   3.059 -0.4180 -0.4400  0.2665
 8724SOL    HW137808   4.664   2.550   3.090 -1.4976  0.2762 -1.7928
 8724SOL    HW237809   0.040   2.634   3.136 -1.0919  0.5763 -0.0708
 8725SOL     OW37810   1.216   1.289   8.999  0.3470 -0.4465 -0.5614
 8725SOL    HW137811   1.234   1.253   8.913 -0.0871 -0.5885 -0.5875
 8725SOL    HW237812   1.202   1.383   8.984 -2.1991 -0.7945 -0.3513
 8726SOL     OW37813   1.981   0.431   7.537 -0.1296 -0.4133 -0.1979
 8726SOL    HW137814   1.995   0.344   7.575 -0.6653 -0.1637  0.5646
 8726SOL    HW237815   2.048   0.468   7.595  0.5636 -1.2583 -0.4532
 8727SOL     OW37816   1.935   2.627   8.183  0.0533 -0.3727 -0.6362
 8727SOL    HW137817   1.867   2.694   8.185  0.7168  0.3248 -1.7402
 8727SOL    HW237818   1.932   2.587   8.097 -1.9956  0.4220 -0.9310
 8728SOL     OW37819   2.765   3.414  11.300  0.1501  0.1659 -0.0641
 8728SOL    HW137820   2.689   3.401  11.357 -0.0488 -1.5125 -0.7157
 8728SOL    HW237821   2.834   3.376  11.354  0.8531  0.4562 -0.7607
 8729SOL     OW37822   3.371   1.861   3.736 -0.1793  0.3646  0.6479
 8729SOL    HW137823   3.342   1.933   3.793 -0.4856 -0.2865  1.3277
 8729SOL    HW237824   3.466   1.873   3.730  0.0358 -1.8350 -0.2939
 8730SOL     OW37825   2.635   2.955   7.893 -0.0654  0.5298  0.1492
 8730SOL    HW137826   2.564   2.895   7.868 -2.0442  1.7458  2.8644
 8730SOL    HW237827   2.702   2.888   7.909 -1.0929 -0.2741  1.0956
 8731SOL     OW37828   1.676   1.393   5.894  0.0002 -0.6193  0.5360
 8731SOL    HW137829   1.627   1.441   5.960 -1.8091  0.4010 -1.5762
 8731SOL    HW237830   1.608   1.405   5.828  0.3006 -2.1024 -0.0433
 8732SOL     OW37831   3.037   2.127   2.693  0.1652 -0.1739 -0.8547
 8732SOL    HW137832   2.992   2.086   2.767  2.8431 -0.6466  0.5028
 8732SOL    HW237833   3.125   2.099   2.716 -0.1526 -0.8993 -0.5194
 8733SOL     OW37834   1.273   2.623   2.330 -0.6104  0.0773 -0.0654
 8733SOL    HW137835   1.283   2.716   2.311 -0.5321 -0.7498 -3.9894
 8733SOL    HW237836   1.248   2.589   2.245  1.8552  0.5003 -0.9633
 8734SOL     OW37837   1.693   3.439  13.326  0.0971  0.3871  0.1460
 8734SOL    HW137838   1.666   3.508  13.387  1.7077 -0.1720  1.4793
 8734SOL    HW237839   1.783   3.472  13.324  0.0868  0.3981 -0.1451
 8735SOL     OW37840   3.937   2.503   8.071 -0.1211 -0.3503 -0.0696
 8735SOL    HW137841   3.944   2.594   8.098 -0.2823 -0.4635  0.3489
 8735SOL    HW237842   3.994   2.499   7.994 -0.9040  1.0317 -0.7182
 8736SOL     OW37843   0.860   0.019   2.326  0.5597  0.5570  0.4627
 8736SOL    HW137844   0.858   0.005   2.420 -1.0715 -0.4963  0.2790
 8736SOL    HW237845   0.943   0.064   2.312  0.7640  0.2656  0.7512
 8737SOL     OW37846   3.721   4.346   5.647 -0.2275  0.4189  0.3423
 8737SOL    HW137847   3.814   4.368   5.656  0.2506 -0.8236 -1.6002
 8737SOL    HW237848   3.696   4.360   5.738 -0.8958 -0.0247  0.2292
 8738SOL     OW37849   4.433   2.669   4.393  0.1336  0.1157 -0.1275
 8738SOL    HW137850   4.473   2.752   4.418 -1.6776  1.4658 -1.7149
 8738SOL    HW237851   4.500   2.601   4.404 -0.0304 -0.3556 -1.9240
 8739SOL     OW37852   1.441   3.979   5.615  0.5309  0.1955  0.0359
 8739SOL    HW137853   1.386   4.025   5.552  0.7879  0.7876  0.2420
 8739SOL    HW237854   1.381   3.944   5.681 -1.6624  2.5410 -0.7308
 8740SOL     OW37855   3.159   0.143   4.836  0.4414  0.1650  0.6629
 8740SOL    HW137856   3.193   0.228   4.809  0.3665 -0.1479 -0.4275
 8740SOL    HW237857   3.067   0.165   4.847  0.0507 -1.0720 -0.1090
 8741SOL     OW37858   4.051   3.290   2.569  0.2100 -0.4602  0.0150
 8741SOL    HW137859   4.002   3.370   2.589  0.4319 -0.6453  1.2818
 8741SOL    HW237860   4.028   3.288   2.476  1.6522  0.8580 -0.3513
 8742SOL     OW37861   0.161   0.905  12.608 -0.3882 -0.7786 -0.9550
 8742SOL    HW137862   0.248   0.907  12.649 -1.2415  1.0438  0.7894
 8742SOL    HW237863   0.113   0.849  12.669  2.7246 -0.1431  2.1336
 8743SOL     OW37864   3.280   0.757   2.842  0.1812 -0.2690  0.4021
 8743SOL    HW137865   3.306   0.701   2.915 -1.4693 -0.5873  0.7442
 8743SOL    HW237866   3.210   0.703   2.806 -1.6193  1.9173  0.6318
 8744SOL     OW37867   0.109   0.692   8.682  0.0764 -0.1563  0.3491
 8744SOL    HW137868   0.050   0.643   8.740 -0.0164  1.1047  1.3376
 8744SOL    HW237869   0.140   0.621   8.627 -2.4756 -1.2529  0.3175
 8745SOL     OW37870   2.228   0.212   5.499  0.3435  0.1223  0.7453
 8745SOL    HW137871   2.204   0.141   5.439 -0.5051  0.6746  0.4259
 8745SOL    HW237872   2.316   0.183   5.522  0.3255  0.0983  0.7831
 8746SOL     OW37873   4.524   3.867   2.057  0.3319  0.4187  0.3896
 8746SOL    HW137874   4.555   3.806   1.990 -1.4353 -1.8489  1.6095
 8746SOL    HW237875   4.461   3.925   2.015  0.3647 -0.6387 -1.1057
 8747SOL     OW37876   2.606   2.425   6.343  0.1096  0.2962 -0.4738
 8747SOL    HW137877   2.677   2.469   6.390 -0.8067 -1.1093  2.2491
 8747SOL    HW237878   2.571   2.492   6.284  1.9269  1.6309 -0.0335
 8748SOL     OW37879   0.314   2.068  11.904  0.1237  0.7789 -0.0504
 8748SOL    HW137880   0.401   2.105  11.886  0.3141  0.1016 -0.5077
 8748SOL    HW237881   0.283   2.126  11.973 -0.3251 -0.9360  1.1820
 8749SOL     OW37882   1.771   4.079   5.957 -0.4783  0.1942  0.3455
 8749SOL    HW137883   1.729   4.076   5.871  0.8932  0.0396 -0.3160
 8749SOL    HW237884   1.753   4.171   5.978 -0.7524  0.5978 -1.5833
 8750SOL     OW37885   2.506   0.852  14.680 -0.1260  0.3409  0.1870
 8750SOL    HW137886   2.424   0.867  14.727 -0.6031 -0.4886 -0.3818
 8750SOL    HW237887   2.490   0.767  14.638  2.7126  0.5642 -1.3403
 8751SOL     OW37888   1.041   3.025   6.685  0.1763  0.0093  0.0966
 8751SOL    HW137889   0.957   2.981   6.697 -0.7477  2.1260  1.4487
 8751SOL    HW237890   1.059   3.053   6.775  0.0240 -1.4831  0.5840
 8752SOL     OW37891   3.793   1.611   6.788  0.1013 -0.4366 -0.3207
 8752SOL    HW137892   3.800   1.534   6.733 -0.1201 -0.9438  0.3602
 8752SOL    HW237893   3.741   1.581   6.863  0.8056  0.7238  0.6352
 8753SOL     OW37894   2.343   1.085   1.110 -0.1713 -0.2232 -0.0690
 8753SOL    HW137895   2.336   1.149   1.182 -0.0270 -0.5899  0.2708
 8753SOL    HW237896   2.257   1.078   1.070 -0.6776 -2.4403  1.4389
 8754SOL     OW37897   4.658   4.639   4.089  0.2172 -0.2416 -0.2783
 8754SOL    HW137898   4.701   4.720   4.114 -0.6440 -0.0411  0.5878
 8754SOL    HW237899   4.608   4.661   4.011 -0.3662 -0.5491  0.0062
 8755SOL     OW37900   2.624   1.586   6.195  0.2784 -0.0758 -0.5099
 8755SOL    HW137901   2.560   1.516   6.204 -0.1704  0.1708 -1.7840
 8755SOL    HW237902   2.706   1.547   6.224  0.1372  0.1824  0.2457
 8756SOL     OW37903   2.932   3.277  11.480  0.2278 -0.3286 -0.0109
 8756SOL    HW137904   3.010   3.247  11.434 -0.2886 -0.7029 -0.6556
 8756SOL    HW237905   2.909   3.200  11.533 -1.5187 -0.9931 -1.7004
 8757SOL     OW37906   3.255   2.657   0.307  0.2134  0.0569 -0.0374
 8757SOL    HW137907   3.206   2.674   0.388 -0.6625  0.8968 -0.7466
 8757SOL    HW237908   3.196   2.680   0.236 -2.4381 -0.7932  1.8849
 8758SOL     OW37909   1.538   1.124   3.688 -0.2618  0.7358  0.0080
 8758SOL    HW137910   1.574   1.160   3.607  1.3371  0.8401  0.7748
 8758SOL    HW237911   1.523   1.034   3.659  1.4292  0.5863 -0.3942
 8759SOL     OW37912   1.535   1.876   5.186 -0.5324 -0.1264  0.4954
 8759SOL    HW137913   1.572   1.824   5.258  2.0049  1.9580  0.6821
 8759SOL    HW237914   1.492   1.807   5.135 -2.1001  0.5165  0.9510
 8760SOL     OW37915   0.645   1.825   7.250 -0.3753  0.7929 -0.0372
 8760SOL    HW137916   0.622   1.779   7.331  2.6613 -0.8241 -0.1370
 8760SOL    HW237917   0.591   1.792   7.178  4.2403  0.9463 -3.5261
 8761SOL     OW37918   1.705   3.229  16.544  0.1768 -0.1528  0.1059
 8761SOL    HW137919   1.640   3.224  16.474  1.5250 -0.8880 -1.0920
 8761SOL    HW237920   1.785   3.216  16.493 -0.3830 -0.2058 -0.7573
 8762SOL     OW37921   2.698   0.367  15.757  0.3431  0.1454  0.6432
 8762SOL    HW137922   2.670   0.451  15.793 -0.0351  1.3017 -2.3589
 8762SOL    HW237923   2.744   0.335  15.835 -0.6916 -1.4113  0.6082
 8763SOL     OW37924   3.027   3.983   9.268  0.3314  0.5339  0.0030
 8763SOL    HW137925   3.046   3.918   9.336  1.9245  0.7389 -0.2407
 8763SOL    HW237926   3.053   4.060   9.317  0.5137 -0.4602  1.4774
 8764SOL     OW37927   2.848   1.452  12.160 -0.1512  0.7448 -0.1644
 8764SOL    HW137928   2.818   1.383  12.220 -0.2181  0.9882  0.0811
 8764SOL    HW237929   2.941   1.435  12.143 -0.1664  0.0648  0.4131
 8765SOL     OW37930   1.408   3.558   3.438  0.0751  0.4282  0.3006
 8765SOL    HW137931   1.482   3.518   3.392  1.8753  1.0181  2.6454
 8765SOL    HW237932   1.363   3.478   3.466 -0.2415  0.2713 -0.6623
 8766SOL     OW37933   1.801   1.166   1.792  0.3596  0.3919  0.4875
 8766SOL    HW137934   1.833   1.191   1.879 -1.1805  0.2910  1.0717
 8766SOL    HW237935   1.856   1.221   1.735 -1.0221  0.7706 -0.4749
 8767SOL     OW37936   0.190   3.777  10.365  0.5635  0.8195 -0.2544
 8767SOL    HW137937   0.200   3.788  10.271  1.7020 -0.7663 -0.3179
 8767SOL    HW237938   0.273   3.810  10.402  0.7706 -0.8644  0.7857
 8768SOL     OW37939   4.250   2.155  15.302 -0.5362 -0.4300  0.0218
 8768SOL    HW137940   4.219   2.072  15.338  1.0647 -2.1396 -2.5259
 8768SOL    HW237941   4.262   2.135  15.209  0.2049  0.6039 -0.1066
 8769SOL     OW37942   2.590   3.386  12.766 -0.3776  0.9500  0.1814
 8769SOL    HW137943   2.656   3.344  12.821 -0.3059  1.3751  0.4204
 8769SOL    HW237944   2.526   3.315  12.756  1.8725 -0.6396 -2.7451
 8770SOL     OW37945   3.566   4.309   7.258 -0.2685  0.5127 -0.1885
 8770SOL    HW137946   3.486   4.277   7.300  1.1890 -1.4351  1.1476
 8770SOL    HW237947   3.601   4.357   7.333  1.4057 -1.5627  0.3775
 8771SOL     OW37948   4.607   0.063   8.261  0.1577 -0.1930 -0.6630
 8771SOL    HW137949   4.635   0.079   8.171  1.5085 -2.8042 -0.7063
 8771SOL    HW237950   4.671   0.112   8.313 -0.0483  0.9230 -1.4562
 8772SOL     OW37951   1.351   3.457   4.366 -0.8857  0.4031 -0.5399
 8772SOL    HW137952   1.332   3.387   4.428 -0.1046  0.4559 -0.2415
 8772SOL    HW237953   1.322   3.533   4.418 -1.3070 -1.7248  2.3619
 8773SOL     OW37954   0.791   0.312   6.508 -0.2156  0.2987  0.0139
 8773SOL    HW137955   0.884   0.336   6.513 -0.2583  0.6317 -0.8442
 8773SOL    HW237956   0.765   0.361   6.586 -0.2121  0.6974 -0.2347
 8774SOL     OW37957   3.876   4.521   8.708 -0.0521 -0.3041  0.3156
 8774SOL    HW137958   3.806   4.535   8.772  1.7334  1.7204  1.8526
 8774SOL    HW237959   3.867   4.594   8.647  2.8750  0.0037  0.2522
 8775SOL     OW37960   0.058   1.387   7.274 -0.1932  0.0554  0.4564
 8775SOL    HW137961   0.149   1.412   7.292 -0.1136  0.5590 -0.6569
 8775SOL    HW237962   0.042   1.316   7.336  1.0140 -2.0696 -1.6541
 8776SOL     OW37963   2.560   3.027  11.822  0.3059 -0.6227  0.2989
 8776SOL    HW137964   2.500   3.066  11.886  0.5157  2.6416 -1.4715
 8776SOL    HW237965   2.508   2.958  11.781  0.2607  0.6261 -1.7812
 8777SOL     OW37966   2.743   2.114  17.447 -0.1456  0.0388  0.1831
 8777SOL    HW137967   2.813   2.063  17.488  1.0615  2.0874  0.6952
 8777SOL    HW237968   2.716   2.062  17.371  0.7326  1.2035 -0.9261
 8778SOL     OW37969   3.759   2.951   5.392 -0.0201 -0.3513 -0.2018
 8778SOL    HW137970   3.749   2.857   5.375 -0.0680 -0.2235 -0.8780
 8778SOL    HW237971   3.853   2.964   5.385 -0.6148  4.1879 -0.1752
 8779SOL     OW37972   0.254   1.768  11.979  0.0325 -0.1478  0.0693
 8779SOL    HW137973   0.316   1.810  12.040 -0.5587  0.2024  0.4248
 8779SOL    HW237974   0.282   1.677  11.967  1.1269  0.3059 -0.7720
 8780SOL     OW37975   2.154   0.393   5.290 -0.2596 -0.0006 -0.9198
 8780SOL    HW137976   2.119   0.472   5.331  1.3604  1.9101 -3.2064
 8780SOL    HW237977   2.181   0.341   5.366 -0.4310  0.2024 -0.7203
 8781SOL     OW37978   1.931   1.302   5.551 -0.1200 -0.1972 -0.1131
 8781SOL    HW137979   2.023   1.308   5.527 -0.0927 -0.0378  0.0259
 8781SOL    HW237980   1.917   1.391   5.583 -0.7087  0.4877 -2.3307
 8782SOL     OW37981   3.837   2.128   6.122 -0.7908  0.0288 -0.3347
 8782SOL    HW137982   3.821   2.119   6.028 -0.7004  0.0382 -0.3505
 8782SOL    HW237983   3.782   2.058   6.158  0.5274 -0.0743  1.4623
 8783SOL     OW37984   3.226   4.619   3.630 -1.0486 -0.0640  0.1437
 8783SOL    HW137985   3.266   4.660   3.552  2.3175 -0.2347  1.7715
 8783SOL    HW237986   3.138   4.655   3.625 -0.9774 -0.0353 -1.0249
 8784SOL     OW37987   2.525   3.864   7.107  0.7525 -0.1284  0.3549
 8784SOL    HW137988   2.586   3.805   7.152  3.0671 -1.1257 -4.1374
 8784SOL    HW237989   2.578   3.942   7.090  2.6879 -1.7261 -1.0277
 8785SOL     OW37990   2.891   1.979  11.123 -0.3476  0.6505 -0.0257
 8785SOL    HW137991   2.932   1.966  11.208 -1.3718 -1.2096  0.2014
 8785SOL    HW237992   2.899   2.073  11.112 -1.2641  0.5120 -1.9458
 8786SOL     OW37993   3.727   4.081   8.573  0.0297 -0.0550 -0.6754
 8786SOL    HW137994   3.710   4.093   8.480  0.5322 -0.0826 -0.7691
 8786SOL    HW237995   3.820   4.102   8.574 -0.1856  0.9107 -1.0062
 8787SOL     OW37996   2.969   1.381   6.804  0.3811  0.3513  0.1642
 8787SOL    HW137997   2.909   1.420   6.741 -0.0067  0.4756  0.6073
 8787SOL    HW237998   3.044   1.361   6.748  0.9525  1.2042  0.6297
 8788SOL     OW37999   4.540   2.432   0.938 -0.1880  0.1253 -0.0019
 8788SOL    HW138000   4.612   2.494   0.930  0.3002 -0.3840  0.3976
 8788SOL    HW238001   4.463   2.484   0.917 -0.4408 -0.4471 -0.4959
 8789SOL     OW38002   1.118   3.405  15.395 -0.2370 -0.0816 -0.4480
 8789SOL    HW138003   1.093   3.453  15.317  0.3694  1.9911  0.6197
 8789SOL    HW238004   1.201   3.367  15.366 -2.2085 -3.6237 -1.4465
 8790SOL     OW38005   4.231   3.801   7.746 -0.1235 -0.0187 -0.2131
 8790SOL    HW138006   4.138   3.796   7.767  0.2129 -1.2978  0.9459
 8790SOL    HW238007   4.268   3.839   7.826 -3.2399  0.1844  1.1111
 8791SOL     OW38008   2.952   2.438   8.542  0.1242  0.2169 -0.2523
 8791SOL    HW138009   3.040   2.446   8.578  0.3064 -0.5438 -0.5125
 8791SOL    HW238010   2.924   2.529   8.537  1.3815  0.6432  0.5880
 8792SOL     OW38011   1.402   0.609  10.113  0.3596 -0.5350  0.4085
 8792SOL    HW138012   1.446   0.684  10.153 -0.3272 -0.6363  1.3545
 8792SOL    HW238013   1.318   0.602  10.159 -0.1424 -0.4668 -0.5091
 8793SOL     OW38014   2.033   4.691   4.800 -0.4109 -0.2905  0.0311
 8793SOL    HW138015   2.103   4.664   4.741 -0.6176  2.9418 -1.7385
 8793SOL    HW238016   1.961   4.719   4.742  1.0719  0.3925 -1.4785
 8794SOL     OW38017   0.085   1.924  11.836 -0.0488 -0.1979  0.0676
 8794SOL    HW138018   0.160   1.980  11.854  0.9139 -0.9020 -1.7175
 8794SOL    HW238019   0.113   1.855  11.897  0.9967  1.6897  1.6945
 8795SOL     OW38020   1.140   1.736   9.467  0.2740 -0.4125  0.3495
 8795SOL    HW138021   1.165   1.671   9.401 -1.2189  0.3778 -0.9799
 8795SOL    HW238022   1.230   1.752   9.494 -0.2504  2.0704  0.6090
 8796SOL     OW38023   1.034   3.709  13.660  0.2619  0.1751 -0.0685
 8796SOL    HW138024   1.087   3.633  13.686  2.1456  1.2378 -0.7886
 8796SOL    HW238025   1.059   3.771  13.728 -3.3131 -2.1793  3.3783
 8797SOL     OW38026   0.510   1.541   7.187 -0.3566 -0.2368 -0.5616
 8797SOL    HW138027   0.502   1.540   7.092 -2.7325  0.6557 -0.3642
 8797SOL    HW238028   0.591   1.497   7.214  0.3933  0.7244 -1.2187
 8798SOL     OW38029   1.953   0.263   8.904  0.4044 -0.1302  0.2876
 8798SOL    HW138030   1.902   0.288   8.981 -0.4216 -2.0119  0.3498
 8798SOL    HW238031   1.988   0.349   8.884 -0.6757  0.5468  1.3275
 8799SOL     OW38032   3.461   3.651   3.624  0.4330 -0.4460 -0.1392
 8799SOL    HW138033   3.478   3.734   3.668 -0.5399 -0.4116  0.1639
 8799SOL    HW238034   3.419   3.693   3.549 -0.3215  1.1213  1.1789
 8800SOL     OW38035   2.949   1.678   5.136 -0.0340  0.7249  0.2179
 8800SOL    HW138036   2.897   1.625   5.076 -2.4995  1.5169  1.6439
 8800SOL    HW238037   2.980   1.605   5.190 -0.7195 -0.8989 -1.6029
 8801SOL     OW38038   4.443   3.497   3.977 -0.1067  0.5529  0.3678
 8801SOL    HW138039   4.406   3.528   4.060 -1.4344  0.3463 -0.1611
 8801SOL    HW238040   4.382   3.426   3.957  0.9513 -0.2380 -0.0633
 8802SOL     OW38041   1.976   2.977   0.095 -0.1095  0.0663 -0.0365
 8802SOL    HW138042   2.041   2.961   0.027 -2.3181  0.1875 -2.1668
 8802SOL    HW238043   1.926   3.049   0.055 -2.0226 -0.2917  1.7331
 8803SOL     OW38044   2.165   1.006   5.475  1.0294  0.0198  0.6296
 8803SOL    HW138045   2.202   1.092   5.455 -0.2381  0.5919  0.6931
 8803SOL    HW238046   2.199   0.981   5.561  0.7858 -0.4652  0.5827
 8804SOL     OW38047   3.529   2.866   3.050  0.3731 -0.4787  0.5579
 8804SOL    HW138048   3.557   2.955   3.030 -0.1354 -0.5334 -0.4083
 8804SOL    HW238049   3.467   2.887   3.120 -0.0591 -1.0877  0.3611
 8805SOL     OW38050   1.683   3.375   3.327 -0.2363 -0.2330 -0.0795
 8805SOL    HW138051   1.661   3.289   3.362  1.7908 -0.2817  1.0404
 8805SOL    HW238052   1.739   3.349   3.253 -1.4484 -1.2833 -0.6289
 8806SOL     OW38053   1.478   3.701  15.542  0.1411  0.0495 -1.1689
 8806SOL    HW138054   1.500   3.716  15.450 -0.2582 -0.4073 -1.3416
 8806SOL    HW238055   1.383   3.701  15.531 -0.0649 -0.4058  0.6000
 8807SOL     OW38056   0.576   2.111   2.825  0.5488  0.1978 -0.0480
 8807SOL    HW138057   0.636   2.116   2.900 -0.7262 -2.2597  1.1424
 8807SOL    HW238058   0.540   2.200   2.818  0.5431 -0.0033 -2.4504
 8808SOL     OW38059   4.226   3.426   1.779  0.0290 -0.2325  0.0990
 8808SOL    HW138060   4.213   3.499   1.841 -1.1074 -1.6560  1.5205
 8808SOL    HW238061   4.187   3.456   1.697  1.0514  2.0315  0.4267
 8809SOL     OW38062   4.133   3.267   3.164 -0.0940  0.0836  0.6321
 8809SOL    HW138063   4.068   3.223   3.219  0.1537 -2.7430 -1.3323
 8809SOL    HW238064   4.161   3.334   3.226  1.6262 -1.7721  1.8686
 8810SOL     OW38065   0.661   1.927   3.215  0.3802 -0.3072 -0.4174
 8810SOL    HW138066   0.659   1.883   3.300 -2.8533 -2.0599 -1.3856
 8810SOL    HW238067   0.718   1.864   3.173  0.5566 -1.3945  1.4711
 8811SOL     OW38068   4.391   2.282   3.523 -0.7115 -0.1482 -0.4825
 8811SOL    HW138069   4.422   2.366   3.490 -1.0880 -0.1048 -0.7244
 8811SOL    HW238070   4.460   2.222   3.495 -0.8974  0.0495 -1.3680
 8812SOL     OW38071   3.814   2.563   5.057  0.9111  0.1513  0.5327
 8812SOL    HW138072   3.792   2.519   4.974 -4.9014 -1.4250  2.8924
 8812SOL    HW238073   3.909   2.572   5.056  0.8059  0.8589 -2.8817
 8813SOL     OW38074   2.781   3.634   2.282  0.0987  0.1548 -0.0871
 8813SOL    HW138075   2.712   3.693   2.254 -0.2782 -0.3713 -0.2771
 8813SOL    HW238076   2.746   3.579   2.353 -1.0286 -1.4658 -1.8859
 8814SOL     OW38077   0.947   1.925   9.331  0.6303 -0.2416  0.2574
 8814SOL    HW138078   0.998   1.894   9.405 -0.1623 -2.7430 -0.2614
 8814SOL    HW238079   1.010   1.907   9.262  0.6677  0.8232  0.0005
 8815SOL     OW38080   1.139   0.645   1.399 -0.1452 -0.2488 -0.1634
 8815SOL    HW138081   1.153   0.673   1.490  0.4081 -2.0847  0.3177
 8815SOL    HW238082   1.189   0.564   1.411 -0.6470 -0.5949 -0.3832
 8816SOL     OW38083   4.305   2.666   7.455  0.6463 -0.3397  0.2342
 8816SOL    HW138084   4.368   2.738   7.460 -0.6272  0.8831 -1.5375
 8816SOL    HW238085   4.275   2.668   7.546  0.6627  0.5026  0.2270
 8817SOL     OW38086   2.342   2.888   6.464  0.3142 -0.8286  0.0950
 8817SOL    HW138087   2.272   2.952   6.452  1.1231 -0.3560 -2.0741
 8817SOL    HW238088   2.306   2.831   6.532  0.6060  0.2270  1.1244
 8818SOL     OW38089   2.828   1.438   6.265  0.4919 -0.2566 -0.4590
 8818SOL    HW138090   2.875   1.396   6.337  0.4055  1.9937  0.8917
 8818SOL    HW238091   2.829   1.367   6.200 -1.2481  1.5936 -2.5090
 8819SOL     OW38092   0.568   2.864   4.874 -0.0269  0.2930  0.2277
 8819SOL    HW138093   0.589   2.914   4.952  1.0548 -0.7438  0.5978
 8819SOL    HW238094   0.547   2.932   4.810  0.7250 -0.2288 -0.5769
 8820SOL     OW38095   3.461   3.526   7.215  0.0220  0.6271  0.1387
 8820SOL    HW138096   3.545   3.567   7.192 -1.4341  1.9990 -2.7529
 8820SOL    HW238097   3.489   3.474   7.290 -0.5267 -0.4823 -0.4285
 8821SOL     OW38098   2.184   1.368   5.492 -0.0596 -0.4406  0.1123
 8821SOL    HW138099   2.243   1.374   5.417  0.2786  3.5541  0.7098
 8821SOL    HW238100   2.226   1.411   5.567  1.4265 -0.6851 -0.5873
 8822SOL     OW38101   1.743   2.242   7.656  0.6770  0.5805 -0.0786
 8822SOL    HW138102   1.730   2.159   7.609 -2.2877  1.3062 -0.5815
 8822SOL    HW238103   1.726   2.298   7.581 -1.9232  0.3104  0.2921
 8823SOL     OW38104   1.724   3.295   1.769 -0.2293  0.2999  0.4720
 8823SOL    HW138105   1.768   3.377   1.788 -0.5107  0.3541  0.8907
 8823SOL    HW238106   1.781   3.235   1.720 -2.9081 -0.7310 -1.4458
 8824SOL     OW38107   4.501   3.388   4.319  0.1314  0.1601  0.3315
 8824SOL    HW138108   4.447   3.467   4.325 -0.5192 -0.4653  2.5693
 8824SOL    HW238109   4.435   3.326   4.351 -0.2142 -0.1451 -0.9399
 8825SOL     OW38110   4.484   0.099  13.571  0.3512  0.2614  0.3445
 8825SOL    HW138111   4.480   0.182  13.618 -0.6486  0.4142  0.0023
 8825SOL    HW238112   4.455   0.043  13.643  1.7943  0.9492  1.4628
 8826SOL     OW38113   1.131   2.434   8.192 -0.2280 -0.5213  0.3120
 8826SOL    HW138114   1.097   2.483   8.118  0.6539 -1.8730 -0.9835
 8826SOL    HW238115   1.055   2.427   8.250 -0.8489  0.3042 -0.3972
 8827SOL     OW38116   3.771   2.280  14.228  0.9777 -0.4761 -0.2674
 8827SOL    HW138117   3.734   2.302  14.314 -0.7779 -1.6927 -0.6985
 8827SOL    HW238118   3.787   2.361  14.180  0.4333  0.3835  0.9893
 8828SOL     OW38119   2.111   3.944  16.938  0.0517 -0.0177 -0.7594
 8828SOL    HW138120   2.021   3.929  16.967  0.0641  1.3193 -0.0304
 8828SOL    HW238121   2.089   3.986  16.855 -1.0867  1.0639  0.0896
 8829SOL     OW38122   3.573   3.471  15.710 -1.0304  0.2574 -0.1888
 8829SOL    HW138123   3.526   3.524  15.646 -1.5925 -1.3961 -1.1564
 8829SOL    HW238124   3.538   3.387  15.680  0.6007 -0.8170  0.9194
 8830SOL     OW38125   2.555   3.462   7.511  0.1071  0.3257  0.0551
 8830SOL    HW138126   2.487   3.398   7.531 -0.2585  1.2950  1.9024
 8830SOL    HW238127   2.595   3.465   7.598 -0.9857  0.7837  0.5369
 8831SOL     OW38128   0.495   0.892  10.721  0.2547 -0.0588  0.1219
 8831SOL    HW138129   0.518   0.934  10.638 -0.8387 -0.0000 -0.1609
 8831SOL    HW238130   0.431   0.835  10.678 -1.2512  0.8932  1.0919
 8832SOL     OW38131   1.161   0.300   4.016 -0.4017  0.0141 -0.3267
 8832SOL    HW138132   1.233   0.318   3.955  1.0203 -1.6678  0.8553
 8832SOL    HW238133   1.090   0.288   3.953  0.1078 -0.8806 -0.7469
 8833SOL     OW38134   2.772   4.269   1.401 -0.4064 -0.2751 -0.1003
 8833SOL    HW138135   2.853   4.320   1.405 -1.1952  1.2864 -4.0609
 8833SOL    HW238136   2.753   4.262   1.308  0.2131  1.7062 -0.3870
 8834SOL     OW38137   2.121   1.760   4.593  0.3732 -0.1970  0.1180
 8834SOL    HW138138   2.125   1.693   4.524  0.6105 -0.5269  0.4499
 8834SOL    HW238139   2.067   1.718   4.659 -1.4778  3.0144  0.6131
 8835SOL     OW38140   3.605   3.800   6.736  0.2418  0.0127  0.0273
 8835SOL    HW138141   3.586   3.871   6.798  1.8483 -1.6566  2.4481
 8835SOL    HW238142   3.617   3.719   6.785  1.9138 -0.3272 -0.9544
 8836SOL     OW38143   0.379   2.231  16.075 -0.0909 -0.0920 -0.0158
 8836SOL    HW138144   0.391   2.163  16.008 -2.3269 -1.1731  0.6821
 8836SOL    HW238145   0.286   2.251  16.067 -0.1007 -0.1689 -0.1053
 8837SOL     OW38146   2.145   2.531   6.477 -0.2427  0.8609  0.0690
 8837SOL    HW138147   2.102   2.558   6.395 -0.0820 -0.8289 -0.5727
 8837SOL    HW238148   2.126   2.609   6.529 -0.5117 -1.0228  2.7755
 8838SOL     OW38149   2.085   1.908   3.767  0.0421  0.4062  0.3199
 8838SOL    HW138150   2.162   1.882   3.818 -0.3705 -0.9637  0.2373
 8838SOL    HW238151   2.034   1.827   3.771  0.3879  0.1029 -1.5877
 8839SOL     OW38152   4.329   0.314   4.913 -0.2723  0.2490 -0.4665
 8839SOL    HW138153   4.295   0.390   4.866  0.9150  1.4486  0.6040
 8839SOL    HW238154   4.412   0.350   4.944  1.3385 -3.0895 -0.8766
 8840SOL     OW38155   2.725   1.037  17.507  0.2643  0.5842  0.2624
 8840SOL    HW138156   2.712   1.122  17.467  1.2065  0.8593  0.5306
 8840SOL    HW238157   2.792   1.055  17.574  0.0853  0.8626  0.3630
 8841SOL     OW38158   2.937   3.099   7.558 -0.0879  0.1010 -0.1870
 8841SOL    HW138159   2.842   3.100   7.576 -0.2153 -2.2545 -0.6670
 8841SOL    HW238160   2.954   3.187   7.526  0.1288 -0.3816 -1.3995
 8842SOL     OW38161   1.763   2.182   2.223 -0.0416 -0.2474 -0.3445
 8842SOL    HW138162   1.797   2.264   2.259 -1.0346  0.0496 -0.0688
 8842SOL    HW238163   1.727   2.219   2.142  2.4563  0.4643 -1.1452
 8843SOL     OW38164   3.604   3.719  16.175  0.8224 -0.2705  0.2290
 8843SOL    HW138165   3.639   3.805  16.151  0.2298 -0.2939 -0.7477
 8843SOL    HW238166   3.619   3.672  16.093  1.9062  2.3026 -1.0386
 8844SOL     OW38167   2.339   2.376   4.979 -0.5771 -0.4826  0.1012
 8844SOL    HW138168   2.253   2.354   4.941 -0.4518  0.6901 -0.8499
 8844SOL    HW238169   2.327   2.354   5.071  0.4689  0.0971  0.3773
 8845SOL     OW38170   4.028   2.772  14.113 -0.5819 -0.5299 -0.4076
 8845SOL    HW138171   4.114   2.808  14.138 -1.3132  0.9566 -0.0062
 8845SOL    HW238172   4.026   2.747  14.021  0.4117 -0.4493 -0.4494
 8846SOL     OW38173   2.920   1.908   1.610  0.9328  0.3080 -0.4467
 8846SOL    HW138174   2.978   1.839   1.578  1.0556  0.6530 -0.9716
 8846SOL    HW238175   2.890   1.953   1.531 -1.0686 -1.8085 -0.9061
 8847SOL     OW38176   3.542   3.656   1.075 -0.1894  0.0954 -0.3027
 8847SOL    HW138177   3.587   3.672   1.158 -0.5334 -3.9311  0.6252
 8847SOL    HW238178   3.578   3.576   1.038  0.6790 -0.2216  1.2450
 8848SOL     OW38179   2.289   1.410   9.091  0.1402 -0.5790  0.1692
 8848SOL    HW138180   2.261   1.456   9.170  1.0043 -0.7475  0.5667
 8848SOL    HW238181   2.337   1.473   9.038  2.8012 -1.9044  1.0148
 8849SOL     OW38182   4.501   4.531  13.366 -0.2816  0.2230  0.6768
 8849SOL    HW138183   4.445   4.466  13.407 -1.8648  1.4494  0.4574
 8849SOL    HW238184   4.455   4.556  13.286 -0.2372 -0.5172  0.4182
 8850SOL     OW38185   1.603   1.928   0.819 -0.8539 -0.0930  0.8911
 8850SOL    HW138186   1.619   1.844   0.862  2.5768  1.5105  2.7280
 8850SOL    HW238187   1.549   1.963   0.891 -1.2764 -0.7117  0.8765
 8851SOL     OW38188   3.431   2.108   7.084  0.0139 -0.5245 -0.1427
 8851SOL    HW138189   3.357   2.060   7.048 -0.4248  0.2664 -0.3141
 8851SOL    HW238190   3.420   2.092   7.178  0.5659 -3.2078 -0.5399
 8852SOL     OW38191   4.577   1.291   2.318 -0.1856  0.5447  0.0711
 8852SOL    HW138192   4.531   1.324   2.241 -0.4949  0.8838  0.3977
 8852SOL    HW238193   4.559   1.197   2.310 -0.2951  0.5041  0.7910
 8853SOL     OW38194   4.583   2.394   6.381 -0.5790 -0.2473  0.2177
 8853SOL    HW138195   4.536   2.437   6.452 -0.8657  3.0950 -1.9934
 8853SOL    HW238196   4.509   2.356   6.334  1.0123 -3.6126  0.3975
 8854SOL     OW38197   3.156   1.178  17.622 -0.2776 -1.1659  0.5168
 8854SOL    HW138198   3.161   1.115  17.550 -1.9544  1.4708 -1.8651
 8854SOL    HW238199   3.067   1.211  17.608  0.4558  0.4316 -0.3264
 8855SOL     OW38200   2.376   3.726   1.116 -0.2725  0.4777  0.6561
 8855SOL    HW138201   2.419   3.750   1.034  1.1095 -1.6617  0.7514
 8855SOL    HW238202   2.427   3.780   1.176  1.3388  0.4813 -0.7021
 8856SOL     OW38203   3.193   2.013   7.330  0.0386 -0.3504  0.4520
 8856SOL    HW138204   3.113   1.970   7.360 -0.3220 -0.9052 -1.3352
 8856SOL    HW238205   3.206   2.074   7.404  1.3529  0.0363 -0.0926
 8857SOL     OW38206   0.753   0.386  15.551  0.1972 -0.2373 -0.1430
 8857SOL    HW138207   0.754   0.342  15.465  0.4768  1.6162 -1.0947
 8857SOL    HW238208   0.842   0.422  15.556  1.5275 -3.6372  0.8188
 8858SOL     OW38209   2.352   0.963  12.712  0.0352  0.1966  0.0231
 8858SOL    HW138210   2.414   1.017  12.761  0.3001 -0.0160 -0.0752
 8858SOL    HW238211   2.271   0.992  12.753  0.7276 -0.5882  1.9485
 8859SOL     OW38212   0.032   2.062   7.399 -0.9397  0.1114  0.0376
 8859SOL    HW138213   0.014   2.133   7.461  2.6321 -0.0284  1.1968
 8859SOL    HW238214   4.695   2.004   7.410  1.3358 -2.9374 -0.6005
 8860SOL     OW38215   4.688   0.026   8.936  0.0908 -0.8191 -0.1548
 8860SOL    HW138216   4.701   0.054   9.026 -2.3255  1.8393 -0.6137
 8860SOL    HW238217   4.664   4.673   8.931  0.6732 -0.9204 -1.3358
 8861SOL     OW38218   0.397   1.019  12.663  0.3749  0.3570  0.3859
 8861SOL    HW138219   0.418   1.016  12.757 -1.6760 -0.3562  0.8209
 8861SOL    HW238220   0.472   1.060  12.620 -0.4988  0.8926 -0.6370
 8862SOL     OW38221   0.212   2.932   2.545  0.1700  0.7877 -0.1481
 8862SOL    HW138222   0.168   2.871   2.486  0.6878  0.9184 -0.6730
 8862SOL    HW238223   0.189   3.015   2.502 -2.2780  1.1780  1.9339
 8863SOL     OW38224   1.144   4.700   7.602 -0.2429  0.1751 -0.4504
 8863SOL    HW138225   1.050   4.703   7.620 -0.1176 -0.3204  0.2687
 8863SOL    HW238226   1.172   4.649   7.678  0.2648  0.4902 -0.4262
 8864SOL     OW38227   3.685   1.192   2.072 -0.9431  0.0261  0.2757
 8864SOL    HW138228   3.742   1.248   2.125  0.4643 -1.8651  0.7560
 8864SOL    HW238229   3.744   1.136   2.021 -0.8426  0.2821  0.1085
 8865SOL     OW38230   0.370   3.528  16.773  0.1149  0.5448 -0.1891
 8865SOL    HW138231   0.313   3.454  16.750  2.0716 -1.1942  0.6414
 8865SOL    HW238232   0.454   3.485  16.766 -0.6223 -0.6552 -1.5940
 8866SOL     OW38233   1.704   1.531  15.571  0.0986  0.3543 -0.5400
 8866SOL    HW138234   1.657   1.448  15.576 -0.2363  0.6727  1.5109
 8866SOL    HW238235   1.726   1.537  15.664 -0.8842 -0.3739 -0.2653
 8867SOL     OW38236   2.432   0.318   5.298 -0.8367  0.4031 -0.4122
 8867SOL    HW138237   2.379   0.375   5.243  0.5238  1.4491 -0.6333
 8867SOL    HW238238   2.383   0.236   5.288  0.3706 -0.5029  1.2678
 8868SOL     OW38239   1.656   4.275   6.602 -0.0082 -0.1823 -0.5583
 8868SOL    HW138240   1.670   4.183   6.583 -2.3533 -0.1526 -2.3752
 8868SOL    HW238241   1.721   4.295   6.670 -2.9177  1.8482  1.6171
 8869SOL     OW38242   2.956   4.539   8.653  0.0169  0.4202  0.1083
 8869SOL    HW138243   2.961   4.512   8.745  0.5708 -1.2202 -0.3940
 8869SOL    HW238244   2.863   4.524   8.634 -0.0790 -0.8810  1.6210
 8870SOL     OW38245   0.597   3.558   2.520 -0.0681  0.4365  0.7678
 8870SOL    HW138246   0.644   3.481   2.550 -1.5922 -0.3628  1.1309
 8870SOL    HW238247   0.555   3.516   2.445  0.7858 -0.7573  0.9693
 8871SOL     OW38248   4.595   1.932  15.270 -0.6666 -0.5481  0.6605
 8871SOL    HW138249   4.577   2.018  15.308  3.2630  0.8345 -0.5417
 8871SOL    HW238250   4.510   1.909  15.234 -0.2833  0.4235 -0.8834
 8872SOL     OW38251   3.709   2.056   7.183 -0.0749  0.1459  0.7966
 8872SOL    HW138252   3.699   1.991   7.113 -0.8532  1.0846  0.0434
 8872SOL    HW238253   3.624   2.098   7.173  1.3533  2.4581 -1.7603
 8873SOL     OW38254   4.722   0.581   6.519  0.3707  0.1807  0.2392
 8873SOL    HW138255   4.629   0.604   6.515  0.3243 -0.3939 -2.0019
 8873SOL    HW238256   4.738   0.515   6.451 -1.0863  0.9174 -0.8330
 8874SOL     OW38257   1.941   3.792  10.832 -0.3071 -0.6190  0.1030
 8874SOL    HW138258   1.927   3.742  10.912 -0.0545 -0.9798 -0.0743
 8874SOL    HW238259   1.982   3.725  10.777  0.6822  1.1005 -1.2328
 8875SOL     OW38260   0.367   3.560   1.959 -0.1267 -0.5767 -0.0571
 8875SOL    HW138261   0.442   3.618   1.974 -0.0925 -0.5283 -0.4115
 8875SOL    HW238262   0.295   3.622   1.972 -2.0283 -2.5642 -1.0805
 8876SOL     OW38263   3.233   1.871  17.572  0.2248  0.9270 -0.0200
 8876SOL    HW138264   3.251   1.777  17.569  1.7550  1.1856  1.2712
 8876SOL    HW238265   3.294   1.907  17.636 -2.1557  2.8777  1.1669
 8877SOL     OW38266   4.218   2.905   6.933  0.5830  0.1012  0.0502
 8877SOL    HW138267   4.173   2.833   6.976  3.1805 -1.2199  0.5965
 8877SOL    HW238268   4.234   2.856   6.852 -1.9391  0.3285 -0.5855
 8878SOL     OW38269   4.394   0.196   3.825 -0.2622 -0.6642  0.1217
 8878SOL    HW138270   4.462   0.260   3.840 -0.6581 -0.7444  2.2213
 8878SOL    HW238271   4.343   0.237   3.755  0.7781  2.8207  1.4433
 8879SOL     OW38272   3.426   2.869   0.295 -0.2178  0.0312 -0.3250
 8879SOL    HW138273   3.410   2.776   0.279  1.2403 -0.5044  1.3586
 8879SOL    HW238274   3.340   2.898   0.323 -2.2398 -2.9982 -3.3995
 8880SOL     OW38275   2.327   3.945   2.063 -0.5670 -0.2875  0.2743
 8880SOL    HW138276   2.261   3.998   2.107  1.1552  1.7286  0.3943
 8880SOL    HW238277   2.268   3.900   2.003 -0.2075  1.3362 -1.2933
 8881SOL     OW38278   4.569   2.390   8.459 -0.1133  0.0406 -0.9704
 8881SOL    HW138279   4.573   2.423   8.370  1.7917 -0.7475 -1.1895
 8881SOL    HW238280   4.543   2.298   8.456  0.4266 -0.1639  0.3857
 8882SOL     OW38281   2.359   1.376  10.125 -0.3004  0.0990 -0.0253
 8882SOL    HW138282   2.419   1.431  10.175 -0.2673  1.3728 -1.4696
 8882SOL    HW238283   2.350   1.424  10.043  0.4390 -0.5865 -0.5127
 8883SOL     OW38284   4.067   2.437  14.747 -0.6005 -0.1370  0.2154
 8883SOL    HW138285   4.098   2.354  14.710  0.5041  0.1168  0.5580
 8883SOL    HW238286   3.998   2.469  14.689 -1.4178 -1.9405  0.1978
 8884SOL     OW38287   1.680   1.678   5.830  0.1173 -0.3833  0.3871
 8884SOL    HW138288   1.740   1.718   5.768  0.4766 -1.9514 -0.2789
 8884SOL    HW238289   1.595   1.655   5.793 -0.5852  2.7099  0.0750
 8885SOL     OW38290   0.196   3.528  14.492 -0.0382 -0.1826 -0.0420
 8885SOL    HW138291   0.139   3.473  14.544 -1.0874  1.2741  0.3451
 8885SOL    HW238292   0.277   3.478  14.488  0.8101  1.3356 -2.4333
 8886SOL     OW38293   2.902   0.186   1.351 -0.0767  0.0627 -0.3980
 8886SOL    HW138294   2.818   0.233   1.357 -0.8282 -1.6717  2.7732
 8886SOL    HW238295   2.875   0.109   1.302  2.0825 -1.4706  0.8427
 8887SOL     OW38296   2.124   0.382   4.267  0.1262 -0.1726  0.0350
 8887SOL    HW138297   2.137   0.418   4.179 -0.7338 -2.5719 -1.0567
 8887SOL    HW238298   2.199   0.427   4.306  1.3865  0.5375 -3.2709
 8888SOL     OW38299   1.229   4.211   7.340 -0.0015  0.7933  0.0519
 8888SOL    HW138300   1.270   4.245   7.261  0.9128  1.2595  0.7183
 8888SOL    HW238301   1.192   4.294   7.371 -2.8602 -0.1692 -0.8394
 8889SOL     OW38302   3.279   4.182  14.483  0.6083 -0.2327  0.4584
 8889SOL    HW138303   3.308   4.111  14.426 -0.3701 -0.1024 -0.2016
 8889SOL    HW238304   3.186   4.163  14.475 -0.0457  2.3703  1.9998
 8890SOL     OW38305   1.748   0.458   7.069 -0.3205  0.5541  0.9137
 8890SOL    HW138306   1.685   0.528   7.056 -0.1315  0.9377  2.1022
 8890SOL    HW238307   1.777   0.481   7.157 -1.2257 -0.5096  1.4878
 8891SOL     OW38308   1.907   2.556   8.902 -0.0985 -0.0438  0.2586
 8891SOL    HW138309   1.888   2.600   8.819 -1.6947 -0.7073  0.2830
 8891SOL    HW238310   1.997   2.585   8.919  0.7806 -0.9233 -2.8762
 8892SOL     OW38311   0.090   3.030  13.451  0.3068  0.4168  0.0715
 8892SOL    HW138312   0.003   3.002  13.478  0.2494  0.0908 -0.4458
 8892SOL    HW238313   0.077   3.080  13.370 -0.2857 -1.7341 -1.1954
 8893SOL     OW38314   4.234   4.301   5.492  0.5254 -0.1781  0.2303
 8893SOL    HW138315   4.307   4.343   5.447 -1.0536 -0.7622 -2.9161
 8893SOL    HW238316   4.223   4.218   5.447 -1.0883 -0.2766  0.7930
 8894SOL     OW38317   0.605   3.083   3.574 -0.2943 -0.1634 -0.3963
 8894SOL    HW138318   0.636   3.162   3.619  0.2075 -0.3183 -0.4712
 8894SOL    HW238319   0.623   3.102   3.482  0.0191 -2.7338 -0.8618
 8895SOL     OW38320   3.437   3.573   3.225  0.3044  0.0905  0.4216
 8895SOL    HW138321   3.471   3.662   3.221 -0.4964  0.3836  0.1250
 8895SOL    HW238322   3.498   3.535   3.288  0.9824  0.6733  0.1067
 8896SOL     OW38323   1.232   3.141   5.524  0.1041  0.4923 -0.0338
 8896SOL    HW138324   1.293   3.123   5.452  1.0801 -0.8057  1.1157
 8896SOL    HW238325   1.236   3.233   5.548  0.8917  0.2810  0.6433
 8897SOL     OW38326   4.291   3.832   7.054  0.4180  0.1181  0.2344
 8897SOL    HW138327   4.269   3.774   6.982  3.7000  0.6193 -1.1387
 8897SOL    HW238328   4.345   3.893   7.004  0.8036 -1.6185 -1.4471
 8898SOL     OW38329   2.446   2.028   7.063  0.0752  0.2435  0.0957
 8898SOL    HW138330   2.463   1.985   6.979  1.4618  2.4911 -0.8000
 8898SOL    HW238331   2.519   2.089   7.073 -0.7898  1.4098 -0.5611
 8899SOL     OW38332   1.540   0.766   6.429 -0.2794 -0.2110 -0.3830
 8899SOL    HW138333   1.526   0.674   6.403  0.6761 -0.4022 -0.2301
 8899SOL    HW238334   1.608   0.793   6.367  0.4416 -1.8826 -0.3482
 8900SOL     OW38335   1.121   4.682  13.509  0.3194 -0.8603  0.3463
 8900SOL    HW138336   1.065   0.016  13.482  0.4916 -1.4955 -1.6789
 8900SOL    HW238337   1.073   4.606  13.477  1.4058 -1.3319 -0.1556
 8901SOL     OW38338   1.552   4.499   6.088 -0.4243  0.4693 -0.3278
 8901SOL    HW138339   1.522   4.562   6.023 -0.8079  1.7695  1.0874
 8901SOL    HW238340   1.531   4.544   6.170 -0.7667  0.5974 -0.4876
 8902SOL     OW38341   4.029   1.467   8.636 -0.4435 -0.0512 -0.7262
 8902SOL    HW138342   3.971   1.491   8.563 -1.3104 -1.5824 -0.5345
 8902SOL    HW238343   4.028   1.372   8.628 -2.1246  0.1213 -2.7044
 8903SOL     OW38344   2.076   4.030   5.712  0.2779  0.4667  0.5821
 8903SOL    HW138345   1.998   4.085   5.696 -0.7702 -1.2117 -0.0502
 8903SOL    HW238346   2.031   3.948   5.693  0.8264  0.5929 -1.2349
 8904SOL     OW38347   2.692   4.433  14.930  0.7550  0.4695 -0.7702
 8904SOL    HW138348   2.665   4.475  15.011  0.6683 -2.7324  0.8304
 8904SOL    HW238349   2.744   4.507  14.898  0.3940  0.7092 -0.8021
 8905SOL     OW38350   1.343   1.259  11.498  0.7631 -0.3614  0.0020
 8905SOL    HW138351   1.388   1.337  11.465  1.5800 -1.5819 -1.8085
 8905SOL    HW238352   1.259   1.298  11.519  1.1103  1.0393 -1.2250
 8906SOL     OW38353   0.186   4.084   0.012  0.0976 -0.2710  0.1732
 8906SOL    HW138354   0.213   4.134  17.687 -1.3010 -1.2563 -0.9688
 8906SOL    HW238355   0.101   4.052  17.732 -0.0394  1.2268 -0.9330
 8907SOL     OW38356   3.363   0.731   3.533 -0.3003  0.4752 -0.1713
 8907SOL    HW138357   3.323   0.735   3.621 -1.3024 -1.0207 -0.5518
 8907SOL    HW238358   3.449   0.693   3.551  0.9471  3.3940  0.0005
 8908SOL     OW38359   1.395   1.498  11.376  0.1249  0.0974 -0.0280
 8908SOL    HW138360   1.372   1.584  11.412  2.0007  0.3935  0.4339
 8908SOL    HW238361   1.317   1.491  11.321 -0.9766  0.3761  1.4923
 8909SOL     OW38362   4.196   3.596   1.993  0.2252  0.2060 -0.1467
 8909SOL    HW138363   4.216   3.510   2.030  0.6218 -0.1691 -1.2318
 8909SOL    HW238364   4.144   3.641   2.060  1.6551 -0.5267  1.4777
 8910SOL     OW38365   2.917   1.010  16.376  0.1446 -0.0443 -0.3746
 8910SOL    HW138366   2.850   1.015  16.444 -0.2206  3.8641 -0.9933
 8910SOL    HW238367   2.969   1.090  16.373 -1.3398  0.9311 -0.5300
 8911SOL     OW38368   0.905   0.834   3.892  0.1711 -0.0733 -0.0825
 8911SOL    HW138369   0.860   0.915   3.912  1.2631  0.5769 -0.2737
 8911SOL    HW238370   0.873   0.765   3.951 -2.0729  1.2305  0.2262
 8912SOL     OW38371   0.186   4.452   6.953 -0.0471  0.2365  0.4463
 8912SOL    HW138372   0.226   4.535   6.979 -0.8641  0.7185  0.1916
 8912SOL    HW238373   0.094   4.479   6.953 -0.1470 -0.1303  2.4063
 8913SOL     OW38374   0.208   3.632  17.580  0.0353  0.0735  0.6273
 8913SOL    HW138375   0.139   3.699  17.587 -0.9794 -0.9155 -0.0090
 8913SOL    HW238376   0.284   3.690  17.573  0.2283 -0.4861 -1.8001
 8914SOL     OW38377   3.948   2.941   0.143  0.5582 -0.1244 -0.5897
 8914SOL    HW138378   3.872   2.965   0.089  0.0644 -0.6472 -0.1320
 8914SOL    HW238379   3.984   3.028   0.155  2.6100 -1.0938  0.2442
 8915SOL     OW38380   0.439   3.192   5.017 -0.2130 -0.0295  0.3966
 8915SOL    HW138381   0.413   3.129   5.084 -0.0271 -0.8798 -0.3292
 8915SOL    HW238382   0.524   3.158   4.989 -0.6851 -1.1724  0.3399
 8916SOL     OW38383   3.037   2.103   5.716  0.5215  0.4890 -0.0589
 8916SOL    HW138384   3.121   2.060   5.730  1.1857  1.4785 -1.0059
 8916SOL    HW238385   3.072   2.185   5.751  0.4397 -0.9558  3.4089
 8917SOL     OW38386   4.312   3.598   4.233  0.3285 -0.0207 -1.0615
 8917SOL    HW138387   4.302   3.693   4.235  4.8402  0.4033  1.6418
 8917SOL    HW238388   4.231   3.578   4.187 -0.0794  0.9961 -0.7801
 8918SOL     OW38389   3.823   0.156   6.550 -0.6885  0.2514 -0.1709
 8918SOL    HW138390   3.813   0.110   6.633 -1.0067  2.9877  1.3219
 8918SOL    HW238391   3.817   0.088   6.483 -0.8359 -1.0905  1.2071
 8919SOL     OW38392   3.076   0.562   2.813 -0.1133  0.0416  0.2113
 8919SOL    HW138393   2.996   0.553   2.761 -1.6390  1.0688  2.3887
 8919SOL    HW238394   3.036   0.598   2.892 -0.2551  1.2027 -0.3906
 8920SOL     OW38395   4.285   1.893   6.889  0.2051  0.5058 -0.2582
 8920SOL    HW138396   4.312   1.971   6.839  0.6790 -0.1284 -0.9972
 8920SOL    HW238397   4.357   1.884   6.952 -0.3642  2.1822  0.6285
 8921SOL     OW38398   3.013   2.790   6.241  0.4003  0.0555  0.4037
 8921SOL    HW138399   3.018   2.744   6.157 -0.1116  1.9149 -0.6379
 8921SOL    HW238400   2.978   2.870   6.204  0.2754 -1.1021 -1.9742
 8922SOL     OW38401   2.553   0.729   7.201 -0.5535  0.0750  0.0914
 8922SOL    HW138402   2.620   0.674   7.242 -0.0051  1.4051  0.9666
 8922SOL    HW238403   2.598   0.791   7.143 -0.7867 -1.5499 -1.8464
 8923SOL     OW38404   4.304   2.709   6.783  0.1429  0.0556  0.2189
 8923SOL    HW138405   4.251   2.683   6.708 -2.0058  0.7970  1.4879
 8923SOL    HW238406   4.315   2.626   6.830 -2.3743 -0.9750 -1.0156
 8924SOL     OW38407   3.991   3.312   5.375  0.0490 -0.4273 -0.4501
 8924SOL    HW138408   4.009   3.291   5.284  0.6301 -0.7167 -0.2765
 8924SOL    HW238409   4.007   3.227   5.417 -0.6782  0.4430  1.5918
 8925SOL     OW38410   3.896   4.000   7.126  0.1151 -0.0745  0.5916
 8925SOL    HW138411   3.958   3.942   7.169  0.3601  1.1123  1.8317
 8925SOL    HW238412   3.825   4.010   7.190  0.4424  0.2682  0.8952
 8926SOL     OW38413   3.494   0.987  16.057  0.5341 -0.7149  0.4462
 8926SOL    HW138414   3.530   0.906  16.022  1.7613 -0.2467  0.6175
 8926SOL    HW238415   3.574   1.035  16.080 -1.7454  2.0842  2.5208
 8927SOL     OW38416   0.630   3.893   9.794  0.3135  0.1379  0.0851
 8927SOL    HW138417   0.654   3.977   9.755  0.8056 -0.2949 -0.5564
 8927SOL    HW238418   0.694   3.884   9.864  0.8815  3.0504 -0.0848
 8928SOL     OW38419   2.063   1.189   1.545  0.2199  0.2043  0.3313
 8928SOL    HW138420   2.156   1.186   1.520  0.5626  1.9587  1.4241
 8928SOL    HW238421   2.061   1.100   1.581  0.7469 -0.7290 -1.9015
 8929SOL     OW38422   3.246   1.203   7.126 -0.8406 -0.2243 -0.5308
 8929SOL    HW138423   3.248   1.186   7.220  0.1282  0.8754 -0.3552
 8929SOL    HW238424   3.158   1.239   7.114 -0.5901  0.1222 -1.3130
 8930SOL     OW38425   0.272   1.708   9.593 -0.7556  0.5383 -0.7312
 8930SOL    HW138426   0.295   1.726   9.685  2.5340 -1.7594 -1.0830
 8930SOL    HW238427   0.287   1.792   9.551  0.2589  1.0152  0.5699
 8931SOL     OW38428   0.851   2.046  17.543 -0.7462 -0.2051  0.0146
 8931SOL    HW138429   0.756   2.051  17.528 -1.1879 -0.3125  2.8778
 8931SOL    HW238430   0.882   2.112  17.480  2.1341 -0.8233  0.8108
 8932SOL     OW38431   2.674   1.089   4.277 -0.1244  0.0507  0.4351
 8932SOL    HW138432   2.643   1.173   4.245  0.6633 -0.0139 -0.4878
 8932SOL    HW238433   2.760   1.113   4.312 -0.0584  0.7515 -0.2110
 8933SOL     OW38434   1.241   3.635   4.575  0.1613 -0.4612 -0.0949
 8933SOL    HW138435   1.286   3.717   4.555 -1.8167  0.8991  1.0515
 8933SOL    HW238436   1.297   3.608   4.648 -0.8895  0.6538  1.1190
 8934SOL     OW38437   1.048   3.478   7.230  0.5544 -0.3772  0.1337
 8934SOL    HW138438   1.124   3.508   7.181  1.0112 -0.1849  0.9612
 8934SOL    HW238439   1.051   3.535   7.306 -1.0535  0.9798 -0.8133
 8935SOL     OW38440   3.016   1.002   4.562 -0.6193  0.0120  0.3595
 8935SOL    HW138441   2.921   1.006   4.578 -0.9147 -0.8105 -1.1911
 8935SOL    HW238442   3.027   0.909   4.541 -0.9056  0.0996 -0.1917
 8936SOL     OW38443   2.429   3.242  12.483  0.9296  0.0960 -0.2172
 8936SOL    HW138444   2.401   3.330  12.460 -1.7778 -0.1022  2.3622
 8936SOL    HW238445   2.344   3.200  12.491 -0.0003  2.1257  0.3956
 8937SOL     OW38446   3.039   1.628   6.215  0.2495 -0.8699  0.0688
 8937SOL    HW138447   3.067   1.634   6.123 -1.6751  2.1574 -0.3154
 8937SOL    HW238448   2.973   1.560   6.218  0.1240 -0.7454  0.1110
 8938SOL     OW38449   2.603   1.785   6.419 -0.5464 -0.0717 -0.1081
 8938SOL    HW138450   2.592   1.728   6.343 -0.3144 -1.6410  1.0085
 8938SOL    HW238451   2.648   1.857   6.376  0.7683 -0.4697  0.5910
 8939SOL     OW38452   2.113   2.555  10.674 -0.0476  0.3361 -0.2507
 8939SOL    HW138453   2.100   2.587  10.763  1.9741 -1.1193  0.5620
 8939SOL    HW238454   2.026   2.518  10.657  0.7542 -1.1424 -1.1502
 8940SOL     OW38455   4.227   1.213  15.870  0.0354 -0.4540 -0.5802
 8940SOL    HW138456   4.239   1.122  15.897  1.0342 -0.3493 -0.6746
 8940SOL    HW238457   4.132   1.215  15.880  0.0640  1.3804 -0.7203
 8941SOL     OW38458   2.772   2.247   8.552 -0.2171 -0.0881  0.0191
 8941SOL    HW138459   2.741   2.231   8.642  0.0459 -0.9091 -0.0325
 8941SOL    HW238460   2.839   2.313   8.570  0.8703 -1.4296  0.8483
 8942SOL     OW38461   4.027   2.811  10.220 -0.4573 -0.0983  0.1916
 8942SOL    HW138462   3.991   2.742  10.276 -0.8382 -0.0120  0.0589
 8942SOL    HW238463   4.118   2.805  10.246 -0.3634  0.5357  0.0182
 8943SOL     OW38464   3.050   4.140  17.662  0.1081 -0.1557  0.2695
 8943SOL    HW138465   3.064   4.079  17.734  1.6119 -1.1445 -0.8620
 8943SOL    HW238466   2.988   4.100  17.601  1.2856  0.2062 -1.1635
 8944SOL     OW38467   2.249   1.239   2.586  0.5783 -0.4840 -0.1359
 8944SOL    HW138468   2.266   1.271   2.675  0.1096 -0.9104  0.1103
 8944SOL    HW238469   2.286   1.152   2.594  0.7508 -0.3246  0.9071
 8945SOL     OW38470   0.882   3.904  13.506 -0.8149  0.5491  0.2995
 8945SOL    HW138471   0.906   3.828  13.559  1.5782  0.6823 -0.5767
 8945SOL    HW238472   0.869   3.860  13.422  2.4161  0.7098 -0.2876
 8946SOL     OW38473   2.420   3.960   4.959  0.0039 -0.5104  0.2136
 8946SOL    HW138474   2.469   4.030   4.915  0.0647 -0.0906  0.9558
 8946SOL    HW238475   2.363   3.921   4.892  0.4994  0.2758 -0.6720
 8947SOL     OW38476   3.754   1.361  14.876 -0.6888  0.3279  0.1940
 8947SOL    HW138477   3.845   1.341  14.852 -0.4820  1.3591  0.1088
 8947SOL    HW238478   3.703   1.291  14.836  2.0234 -2.9034  2.3257
 8948SOL     OW38479   1.216   1.421   8.725  0.3120 -0.1563  0.3533
 8948SOL    HW138480   1.300   1.443   8.685 -0.0966  0.8947  0.0734
 8948SOL    HW238481   1.220   1.474   8.804  1.3635 -0.0818  0.2488
 8949SOL     OW38482   4.211   0.570   4.509 -0.2913  0.5092  0.1551
 8949SOL    HW138483   4.204   0.535   4.420  0.0143 -2.5286  1.3114
 8949SOL    HW238484   4.212   0.659   4.475  0.9369  0.2169 -0.5741
 8950SOL     OW38485   1.156   1.435   7.596 -0.3671 -0.8107  0.1235
 8950SOL    HW138486   1.071   1.478   7.609  0.4502  0.1967  2.0851
 8950SOL    HW238487   1.152   1.349   7.638  0.0888 -1.7561 -1.7799
 8951SOL     OW38488   2.920   3.483   8.621 -0.3905  0.3138  0.6178
 8951SOL    HW138489   2.848   3.475   8.558 -0.2630 -0.6836  0.5962
 8951SOL    HW238490   2.911   3.572   8.656 -0.7541 -0.1856  1.7874
 8952SOL     OW38491   4.412   0.643  10.639  0.7264  0.2627 -0.1751
 8952SOL    HW138492   4.502   0.620  10.662 -0.0956 -0.8830  1.9373
 8952SOL    HW238493   4.424   0.730  10.677 -1.1376  0.5617 -0.2920
 8953SOL     OW38494   2.177   2.236   9.083 -0.0731 -0.7481  0.0859
 8953SOL    HW138495   2.243   2.170   9.106  0.7120 -0.3251 -0.9527
 8953SOL    HW238496   2.188   2.251   8.989 -1.6880 -0.0883  0.0089
 8954SOL     OW38497   4.669   2.445   4.329 -0.2365 -0.3007 -0.3362
 8954SOL    HW138498   4.623   2.366   4.302 -1.2713  0.7888 -1.7766
 8954SOL    HW238499   0.020   2.442   4.294  0.6248  0.1902  1.8018
 8955SOL     OW38500   3.031   4.681   7.704  0.1641  0.5865  0.0016
 8955SOL    HW138501   3.118   4.668   7.667  0.7196  1.1269  1.1177
 8955SOL    HW238502   2.987   4.609   7.658  0.4084 -1.4192  2.9407
 8956SOL     OW38503   1.534   4.424   0.180 -0.0423  0.1677  0.5264
 8956SOL    HW138504   1.507   4.333   0.190  1.4147 -0.4495 -1.1408
 8956SOL    HW238505   1.575   4.432   0.093  1.0790 -1.6198  0.8847
 8957SOL     OW38506   2.694   4.674   8.002 -0.2359 -0.1931 -0.0647
 8957SOL    HW138507   2.605   4.663   8.037 -0.7492 -0.5377 -1.4609
 8957SOL    HW238508   2.718   4.584   7.981 -2.4957 -0.8255  0.0211
 8958SOL     OW38509   2.329   3.386   4.301  0.0164 -0.1421 -0.8481
 8958SOL    HW138510   2.294   3.347   4.381  1.5645  2.5717  1.1360
 8958SOL    HW238511   2.410   3.423   4.335 -0.3743 -1.0678  1.0679
 8959SOL     OW38512   3.438   4.546   5.755 -0.3145 -0.1226 -0.4578
 8959SOL    HW138513   3.453   4.640   5.745  1.5454 -0.2399  1.2273
 8959SOL    HW238514   3.395   4.539   5.841  0.4859  1.5624  0.0815
 8960SOL     OW38515   2.775   1.546   9.583  0.0926 -0.1207  0.0239
 8960SOL    HW138516   2.861   1.552   9.541 -0.9946 -1.8389 -2.4339
 8960SOL    HW238517   2.761   1.452   9.595 -0.1649 -0.1298 -0.3678
 8961SOL     OW38518   0.575   0.536   9.550 -0.1710  0.4500 -0.4054
 8961SOL    HW138519   0.665   0.564   9.533  0.8166 -1.3295  1.8236
 8961SOL    HW238520   0.516   0.611   9.549 -0.2431  0.3708 -1.7167
 8962SOL     OW38521   4.044   2.518   3.732  0.6507 -0.1380 -0.4354
 8962SOL    HW138522   4.076   2.516   3.822 -1.8430  1.1487  0.4913
 8962SOL    HW238523   4.066   2.431   3.698  0.4077 -0.4165  0.1332
 8963SOL     OW38524   2.665   1.959   7.678 -0.2254  0.0395  0.5627
 8963SOL    HW138525   2.693   1.993   7.592 -2.1706 -0.3392 -0.2143
 8963SOL    HW238526   2.708   2.027   7.730  0.1088  0.7052 -0.5593
 8964SOL     OW38527   0.409   2.312  17.163 -0.1543 -0.1749  0.2608
 8964SOL    HW138528   0.469   2.239  17.152 -0.5046 -0.1419 -1.9594
 8964SOL    HW238529   0.444   2.381  17.219  0.9279 -1.0182  0.6018
 8965SOL     OW38530   4.686   2.090   4.996  0.6519 -0.2950  0.4284
 8965SOL    HW138531   4.653   2.125   4.913  0.2609 -1.2820  0.1633
 8965SOL    HW238532   4.627   2.016   5.009 -1.2080  0.9358 -0.8412
 8966SOL     OW38533   1.050   0.747   7.806 -0.0912 -0.6211 -0.5225
 8966SOL    HW138534   1.085   0.707   7.726  1.3957 -1.4723  0.5439
 8966SOL    HW238535   0.962   0.711   7.813 -0.3945  0.4417  1.3651
 8967SOL     OW38536   1.828   4.276  12.617  0.5193  0.0498  0.5265
 8967SOL    HW138537   1.878   4.197  12.595  1.1091  0.3664  0.7390
 8967SOL    HW238538   1.855   4.285  12.709  1.5964 -0.9268  0.3070
 8968SOL     OW38539   1.780   0.133   6.385  0.2228 -0.0237  0.0402
 8968SOL    HW138540   1.713   0.078   6.425 -0.1591 -0.5489 -1.3017
 8968SOL    HW238541   1.811   0.076   6.315 -1.8037  3.7422 -3.9666
 8969SOL     OW38542   1.139   0.754  11.425  0.1408 -0.3089 -0.4400
 8969SOL    HW138543   1.103   0.839  11.399  0.8134  0.3585  0.8076
 8969SOL    HW238544   1.213   0.791  11.473 -0.1766 -1.6445  1.0758
 8970SOL     OW38545   3.258   3.525   7.722 -0.0246  0.0193  0.6294
 8970SOL    HW138546   3.247   3.619   7.709 -2.3172 -0.3924 -0.3083
 8970SOL    HW238547   3.323   3.539   7.791  0.4088 -3.3681  0.8896
 8971SOL     OW38548   2.154   0.845   0.215  0.6413  0.5358  0.0400
 8971SOL    HW138549   2.114   0.803   0.139  1.7404 -1.1275  0.3875
 8971SOL    HW238550   2.241   0.859   0.176  0.4752 -1.0094 -0.8435
 8972SOL     OW38551   2.130   4.347   4.960  0.3891 -0.4219 -0.0863
 8972SOL    HW138552   2.051   4.300   4.985  0.3200 -0.0938  0.2992
 8972SOL    HW238553   2.187   4.322   5.032 -0.6136  2.7692  1.7921
 8973SOL     OW38554   4.723   3.022   6.453  0.0668 -0.0881  0.1122
 8973SOL    HW138555   0.059   3.050   6.400  1.4012 -1.7357  1.1040
 8973SOL    HW238556   4.679   3.106   6.458 -1.5899 -1.0037  0.8604
 8974SOL     OW38557   0.738   1.014   8.531 -0.4384 -0.1656  0.4861
 8974SOL    HW138558   0.675   0.950   8.496  1.4364 -0.1160 -2.8842
 8974SOL    HW238559   0.818   0.962   8.537 -0.1876  0.2532  0.6907
 8975SOL     OW38560   3.812   1.856   5.185 -0.5410 -0.0715 -0.3523
 8975SOL    HW138561   3.826   1.931   5.243  1.3260 -0.8955  0.2621
 8975SOL    HW238562   3.829   1.781   5.243 -0.1631 -1.2973 -2.0515
 8976SOL     OW38563   0.296   2.564   4.802  0.6498  0.1123  0.1709
 8976SOL    HW138564   0.274   2.641   4.855 -1.3933 -1.7884  2.0836
 8976SOL    HW238565   0.311   2.606   4.718 -0.3791 -0.5426 -0.3423
 8977SOL     OW38566   2.556   1.247   3.562 -0.1405  0.3300 -0.1559
 8977SOL    HW138567   2.559   1.342   3.555 -0.8508  0.3526 -0.1020
 8977SOL    HW238568   2.472   1.230   3.521  0.6717 -4.1147  0.0497
 8978SOL     OW38569   2.979   3.722   5.524  0.3878 -0.2691  0.1206
 8978SOL    HW138570   2.959   3.724   5.430 -1.8245  0.2468  0.6116
 8978SOL    HW238571   2.916   3.788   5.551  1.3001  0.6543  0.0015
 8979SOL     OW38572   1.259   2.061   8.949 -0.2117  0.1408  0.1700
 8979SOL    HW138573   1.193   2.122   8.917  1.1504  0.7957 -1.3664
 8979SOL    HW238574   1.337   2.084   8.899  0.6873  1.1487  2.0346
 8980SOL     OW38575   2.892   1.221  10.756 -0.3224  0.6239  0.0882
 8980SOL    HW138576   2.902   1.257  10.668  0.6946  1.1873  0.4443
 8980SOL    HW238577   2.974   1.244  10.800  0.1973 -0.1949 -0.4408
 8981SOL     OW38578   0.611   3.072  15.814 -0.4225 -0.3871  0.2953
 8981SOL    HW138579   0.517   3.057  15.824 -0.3760 -1.3067 -0.7110
 8981SOL    HW238580   0.651   2.990  15.843  1.3285 -0.0045 -1.0303
 8982SOL     OW38581   0.723   1.125   7.485  0.3275 -0.3790 -0.5746
 8982SOL    HW138582   0.695   1.034   7.489 -1.1237  0.0720 -0.5153
 8982SOL    HW238583   0.664   1.155   7.554  0.2048  1.7880 -1.6158
 8983SOL     OW38584   3.761   1.518   4.773  0.1926  0.0743  0.6298
 8983SOL    HW138585   3.790   1.517   4.682 -1.4530  1.5494  0.0949
 8983SOL    HW238586   3.840   1.559   4.807  0.1202  0.3534  0.4577
 8984SOL     OW38587   1.332   1.527  11.739 -0.1089 -0.0773  0.2009
 8984SOL    HW138588   1.271   1.548  11.669 -0.9543  0.8968  1.2272
 8984SOL    HW238589   1.281   1.547  11.818 -1.6862 -2.5315 -0.2191
 8985SOL     OW38590   1.803   0.242   7.918  0.1802  0.1149 -0.2068
 8985SOL    HW138591   1.801   0.334   7.890 -1.1043  0.1445 -0.0183
 8985SOL    HW238592   1.766   0.208   7.836  1.4104 -1.6851 -0.0173
 8986SOL     OW38593   1.036   4.685   8.769 -0.0955 -0.4279 -0.0130
 8986SOL    HW138594   1.004   4.705   8.681  0.3422  0.2218 -0.0263
 8986SOL    HW238595   1.067   0.036   8.781 -0.6550 -0.4249  1.4009
 8987SOL     OW38596   4.420   0.299  12.182  0.4013  0.1124  0.5684
 8987SOL    HW138597   4.351   0.284  12.117  0.9748 -1.6221  0.3570
 8987SOL    HW238598   4.446   0.386  12.153 -1.0676  0.7924  1.3075
 8988SOL     OW38599   1.492   3.975   3.297  0.4490  0.0429  0.3178
 8988SOL    HW138600   1.511   3.891   3.254  0.4920 -0.7160  1.8343
 8988SOL    HW238601   1.432   3.946   3.365 -1.2029  1.9893 -0.3328
 8989SOL     OW38602   3.420   1.975  10.091  0.6522  0.3956 -0.0818
 8989SOL    HW138603   3.415   1.879  10.096 -1.0074  0.4915  0.3080
 8989SOL    HW238604   3.327   1.994  10.080  0.8060 -0.0744 -2.2696
 8990SOL     OW38605   2.362   4.499  16.882 -0.1465 -0.1815 -0.0531
 8990SOL    HW138606   2.426   4.468  16.817  1.2826  0.2047  1.1626
 8990SOL    HW238607   2.376   4.424  16.940  1.5022  0.2723  0.1526
 8991SOL     OW38608   0.581   0.014   1.831 -0.0137 -0.2786 -0.2332
 8991SOL    HW138609   0.499   0.034   1.786 -0.2581 -0.8445 -0.0381
 8991SOL    HW238610   0.600   0.093   1.881  3.3120 -0.0832 -1.7623
 8992SOL     OW38611   1.305   0.628   5.461  0.4691  0.2384 -0.8455
 8992SOL    HW138612   1.214   0.637   5.433  0.6629  1.0242 -1.2404
 8992SOL    HW238613   1.333   0.557   5.404 -0.6093 -1.0307  0.2185
 8993SOL     OW38614   2.166   0.937   9.397 -0.6156 -0.1938 -0.4041
 8993SOL    HW138615   2.246   0.891   9.424 -1.0961  0.0981  1.4852
 8993SOL    HW238616   2.202   1.022   9.370 -0.8254  0.1173  0.3058
 8994SOL     OW38617   2.646   1.123   5.787 -0.4664  0.4045 -0.0219
 8994SOL    HW138618   2.674   1.055   5.849 -0.3277  0.3832 -0.1095
 8994SOL    HW238619   2.707   1.104   5.716  1.2476 -1.0734  1.8517
 8995SOL     OW38620   4.452   0.950   7.344 -0.8668  0.5361 -0.0578
 8995SOL    HW138621   4.450   1.027   7.287 -2.0818  0.7257  0.2357
 8995SOL    HW238622   4.415   0.876   7.295 -0.5890  1.2437 -1.3311
 8996SOL     OW38623   0.236   4.711   7.122 -0.4742  0.1202  0.0887
 8996SOL    HW138624   0.273   0.001   7.038  0.7437 -3.8350 -0.7274
 8996SOL    HW238625   0.311   4.723   7.181 -0.3720  1.2220 -0.2770
 8997SOL     OW38626   0.182   1.428   7.780 -0.0693 -0.0528 -0.1808
 8997SOL    HW138627   0.123   1.471   7.718 -0.8529  2.2070  2.0872
 8997SOL    HW238628   0.253   1.393   7.727 -1.3855 -2.0102 -0.6489
 8998SOL     OW38629   1.081   3.321  17.394 -0.6026 -0.1662  0.1038
 8998SOL    HW138630   1.129   3.268  17.458  1.0285 -1.5082 -2.2212
 8998SOL    HW238631   1.011   3.349  17.454 -0.9855 -2.2723  0.6609
 8999SOL     OW38632   3.183   2.228  13.610  0.3273 -0.0272  0.2495
 8999SOL    HW138633   3.170   2.243  13.703 -0.3327  0.1700  0.1293
 8999SOL    HW238634   3.206   2.136  13.606  1.2549  0.3205 -2.5319
 9000SOL     OW38635   4.221   3.491   8.292 -0.1650  0.4970  0.2342
 9000SOL    HW138636   4.160   3.436   8.243  0.3910  0.2194 -0.1391
 9000SOL    HW238637   4.230   3.436   8.370 -2.3278 -0.1052  0.0791
 9001SOL     OW38638   4.689   4.001   4.012  0.0645  0.6102  0.4760
 9001SOL    HW138639   4.721   3.961   3.931  0.3725 -1.1664  1.4819
 9001SOL    HW238640   4.712   4.092   3.991  1.9317  0.3725  1.4824
 9002SOL     OW38641   1.490   0.223   2.575 -0.0249  0.6162  0.9059
 9002SOL    HW138642   1.510   0.158   2.643  0.6699  0.4886  0.5775
 9002SOL    HW238643   1.503   0.308   2.618  0.0572  1.2027 -0.2967
 9003SOL     OW38644   3.630   0.850   0.103  0.0530  0.3268 -0.3480
 9003SOL    HW138645   3.627   0.777   0.041  3.0950 -0.9479  0.9628
 9003SOL    HW238646   3.678   0.807   0.174 -0.9976 -1.0983 -0.5223
 9004SOL     OW38647   4.462   0.288   6.603  0.2639  0.1012 -0.7455
 9004SOL    HW138648   4.458   0.260   6.512  0.2580 -2.9433  0.1910
 9004SOL    HW238649   4.404   0.364   6.596 -0.1831 -0.2940 -1.3226
 9005SOL     OW38650   4.615   4.686   6.024  0.2597 -0.0919  0.2221
 9005SOL    HW138651   4.653   4.672   5.937  0.2926 -2.5831  0.6279
 9005SOL    HW238652   4.669   0.025   6.036 -2.1666  1.3987  1.4648
 9006SOL     OW38653   3.211   1.671   2.655 -0.7309  0.1317 -0.3343
 9006SOL    HW138654   3.233   1.579   2.672 -0.0513  0.2895 -0.3525
 9006SOL    HW238655   3.289   1.716   2.687  1.4616 -2.2563 -2.2676
 9007SOL     OW38656   2.021   0.017   7.076 -0.5485  0.3739  0.2585
 9007SOL    HW138657   2.112   0.046   7.077  0.1461 -1.8272 -0.4659
 9007SOL    HW238658   1.989   0.107   7.088 -2.8337 -0.4279  0.3048
 9008SOL     OW38659   4.028   1.263   1.459  0.6585  0.3560  0.1199
 9008SOL    HW138660   4.121   1.253   1.439  0.2213  0.0446 -1.7501
 9008SOL    HW238661   3.991   1.264   1.371  0.8718  0.2446  0.0288
 9009SOL     OW38662   1.016   1.956  16.121  0.3513  0.3684  0.0431
 9009SOL    HW138663   0.994   1.906  16.200  1.3313 -2.1041 -1.2519
 9009SOL    HW238664   1.104   1.990  16.136  1.1732 -1.0747 -1.5430
 9010SOL     OW38665   0.855   2.841  16.241  0.0547  0.2674  0.5336
 9010SOL    HW138666   0.850   2.787  16.319  0.1702  1.5681  1.4417
 9010SOL    HW238667   0.942   2.833  16.200 -0.0261 -0.1646  0.4476
 9011SOL     OW38668   0.282   1.259  14.472  0.6168 -0.0644  0.1161
 9011SOL    HW138669   0.345   1.332  14.481  0.4427 -0.0087  0.9062
 9011SOL    HW238670   0.242   1.262  14.559  0.2935 -0.6125 -0.0141
 9012SOL     OW38671   1.709   0.335   0.701  0.1918  0.8657  0.6473
 9012SOL    HW138672   1.664   0.412   0.665 -1.5691 -0.1327  0.7332
 9012SOL    HW238673   1.646   0.292   0.758 -0.1767  3.2869  2.0770
 9013SOL     OW38674   4.244   1.037  16.187  0.3657  0.0352 -0.6667
 9013SOL    HW138675   4.330   1.077  16.197  0.9844 -1.6332  0.6558
 9013SOL    HW238676   4.231   0.995  16.272  2.4142  0.7419 -0.0037
 9014SOL     OW38677   1.211   4.680   9.893  0.2370 -0.1765  0.4795
 9014SOL    HW138678   1.232   4.605   9.949 -0.5086 -1.8651 -1.5148
 9014SOL    HW238679   1.262   0.015   9.927  0.4267  0.2115 -0.6421
 9015SOL     OW38680   1.078   3.194   7.611 -0.0577  0.1804  0.2867
 9015SOL    HW138681   0.985   3.201   7.591 -0.0167  0.0965  0.0705
 9015SOL    HW238682   1.069   3.158   7.700 -1.1043  0.2777  0.2188
 9016SOL     OW38683   3.654   0.578   8.299 -0.4731  0.0722 -0.1105
 9016SOL    HW138684   3.562   0.553   8.311 -0.5753  1.4991  1.9079
 9016SOL    HW238685   3.684   0.499   8.345 -2.4746  0.2394  1.4522
 9017SOL     OW38686   4.059   1.278   4.551 -0.3516  0.2988 -0.3337
 9017SOL    HW138687   4.121   1.348   4.571  0.7826  0.2617 -3.6228
 9017SOL    HW238688   3.979   1.328   4.533 -0.9817 -0.3121  0.8079
 9018SOL     OW38689   3.009   1.397   9.558  0.4128 -0.3197 -0.1149
 9018SOL    HW138690   3.016   1.372   9.466 -0.0123  0.7699 -0.4463
 9018SOL    HW238691   2.940   1.346   9.599  0.3890  0.7723  1.2234
 9019SOL     OW38692   0.982   3.111   8.586 -0.5711 -0.1673  0.5061
 9019SOL    HW138693   0.979   3.033   8.641 -0.5345 -1.3284 -1.1646
 9019SOL    HW238694   0.980   3.084   8.495  1.1019 -0.7636  0.6471
 9020SOL     OW38695   2.983   2.326   6.354 -0.4728  0.3600  0.6025
 9020SOL    HW138696   3.060   2.383   6.362  1.2432 -1.5689 -2.1315
 9020SOL    HW238697   2.922   2.356   6.422 -0.8434  0.8044  0.0751
 9021SOL     OW38698   2.115   3.418   7.280  0.4135  0.1175 -0.0150
 9021SOL    HW138699   2.059   3.414   7.357 -0.7149  1.5446 -0.7534
 9021SOL    HW238700   2.193   3.467   7.307 -1.0921  1.7704  1.3423
 9022SOL     OW38701   3.798   3.360   4.116 -0.2828  0.2155 -0.2819
 9022SOL    HW138702   3.787   3.320   4.202 -2.4790 -0.2531 -0.7867
 9022SOL    HW238703   3.830   3.283   4.071  0.1602  0.9206 -1.1758
 9023SOL     OW38704   1.702   2.981   3.129  0.5539  0.1731 -0.2404
 9023SOL    HW138705   1.648   2.937   3.194  3.1729 -1.3316  0.9162
 9023SOL    HW238706   1.788   2.948   3.155 -0.3140 -2.1180 -0.2430
 9024SOL     OW38707   4.615   1.752  11.332 -0.6083 -0.0395 -0.4207
 9024SOL    HW138708   4.533   1.704  11.321  0.4147 -2.5803  3.0227
 9024SOL    HW238709   4.606   1.755  11.427 -0.2163 -0.0446 -0.3834
 9025SOL     OW38710   3.215   1.051  10.805 -0.3805 -0.4997  0.0881
 9025SOL    HW138711   3.130   1.033  10.765 -0.4992  0.7204 -0.2012
 9025SOL    HW238712   3.233   1.131  10.756 -0.8359 -1.3673 -1.5052
 9026SOL     OW38713   0.376   3.313   8.819 -0.3019 -0.2591  0.1185
 9026SOL    HW138714   0.449   3.256   8.843 -1.3034 -1.2024  0.8472
 9026SOL    HW238715   0.397   3.398   8.858  0.6331 -0.7216  0.6271
 9027SOL     OW38716   1.274   3.179   5.983  0.0700 -0.3579 -0.2019
 9027SOL    HW138717   1.329   3.117   5.936 -1.1561 -0.6165 -1.2903
 9027SOL    HW238718   1.205   3.119   6.010  0.3447  0.8276  3.1889
 9028SOL     OW38719   2.784   2.847   2.439  0.3974  0.0212  0.2880
 9028SOL    HW138720   2.819   2.830   2.527 -1.1236  0.1748  0.9132
 9028SOL    HW238721   2.727   2.923   2.450 -0.3520 -0.7072  1.4666
 9029SOL     OW38722   3.599   1.817   4.993 -0.0670 -0.2546  0.4927
 9029SOL    HW138723   3.547   1.897   4.999  0.2191 -0.0919  0.8532
 9029SOL    HW238724   3.645   1.828   5.076 -1.5117 -2.9866  1.6170
 9030SOL     OW38725   4.703   3.904   4.932 -0.5094  0.0233 -0.0483
 9030SOL    HW138726   0.057   3.893   4.909 -0.8388 -2.3502 -0.2185
 9030SOL    HW238727   4.659   3.820   4.939 -0.4773 -0.0039 -0.1598
 9031SOL     OW38728   1.238   2.928   8.908  0.8239 -0.0678 -0.5322
 9031SOL    HW138729   1.267   3.010   8.868  1.0644 -0.8073 -1.8892
 9031SOL    HW238730   1.311   2.911   8.967  0.5047 -0.5660 -0.2749
 9032SOL     OW38731   3.573   4.030   2.406  0.8807 -0.3757 -0.1448
 9032SOL    HW138732   3.609   4.063   2.324 -0.6700  1.5603 -0.0501
 9032SOL    HW238733   3.619   4.080   2.473 -0.6218 -0.2434  0.7951
 9033SOL     OW38734   0.832   0.986   0.971 -0.1083 -0.2826  0.4903
 9033SOL    HW138735   0.750   1.007   0.926  0.6995  1.6299 -0.0646
 9033SOL    HW238736   0.850   0.895   0.944 -0.4617  0.1557 -1.2414
 9034SOL     OW38737   1.120   4.167   2.330 -0.0665 -0.4124 -0.0900
 9034SOL    HW138738   1.143   4.177   2.422 -1.9005  0.3850  0.2728
 9034SOL    HW238739   1.032   4.204   2.330  1.0083  2.1619  2.3964
 9035SOL     OW38740   0.554   0.630  11.097  0.4036 -0.0447  0.4297
 9035SOL    HW138741   0.592   0.657  11.181  4.6485 -2.8697 -0.5649
 9035SOL    HW238742   0.623   0.668  11.043  0.6414 -1.1128 -0.0198
 9036SOL     OW38743   0.798   2.576  15.922 -0.3601  0.2354  0.3304
 9036SOL    HW138744   0.837   2.504  15.971  0.2167 -0.1626 -0.7156
 9036SOL    HW238745   0.858   2.593  15.850 -1.0983 -0.2671 -0.4103
 9037SOL     OW38746   0.134   0.018   3.733  0.0771 -0.0309 -0.3827
 9037SOL    HW138747   0.097   0.093   3.686  0.3785  0.8566  0.8038
 9037SOL    HW238748   0.085   4.684   3.694  0.5788 -1.5321  1.7789
 9038SOL     OW38749   2.351   3.024  13.039  0.2223 -0.4010  0.5103
 9038SOL    HW138750   2.259   3.011  13.060 -0.1142  0.9616 -0.1455
 9038SOL    HW238751   2.373   2.931  13.024  0.6932 -0.5298  2.0166
 9039SOL     OW38752   1.690   3.803   5.249 -0.2861 -0.3408 -0.2491
 9039SOL    HW138753   1.690   3.898   5.245 -1.1146 -0.3716 -0.8468
 9039SOL    HW238754   1.619   3.790   5.186 -0.2360 -1.9515  0.0259
 9040SOL     OW38755   3.563   1.648   4.497 -0.2189 -0.7209 -0.4605
 9040SOL    HW138756   3.626   1.692   4.553 -0.6820  0.2768 -0.7264
 9040SOL    HW238757   3.500   1.626   4.565  0.5936  0.6901  0.7571
 9041SOL     OW38758   1.227   3.948   1.940  0.4612  0.1634  0.7841
 9041SOL    HW138759   1.221   3.996   1.857  1.4533  0.0734  0.6605
 9041SOL    HW238760   1.143   3.903   1.936  1.7360 -1.9190 -3.1523
 9042SOL     OW38761   1.704   0.979   5.426  0.2272  0.0243 -0.5964
 9042SOL    HW138762   1.637   0.922   5.389 -2.1452  2.4481 -0.0183
 9042SOL    HW238763   1.653   1.029   5.489 -0.9819 -2.0595  0.0892
 9043SOL     OW38764   0.024   3.154  10.166  0.0742 -0.5021 -0.1181
 9043SOL    HW138765   4.706   3.209  10.219  1.0127 -0.0269  0.3779
 9043SOL    HW238766   4.698   3.099  10.120  0.4428  1.4967 -3.0301
 9044SOL     OW38767   1.308   0.951   3.322  0.4018  0.3492 -0.0296
 9044SOL    HW138768   1.214   0.933   3.333  0.5752  1.3141  3.0348
 9044SOL    HW238769   1.337   0.868   3.285 -2.0506 -1.1301  1.2960
 9045SOL     OW38770   2.361   2.393   1.784  0.2490 -0.0225 -0.5576
 9045SOL    HW138771   2.272   2.365   1.767 -0.2699  0.8021  0.7400
 9045SOL    HW238772   2.331   2.474   1.825  0.7662 -0.7715  1.3214
 9046SOL     OW38773   0.498   2.621   6.393 -0.2119 -0.3569 -0.4945
 9046SOL    HW138774   0.532   2.549   6.447  1.6075  2.0460  1.5861
 9046SOL    HW238775   0.520   2.588   6.306  0.7059  2.6373 -1.4154
 9047SOL     OW38776   0.061   0.727  10.564 -0.1830 -0.2060  0.2141
 9047SOL    HW138777   0.013   0.667  10.620 -0.0552 -1.2411 -0.7895
 9047SOL    HW238778   0.135   0.748  10.622  0.6181 -0.8083 -0.5879
 9048SOL     OW38779   3.566   4.553   6.458 -0.4539  0.1518  0.8144
 9048SOL    HW138780   3.482   4.563   6.503 -0.9343  0.2810 -0.1124
 9048SOL    HW238781   3.632   4.546   6.527  0.7575  1.0478 -0.2546
 9049SOL     OW38782   1.274   2.585  16.382  0.2226  0.0794  0.3740
 9049SOL    HW138783   1.269   2.490  16.368 -2.6043  0.2639  0.0136
 9049SOL    HW238784   1.363   2.604  16.354  0.5446 -0.7155  0.8705
 9050SOL     OW38785   3.662   3.351   5.487  0.0261  0.0118 -0.0503
 9050SOL    HW138786   3.651   3.317   5.576 -2.9589  2.0534  0.3436
 9050SOL    HW238787   3.757   3.351   5.475 -0.1198 -0.6196 -1.2373
 9051SOL     OW38788   4.289   2.165   2.465 -0.1274 -0.2289  0.1840
 9051SOL    HW138789   4.231   2.137   2.394  0.3267 -0.7147  0.0000
 9051SOL    HW238790   4.279   2.098   2.533 -1.2425  1.8524  2.0467
 9052SOL     OW38791   1.707   1.062   6.502  0.4583 -0.0397  0.9966
 9052SOL    HW138792   1.783   1.115   6.480  0.4340 -0.0638  0.8502
 9052SOL    HW238793   1.697   1.011   6.421  2.2380  0.5506  0.4020
 9053SOL     OW38794   4.203   1.807  16.433  0.4483 -0.1923 -0.2771
 9053SOL    HW138795   4.204   1.874  16.502 -0.7799 -1.2971  0.8159
 9053SOL    HW238796   4.290   1.814  16.394  0.4550 -0.4298 -0.3037
 9054SOL     OW38797   2.225   4.051   7.764  0.1892  0.6490  0.3203
 9054SOL    HW138798   2.275   4.056   7.845  0.2485 -1.6073  0.4252
 9054SOL    HW238799   2.194   4.142   7.757 -3.2093 -0.6129 -1.2257
 9055SOL     OW38800   0.343   2.297  13.802 -0.3471  0.0124  0.4807
 9055SOL    HW138801   0.391   2.364  13.851  0.1654 -1.7576  2.4069
 9055SOL    HW238802   0.254   2.327  13.788 -0.4738 -0.5365  0.1093
 9056SOL     OW38803   0.289   2.104   4.215 -0.4644 -0.4517 -0.2035
 9056SOL    HW138804   0.314   2.012   4.220 -2.1881 -0.7998  2.3982
 9056SOL    HW238805   0.222   2.094   4.147  0.1468 -2.2604 -0.5377
 9057SOL     OW38806   0.442   3.034   9.085  0.7296  0.1455  0.4010
 9057SOL    HW138807   0.486   2.954   9.057  0.5696 -0.0449  0.6864
 9057SOL    HW238808   0.359   3.024   9.038  1.1669 -1.8735  0.0471
 9058SOL     OW38809   3.057   4.148   1.227  0.0261 -0.4761  0.4353
 9058SOL    HW138810   2.995   4.112   1.164  0.3871 -0.7323  0.2294
 9058SOL    HW238811   3.004   4.222   1.255  1.0738  0.2937  0.3970
 9059SOL     OW38812   1.600   4.481   2.751  0.5898 -0.0832 -0.4056
 9059SOL    HW138813   1.640   4.399   2.781 -2.3531 -2.3200 -2.6428
 9059SOL    HW238814   1.628   4.533   2.827  1.6803 -0.0450 -0.8309
 9060SOL     OW38815   1.073   0.739   9.324  0.1810 -0.2321 -0.2688
 9060SOL    HW138816   1.053   0.797   9.250 -0.6677 -0.7458 -0.4360
 9060SOL    HW238817   1.051   0.653   9.290 -1.9934  1.2704 -2.6879
 9061SOL     OW38818   0.335   1.845   6.487  0.3621  0.0349  0.5304
 9061SOL    HW138819   0.413   1.881   6.530 -1.3393  1.6200  2.2926
 9061SOL    HW238820   0.297   1.928   6.457 -4.1126 -1.5278  1.8383
 9062SOL     OW38821   4.046   2.882   3.239  0.3127 -0.0427 -0.8934
 9062SOL    HW138822   4.058   2.863   3.147  1.3731  1.0443 -0.9850
 9062SOL    HW238823   4.098   2.808   3.271  0.4202  0.1516 -0.6141
 9063SOL     OW38824   2.168   1.035   4.933  0.2831 -0.1865 -0.2201
 9063SOL    HW138825   2.167   1.113   4.987  3.3736 -0.5343  0.3837
 9063SOL    HW238826   2.115   0.971   4.981  1.0217 -2.3087 -2.2277
 9064SOL     OW38827   4.258   1.431   6.058 -0.7135  0.4311  0.4380
 9064SOL    HW138828   4.336   1.458   6.009  0.1607  1.5575  2.4859
 9064SOL    HW238829   4.245   1.344   6.021  1.1404 -0.5665  2.1412
 9065SOL     OW38830   1.997   2.279   9.285 -0.0733 -0.2641  0.0802
 9065SOL    HW138831   2.071   2.256   9.231 -0.8396  1.2693 -1.6374
 9065SOL    HW238832   2.030   2.227   9.358 -1.8522 -1.8861 -0.2797
 9066SOL     OW38833   2.940   0.072   4.153 -0.4989  0.7863 -0.0000
 9066SOL    HW138834   2.990   0.153   4.149  0.3008  0.1952 -2.0314
 9066SOL    HW238835   2.863   0.088   4.099 -0.1418 -1.1720 -1.0865
 9067SOL     OW38836   2.654   2.549   7.908 -0.2790  0.2629 -0.3345
 9067SOL    HW138837   2.707   2.485   7.955 -1.4022 -0.6087 -0.2298
 9067SOL    HW238838   2.703   2.628   7.930  1.8591 -1.0387 -0.4203
 9068SOL     OW38839   4.454   3.830   6.343  0.5372  0.2265  0.0807
 9068SOL    HW138840   4.367   3.799   6.368  0.2416 -0.3823 -1.6797
 9068SOL    HW238841   4.454   3.805   6.250  2.7304  0.1745  0.0794
 9069SOL     OW38842   1.151   3.919   0.850 -0.4682  0.2937 -0.1780
 9069SOL    HW138843   1.154   3.852   0.919 -1.4127 -2.4260 -2.7701
 9069SOL    HW238844   1.243   3.921   0.822 -0.3964 -0.5422 -0.0035
 9070SOL     OW38845   0.921   3.976  10.556  0.1723 -0.0057 -0.1707
 9070SOL    HW138846   0.832   4.002  10.532 -0.3865 -1.6408  0.1108
 9070SOL    HW238847   0.960   4.063  10.559 -0.1047  0.0500  1.4480
 9071SOL     OW38848   2.338   4.154   7.391  0.0819 -0.0343  0.4869
 9071SOL    HW138849   2.373   4.243   7.386  1.8017 -0.7070  0.5237
 9071SOL    HW238850   2.409   4.107   7.433  1.9155  1.4867 -0.9139
 9072SOL     OW38851   2.682   1.472   6.939  0.5236  0.3022  0.2453
 9072SOL    HW138852   2.606   1.520   6.973  1.4482  0.8753  1.4993
 9072SOL    HW238853   2.753   1.505   6.994  1.4185 -0.8452 -0.2251
 9073SOL     OW38854   1.036   2.504  17.348  0.5431 -0.9814  0.1190
 9073SOL    HW138855   0.999   2.589  17.325 -0.0204 -0.9494  1.1424
 9073SOL    HW238856   0.959   2.448  17.342  1.3636 -2.0113 -0.8393
 9074SOL     OW38857   4.222   0.624   9.053  0.0514  0.3568 -0.1667
 9074SOL    HW138858   4.234   0.565   9.127 -1.3960 -3.4006 -2.9275
 9074SOL    HW238859   4.267   0.703   9.082 -0.5052  0.5691  0.1188
 9075SOL     OW38860   4.615   3.635   1.886 -0.2441  0.5607  0.0179
 9075SOL    HW138861   4.687   3.599   1.835  0.6267  1.4116  0.6542
 9075SOL    HW238862   4.572   3.681   1.813 -1.0902  1.6866  1.2289
 9076SOL     OW38863   3.531   4.728   6.904 -0.5393 -0.1987 -0.1140
 9076SOL    HW138864   3.481   0.011   6.826  0.3138 -1.2295 -0.9475
 9076SOL    HW238865   3.618   0.016   6.874 -0.3531 -1.5977 -0.8302
 9077SOL     OW38866   4.253   3.918  13.607  0.3636 -0.9013  0.1103
 9077SOL    HW138867   4.304   3.913  13.526  1.6419 -1.8776  0.9921
 9077SOL    HW238868   4.189   3.987  13.589  0.8524 -0.5782 -0.3732
 9078SOL     OW38869   1.856   3.970   3.498 -0.3094 -0.5680  0.4934
 9078SOL    HW138870   1.935   3.925   3.528 -0.1610 -0.2994  0.5018
 9078SOL    HW238871   1.800   3.897   3.469 -0.7411 -0.2584  0.5537
 9079SOL     OW38872   1.738   2.804   4.566 -0.3236  0.0547 -0.0516
 9079SOL    HW138873   1.690   2.837   4.490  1.4862  0.2170 -1.1008
 9079SOL    HW238874   1.815   2.765   4.526 -0.0683  1.6389 -1.0931
 9080SOL     OW38875   1.856   3.324   6.779 -0.4360  0.2281 -0.5006
 9080SOL    HW138876   1.832   3.247   6.728  0.9360  1.1632 -2.5768
 9080SOL    HW238877   1.818   3.318   6.866 -1.2777 -0.5621 -0.9303
 9081SOL     OW38878   4.070   1.538  14.828 -0.0868 -0.2493  0.0434
 9081SOL    HW138879   4.014   1.596  14.775 -0.1043  0.5958  0.9847
 9081SOL    HW238880   4.046   1.446  14.823  0.8061 -0.3612 -2.1650
 9082SOL     OW38881   2.662   0.924  10.113  0.8328 -0.0267 -0.2545
 9082SOL    HW138882   2.723   0.944  10.041 -0.5895  2.6258 -0.7525
 9082SOL    HW238883   2.591   0.988  10.107  0.8255  0.1440  1.8369
 9083SOL     OW38884   1.319   0.086   7.435  0.1240  0.1343 -0.2562
 9083SOL    HW138885   1.270   0.116   7.358 -0.2236  0.0350 -0.0772
 9083SOL    HW238886   1.245   0.050   7.484  0.2631  0.8341  0.4687
 9084SOL     OW38887   1.659   1.549   9.183  0.9049  0.0530  0.5790
 9084SOL    HW138888   1.606   1.482   9.225  1.7117 -0.1747  1.2386
 9084SOL    HW238889   1.745   1.532   9.222  1.9573 -0.6524 -2.0525
 9085SOL     OW38890   0.543   0.303  16.482 -0.1127  0.2488  0.1744
 9085SOL    HW138891   0.509   0.385  16.519  1.3425  2.0298 -2.4330
 9085SOL    HW238892   0.549   0.330  16.390 -0.3592 -0.1389  0.0459
 9086SOL     OW38893   3.319   3.315   5.424 -0.1352 -0.0474 -0.2774
 9086SOL    HW138894   3.389   3.259   5.459  0.3599  0.2031 -0.8657
 9086SOL    HW238895   3.289   3.252   5.359 -1.4109  2.0771 -1.7106
 9087SOL     OW38896   3.019   2.060   1.969 -0.6826 -0.1731 -0.1464
 9087SOL    HW138897   3.090   1.997   1.987  0.5832  0.9605 -1.1923
 9087SOL    HW238898   2.956   2.007   1.920 -1.8177  2.9679 -2.0550
 9088SOL     OW38899   3.691   1.347   2.991 -0.3373  0.5556 -0.1522
 9088SOL    HW138900   3.767   1.293   3.016 -1.5537 -0.0265  2.3042
 9088SOL    HW238901   3.719   1.391   2.911  0.3528  0.1877 -0.1185
 9089SOL     OW38902   2.032   2.314   1.115 -0.2633  0.6529 -0.5063
 9089SOL    HW138903   1.969   2.256   1.073 -1.4941  1.7742 -0.2070
 9089SOL    HW238904   1.981   2.375   1.168 -1.3489 -0.7479  0.0558
 9090SOL     OW38905   1.739   3.433  10.312  0.2730 -0.2447 -0.0240
 9090SOL    HW138906   1.792   3.499  10.267 -2.8296  2.0184 -0.3265
 9090SOL    HW238907   1.805   3.387  10.365  0.4160 -0.1906 -0.1541
 9091SOL     OW38908   0.461   4.089   2.633 -0.8791 -0.4434 -0.3371
 9091SOL    HW138909   0.378   4.129   2.608 -1.3624 -2.5719 -2.2033
 9091SOL    HW238910   0.445   4.002   2.596  2.5762 -1.6719  1.0774
 9092SOL     OW38911   2.747   4.526   8.354 -0.0444  0.6539 -0.1080
 9092SOL    HW138912   2.672   4.586   8.354 -1.3755 -1.0199 -2.6891
 9092SOL    HW238913   2.802   4.574   8.293 -0.7737  0.5214 -0.8730
 9093SOL     OW38914   2.145   1.775   3.513  0.5762  0.0963 -0.1126
 9093SOL    HW138915   2.077   1.786   3.447  1.5409  0.1508 -1.0821
 9093SOL    HW238916   2.123   1.834   3.585 -0.9012 -1.7172  0.9417
 9094SOL     OW38917   2.645   4.272   8.914  1.3119  0.2791 -0.0643
 9094SOL    HW138918   2.663   4.352   8.964  2.5313  1.0954 -1.8039
 9094SOL    HW238919   2.550   4.264   8.918  1.4941 -2.0698 -0.3823
 9095SOL     OW38920   1.107   3.471   9.308 -0.1943  0.3202 -0.7072
 9095SOL    HW138921   1.105   3.377   9.289 -0.9721 -0.1173  1.5323
 9095SOL    HW238922   1.163   3.509   9.240  0.3164 -0.9277 -0.9845
 9096SOL     OW38923   3.783   2.567  14.126  0.1038  0.2341  0.0672
 9096SOL    HW138924   3.703   2.615  14.149 -0.5310 -0.7390 -0.1425
 9096SOL    HW238925   3.795   2.605  14.039 -0.7735  0.1217 -0.1094
 9097SOL     OW38926   0.690   4.274  16.175 -0.4439  0.0226 -0.3663
 9097SOL    HW138927   0.729   4.310  16.254  0.8981  1.2826 -1.6135
 9097SOL    HW238928   0.624   4.215  16.211 -1.1048  0.2051 -1.2720
 9098SOL     OW38929   0.872   0.318   6.180 -0.2876 -0.6262 -0.0388
 9098SOL    HW138930   0.848   0.227   6.162 -0.6937 -0.5076 -0.1006
 9098SOL    HW238931   0.802   0.366   6.225 -0.7163 -1.0971 -0.1995
 9099SOL     OW38932   2.694   4.264  17.015 -0.6500  0.0648  0.5829
 9099SOL    HW138933   2.634   4.289  16.945  1.5818  1.8546 -0.6969
 9099SOL    HW238934   2.775   4.301  16.980 -2.1003  0.7386 -2.0638
 9100SOL     OW38935   4.339   4.225  10.908 -0.3855  0.7537 -0.0131
 9100SOL    HW138936   4.380   4.214  10.994 -0.3896  2.2231  0.1727
 9100SOL    HW238937   4.292   4.141  10.909 -1.2156  1.2121 -0.9368
 9101SOL     OW38938   0.464   1.256  11.292  0.3823  0.2862 -0.3124
 9101SOL    HW138939   0.464   1.345  11.257  1.5048  0.3894 -0.0519
 9101SOL    HW238940   0.458   1.201  11.214 -0.2206 -0.9738  0.6252
 9102SOL     OW38941   3.707   2.396  16.102  0.3388 -0.4592 -0.3163
 9102SOL    HW138942   3.645   2.340  16.054  1.0555  0.3084 -2.1501
 9102SOL    HW238943   3.711   2.352  16.187  2.9892 -0.4596 -0.4636
 9103SOL     OW38944   4.406   1.192  11.802 -0.0195  0.1124  0.6267
 9103SOL    HW138945   4.350   1.266  11.823  0.0421 -0.1841  1.8842
 9103SOL    HW238946   4.345   1.126  11.837  0.0693  0.1185  0.7929
 9104SOL     OW38947   0.237   0.641   4.577  0.6831  0.2961 -0.4981
 9104SOL    HW138948   0.218   0.634   4.484  1.4526 -0.1630 -0.6239
 9104SOL    HW238949   0.178   0.573   4.610 -0.5551  2.2256  1.2090
 9105SOL     OW38950   4.018   1.249   7.843 -0.0697 -0.1248 -0.4442
 9105SOL    HW138951   3.951   1.317   7.843  0.6636  0.5843 -4.8865
 9105SOL    HW238952   3.986   1.161   7.822  0.0159 -0.0836 -0.7480
 9106SOL     OW38953   4.179   4.178   5.927  0.5436  0.4068 -0.0411
 9106SOL    HW138954   4.108   4.118   5.951  0.0956  0.7771 -0.4447
 9106SOL    HW238955   4.168   4.242   5.998 -3.1012  0.5931 -0.7641
 9107SOL     OW38956   3.987   3.530  17.351  0.2862  0.0972  0.3619
 9107SOL    HW138957   3.997   3.491  17.264 -0.5328  1.0895 -0.1812
 9107SOL    HW238958   4.079   3.539  17.377  0.0384 -2.6593  2.1796
 9108SOL     OW38959   3.322   2.673   2.651  0.3164 -0.4600  0.2184
 9108SOL    HW138960   3.404   2.703   2.610 -0.5131  0.2676 -0.8876
 9108SOL    HW238961   3.308   2.737   2.721  0.8716  0.6597 -0.6935
 9109SOL     OW38962   1.432   0.892  15.160 -0.1132 -0.2286 -0.1332
 9109SOL    HW138963   1.512   0.864  15.116 -0.3257 -1.8708  0.4874
 9109SOL    HW238964   1.406   0.968  15.108 -0.2631  0.8949  1.5733
 9110SOL     OW38965   0.036   0.638   0.348 -0.0895  0.3002  0.2014
 9110SOL    HW138966   0.126   0.668   0.334  0.6920 -0.9057  2.6806
 9110SOL    HW238967   4.721   0.717   0.335  0.8855  0.7672 -1.0142
 9111SOL     OW38968   1.454   1.300  15.260  0.4756  0.4111 -0.4084
 9111SOL    HW138969   1.477   1.239  15.330 -0.9355 -0.7830 -0.9762
 9111SOL    HW238970   1.513   1.261  15.195 -0.3883 -1.4792 -0.0534
 9112SOL     OW38971   3.114   3.302   7.008  0.4245 -0.6001  0.7762
 9112SOL    HW138972   3.144   3.232   7.066  1.3796 -0.4279  0.4842
 9112SOL    HW238973   3.110   3.382   7.061  0.9755  0.2769 -0.5166
 9113SOL     OW38974   0.515   1.603   9.522  0.3004  0.0140 -0.7080
 9113SOL    HW138975   0.438   1.654   9.550  0.0346  0.2946 -1.9688
 9113SOL    HW238976   0.483   1.545   9.453 -2.8396 -0.1988  0.9198
 9114SOL     OW38977   2.994   4.516   7.964 -0.0788  0.0667  0.2395
 9114SOL    HW138978   3.061   4.447   7.962  0.5277  0.7299 -2.5329
 9114SOL    HW238979   2.946   4.506   7.881  0.2183 -0.2895  0.1131
 9115SOL     OW38980   0.448   2.954  16.679  0.1093 -0.3513 -0.1524
 9115SOL    HW138981   0.537   2.966  16.711 -0.2321 -1.9835  1.4267
 9115SOL    HW238982   0.390   2.983  16.749  1.2408  1.3456  0.0712
 9116SOL     OW38983   0.500   0.545   6.694 -0.1279  0.1714  0.2809
 9116SOL    HW138984   0.414   0.573   6.665  0.3694  1.2539 -0.1136
 9116SOL    HW238985   0.558   0.612   6.658  0.1817 -0.5039 -0.4746
 9117SOL     OW38986   1.248   1.181   5.698 -0.2560  0.0354  0.1356
 9117SOL    HW138987   1.193   1.133   5.637  1.2455  0.1510 -1.2982
 9117SOL    HW238988   1.201   1.164   5.780 -1.8933  2.6134 -0.2511
 9118SOL     OW38989   0.056   2.892   2.005 -0.5684  0.4441 -0.4752
 9118SOL    HW138990   0.006   2.827   1.956  0.9702 -1.4586  0.4560
 9118SOL    HW238991   0.112   2.919   1.932  1.7199  1.2188  1.5842
 9119SOL     OW38992   2.806   4.499  10.763 -0.2401 -0.1122  0.0158
 9119SOL    HW138993   2.894   4.462  10.756  0.0622  1.0109 -1.9669
 9119SOL    HW238994   2.802   4.521  10.857 -0.2144  0.7488 -0.1844
 9120SOL     OW38995   3.574   2.535   5.779 -0.7941  0.5203 -0.4806
 9120SOL    HW138996   3.487   2.527   5.739 -1.5636  1.3473  1.0118
 9120SOL    HW238997   3.593   2.448   5.813  0.5324  1.7215  1.8215
 9121SOL     OW38998   4.002   0.118  14.925 -0.1671 -0.6890 -0.3171
 9121SOL    HW138999   4.084   0.097  14.968 -0.0992 -1.6854 -0.9373
 9121SOL    HW239000   3.941   0.124  14.998 -0.2585 -1.7830 -0.3032
 9122SOL     OW39001   4.180   3.580   5.946 -0.0424 -0.0036 -0.3514
 9122SOL    HW139002   4.183   3.606   6.038  0.9458  0.2289 -0.4552
 9122SOL    HW239003   4.217   3.654   5.898  0.9728  0.7727  1.6613
 9123SOL     OW39004   3.521   4.254  13.550  0.0187  0.7428 -0.2845
 9123SOL    HW139005   3.582   4.294  13.489  0.4448 -1.6995 -1.4486
 9123SOL    HW239006   3.572   4.254  13.631 -1.7171 -0.0111  0.8179
 9124SOL     OW39007   4.697   0.888  15.299 -0.1361 -0.2714 -0.1887
 9124SOL    HW139008   0.013   0.891  15.220 -0.4705  1.3737 -0.3483
 9124SOL    HW239009   4.711   0.970  15.347  0.1406  0.0643 -0.8362
 9125SOL     OW39010   0.412   2.370  15.220  0.1470  0.1764 -0.7177
 9125SOL    HW139011   0.349   2.431  15.183  0.6904 -0.0808 -2.0957
 9125SOL    HW239012   0.361   2.327  15.288  1.5077 -0.0524  0.1744
 9126SOL     OW39013   1.607   2.790   6.961  0.1724  0.4586 -0.1713
 9126SOL    HW139014   1.626   2.882   6.942  0.3155  0.6664  1.0146
 9126SOL    HW239015   1.666   2.741   6.904 -0.4486  1.8466 -1.9982
 9127SOL     OW39016   0.511   2.493   0.628 -0.8473 -0.0020  0.5320
 9127SOL    HW139017   0.494   2.572   0.679 -0.3460  0.2430  0.3110
 9127SOL    HW239018   0.549   2.442   0.699  0.0092 -0.8186 -0.5051
 9128SOL     OW39019   2.418   2.473  12.388  0.3360 -0.2616 -0.1044
 9128SOL    HW139020   2.443   2.565  12.400  0.8557 -0.4301  0.0888
 9128SOL    HW239021   2.324   2.486  12.399  0.7151 -0.1089  2.9448
 9129SOL     OW39022   3.970   1.399   6.938 -0.0459 -0.0468 -0.0693
 9129SOL    HW139023   3.927   1.337   6.880  0.8378  1.0304 -1.8832
 9129SOL    HW239024   3.995   1.469   6.877  0.6505  0.1264  0.4180
 9130SOL     OW39025   3.252   4.084   7.112 -0.0098  0.5740  0.2774
 9130SOL    HW139026   3.344   4.083   7.086 -0.3684  0.1828 -0.9794
 9130SOL    HW239027   3.222   4.167   7.074 -3.5631 -0.3486  1.0491
 9131SOL     OW39028   0.848   1.174   4.373  0.1870  0.0912 -0.6165
 9131SOL    HW139029   0.940   1.171   4.347  0.3619  1.0471 -0.1118
 9131SOL    HW239030   0.805   1.109   4.318  0.7053 -0.1752 -0.7067
 9132SOL     OW39031   0.989   0.817   3.075 -0.1852  0.4599 -0.0984
 9132SOL    HW139032   1.002   0.870   3.153  1.5049 -1.6894  1.0894
 9132SOL    HW239033   1.015   0.881   3.009  0.8085  0.5473  0.3797
 9133SOL     OW39034   4.065   4.736   8.685 -0.0264  0.1722 -0.0054
 9133SOL    HW139035   4.134   0.055   8.651 -0.6069  1.0700  0.3510
 9133SOL    HW239036   3.984   0.045   8.668 -0.0748  0.3745  0.8046
 9134SOL     OW39037   3.574   3.901   0.950  0.2042  0.2275 -0.2981
 9134SOL    HW139038   3.489   3.899   0.908 -0.4102  0.0799  0.9373
 9134SOL    HW239039   3.565   3.814   0.988 -3.0213  1.2797  1.3433
 9135SOL     OW39040   1.918   1.558  16.619 -0.0427 -0.0146  0.9335
 9135SOL    HW139041   1.972   1.623  16.665  0.0749  3.2504 -3.7677
 9135SOL    HW239042   1.863   1.527  16.691 -1.4677 -0.9387 -0.5698
 9136SOL     OW39043   2.612   4.028   9.189  0.4591 -0.6924  0.3414
 9136SOL    HW139044   2.617   4.100   9.126 -1.5866 -0.3247  0.5972
 9136SOL    HW239045   2.525   4.050   9.222 -0.2750 -3.0725 -0.0152
 9137SOL     OW39046   0.304   2.148   0.218  0.4118 -0.1998 -0.3210
 9137SOL    HW139047   0.270   2.068   0.257  0.3773  0.5978  1.2795
 9137SOL    HW239048   0.383   2.122   0.172  0.5995 -1.7257  0.8732
 9138SOL     OW39049   2.748   3.593  16.605  0.1482  0.5318 -0.4250
 9138SOL    HW139050   2.809   3.540  16.553 -0.8534  0.2651 -1.3415
 9138SOL    HW239051   2.808   3.627  16.671 -1.0076  1.0983  0.3190
 9139SOL     OW39052   1.071   3.731  13.354  0.5164 -0.0306  0.3540
 9139SOL    HW139053   1.084   3.672  13.428 -0.8755  0.5031  1.0209
 9139SOL    HW239054   1.159   3.762  13.334  0.6261 -0.7751 -0.2942
 9140SOL     OW39055   3.265   0.574   3.312  0.0602  0.1063 -0.4886
 9140SOL    HW139056   3.279   0.635   3.384 -0.3549 -1.9146  1.3296
 9140SOL    HW239057   3.170   0.568   3.299  0.1410 -0.2562 -0.9450
 9141SOL     OW39058   2.139   2.086   2.212 -0.0014 -0.8714  0.0838
 9141SOL    HW139059   2.069   2.047   2.264 -1.0384 -0.7191 -1.1891
 9141SOL    HW239060   2.192   2.139   2.270  0.6105 -0.8818 -0.4715
 9142SOL     OW39061   4.248   4.056  14.332 -0.3004 -0.1425  0.3638
 9142SOL    HW139062   4.178   4.017  14.384 -0.8911 -0.8231 -0.9372
 9142SOL    HW239063   4.289   3.976  14.300 -1.0864 -0.5426  0.3672
 9143SOL     OW39064   2.750   1.534   1.825 -0.5033 -0.1205 -0.3363
 9143SOL    HW139065   2.694   1.612   1.833 -0.3934 -0.2487  1.8772
 9143SOL    HW239066   2.830   1.584   1.810 -1.3460  1.0503 -0.9340
 9144SOL     OW39067   0.974   2.121   5.568 -0.4608  0.6806 -0.1445
 9144SOL    HW139068   0.953   2.171   5.647 -2.1129  1.4469 -1.0717
 9144SOL    HW239069   1.034   2.058   5.609 -2.9162 -1.5766  0.0494
 9145SOL     OW39070   1.473   4.232  16.706  0.0444  0.4730 -0.6141
 9145SOL    HW139071   1.400   4.274  16.660 -0.3864  0.0166 -0.3533
 9145SOL    HW239072   1.545   4.254  16.647  0.2071 -0.6047 -0.8146
 9146SOL     OW39073   4.205   1.365   2.212 -0.2374  0.5781  0.4915
 9146SOL    HW139074   4.159   1.355   2.129  0.8468 -1.1078  0.0913
 9146SOL    HW239075   4.297   1.356   2.188 -0.4826 -1.3306  0.2624
 9147SOL     OW39076   2.970   4.641   7.409  0.1494 -0.1690  0.1386
 9147SOL    HW139077   2.901   4.598   7.359 -1.9930 -1.2964  4.1027
 9147SOL    HW239078   2.995   4.717   7.356 -1.6694  0.7338  0.5767
 9148SOL     OW39079   2.624   1.881   4.597 -0.0868 -0.3064  0.7148
 9148SOL    HW139080   2.605   1.972   4.574  0.2955 -0.1178  1.1443
 9148SOL    HW239081   2.553   1.864   4.659 -0.3448  0.3929  0.6111
 9149SOL     OW39082   4.334   0.719   2.068 -0.2388  0.5716 -0.3632
 9149SOL    HW139083   4.249   0.699   2.029  0.4574 -0.3029 -1.4112
 9149SOL    HW239084   4.381   0.749   1.990 -1.2684  0.8680 -0.8789
 9150SOL     OW39085   1.051   1.634  12.170 -0.0125  0.3498  0.3102
 9150SOL    HW139086   1.136   1.652  12.211  0.1544 -1.5543  0.8068
 9150SOL    HW239087   1.059   1.548  12.130 -0.3108  1.2702 -1.7637
 9151SOL     OW39088   0.867   1.415   2.744 -0.5842  0.2260  0.0136
 9151SOL    HW139089   0.903   1.326   2.751  1.7375  1.2266  0.9975
 9151SOL    HW239090   0.815   1.401   2.666  0.4056  0.5294 -0.7042
 9152SOL     OW39091   3.691   4.639   3.363  0.4245  0.5726  0.2587
 9152SOL    HW139092   3.695   4.731   3.390 -2.1496  0.4557  1.0150
 9152SOL    HW239093   3.603   4.640   3.326  0.0142  1.8428  1.2679
 9153SOL     OW39094   0.507   1.162   5.679  0.1895 -0.4904 -0.3910
 9153SOL    HW139095   0.527   1.224   5.608 -0.8355 -1.2273 -1.3297
 9153SOL    HW239096   0.578   1.182   5.739  1.5235  2.5760 -2.9579
 9154SOL     OW39097   2.390   0.736  15.958 -0.1583  0.3080  0.6583
 9154SOL    HW139098   2.303   0.768  15.933  0.2697  2.6101  2.1380
 9154SOL    HW239099   2.358   0.664  16.012 -2.4163  0.6370 -0.2250
 9155SOL     OW39100   3.012   0.557  16.472 -0.3357 -0.0307  0.2625
 9155SOL    HW139101   2.938   0.592  16.521 -1.1953 -1.5947  0.0612
 9155SOL    HW239102   3.031   0.634  16.418  0.5631 -1.5211 -1.5612
 9156SOL     OW39103   0.705   1.052   3.925 -0.2888  0.4108 -0.6646
 9156SOL    HW139104   0.694   1.135   3.878 -1.8129  0.3765 -0.3926
 9156SOL    HW239105   0.670   1.068   4.013  3.3235 -1.8842  1.2005
 9157SOL     OW39106   2.421   0.674   5.198  0.6295 -0.0114  0.3248
 9157SOL    HW139107   2.346   0.681   5.257 -0.5545 -1.1985 -1.0386
 9157SOL    HW239108   2.374   0.633   5.125  0.0188  1.7066 -0.2412
 9158SOL     OW39109   1.370   3.356   7.837  0.0029 -0.3161 -0.1658
 9158SOL    HW139110   1.446   3.319   7.793  1.1447  3.3393 -1.3100
 9158SOL    HW239111   1.306   3.374   7.767  0.3308  2.0322  0.1242
 9159SOL     OW39112   0.819   1.379   8.846  0.0490 -0.2185  0.4199
 9159SOL    HW139113   0.831   1.377   8.941 -1.4292  0.5680  0.6270
 9159SOL    HW239114   0.753   1.447   8.832 -0.6831 -1.0552 -0.1702
 9160SOL     OW39115   4.535   1.641   8.323  0.2729 -0.6739  0.2220
 9160SOL    HW139116   4.469   1.678   8.382  0.9609  0.2011  0.4394
 9160SOL    HW239117   4.556   1.564   8.375 -0.7190  0.5643  2.4685
 9161SOL     OW39118   2.400   4.670   7.844 -0.0324  0.0675 -0.2042
 9161SOL    HW139119   2.391   0.026   7.858 -0.7840  0.1293 -1.1538
 9161SOL    HW239120   2.314   4.632   7.859 -0.0749 -0.5349 -2.0324
 9162SOL     OW39121   1.277   4.512   7.775 -0.1932  0.5951 -0.2878
 9162SOL    HW139122   1.254   4.426   7.741  1.7761 -0.5431  1.2932
 9162SOL    HW239123   1.340   4.481   7.840 -0.4635  2.5403  0.8968
 9163SOL     OW39124   0.506   3.182  10.918 -0.4830  0.0528 -0.1255
 9163SOL    HW139125   0.572   3.251  10.910 -1.8106  1.6746  2.7483
 9163SOL    HW239126   0.536   3.146  11.002  0.6253 -1.7160 -1.2975
 9164SOL     OW39127   1.075   1.035   1.080 -0.1426  0.2484  0.1837
 9164SOL    HW139128   0.990   1.046   1.037 -1.1073  1.5371  2.4550
 9164SOL    HW239129   1.091   0.945   1.049  0.3319  0.2461  0.4333
 9165SOL     OW39130   4.059   2.516   1.754  0.2638  0.4004 -0.5117
 9165SOL    HW139131   4.078   2.432   1.796  2.1434  0.8945 -0.3822
 9165SOL    HW239132   4.040   2.564   1.834  0.2683  0.1354 -0.3514
 9166SOL     OW39133   1.423   0.331   3.616 -0.5694  0.1914 -0.2720
 9166SOL    HW139134   1.349   0.370   3.570  0.2179  0.9028 -0.9487
 9166SOL    HW239135   1.470   0.302   3.538  1.0411 -0.8550  1.0959
 9167SOL     OW39136   1.408   1.175   1.647 -0.4670  0.4687 -0.1802
 9167SOL    HW139137   1.451   1.255   1.618  1.1014 -0.2120  0.2278
 9167SOL    HW239138   1.356   1.158   1.568 -2.1086  0.7098  0.8435
 9168SOL     OW39139   1.847   1.878   1.571 -0.2874  0.2465  0.5964
 9168SOL    HW139140   1.764   1.909   1.535  0.2015 -0.3853 -1.0693
 9168SOL    HW239141   1.842   1.938   1.646 -1.1066  0.8871  0.0366
 9169SOL     OW39142   2.814   2.357   7.144 -0.1354 -0.9860  0.1654
 9169SOL    HW139143   2.910   2.359   7.146 -0.1625  0.8579 -1.0177
 9169SOL    HW239144   2.804   2.448   7.117  3.0967 -0.2831  1.3738
 9170SOL     OW39145   0.893   1.053   9.517 -0.2230 -0.3188 -0.6633
 9170SOL    HW139146   0.839   1.005   9.454 -0.3432 -0.5220 -0.4098
 9170SOL    HW239147   0.961   1.087   9.460  0.1006  0.5088  0.2238
 9171SOL     OW39148   1.696   1.617   6.431 -0.7089  0.2040  1.3890
 9171SOL    HW139149   1.739   1.549   6.380  0.0733  1.5672  0.2419
 9171SOL    HW239150   1.661   1.563   6.502  0.3866 -1.0602  0.9556
 9172SOL     OW39151   0.158   4.634   2.481 -0.0588  0.2280 -0.1286
 9172SOL    HW139152   0.249   4.661   2.495  0.1564 -0.7035  0.3037
 9172SOL    HW239153   0.139   4.608   2.570  0.8815 -0.8189 -0.2252
 9173SOL     OW39154   1.120   2.138   8.425 -0.2402 -0.2221  0.3713
 9173SOL    HW139155   1.064   2.210   8.456 -1.9183 -0.8418 -1.1853
 9173SOL    HW239156   1.053   2.071   8.410 -1.5410  1.3353 -0.8145
 9174SOL     OW39157   3.696   0.810   0.733 -0.6532 -0.1576 -0.5820
 9174SOL    HW139158   3.672   0.719   0.717  1.2679 -0.8278  0.2992
 9174SOL    HW239159   3.702   0.844   0.644 -0.4014  1.5881  0.1052
 9175SOL     OW39160   1.208   1.944   5.590  0.1576  0.2558 -0.0416
 9175SOL    HW139161   1.238   1.877   5.528 -2.6403 -0.7182 -0.3625
 9175SOL    HW239162   1.195   1.896   5.672 -0.4978  0.6829  0.1023
 9176SOL     OW39163   2.355   3.993   1.439  0.2334  0.1049 -0.2540
 9176SOL    HW139164   2.345   4.076   1.392 -0.5025  0.2145  0.0932
 9176SOL    HW239165   2.297   4.001   1.514 -2.1001  0.7115 -2.1134
 9177SOL     OW39166   4.341   0.473   3.974  0.4457  0.3286 -0.4086
 9177SOL    HW139167   4.357   0.557   3.930  1.5706  0.5590  0.4476
 9177SOL    HW239168   4.292   0.424   3.908  1.2609  1.2126 -1.6753
 9178SOL     OW39169   3.240   1.866  14.577 -0.0161 -0.3587  0.1435
 9178SOL    HW139170   3.231   1.953  14.538  0.2810 -0.5419 -0.3248
 9178SOL    HW239171   3.149   1.839  14.593 -0.3185 -0.0478 -1.0501
 9179SOL     OW39172   1.518   0.286   6.853 -0.1861 -0.3465 -0.0761
 9179SOL    HW139173   1.566   0.241   6.783 -0.9566 -2.7501  0.9393
 9179SOL    HW239174   1.587   0.340   6.890 -0.2147  1.6222 -2.8450
 9180SOL     OW39175   3.892   1.132   2.858 -0.1262  0.3833  0.1751
 9180SOL    HW139176   3.902   1.085   2.775 -1.3991  1.3744 -0.5448
 9180SOL    HW239177   3.891   1.058   2.919 -0.3962 -0.3783 -0.7411
 9181SOL     OW39178   2.051   0.022   0.912  0.2450  0.1942  0.2795
 9181SOL    HW139179   1.996   0.097   0.888 -0.7242 -0.0141  1.8310
 9181SOL    HW239180   1.984   4.702   0.948 -0.0961 -0.4606 -1.4342
 9182SOL     OW39181   4.515   1.742   5.623  0.1819 -0.6183  0.1067
 9182SOL    HW139182   4.604   1.766   5.595 -0.0219  0.0015 -0.0042
 9182SOL    HW239183   4.476   1.737   5.536  1.7692 -0.1986 -0.6335
 9183SOL     OW39184   1.965   0.194  16.931  0.1490 -0.2594  0.3121
 9183SOL    HW139185   1.920   0.277  16.918  0.0908 -0.4474 -0.6881
 9183SOL    HW239186   1.998   0.198  17.021  0.2734  0.9883  0.2105
 9184SOL     OW39187   0.000   0.921  10.831  0.6038  0.7863 -0.4047
 9184SOL    HW139188   0.084   0.876  10.816 -0.5344 -1.2888 -0.5779
 9184SOL    HW239189   0.017   1.015  10.824 -0.6062  1.1624  1.7034
 9185SOL     OW39190   0.304   2.362   4.304  0.1378  0.3640  0.2712
 9185SOL    HW139191   0.321   2.273   4.271 -2.5090 -1.1181  2.9085
 9185SOL    HW239192   0.248   2.402   4.237  0.5731  0.3672 -0.0951
 9186SOL     OW39193   3.251   2.584  17.290 -0.6680  0.0677 -0.1901
 9186SOL    HW139194   3.225   2.494  17.309  1.0547 -0.8349 -2.0848
 9186SOL    HW239195   3.170   2.629  17.316 -0.9093  0.3380 -1.4234
 9187SOL     OW39196   0.028   1.477   7.534 -0.5984  0.1317  0.0494
 9187SOL    HW139197   0.122   1.490   7.521 -0.4602  0.4871  1.4412
 9187SOL    HW239198   0.013   1.383   7.524 -0.8905  0.1141  0.6763
 9188SOL     OW39199   3.903   1.016  17.375 -0.4528  0.4612 -0.3621
 9188SOL    HW139200   3.814   0.980  17.384 -0.8946  1.1146 -2.2201
 9188SOL    HW239201   3.945   0.938  17.411 -0.0427  0.2795 -1.2399
 9189SOL     OW39202   0.398   3.020  12.087 -0.4434 -0.0731  0.1793
 9189SOL    HW139203   0.359   2.934  12.104  2.7276 -1.3518  0.8583
 9189SOL    HW239204   0.325   3.077  12.059  0.6862  0.7960 -0.9950
 9190SOL     OW39205   1.807   0.755  16.880 -0.5510  0.0575  0.1571
 9190SOL    HW139206   1.845   0.831  16.925  2.7074  0.3604 -3.1285
 9190SOL    HW239207   1.714   0.768  16.900 -0.7201 -0.4801 -0.2643
 9191SOL     OW39208   3.713   2.909   4.262 -0.1335  0.2974  0.2715
 9191SOL    HW139209   3.628   2.925   4.304 -0.7838 -4.0705  0.5689
 9191SOL    HW239210   3.686   2.869   4.179 -2.5644  0.3836  1.0230
 9192SOL     OW39211   4.584   2.725   7.017  0.1851 -0.1090 -0.1279
 9192SOL    HW139212   4.510   2.705   7.074  0.6490 -2.5785 -0.4029
 9192SOL    HW239213   4.544   2.719   6.930 -1.1878  0.1081  0.4818
 9193SOL     OW39214   3.692   2.017   4.231  0.8392 -0.3909 -0.4677
 9193SOL    HW139215   3.664   1.926   4.219 -1.6574 -0.0391  2.5268
 9193SOL    HW239216   3.606   2.054   4.253  2.2269  1.6369  1.6344
 9194SOL     OW39217   0.462   4.128   0.768 -0.2499  0.2697  0.2687
 9194SOL    HW139218   0.377   4.095   0.797 -1.2386  2.2529 -0.3417
 9194SOL    HW239219   0.450   4.211   0.721  0.6901 -0.0177 -0.4603
 9195SOL     OW39220   3.141   1.350   1.893  0.0501 -0.2726  0.4559
 9195SOL    HW139221   3.100   1.398   1.964  0.2979 -0.8218  0.9652
 9195SOL    HW239222   3.235   1.370   1.894 -0.7214  3.3738  0.7855
 9196SOL     OW39223   4.247   3.840   1.829  0.0011 -0.2919  0.3934
 9196SOL    HW139224   4.232   3.755   1.869  1.0677 -0.0236  1.3824
 9196SOL    HW239225   4.171   3.861   1.775 -1.1237 -1.0588  1.6992
 9197SOL     OW39226   2.864   4.628  14.798 -0.7346 -0.6676 -0.3235
 9197SOL    HW139227   2.849   4.670  14.882  1.5796  2.0961 -1.3148
 9197SOL    HW239228   2.928   4.690  14.762  0.6950  0.0270  3.4393
 9198SOL     OW39229   1.120   0.692  16.817 -0.0979 -0.1595  0.1673
 9198SOL    HW139230   1.101   0.678  16.909 -0.0547 -1.9752 -0.0956
 9198SOL    HW239231   1.052   0.755  16.794  0.6221  0.3342 -0.6222
 9199SOL     OW39232   3.725   2.896   0.917  0.0536  0.2290 -0.2298
 9199SOL    HW139233   3.727   2.851   0.833 -1.3497  0.2555 -0.2808
 9199SOL    HW239234   3.730   2.830   0.987 -1.4786  0.8580  0.4705
 9200SOL     OW39235   4.167   0.366   7.487  0.3062 -0.0267  0.1307
 9200SOL    HW139236   4.258   0.392   7.472  0.9621 -3.3827 -1.7287
 9200SOL    HW239237   4.174   0.298   7.555 -1.1720 -2.8634 -2.5205
 9201SOL     OW39238   2.626   0.293   5.865 -0.0552 -0.3190 -0.1219
 9201SOL    HW139239   2.584   0.284   5.951 -0.8732  1.1103 -0.3651
 9201SOL    HW239240   2.579   0.369   5.833  0.5332  0.1860  0.2129
 9202SOL     OW39241   4.496   1.732   9.317  0.2627 -0.0460  0.4209
 9202SOL    HW139242   4.507   1.774   9.232 -0.2069  1.0587  0.9128
 9202SOL    HW239243   4.476   1.642   9.289  0.0530 -0.5728  2.2953
 9203SOL     OW39244   0.915   0.633  10.225  0.0636  0.1978 -0.4332
 9203SOL    HW139245   0.998   0.619  10.270 -0.3837 -2.2470 -0.3866
 9203SOL    HW239246   0.950   0.649  10.137 -1.5215 -2.7763 -1.6178
 9204SOL     OW39247   2.184   2.802   1.777  0.2176  0.4451  0.2466
 9204SOL    HW139248   2.089   2.793   1.776  0.2113  0.7656 -1.8960
 9204SOL    HW239249   2.217   2.765   1.695  1.5503 -2.0816  1.9178
 9205SOL     OW39250   1.095   4.188  12.936 -0.7871 -0.2692 -0.1057
 9205SOL    HW139251   1.081   4.282  12.932  0.1184 -0.1470 -0.2576
 9205SOL    HW239252   1.077   4.170  13.028 -0.9724 -0.7375 -0.2307
 9206SOL     OW39253   0.802   3.837   4.384  0.8544  0.0311  0.5313
 9206SOL    HW139254   0.851   3.912   4.351 -2.3157  1.8766  0.0715
 9206SOL    HW239255   0.744   3.878   4.448 -1.5753 -0.1249 -1.5557
 9207SOL     OW39256   2.205   2.493  17.351 -0.3230 -0.1916 -0.5276
 9207SOL    HW139257   2.137   2.465  17.413 -1.6180  0.7208 -1.5454
 9207SOL    HW239258   2.201   2.586  17.374  1.3632 -0.3135  0.2837
 9208SOL     OW39259   2.678   0.799  16.496 -0.1547 -0.1892 -0.4010
 9208SOL    HW139260   2.650   0.739  16.565  0.1398 -0.0605 -0.1701
 9208SOL    HW239261   2.769   0.814  16.523  0.2235 -1.2802 -1.0500
 9209SOL     OW39262   0.843   1.603   5.348  0.1885 -0.2176  0.0713
 9209SOL    HW139263   0.922   1.628   5.397  0.2117  0.9870 -0.5607
 9209SOL    HW239264   0.834   1.513   5.380 -0.6280 -0.4063 -0.6958
 9210SOL     OW39265   1.306   4.532   8.825 -0.3947  0.8402  0.4306
 9210SOL    HW139266   1.367   4.591   8.780  0.9813 -0.6826  0.2758
 9210SOL    HW239267   1.242   4.529   8.754 -0.7252 -0.8249  0.7811
 9211SOL     OW39268   0.208   2.421  11.818 -0.7428  0.1153  0.0073
 9211SOL    HW139269   0.227   2.376  11.900 -0.4567  2.0700  1.0183
 9211SOL    HW239270   0.296   2.430  11.783 -0.5588 -3.3110 -0.3875
 9212SOL     OW39271   1.647   0.098   3.150  0.0850  0.0739  0.2080
 9212SOL    HW139272   1.612   0.187   3.156 -1.0693 -0.5296  2.1984
 9212SOL    HW239273   1.741   0.111   3.159 -0.1362  0.4916  1.9176
 9213SOL     OW39274   1.141   0.406   2.144 -0.1507 -0.1979 -0.2976
 9213SOL    HW139275   1.214   0.414   2.205  1.0484 -0.7425 -1.6568
 9213SOL    HW239276   1.194   0.375   2.070  0.0601 -1.2651  0.3025
 9214SOL     OW39277   0.982   1.168   3.281 -0.5058 -0.2183  0.2386
 9214SOL    HW139278   0.913   1.116   3.321 -0.6468 -0.3196 -0.1310
 9214SOL    HW239279   0.961   1.152   3.189  1.7387 -2.3507  0.1094
 9215SOL     OW39280   2.774   0.911   6.459  0.1676  0.6712 -0.2557
 9215SOL    HW139281   2.765   0.862   6.541 -0.4781 -0.6588 -1.1220
 9215SOL    HW239282   2.865   0.900   6.430  0.1199 -1.7490  0.5230
 9216SOL     OW39283   3.973   1.001   6.008  0.1684  0.4308 -0.1603
 9216SOL    HW139284   3.950   0.997   5.915  0.8081 -1.0492 -0.2456
 9216SOL    HW239285   3.957   1.093   6.029  0.3179 -0.1474  2.4922
 9217SOL     OW39286   0.886   2.889   8.389  0.0659 -0.1236 -0.4229
 9217SOL    HW139287   0.904   2.804   8.429  2.4776 -0.5171 -2.3637
 9217SOL    HW239288   0.796   2.870   8.363 -0.5999  0.5006  1.4304
 9218SOL     OW39289   2.951   1.605   2.958  0.7797 -0.3368 -0.2879
 9218SOL    HW139290   2.860   1.631   2.974 -0.0828 -3.2099 -0.4902
 9218SOL    HW239291   2.952   1.526   3.013  0.5870 -0.8459 -1.0150
 9219SOL     OW39292   2.155   1.554   5.917  0.2500 -0.3051  0.0024
 9219SOL    HW139293   2.201   1.526   5.996  2.3886  0.7840 -0.8692
 9219SOL    HW239294   2.080   1.494   5.917 -0.7976  0.9947 -1.8133
 9220SOL     OW39295   3.962   1.760   8.196 -0.4379  0.7053 -0.8223
 9220SOL    HW139296   3.973   1.847   8.236  1.0210 -0.2798  0.9197
 9220SOL    HW239297   3.902   1.769   8.122  0.9935  1.2832 -1.9300
 9221SOL     OW39298   3.506   1.012   3.518 -0.3441 -0.0280 -0.8094
 9221SOL    HW139299   3.440   1.081   3.525  0.1992  0.5967 -1.7877
 9221SOL    HW239300   3.449   0.936   3.506 -1.2294  0.6793 -1.0849
 9222SOL     OW39301   1.410   3.284   4.843  0.3801  0.1918 -0.7122
 9222SOL    HW139302   1.409   3.246   4.931  0.2928  4.0097  0.9155
 9222SOL    HW239303   1.341   3.235   4.799  0.6604 -0.1700 -0.7565
 9223SOL     OW39304   4.527   2.203  10.028 -0.5638 -0.1135  0.2568
 9223SOL    HW139305   4.586   2.131  10.007 -0.9525  0.0328 -1.3247
 9223SOL    HW239306   4.534   2.251   9.945  2.1295 -0.2521  0.4099
 9224SOL     OW39307   1.032   3.203  14.708 -0.1037 -0.1756  0.0452
 9224SOL    HW139308   1.107   3.226  14.654 -2.5135 -1.1145 -3.6666
 9224SOL    HW239309   1.074   3.160  14.782  0.2619 -0.3027 -0.2414
 9225SOL     OW39310   4.291   1.946   9.665  0.1462  0.4649  0.0801
 9225SOL    HW139311   4.243   1.904   9.736  2.0468 -1.5768  0.1742
 9225SOL    HW239312   4.264   2.037   9.672  0.1674  0.3727  1.4345
 9226SOL     OW39313   1.669   1.886   4.923 -0.1361  0.2038 -0.4309
 9226SOL    HW139314   1.586   1.918   4.889 -0.9666 -0.6839  0.7852
 9226SOL    HW239315   1.675   1.936   5.005 -2.2716 -1.1610  0.5652
 9227SOL     OW39316   0.718   0.211   1.316 -0.3292  0.4236 -0.0316
 9227SOL    HW139317   0.719   0.298   1.276  2.6043  0.4197  0.0195
 9227SOL    HW239318   0.806   0.188   1.285 -1.0251 -3.0058  0.4717
 9228SOL     OW39319   1.994   3.239  17.600  0.0660  0.2773 -0.1564
 9228SOL    HW139320   1.905   3.244  17.636  0.8352  2.0812  1.5491
 9228SOL    HW239321   2.026   3.329  17.608  2.5853 -0.7115  1.0372
 9229SOL     OW39322   2.996   1.695  16.351  0.6988  0.3722 -0.3769
 9229SOL    HW139323   2.990   1.786  16.380  0.3412  0.5462 -0.9887
 9229SOL    HW239324   3.024   1.692  16.260  0.4183 -0.5633 -0.4320
 9230SOL     OW39325   0.078   4.103   8.104  0.6034  0.1039 -0.6663
 9230SOL    HW139326   0.143   4.152   8.154  0.5580 -0.2116 -0.2914
 9230SOL    HW239327   0.126   4.021   8.095  3.5479  1.8252 -0.5804
 9231SOL     OW39328   0.731   4.587   8.638  0.7247 -0.3902  0.7435
 9231SOL    HW139329   0.697   4.659   8.690 -1.0985  0.8401 -2.2393
 9231SOL    HW239330   0.649   4.538   8.646  0.4999 -0.1130  0.0696
 9232SOL     OW39331   3.040   4.654   5.549  0.7355  0.0573  0.4902
 9232SOL    HW139332   3.110   4.591   5.530  0.0350 -0.5209 -0.1941
 9232SOL    HW239333   3.033   4.641   5.644 -0.3252 -2.3222  0.0976
 9233SOL     OW39334   2.458   4.255   7.685  0.2941  0.6760 -0.3995
 9233SOL    HW139335   2.370   4.256   7.645  0.5301  1.0356 -0.9210
 9233SOL    HW239336   2.452   4.161   7.702 -0.4102  0.6547 -0.7638
 9234SOL     OW39337   3.745   1.048  16.107  0.4739  0.0464  0.4627
 9234SOL    HW139338   3.760   1.011  16.194  0.0591 -1.8693 -0.2952
 9234SOL    HW239339   3.834   1.069  16.077 -0.4465  1.8220 -1.0284
 9235SOL     OW39340   2.775   2.776   8.275  0.2934  0.0585 -0.1658
 9235SOL    HW139341   2.800   2.808   8.361 -2.2587  0.7218  0.3169
 9235SOL    HW239342   2.793   2.683   8.293  1.9244  0.2624 -0.7530
 9236SOL     OW39343   0.327   4.370  16.911 -0.1231 -0.2445  0.2623
 9236SOL    HW139344   0.340   4.329  16.996  1.1305  2.5924  1.4375
 9236SOL    HW239345   0.237   4.344  16.889  0.1069 -0.6540 -0.1956
 9237SOL     OW39346   3.952   0.735  13.797  0.6805 -0.0297  0.1289
 9237SOL    HW139347   4.013   0.680  13.748  1.5564  0.8202  0.2879
 9237SOL    HW239348   3.983   0.824  13.787 -0.3938  0.2049 -1.2400
 9238SOL     OW39349   0.809   4.728   3.594 -0.3349 -0.3652  0.2141
 9238SOL    HW139350   0.721   0.028   3.591  0.1860  0.8546  0.7478
 9238SOL    HW239351   0.853   0.071   3.615  0.3651 -0.8671  0.6828
 9239SOL     OW39352   4.485   1.585   8.058  0.2005  0.8214  0.2929
 9239SOL    HW139353   4.417   1.528   8.094  0.4064  1.2617  1.3790
 9239SOL    HW239354   4.517   1.620   8.141 -0.4240 -1.5007  1.5021
 9240SOL     OW39355   1.453   2.760   1.148 -0.0191  0.4103 -0.0987
 9240SOL    HW139356   1.472   2.789   1.237  2.0562  0.9382 -0.7013
 9240SOL    HW239357   1.386   2.697   1.172  1.2560 -0.6340  0.7425
 9241SOL     OW39358   0.974   2.314  16.893  0.2195 -0.0167 -0.1764
 9241SOL    HW139359   0.912   2.387  16.888  0.5148  0.1142 -1.8401
 9241SOL    HW239360   0.913   2.240  16.903 -1.5751  1.7353  1.9461
 9242SOL     OW39361   4.096   1.810   2.502  0.5099 -0.2008 -0.3157
 9242SOL    HW139362   4.010   1.848   2.517 -0.7092 -2.8419 -0.7386
 9242SOL    HW239363   4.082   1.724   2.463 -0.2616 -0.6456  0.9479
 9243SOL     OW39364   1.375   3.544   4.807 -0.4298 -0.5967 -0.3764
 9243SOL    HW139365   1.390   3.450   4.816 -0.6974 -0.6051 -0.0290
 9243SOL    HW239366   1.311   3.564   4.875 -1.3890 -2.6077 -0.6986
 9244SOL     OW39367   1.942   2.228   0.750 -0.0289 -0.1538  0.2266
 9244SOL    HW139368   2.035   2.209   0.766 -0.3285 -2.2819 -0.6902
 9244SOL    HW239369   1.945   2.317   0.715 -1.9773  0.2302  1.0149
 9245SOL     OW39370   0.449   0.427  10.197 -0.3451 -0.1935  0.2988
 9245SOL    HW139371   0.366   0.458  10.233  1.2495  1.9109  2.1646
 9245SOL    HW239372   0.507   0.436  10.273 -1.6440 -0.9435  1.3764
 9246SOL     OW39373   0.679   2.799  12.217  0.0747 -0.1122 -0.4532
 9246SOL    HW139374   0.656   2.791  12.310  1.0178  1.5208 -0.0788
 9246SOL    HW239375   0.668   2.891  12.197 -0.7436 -0.4051 -1.3126
 9247SOL     OW39376   1.804   3.654  13.772  0.0415  0.3016 -0.4965
 9247SOL    HW139377   1.760   3.724  13.821 -0.6521 -0.9782  0.7361
 9247SOL    HW239378   1.868   3.632  13.840 -0.1412 -0.0422 -0.4357
 9248SOL     OW39379   2.635   4.412  12.113  0.0870 -0.2011  0.6818
 9248SOL    HW139380   2.652   4.350  12.184 -1.3120 -0.1675  1.0431
 9248SOL    HW239381   2.553   4.451  12.144  0.0873  0.1374  0.2492
 9249SOL     OW39382   0.988   2.171   4.162 -0.1852 -0.1596  0.7990
 9249SOL    HW139383   0.999   2.246   4.105 -0.5206 -0.6707  0.0558
 9249SOL    HW239384   0.989   2.094   4.105  0.9002  1.0007 -0.7435
 9250SOL     OW39385   0.521   0.085   5.060  0.0031 -0.3987 -0.4597
 9250SOL    HW139386   0.558   0.091   4.972 -0.9206  1.2660 -0.7419
 9250SOL    HW239387   0.568   0.012   5.101 -0.4762  0.8026  2.2588
 9251SOL     OW39388   3.590   3.672  16.975  0.3687  1.0900 -0.1879
 9251SOL    HW139389   3.646   3.743  16.944  0.3580  1.3542  0.3863
 9251SOL    HW239390   3.503   3.685  16.940 -0.1998 -0.8601  0.4780
 9252SOL     OW39391   3.923   1.343   4.015 -0.5987  0.5067 -0.3141
 9252SOL    HW139392   3.893   1.358   3.926  0.2616 -4.0911 -1.4027
 9252SOL    HW239393   3.985   1.274   3.992 -0.1679  0.5945  0.5904
 9253SOL     OW39394   2.013   3.082   5.089  0.3458  0.1551 -0.2700
 9253SOL    HW139395   2.089   3.103   5.034  1.2030 -1.5309  0.2568
 9253SOL    HW239396   2.056   3.059   5.171 -0.8293  1.7275  0.7617
 9254SOL     OW39397   2.967   3.314   5.911  0.3427 -0.2488 -0.6236
 9254SOL    HW139398   3.008   3.359   5.984 -0.4340  0.5435 -0.6754
 9254SOL    HW239399   2.995   3.224   5.928 -2.2533 -1.1732 -1.2762
 9255SOL     OW39400   1.463   1.398  10.764  0.3792  0.3291 -0.1045
 9255SOL    HW139401   1.558   1.405  10.751  0.2442 -0.2448 -1.4048
 9255SOL    HW239402   1.454   1.436  10.852  2.1902 -1.6089  0.9091
 9256SOL     OW39403   2.158   0.108   9.234  0.4299  0.5765  0.5726
 9256SOL    HW139404   2.184   0.093   9.144 -2.5645 -2.5611  0.2085
 9256SOL    HW239405   2.154   0.203   9.246 -2.2910  0.4384  0.7898
 9257SOL     OW39406   1.849   4.664   5.646  0.0722  0.4270  0.0952
 9257SOL    HW139407   1.904   4.731   5.685  0.2970  0.9566 -1.1563
 9257SOL    HW239408   1.874   4.581   5.688  0.6234  0.4987 -0.1056
 9258SOL     OW39409   1.149   0.459   6.973  0.4031 -0.0955 -0.4567
 9258SOL    HW139410   1.202   0.532   7.007 -0.0538  0.4205 -0.8485
 9258SOL    HW239411   1.210   0.388   6.993  0.6447  0.2394  0.0077
 9259SOL     OW39412   1.883   4.652  11.887 -0.0674  0.3106  0.0574
 9259SOL    HW139413   1.848   4.602  11.814 -2.0617  2.6319 -0.5993
 9259SOL    HW239414   1.870   0.004  11.858  0.0888  1.1437  2.5348
 9260SOL     OW39415   2.083   2.224  10.038 -0.4953 -0.1620  0.1447
 9260SOL    HW139416   2.040   2.156   9.985 -0.0174  0.0664 -0.5223
 9260SOL    HW239417   2.116   2.290   9.977 -0.0798  2.0243  2.7734
 9261SOL     OW39418   2.957   2.529  16.548  0.2105  0.2759  0.5769
 9261SOL    HW139419   2.890   2.586  16.588  0.0815  0.7893 -0.3835
 9261SOL    HW239420   2.957   2.453  16.605  2.2471 -0.5781 -0.5679
 9262SOL     OW39421   1.618   0.803   2.615 -0.0124  0.1840  0.0879
 9262SOL    HW139422   1.555   0.792   2.543 -1.4661  3.1669  0.8826
 9262SOL    HW239423   1.648   0.893   2.603 -0.4721  0.6848  2.7678
 9263SOL     OW39424   1.444   1.876   8.559  0.4855  0.0488 -0.0064
 9263SOL    HW139425   1.434   1.886   8.654 -0.6783 -0.7334 -0.0475
 9263SOL    HW239426   1.507   1.804   8.559 -0.2516 -0.5996 -0.4676
 9264SOL     OW39427   3.021   3.568   0.252 -0.5323  0.2238 -0.6230
 9264SOL    HW139428   3.077   3.614   0.189 -2.5787  0.6580 -2.1346
 9264SOL    HW239429   2.939   3.552   0.204 -1.0236  0.8807 -0.0159
 9265SOL     OW39430   1.787   1.807   2.013 -0.3300 -0.4406  0.1984
 9265SOL    HW139431   1.810   1.870   2.082  0.5587  0.1315 -0.6195
 9265SOL    HW239432   1.840   1.732   2.043  0.4942 -0.3980 -1.1259
 9266SOL     OW39433   4.439   3.247  17.079 -0.0331  0.1956 -0.2619
 9266SOL    HW139434   4.521   3.215  17.116 -1.1277 -3.3953 -0.9732
 9266SOL    HW239435   4.453   3.222  16.988  1.7082 -0.9348  0.3148
 9267SOL     OW39436   0.385   3.602   8.631 -0.5308 -0.0978  0.3630
 9267SOL    HW139437   0.384   3.574   8.722  0.9528  1.0042  0.7254
 9267SOL    HW239438   0.291   3.615   8.624 -0.5387  0.0795  0.7945
 9268SOL     OW39439   1.512   1.512   3.749  0.3027 -0.5927  0.1977
 9268SOL    HW139440   1.435   1.538   3.699 -1.0540 -2.0233  1.5416
 9268SOL    HW239441   1.470   1.438   3.794  1.1605 -1.9896 -1.2888
 9269SOL     OW39442   2.988   4.338  10.945 -0.1706  0.0658 -0.1919
 9269SOL    HW139443   2.978   4.367  11.036  0.0417  1.4881 -0.6343
 9269SOL    HW239444   3.066   4.391  10.932  1.4012 -1.8112  1.5328
 9270SOL     OW39445   1.827   4.100   4.940 -0.0648  0.0552 -0.3115
 9270SOL    HW139446   1.830   4.152   5.020  2.3125  0.3735 -0.6000
 9270SOL    HW239447   1.916   4.118   4.910 -0.1245 -0.4915 -0.8063
 9271SOL     OW39448   4.285   3.248   5.086  0.2823 -0.2676 -0.1970
 9271SOL    HW139449   4.334   3.173   5.120  3.0169  0.7698 -1.8429
 9271SOL    HW239450   4.211   3.205   5.042  0.1813  1.3553 -1.6099
 9272SOL     OW39451   0.784   0.974   5.783 -0.1636 -0.0710  0.1793
 9272SOL    HW139452   0.721   1.046   5.791 -2.1023 -1.6780 -0.4137
 9272SOL    HW239453   0.730   0.897   5.799  0.5281 -0.7037 -0.5532
 9273SOL     OW39454   4.398   1.757   8.545  0.3542  0.0163  0.0662
 9273SOL    HW139455   4.440   1.766   8.630 -0.5240  1.4683  0.3420
 9273SOL    HW239456   4.313   1.800   8.546  0.6280  0.5725 -0.7265
 9274SOL     OW39457   2.596   4.725   2.307  0.0750 -0.0873  0.4336
 9274SOL    HW139458   2.516   4.723   2.254 -0.0064 -2.1371  0.6645
 9274SOL    HW239459   2.652   0.035   2.247 -0.3783 -1.3169 -0.9863
 9275SOL     OW39460   4.366   4.273   7.901  0.2057  0.0193 -0.4670
 9275SOL    HW139461   4.409   4.304   7.821 -0.3135  2.7984  0.3067
 9275SOL    HW239462   4.437   4.250   7.961 -0.4133  0.1813  0.3417
 9276SOL     OW39463   3.274   2.811   2.096  0.4228  0.0103 -0.1269
 9276SOL    HW139464   3.286   2.796   2.002 -0.3747 -1.5269  0.0284
 9276SOL    HW239465   3.213   2.742   2.120 -0.1923  1.1762  1.7356
 9277SOL     OW39466   2.466   2.957   3.004  0.1520 -0.0021  0.2671
 9277SOL    HW139467   2.544   2.903   3.020  1.2649  1.3335 -0.6071
 9277SOL    HW239468   2.469   2.969   2.909  0.0706 -2.4447 -0.0436
 9278SOL     OW39469   4.085   3.418   8.696  0.2571 -0.7351  0.2398
 9278SOL    HW139470   4.095   3.497   8.749 -0.3039  0.0635 -0.8601
 9278SOL    HW239471   4.046   3.372   8.770 -3.4235  0.2431 -1.1124
 9279SOL     OW39472   2.288   0.575   3.007  0.0105 -0.7578 -0.2730
 9279SOL    HW139473   2.338   0.632   2.949  2.3737 -2.6677 -0.1306
 9279SOL    HW239474   2.355   0.507   3.020  0.8583  0.6245  2.6597
 9280SOL     OW39475   3.252   2.308  17.361  0.4357 -0.4390 -0.5763
 9280SOL    HW139476   3.325   2.255  17.328  1.2884  1.1614 -1.2427
 9280SOL    HW239477   3.242   2.264  17.445  2.1798  0.3444  0.0481
 9281SOL     OW39478   2.017   0.079   5.772 -0.5894  0.2523 -0.2026
 9281SOL    HW139479   2.102   0.068   5.729 -1.4006  0.4551 -1.8694
 9281SOL    HW239480   2.019   0.169   5.802  1.1705  0.1750 -0.0562
 9282SOL     OW39481   3.444   3.589   0.520 -0.1569 -0.3213 -0.0539
 9282SOL    HW139482   3.408   3.566   0.434  1.5571 -0.4932 -0.7128
 9282SOL    HW239483   3.361   3.598   0.567 -0.3715  0.2817 -0.5484
 9283SOL     OW39484   0.439   3.538   2.813 -0.5958  0.5291  0.1922
 9283SOL    HW139485   0.488   3.506   2.738 -1.3455 -1.2285  0.4448
 9283SOL    HW239486   0.434   3.633   2.806 -0.1260  0.3963 -1.8190
 9284SOL     OW39487   4.470   3.317   8.519 -0.0998  0.5195 -0.2561
 9284SOL    HW139488   4.564   3.335   8.509  0.1254 -0.4274  0.0784
 9284SOL    HW239489   4.433   3.282   8.438  0.3262  1.0259 -0.6709
 9285SOL     OW39490   1.305   2.714   1.800 -0.6334 -0.6714  0.1430
 9285SOL    HW139491   1.250   2.638   1.782 -0.3650 -1.1666  1.4201
 9285SOL    HW239492   1.394   2.683   1.784 -0.2435  0.2597  0.5053
 9286SOL     OW39493   0.275   0.820  12.953  0.5486  0.0013  0.1617
 9286SOL    HW139494   0.225   0.779  12.883  1.6500 -1.3262  0.1419
 9286SOL    HW239495   0.308   0.750  13.010 -1.3179 -1.9914 -1.1968
 9287SOL     OW39496   4.272   3.705   3.218  0.4695 -0.0127 -0.1554
 9287SOL    HW139497   4.235   3.621   3.245  0.0472  0.5864  1.1389
 9287SOL    HW239498   4.214   3.718   3.144  0.8517 -0.3161 -0.5069
 9288SOL     OW39499   2.982   4.709   2.770  0.2255  0.4970 -0.6807
 9288SOL    HW139500   3.050   4.661   2.817  0.3087  2.4134  1.2000
 9288SOL    HW239501   2.918   4.640   2.781  3.3415 -2.9211 -4.1114
 9289SOL     OW39502   4.129   2.513   5.941  0.3045  0.2723 -0.1052
 9289SOL    HW139503   4.154   2.575   6.010 -0.0298  0.2702  0.0157
 9289SOL    HW239504   4.078   2.567   5.881  0.2120 -0.2439 -0.4960
 9290SOL     OW39505   1.622   0.828   2.032  0.0304 -0.1046 -0.1966
 9290SOL    HW139506   1.632   0.857   1.942 -2.7677 -2.5997 -1.3044
 9290SOL    HW239507   1.574   0.747   2.016 -0.6059  0.4743 -1.1717
 9291SOL     OW39508   4.285   3.363  17.273 -0.0119  0.0250 -0.4073
 9291SOL    HW139509   4.329   3.446  17.253 -0.8384  0.1422 -1.6926
 9291SOL    HW239510   4.336   3.296  17.228 -1.6151 -2.0762  0.8900
 9292SOL     OW39511   3.875   0.205   3.592 -0.2565  0.7340 -0.7781
 9292SOL    HW139512   3.874   0.160   3.676  0.2666  4.3449  1.1561
 9292SOL    HW239513   3.915   0.141   3.533  1.6620  0.8477  0.3923
 9293SOL     OW39514   2.740   1.878   1.338 -0.5299  0.2421 -0.2262
 9293SOL    HW139515   2.727   1.924   1.421 -1.1040 -0.2070 -0.0697
 9293SOL    HW239516   2.805   1.937   1.300 -0.5847 -0.3719 -1.2631
 9294SOL     OW39517   3.904   2.543  17.457  0.1095 -0.3791  0.6043
 9294SOL    HW139518   3.828   2.487  17.473 -0.0011 -0.7199 -1.0801
 9294SOL    HW239519   3.903   2.612  17.522  2.0551  0.4399 -0.2389
 9295SOL     OW39520   1.175   3.795   5.694  0.3709  1.1495 -0.2272
 9295SOL    HW139521   1.204   3.742   5.620  0.5386 -0.2202  0.8139
 9295SOL    HW239522   1.196   3.737   5.768  0.3272 -0.1174 -1.2020
 9296SOL     OW39523   3.929   2.939   0.636  0.1867  0.2962 -0.6518
 9296SOL    HW139524   3.869   3.014   0.637 -1.0390 -0.6946  0.4204
 9296SOL    HW239525   3.918   2.915   0.544  2.7154  0.0606 -0.8898
 9297SOL     OW39526   0.653   4.676   9.259 -0.3745  0.3604 -0.3615
 9297SOL    HW139527   0.716   4.725   9.206  0.6422  0.3451  0.8464
 9297SOL    HW239528   0.704   4.665   9.339 -0.2799 -1.4658 -0.6798
 9298SOL     OW39529   2.578   0.867  10.687  0.1839 -0.1649 -0.1361
 9298SOL    HW139530   2.578   0.789  10.743 -0.1115 -0.3006 -0.3292
 9298SOL    HW239531   2.578   0.935  10.755  1.7876  0.3397 -0.6287
 9299SOL     OW39532   4.632   3.916   6.710 -0.8461  0.5512  0.1103
 9299SOL    HW139533   4.701   3.970   6.748  0.6801  0.3591 -2.4477
 9299SOL    HW239534   4.547   3.955   6.730 -0.7930  1.4888 -1.5096
 9300SOL     OW39535   4.180   1.686   9.487 -0.3399 -0.2754  0.3991
 9300SOL    HW139536   4.132   1.750   9.434 -0.0248 -0.5958 -0.2707
 9300SOL    HW239537   4.262   1.688   9.437 -0.9106 -1.7580 -0.6008
 9301SOL     OW39538   1.047   0.337  17.512 -0.1050  0.0803  0.3902
 9301SOL    HW139539   1.048   0.248  17.547  0.6419 -0.3620 -0.7309
 9301SOL    HW239540   0.989   0.386  17.570  0.5664  1.1694  0.1435
 9302SOL     OW39541   4.577   0.004   1.952  0.0296  0.1576 -0.2497
 9302SOL    HW139542   4.486   0.029   1.966  0.5057  1.9183 -0.3481
 9302SOL    HW239543   4.621   0.089   1.949 -0.1430  0.2357 -0.6211
 9303SOL     OW39544   2.377   4.120   4.367 -0.2995 -0.2903  0.0202
 9303SOL    HW139545   2.362   4.209   4.399 -0.9237  0.7215 -3.0770
 9303SOL    HW239546   2.344   4.136   4.279 -0.4394 -0.0432  0.1168
 9304SOL     OW39547   1.148   2.653   9.057  0.1364 -0.0356  0.1790
 9304SOL    HW139548   1.225   2.600   9.041  0.2316 -0.2433  1.3545
 9304SOL    HW239549   1.172   2.729   9.005 -1.3916 -0.3370 -0.9898
 9305SOL     OW39550   1.899   0.129  11.712 -0.0693 -0.2016 -0.0512
 9305SOL    HW139551   1.850   0.210  11.726  2.3378  1.3450 -0.6895
 9305SOL    HW239552   1.900   0.139  11.617  1.3598 -0.4194 -0.0577
 9306SOL     OW39553   2.808   2.353   8.047 -0.3862 -0.7267  0.3725
 9306SOL    HW139554   2.900   2.375   8.034 -0.3264  0.0220  1.9900
 9306SOL    HW239555   2.804   2.371   8.141  1.7900 -0.0224  0.3229
 9307SOL     OW39556   0.845   1.388   5.992  0.2052 -0.1674 -0.2094
 9307SOL    HW139557   0.929   1.427   6.018  2.2850 -3.0112 -2.7834
 9307SOL    HW239558   0.836   1.309   6.045  1.3303 -0.1112  0.0604
 9308SOL     OW39559   4.172   2.652   6.547 -0.0882  0.1754 -0.4528
 9308SOL    HW139560   4.134   2.576   6.591 -0.1051  0.5165  0.1218
 9308SOL    HW239561   4.102   2.700   6.502  2.5022  2.9332 -1.6233
 9309SOL     OW39562   4.011   1.173  16.067 -0.4654 -0.2808  0.2170
 9309SOL    HW139563   3.996   1.258  16.106 -1.8776 -0.5821  0.3066
 9309SOL    HW239564   4.098   1.157  16.105  0.4293  1.8127 -0.9608
 9310SOL     OW39565   0.920   0.911   5.561 -0.3572 -0.4192 -0.4794
 9310SOL    HW139566   0.863   0.934   5.634 -2.0663 -0.8771 -1.6762
 9310SOL    HW239567   0.928   0.818   5.580 -0.0793  0.0352  1.6881
 9311SOL     OW39568   1.918   2.283   3.474  0.5819  0.3309 -0.1068
 9311SOL    HW139569   1.938   2.222   3.546 -1.8402 -0.1998  0.1271
 9311SOL    HW239570   1.847   2.228   3.440 -1.0034  2.4453 -0.2345
 9312SOL     OW39571   0.021   4.522   6.149  0.1908  0.6127 -0.1270
 9312SOL    HW139572   4.695   4.577   6.104 -2.8114 -2.4199  0.4499
 9312SOL    HW239573   0.034   4.574   6.228 -1.9137  2.1718 -0.8023
 9313SOL     OW39574   0.532   1.956   4.074  0.2484 -0.4143 -0.3290
 9313SOL    HW139575   0.525   2.017   4.000  1.0165 -0.5032 -0.4655
 9313SOL    HW239576   0.528   2.022   4.143 -0.9342 -1.7929  0.9249
 9314SOL     OW39577   3.440   3.942  15.263  0.2450  0.4541  0.4651
 9314SOL    HW139578   3.483   3.898  15.191 -0.6334  0.7912 -0.2772
 9314SOL    HW239579   3.519   3.988  15.291  1.6745 -1.5128 -0.3629
 9315SOL     OW39580   3.394   3.021   2.608  0.2318 -0.2694  0.4970
 9315SOL    HW139581   3.428   2.981   2.528  0.5900  1.9631 -0.4704
 9315SOL    HW239582   3.462   3.081   2.638 -0.6175  1.0517 -0.1796
 9316SOL     OW39583   0.479   1.104   9.999  1.0209 -0.7054  0.3876
 9316SOL    HW139584   0.525   1.020   9.997 -1.8560 -2.2974  1.2213
 9316SOL    HW239585   0.422   1.089   9.924 -0.6941 -0.4427  1.6393
 9317SOL     OW39586   1.959   3.553  15.720  0.0777 -0.5971  0.1422
 9317SOL    HW139587   1.888   3.514  15.771 -1.8278  1.2957 -1.0623
 9317SOL    HW239588   1.920   3.558  15.633  3.0563  1.2484 -1.0861
 9318SOL     OW39589   0.700   2.395  14.163  0.2936  0.7461  0.3808
 9318SOL    HW139590   0.719   2.478  14.207  1.5759  0.2785  0.7064
 9318SOL    HW239591   0.765   2.339  14.206  1.9233  0.7888 -2.0144
 9319SOL     OW39592   3.553   1.479   9.264 -0.0367  0.7049 -0.3223
 9319SOL    HW139593   3.628   1.456   9.208 -0.6078  0.8477 -1.1499
 9319SOL    HW239594   3.533   1.568   9.234 -0.4957  0.6444 -0.1846
 9320SOL     OW39595   3.595   3.094   8.016  0.2487  0.2178  0.1653
 9320SOL    HW139596   3.514   3.046   8.032  0.7239 -0.4497  0.5935
 9320SOL    HW239597   3.570   3.170   7.963  1.1334 -0.7938 -1.7057
 9321SOL     OW39598   1.773   1.323   7.126  0.0624 -0.2514 -0.0985
 9321SOL    HW139599   1.827   1.284   7.195 -0.3342 -0.5367  0.0451
 9321SOL    HW239600   1.722   1.387   7.176  0.4169 -0.2684  0.2884
 9322SOL     OW39601   4.095   3.121   1.985 -0.3814 -0.3803  0.5047
 9322SOL    HW139602   4.098   3.160   1.898 -0.4951 -0.5260  0.4347
 9322SOL    HW239603   4.187   3.112   2.009  0.7233  1.1737 -3.1154
 9323SOL     OW39604   2.676   0.841   8.352 -0.3565  0.0878 -0.4437
 9323SOL    HW139605   2.735   0.766   8.339 -2.2433 -1.7894  1.6717
 9323SOL    HW239606   2.621   0.825   8.275  0.1923 -0.7760 -0.6537
 9324SOL     OW39607   2.260   1.851  12.610  0.3496  0.1372 -0.2145
 9324SOL    HW139608   2.311   1.848  12.691 -0.0540 -0.0160  0.0358
 9324SOL    HW239609   2.329   1.840  12.545 -0.0340  1.8320 -0.9215
 9325SOL     OW39610   3.520   4.350  15.756 -0.0865  0.4560 -0.0422
 9325SOL    HW139611   3.534   4.441  15.782 -1.8640  0.1033  2.0239
 9325SOL    HW239612   3.567   4.346  15.672 -0.6289 -0.8684 -0.2746
 9326SOL     OW39613   3.861   1.968   5.645 -0.2630  0.4055 -0.6531
 9326SOL    HW139614   3.837   1.889   5.692 -2.0054 -0.4317 -2.9464
 9326SOL    HW239615   3.934   2.006   5.695 -1.1429  0.5671  0.5033
 9327SOL     OW39616   2.482   2.960   3.831 -0.3790 -0.1652 -0.2518
 9327SOL    HW139617   2.507   2.978   3.741 -1.6544  2.2292 -0.1353
 9327SOL    HW239618   2.450   2.871   3.814  0.6339 -0.8303  1.2747
 9328SOL     OW39619   2.742   4.116   2.199  0.1149 -0.0943 -0.1593
 9328SOL    HW139620   2.760   4.210   2.192  0.7813 -0.3576 -1.9834
 9328SOL    HW239621   2.671   4.114   2.135  0.1609 -0.0682 -0.2107
 9329SOL     OW39622   0.243   2.505   8.038 -0.1431  0.0638  0.6056
 9329SOL    HW139623   0.252   2.533   8.129  1.5286  2.5144 -0.3166
 9329SOL    HW239624   0.208   2.418   8.056  0.6138 -0.3413  0.1409
 9330SOL     OW39625   4.302   1.022   1.981 -0.0752 -0.1898 -0.1358
 9330SOL    HW139626   4.300   1.115   1.961 -3.1029 -0.2278  0.0268
 9330SOL    HW239627   4.354   1.030   2.060  1.5877 -0.3829 -1.1966
 9331SOL     OW39628   3.566   2.620   2.900 -0.2196  0.5679  0.2384
 9331SOL    HW139629   3.573   2.675   2.978  2.3741  0.4177  0.1300
 9331SOL    HW239630   3.556   2.532   2.938  0.7857  0.8563  1.1941
 9332SOL     OW39631   2.941   1.372   9.013 -0.1242 -0.2393 -0.9503
 9332SOL    HW139632   2.949   1.392   8.920  1.6425  1.9309 -0.3443
 9332SOL    HW239633   2.983   1.288   9.028  1.0562  0.7017  1.0822
 9333SOL     OW39634   0.421   3.708  11.392  0.2350  0.3002 -0.0205
 9333SOL    HW139635   0.420   3.625  11.440 -1.7808  1.4329  1.8963
 9333SOL    HW239636   0.358   3.691  11.323 -0.3149  1.0509  0.3044
 9334SOL     OW39637   2.728   2.172  14.248 -0.1034 -0.7059  0.2641
 9334SOL    HW139638   2.716   2.170  14.343  0.8364 -0.3808  0.3931
 9334SOL    HW239639   2.765   2.260  14.239  3.5041 -1.9001  3.4517
 9335SOL     OW39640   4.436   3.017  10.720 -0.3579 -0.2545  0.3313
 9335SOL    HW139641   4.346   3.021  10.753 -0.5459 -1.2164 -0.0514
 9335SOL    HW239642   4.464   3.107  10.738 -1.2497  0.3787 -1.4697
 9336SOL     OW39643   1.174   4.645   1.252 -0.1569 -0.1206 -0.0486
 9336SOL    HW139644   1.267   4.641   1.230 -0.3120  0.5718 -0.8400
 9336SOL    HW239645   1.132   4.682   1.174 -2.8622 -1.6232  0.7094
 9337SOL     OW39646   4.090   0.878   8.734  0.2083  0.5737  0.1619
 9337SOL    HW139647   4.081   0.892   8.828  1.3824 -1.3963  0.5842
 9337SOL    HW239648   4.091   0.967   8.699 -0.0515  0.4685 -0.1145
 9338SOL     OW39649   1.055   3.090  14.350  0.0650 -0.0603  0.0520
 9338SOL    HW139650   1.134   3.126  14.391  1.3055 -0.2475 -2.1619
 9338SOL    HW239651   1.009   3.173  14.356  0.4655  0.1546  0.1833
 9339SOL     OW39652   1.586   2.050   3.321  0.3300  0.1056 -0.4957
 9339SOL    HW139653   1.500   2.044   3.362  0.2616 -0.8434 -0.7746
 9339SOL    HW239654   1.642   2.060   3.398  1.4605  2.4100 -1.6218
 9340SOL     OW39655   2.742   0.643   0.875 -0.4983  0.3247 -0.1351
 9340SOL    HW139656   2.740   0.612   0.784  0.0292 -3.3622  1.0935
 9340SOL    HW239657   2.682   0.714   0.854  1.2592  1.6563 -0.6577
 9341SOL     OW39658   0.914   1.422   9.653 -0.0913  0.3643  0.1606
 9341SOL    HW139659   0.965   1.425   9.734  0.5107 -2.3892 -0.1267
 9341SOL    HW239660   0.930   1.515   9.636  1.5821  0.0539  0.0196
 9342SOL     OW39661   1.681   0.851   1.100  0.1204 -0.2145  0.2691
 9342SOL    HW139662   1.666   0.756   1.099 -0.1771 -0.2339  5.2103
 9342SOL    HW239663   1.597   0.889   1.074  0.0343 -0.7160 -0.1869
 9343SOL     OW39664   4.576   1.168   7.649  0.3692  0.2225  0.0515
 9343SOL    HW139665   4.491   1.202   7.624 -0.4648 -1.6801  0.3248
 9343SOL    HW239666   4.546   1.099   7.708  0.6359  0.2944  0.2688
 9344SOL     OW39667   1.517   2.592  15.510 -0.3788 -0.8364  1.0353
 9344SOL    HW139668   1.507   2.564  15.419 -0.8517  0.4670  0.6783
 9344SOL    HW239669   1.575   2.666  15.491 -3.4675  0.6299 -2.6840
 9345SOL     OW39670   4.048   0.629   7.663 -0.4531 -1.0930  0.1663
 9345SOL    HW139671   3.956   0.605   7.652 -1.2412  1.3478  1.4902
 9345SOL    HW239672   4.041   0.722   7.688  2.6391 -1.0867  1.0165
 9346SOL     OW39673   0.957   1.795   5.151  0.2572  0.1946  0.7009
 9346SOL    HW139674   0.889   1.774   5.215  1.3056 -4.4156  0.2856
 9346SOL    HW239675   0.940   1.890   5.149  0.6510  0.2865  1.6607
 9347SOL     OW39676   4.188   2.256   3.140  0.4358 -0.0016  0.4951
 9347SOL    HW139677   4.272   2.219   3.164 -1.0095 -2.2853  1.9861
 9347SOL    HW239678   4.172   2.217   3.054  2.4295 -2.4752  1.2393
 9348SOL     OW39679   0.967   3.676   4.568 -0.1509 -0.0710  0.4343
 9348SOL    HW139680   1.062   3.667   4.564 -0.0455 -0.2331  3.3654
 9348SOL    HW239681   0.945   3.740   4.500 -0.4075 -1.4391 -0.7747
 9349SOL     OW39682   1.115   0.159  15.526  0.3404 -0.4319  0.2373
 9349SOL    HW139683   1.040   0.173  15.469 -2.1344 -0.0975  3.5628
 9349SOL    HW239684   1.187   0.160  15.463 -1.7651  2.1396 -2.1278
 9350SOL     OW39685   1.937   4.380   8.618  0.0429  0.3213  0.0558
 9350SOL    HW139686   1.956   4.453   8.677 -0.4688  0.9878 -0.6142
 9350SOL    HW239687   2.025   4.341   8.617 -0.6879 -1.4051  2.9508
 9351SOL     OW39688   2.170   0.577   1.692 -0.8906 -0.0378  0.2419
 9351SOL    HW139689   2.086   0.534   1.679 -1.1804  0.1548  1.4499
 9351SOL    HW239690   2.181   0.616   1.605  1.2550  1.9797  1.4154
 9352SOL     OW39691   2.348   0.026   3.851  0.1863  0.1447  0.0198
 9352SOL    HW139692   2.255   0.007   3.837 -0.0230  1.4223 -0.3003
 9352SOL    HW239693   2.351   0.122   3.859  1.9026  0.3078 -2.4324
 9353SOL     OW39694   4.021   1.285  14.783  0.1324  0.2527  0.1098
 9353SOL    HW139695   3.976   1.203  14.766 -0.9181  0.6412  0.9847
 9353SOL    HW239696   4.112   1.258  14.776 -0.1411 -0.7252  0.3167
 9354SOL     OW39697   3.925   2.795  11.679 -0.1594 -0.0008  0.0482
 9354SOL    HW139698   3.965   2.843  11.751  0.8781 -1.5106  0.4752
 9354SOL    HW239699   4.006   2.752  11.653  0.8568  1.7277  0.3898
 9355SOL     OW39700   0.533   2.815   5.200 -0.1298  0.3516  0.0622
 9355SOL    HW139701   0.473   2.741   5.214  0.6790 -0.3479 -0.1434
 9355SOL    HW239702   0.605   2.761   5.166 -1.3507 -2.1546  1.4159
 9356SOL     OW39703   4.236   3.500   7.167 -0.6129 -0.5007  0.1391
 9356SOL    HW139704   4.252   3.592   7.148 -0.3841 -0.7772 -0.9981
 9356SOL    HW239705   4.287   3.454   7.100 -0.3076 -0.6410  0.4679
 9357SOL     OW39706   4.489   2.402  15.522 -0.6389  0.2221  0.2975
 9357SOL    HW139707   4.507   2.469  15.588 -3.4972 -0.1559  1.4366
 9357SOL    HW239708   4.423   2.345  15.560  0.0743 -1.1996 -0.5995
 9358SOL     OW39709   1.354   1.254   9.997  0.6838  0.1501 -0.0647
 9358SOL    HW139710   1.334   1.324   9.935 -0.2665  0.0354  0.1104
 9358SOL    HW239711   1.290   1.188   9.970  0.0088  0.4257  0.8798
 9359SOL     OW39712   3.501   3.093   1.068  0.0224  0.6108  0.0732
 9359SOL    HW139713   3.506   3.158   1.138 -1.1950  1.1894 -0.3764
 9359SOL    HW239714   3.591   3.106   1.037  0.1598 -1.7063 -0.5076
 9360SOL     OW39715   1.642   0.044   0.640  0.4493  0.3917 -0.1731
 9360SOL    HW139716   1.586   0.073   0.568 -0.2787 -0.5391  0.0173
 9360SOL    HW239717   1.727   0.076   0.607 -1.2639  2.2652 -2.8506
 9361SOL     OW39718   2.457   4.334   8.388  0.4976  0.5124 -0.9003
 9361SOL    HW139719   2.494   4.278   8.456 -0.6846 -0.7031 -1.2580
 9361SOL    HW239720   2.365   4.337   8.415  0.8433 -0.3487  0.3933
 9362SOL     OW39721   3.378   3.301   2.426 -0.2562 -0.4039  0.3276
 9362SOL    HW139722   3.335   3.377   2.464  2.2208  1.3882 -0.4368
 9362SOL    HW239723   3.318   3.227   2.421 -2.7600  1.6338  0.1832
 9363SOL     OW39724   1.568   1.058   7.850 -0.4305 -0.1588  0.2468
 9363SOL    HW139725   1.656   1.023   7.842 -0.3939  0.4343 -2.0441
 9363SOL    HW239726   1.521   0.981   7.882 -2.3180  1.4806  1.4150
 9364SOL     OW39727   3.818   0.281  12.081  0.3614 -0.1575 -0.4961
 9364SOL    HW139728   3.821   0.281  12.177 -0.6960 -1.7581 -0.4735
 9364SOL    HW239729   3.747   0.218  12.077 -1.1375  1.3901  1.4725
 9365SOL     OW39730   2.102   3.176   8.420  0.0416 -0.0127 -0.6603
 9365SOL    HW139731   2.173   3.237   8.439  0.7709 -1.4440  1.2581
 9365SOL    HW239732   2.032   3.238   8.401  1.5954  1.0328 -2.9809
 9366SOL     OW39733   0.553   3.597   3.100  0.1241  0.5354  0.4900
 9366SOL    HW139734   0.489   3.638   3.042  0.7987 -0.8221 -1.2188
 9366SOL    HW239735   0.539   3.504   3.081 -0.6276  0.7549 -0.0014
 9367SOL     OW39736   2.106   2.205   1.510  0.2484  0.6674  0.1875
 9367SOL    HW139737   2.114   2.165   1.597  0.4988 -1.7805 -0.9569
 9367SOL    HW239738   2.045   2.141   1.475  1.0352 -0.3317  0.6424
 9368SOL     OW39739   0.678   0.917   3.612  0.0927  0.1016 -0.0288
 9368SOL    HW139740   0.655   0.978   3.682 -0.3282 -0.9863  0.7842
 9368SOL    HW239741   0.647   0.833   3.647 -0.0904  0.4715  0.7135
 9369SOL     OW39742   3.007   0.437   9.135 -0.2515  0.1893 -0.0179
 9369SOL    HW139743   2.991   0.528   9.162 -0.6846  0.2767 -0.5596
 9369SOL    HW239744   3.096   0.421   9.164  0.6419  1.1019 -2.2515
 9370SOL     OW39745   0.447   2.574  14.209  0.5701 -0.2124  0.3053
 9370SOL    HW139746   0.502   2.499  14.232  0.8464  0.4779  1.8831
 9370SOL    HW239747   0.479   2.598  14.122 -1.3224 -0.0864 -0.3663
 9371SOL     OW39748   2.899   4.572   9.274  0.3042 -0.0038 -0.5570
 9371SOL    HW139749   2.962   4.527   9.330 -0.0777  1.7995  1.3483
 9371SOL    HW239750   2.837   4.608   9.338 -1.0845 -1.2830 -1.1541
 9372SOL     OW39751   3.632   3.802   8.398 -0.2304 -0.2322 -0.0399
 9372SOL    HW139752   3.715   3.791   8.445 -0.3661 -0.1315  0.2267
 9372SOL    HW239753   3.577   3.845   8.464 -0.0795 -0.7306  0.4156
 9373SOL     OW39754   1.140   1.283   2.915 -0.4171 -0.1543 -0.4823
 9373SOL    HW139755   1.221   1.234   2.926 -2.7801 -3.0069  4.1419
 9373SOL    HW239756   1.162   1.343   2.844  0.5189 -0.2846 -0.3117
 9374SOL     OW39757   0.770   1.408   4.268  0.6012 -0.4429 -0.5397
 9374SOL    HW139758   0.820   1.342   4.315 -0.8281  0.2601  1.9630
 9374SOL    HW239759   0.839   1.432   4.206 -0.6485 -1.4783 -2.3654
 9375SOL     OW39760   4.719   1.853  15.951  0.0209  0.7125 -0.0565
 9375SOL    HW139761   0.052   1.789  15.948 -1.0586 -0.5625  1.0532
 9375SOL    HW239762   4.647   1.796  15.978  0.1100  1.8084  2.5505
 9376SOL     OW39763   1.531   2.713   7.213  0.2079  0.3461  0.1655
 9376SOL    HW139764   1.607   2.659   7.233  0.0361 -0.0519 -0.2660
 9376SOL    HW239765   1.559   2.743   7.127  0.8596  2.7153  1.2075
 9377SOL     OW39766   1.938   3.348  10.482  0.3581  0.0403 -0.2540
 9377SOL    HW139767   2.025   3.308  10.477  1.2445  1.9809 -0.3509
 9377SOL    HW239768   1.885   3.276  10.517 -1.8614  1.1322 -1.3961
 9378SOL     OW39769   3.288   4.702   7.194  0.4078  0.7325 -0.5342
 9378SOL    HW139770   3.196   4.726   7.189  0.4401  1.1871  0.8582
 9378SOL    HW239771   3.321   0.028   7.257 -1.7967  2.0316 -0.7298
 9379SOL     OW39772   1.122   3.617  12.342 -0.4048  0.0316  0.2955
 9379SOL    HW139773   1.204   3.664  12.331  0.8037 -2.0482  0.4049
 9379SOL    HW239774   1.122   3.552  12.272  2.6022 -1.3684  1.5896
 9380SOL     OW39775   0.104   2.006   5.340 -0.0176 -0.2691  0.5685
 9380SOL    HW139776   0.126   1.930   5.287 -0.7399  0.5732 -0.9568
 9380SOL    HW239777   0.157   2.060   5.283  1.5940 -2.0746  0.3630
 9381SOL     OW39778   4.442   3.041   4.782  0.1751 -0.0649 -0.8482
 9381SOL    HW139779   4.529   3.049   4.743  0.0428  0.7031 -0.9959
 9381SOL    HW239780   4.466   3.005   4.868  0.2941 -0.3693 -1.0093
 9382SOL     OW39781   3.185   1.966   2.370 -0.1460  0.0302 -0.1275
 9382SOL    HW139782   3.272   1.936   2.342  0.0355  1.7457 -1.3773
 9382SOL    HW239783   3.141   1.885   2.396 -0.1343 -0.1834 -0.7767
 9383SOL     OW39784   3.609   4.247  10.472 -0.5721  0.5531 -0.4407
 9383SOL    HW139785   3.619   4.334  10.433  0.3484 -0.1679 -1.8394
 9383SOL    HW239786   3.633   4.194  10.396 -0.1622 -0.2759  0.2605
 9384SOL     OW39787   1.860   1.321   7.672 -0.5279  0.2156  0.0669
 9384SOL    HW139788   1.773   1.299   7.640  0.1248  1.5614 -2.6229
 9384SOL    HW239789   1.866   1.409   7.636  1.0925  0.1058  0.0416
 9385SOL     OW39790   1.412   3.576   8.106 -0.2977 -0.4788 -0.6865
 9385SOL    HW139791   1.335   3.574   8.048  0.3728 -1.6179 -1.5463
 9385SOL    HW239792   1.477   3.524   8.059  1.7674 -0.2470  1.9589
 9386SOL     OW39793   2.181   0.534   7.687  0.4636 -0.6553  0.2611
 9386SOL    HW139794   2.182   0.618   7.641  0.2919  0.3413  2.0376
 9386SOL    HW239795   2.274   0.510   7.695  0.3818 -0.9125  0.4275
 9387SOL     OW39796   4.036   2.115   8.691  0.0563  0.5053  0.2334
 9387SOL    HW139797   3.985   2.090   8.768 -0.1267  1.9267  0.5756
 9387SOL    HW239798   4.073   2.198   8.723 -0.9400  1.5123 -1.2753
 9388SOL     OW39799   0.551   2.498  17.298  0.2733  0.0296  0.1443
 9388SOL    HW139800   0.605   2.502  17.376  0.0546 -1.4547  0.3708
 9388SOL    HW239801   0.541   2.591  17.279  0.2702 -0.2949 -1.5071
 9389SOL     OW39802   0.959   0.143  14.894 -0.5549  0.0513 -0.0981
 9389SOL    HW139803   0.955   0.090  14.815  2.6245 -2.8455  1.6978
 9389SOL    HW239804   0.950   0.225  14.844 -1.4677  1.4640  2.3555
 9390SOL     OW39805   1.638   0.333  13.678  0.6202 -0.4645  0.9927
 9390SOL    HW139806   1.559   0.337  13.732 -0.0645 -1.1099  0.0317
 9390SOL    HW239807   1.698   0.288  13.738  0.2463 -0.5143  1.3304
 9391SOL     OW39808   2.849   2.490  11.232  0.1023 -0.1001  0.1682
 9391SOL    HW139809   2.758   2.516  11.224  0.0164 -0.7158 -0.8519
 9391SOL    HW239810   2.874   2.527  11.147 -2.4839  2.0519  0.3595
 9392SOL     OW39811   0.499   0.527   9.168  0.1753 -0.2325 -0.2665
 9392SOL    HW139812   0.461   0.497   9.251  0.1794  1.6267  0.4088
 9392SOL    HW239813   0.583   0.482   9.155  0.2378  0.1006 -0.9663
 9393SOL     OW39814   4.672   0.829  14.485  0.1295  0.2523 -0.4506
 9393SOL    HW139815   4.710   0.917  14.482 -0.5622  0.5275 -1.4026
 9393SOL    HW239816   4.666   0.796  14.395  1.5575  0.9464 -0.7956
 9394SOL     OW39817   0.154   2.773   5.819  0.4779  0.2508  0.0680
 9394SOL    HW139818   0.209   2.695   5.815 -0.1337 -0.0723 -2.0939
 9394SOL    HW239819   0.170   2.819   5.737  2.7944  0.8830  0.8647
 9395SOL     OW39820   4.253   1.156   9.151  0.1501  0.2397 -0.5594
 9395SOL    HW139821   4.246   1.145   9.246 -0.0952  0.7175 -0.5232
 9395SOL    HW239822   4.336   1.203   9.147  0.5381 -0.3318  0.9834
 9396SOL     OW39823   3.712   1.221  12.693  0.0892  0.3809 -0.0881
 9396SOL    HW139824   3.724   1.130  12.723 -0.7129 -0.5941 -2.6982
 9396SOL    HW239825   3.689   1.268  12.773 -1.9710 -1.7233  0.5757
 9397SOL     OW39826   0.909   4.126   5.756 -0.5238 -0.5020  0.0646
 9397SOL    HW139827   0.849   4.158   5.824 -0.7284  0.7708 -0.7100
 9397SOL    HW239828   0.997   4.110   5.790  0.0300 -1.6047 -1.8944
 9398SOL     OW39829   1.404   4.007   5.991  0.9687  0.7374  0.0157
 9398SOL    HW139830   1.457   4.087   5.984  0.1960  1.2228 -0.4065
 9398SOL    HW239831   1.350   4.018   6.070  0.1734  0.5338 -0.5002
 9399SOL     OW39832   2.224   3.430   4.021  0.4295  0.1490 -0.5587
 9399SOL    HW139833   2.268   3.360   3.974  0.7568  0.7285 -1.1149
 9399SOL    HW239834   2.279   3.436   4.099 -0.0700 -0.6227 -0.1493
 9400SOL     OW39835   2.669   0.571   5.131  0.4889 -0.7535  0.1093
 9400SOL    HW139836   2.669   0.519   5.212  0.6820 -0.0359  0.5710
 9400SOL    HW239837   2.584   0.613   5.138  0.8050  0.0687 -0.9217
 9401SOL     OW39838   3.229   1.076  16.599 -0.5372 -0.7241 -0.1800
 9401SOL    HW139839   3.216   0.981  16.600  1.4564 -1.0034 -1.3403
 9401SOL    HW239840   3.294   1.092  16.531 -0.0162 -0.1303  0.4571
 9402SOL     OW39841   2.713   3.840   4.476 -0.0841  0.2330 -0.4497
 9402SOL    HW139842   2.752   3.789   4.547 -2.1219  2.0541  1.9934
 9402SOL    HW239843   2.696   3.925   4.516  2.1241 -0.6796  2.4325
 9403SOL     OW39844   2.424   3.284   7.719  0.0829  0.1102 -0.0339
 9403SOL    HW139845   2.339   3.320   7.691 -0.8398 -1.5101  0.7052
 9403SOL    HW239846   2.410   3.267   7.812 -0.1056 -0.7911 -0.2321
 9404SOL     OW39847   3.463   0.636   8.842 -0.5571  0.2754  0.1623
 9404SOL    HW139848   3.370   0.651   8.862 -1.1013 -1.0795 -1.3118
 9404SOL    HW239849   3.505   0.717   8.870  1.8216 -0.2967 -1.7800
 9405SOL     OW39850   4.001   4.382   5.609  0.3008 -0.6334 -0.1814
 9405SOL    HW139851   4.036   4.353   5.526  0.5363  0.4227 -0.4562
 9405SOL    HW239852   4.046   4.464   5.631  0.9695 -1.0333 -0.0961
 9406SOL     OW39853   2.499   3.440  10.317 -0.4396  0.1767  0.6071
 9406SOL    HW139854   2.527   3.531  10.321 -0.6248  0.2741 -0.5117
 9406SOL    HW239855   2.514   3.425  10.411 -0.2504 -0.1624  0.5218
 9407SOL     OW39856   3.988   1.373   3.279  0.3587 -0.3746  0.6733
 9407SOL    HW139857   3.932   1.305   3.240  1.4634 -1.0424  0.2544
 9407SOL    HW239858   3.932   1.451   3.277 -0.3620 -0.8674  1.6394
 9408SOL     OW39859   2.205   1.836  10.163 -0.0216 -0.0939  0.1637
 9408SOL    HW139860   2.123   1.863  10.205  0.3983  1.6895 -0.1431
 9408SOL    HW239861   2.257   1.916  10.156  0.6578 -0.5434  0.1395
 9409SOL     OW39862   3.356   1.826  11.275 -0.3219  0.6938 -0.1189
 9409SOL    HW139863   3.422   1.869  11.329 -2.4700  2.3831  1.1749
 9409SOL    HW239864   3.396   1.824  11.188  0.0622  0.2457  0.0700
 9410SOL     OW39865   1.872   0.062  14.267  0.0679  0.5160 -0.0714
 9410SOL    HW139866   1.779   0.078  14.250 -0.1461  2.6318  3.0734
 9410SOL    HW239867   1.894   0.036  14.177 -1.3188 -0.8830 -0.0085
 9411SOL     OW39868   1.608   1.514  11.695 -0.1186 -0.3612  0.2988
 9411SOL    HW139869   1.513   1.511  11.706 -0.0512 -0.3467  0.9130
 9411SOL    HW239870   1.617   1.458  11.618 -0.2910 -2.6045  1.9019
 9412SOL     OW39871   4.242   0.321   3.055 -0.1967  0.2949  0.3207
 9412SOL    HW139872   4.161   0.362   3.086 -0.4706  0.3174 -0.4502
 9412SOL    HW239873   4.265   0.389   2.991 -0.0166  0.6142  0.7215
 9413SOL     OW39874   2.977   3.030   6.127  0.3204  0.1601 -0.0020
 9413SOL    HW139875   2.913   3.078   6.180 -0.4138  0.1115 -0.8381
 9413SOL    HW239876   2.920   3.018   6.051 -0.1152 -2.3176  0.7414
 9414SOL     OW39877   3.275   2.447   2.783 -0.2225  0.6248  0.5467
 9414SOL    HW139878   3.190   2.416   2.753  0.4753 -1.5416  0.8322
 9414SOL    HW239879   3.291   2.521   2.724  1.4112 -0.8123 -0.8045
 9415SOL     OW39880   0.252   1.937   4.736  0.5523 -0.3201 -0.3244
 9415SOL    HW139881   0.264   1.874   4.665  0.0676  0.3549 -1.0018
 9415SOL    HW239882   0.336   1.981   4.731  0.3365  0.0938 -0.2603
 9416SOL     OW39883   2.268   3.359   5.198 -0.2179  0.2146  0.3491
 9416SOL    HW139884   2.187   3.373   5.149 -0.2261  1.4702  0.7274
 9416SOL    HW239885   2.308   3.287   5.150  2.5275  2.2197 -0.3878
 9417SOL     OW39886   0.811   4.015  11.256 -0.1859  0.2393 -0.4778
 9417SOL    HW139887   0.805   4.094  11.202  0.2312  0.0114 -0.8562
 9417SOL    HW239888   0.902   4.026  11.282 -0.1653  0.2737 -0.5654
 9418SOL     OW39889   0.547   0.056   6.763 -0.2251  0.3034  0.2614
 9418SOL    HW139890   0.590   0.059   6.678  0.9110  2.4386  0.9144
 9418SOL    HW239891   0.553   4.700   6.779 -0.1156  0.4541  1.1469
 9419SOL     OW39892   2.347   4.337   2.805  0.0077  0.4176 -0.2203
 9419SOL    HW139893   2.382   4.387   2.731 -1.0065 -0.2300 -1.1501
 9419SOL    HW239894   2.252   4.354   2.799 -0.1376 -0.4286 -0.2825
 9420SOL     OW39895   3.820   0.410   6.557  0.3435 -0.5108 -0.1372
 9420SOL    HW139896   3.827   0.315   6.546  2.6779 -0.7706  3.4154
 9420SOL    HW239897   3.745   0.425   6.501  1.4569 -1.8820 -1.9931
 9421SOL     OW39898   0.929   2.479   9.011  0.3008  0.1405 -0.1581
 9421SOL    HW139899   0.989   2.530   9.065  0.2317  0.0105  0.0406
 9421SOL    HW239900   0.851   2.533   9.022  0.0991 -0.2692  0.4104
 9422SOL     OW39901   1.855   2.123  12.795  0.6641 -0.1601  0.0188
 9422SOL    HW139902   1.912   2.085  12.862  0.0425 -1.8876 -0.4260
 9422SOL    HW239903   1.771   2.104  12.838  1.5043  0.3162  1.8623
 9423SOL     OW39904   3.210   0.575   6.277  0.3051  0.1629  0.5885
 9423SOL    HW139905   3.253   0.562   6.192 -3.0417 -0.6327 -0.9977
 9423SOL    HW239906   3.116   0.568   6.261  0.0234  0.0828  2.3756
 9424SOL     OW39907   0.351   0.761   5.851  0.4113  0.8559 -0.0159
 9424SOL    HW139908   0.307   0.787   5.770 -2.2090 -0.4282  0.9952
 9424SOL    HW239909   0.270   0.769   5.902  0.8796  0.9401  0.7039
 9425SOL     OW39910   3.830   0.721   2.889  0.1975  0.0207  1.2655
 9425SOL    HW139911   3.755   0.778   2.874  1.3555  0.7834 -1.5771
 9425SOL    HW239912   3.880   0.784   2.942  1.7459 -1.0709  1.1017
 9426SOL     OW39913   1.632   2.757   2.116 -0.3476 -0.6623  0.2667
 9426SOL    HW139914   1.555   2.705   2.091 -0.1690 -0.8479  0.1048
 9426SOL    HW239915   1.639   2.813   2.038  0.9057  1.6075  1.9816
 9427SOL     OW39916   2.623   2.176   6.465 -0.0022 -0.2795 -0.4684
 9427SOL    HW139917   2.618   2.256   6.412 -0.6086  0.0432  0.0724
 9427SOL    HW239918   2.534   2.141   6.459 -0.6833  1.2358  0.5352
 9428SOL     OW39919   1.631   0.711   8.563 -0.3309 -0.7683  0.2275
 9428SOL    HW139920   1.616   0.804   8.580 -0.6485 -0.6195 -0.8671
 9428SOL    HW239921   1.554   0.692   8.509  0.0405 -0.7892 -0.2948
 9429SOL     OW39922   2.436   3.322  16.124  0.2537  0.4463 -0.0711
 9429SOL    HW139923   2.402   3.384  16.188  1.1357  0.3175  0.5333
 9429SOL    HW239924   2.516   3.365  16.095  1.3839 -1.0052  0.8637
 9430SOL     OW39925   0.819   2.188   8.292  0.2381 -0.4474 -0.0993
 9430SOL    HW139926   0.765   2.131   8.347  1.5525  0.9533  2.6502
 9430SOL    HW239927   0.825   2.271   8.340 -0.3618 -0.5145  0.0964
 9431SOL     OW39928   4.104   3.411   0.543  0.5097 -0.1876 -0.1984
 9431SOL    HW139929   4.019   3.368   0.547 -0.7816  2.1361 -2.9338
 9431SOL    HW239930   4.087   3.479   0.478  0.3019 -0.7587 -0.7299
 9432SOL     OW39931   2.753   0.127   2.123  0.3707  0.3149 -0.0822
 9432SOL    HW139932   2.795   0.199   2.171  0.5142 -0.1652  0.5236
 9432SOL    HW239933   2.739   0.173   2.041 -0.4884 -0.6698 -0.4772
 9433SOL     OW39934   3.171   4.562   4.933 -0.4055 -0.1559 -0.0112
 9433SOL    HW139935   3.137   4.584   5.020  1.6083  0.4964  0.6023
 9433SOL    HW239936   3.245   4.621   4.918 -1.0546  0.7850  0.4577
 9434SOL     OW39937   3.665   4.411   5.911 -0.0548  0.1731  0.0370
 9434SOL    HW139938   3.651   4.477   5.843 -0.5590 -0.7126 -0.7285
 9434SOL    HW239939   3.756   4.430   5.936 -0.4051  0.9796  0.6661
 9435SOL     OW39940   1.830   2.625   9.192 -0.0838  0.2989  0.0501
 9435SOL    HW139941   1.833   2.614   9.097 -1.0329 -1.2756  0.2163
 9435SOL    HW239942   1.921   2.640   9.217 -0.2565 -0.5207  1.1758
 9436SOL     OW39943   0.185   3.641   9.443 -0.0932  0.0159 -0.2523
 9436SOL    HW139944   0.253   3.708   9.451  0.1547 -0.0931 -1.5058
 9436SOL    HW239945   0.192   3.606   9.532  0.6847 -1.0091 -0.7299
 9437SOL     OW39946   3.102   0.169   9.984  0.2622 -0.1004  0.4309
 9437SOL    HW139947   3.059   0.246  10.022 -0.1264  0.5259 -1.3070
 9437SOL    HW239948   3.034   0.133   9.928 -0.0256 -1.5362  1.7228
 9438SOL     OW39949   1.825   3.909  12.331  0.1229 -0.0126 -0.2410
 9438SOL    HW139950   1.880   3.892  12.254 -0.9654 -2.5444 -0.4900
 9438SOL    HW239951   1.794   3.820  12.346 -0.1218  0.3698  1.4879
 9439SOL     OW39952   0.735   4.225  11.071  0.3660 -0.0286  0.4861
 9439SOL    HW139953   0.779   4.308  11.057  0.1618 -0.1360 -0.8134
 9439SOL    HW239954   0.646   4.256  11.086  0.9247  1.0259  1.5787
 9440SOL     OW39955   2.702   2.727   7.402  0.0635 -0.2528 -0.3181
 9440SOL    HW139956   2.629   2.715   7.342 -1.0783  0.3373  0.9587
 9440SOL    HW239957   2.693   2.821   7.417 -0.5563 -0.0362 -2.0152
 9441SOL     OW39958   3.263   2.340   0.252 -0.1631  0.3425  0.6255
 9441SOL    HW139959   3.246   2.344   0.158 -0.2489  0.0804  0.6291
 9441SOL    HW239960   3.242   2.431   0.270  0.2544  0.5123  0.2574
 9442SOL     OW39961   0.923   3.668   5.951  0.0915 -0.0094 -0.4103
 9442SOL    HW139962   0.869   3.633   5.880  2.5245 -2.1554 -1.2165
 9442SOL    HW239963   0.893   3.610   6.020 -0.4543 -0.3122 -0.8995
 9443SOL     OW39964   1.145   0.949   2.891 -0.5598  0.1964 -0.3913
 9443SOL    HW139965   1.130   0.937   2.797  1.0149 -0.3824 -0.5680
 9443SOL    HW239966   1.218   1.010   2.887 -0.6511  0.1330 -2.9469
 9444SOL     OW39967   4.283   3.362   2.177 -0.0746  0.1846 -0.6847
 9444SOL    HW139968   4.314   3.271   2.172  2.0502  1.0108 -2.7325
 9444SOL    HW239969   4.359   3.409   2.211 -1.0309  1.5201 -0.4198
 9445SOL     OW39970   3.950   3.766  14.853 -0.1193 -0.1579  0.6957
 9445SOL    HW139971   3.899   3.698  14.809  0.0162  1.1855 -1.4987
 9445SOL    HW239972   3.884   3.828  14.886 -0.5883 -0.2388 -0.0984
 9446SOL     OW39973   2.942   0.978   9.571  0.4857  0.6466 -0.2095
 9446SOL    HW139974   3.017   1.028   9.538  0.6889  2.1418  2.5021
 9446SOL    HW239975   2.980   0.896   9.602 -0.9676 -0.5455 -1.6042
 9447SOL     OW39976   3.725   2.670   5.296  0.4111 -0.1913  0.8846
 9447SOL    HW139977   3.722   2.603   5.364  2.7473 -0.5051  0.6947
 9447SOL    HW239978   3.725   2.617   5.216  0.4244  1.2821 -0.0889
 9448SOL     OW39979   1.353   1.124   2.879  0.2445  0.0260  0.0845
 9448SOL    HW139980   1.425   1.104   2.939 -0.9133  0.7911  1.7356
 9448SOL    HW239981   1.400   1.134   2.796 -0.7528 -0.7160 -0.5610
 9449SOL     OW39982   1.013   2.247   5.939  0.1619 -0.0068 -0.5346
 9449SOL    HW139983   1.028   2.331   5.981  1.5416 -0.9566  0.8739
 9449SOL    HW239984   1.104   2.217   5.932  0.2762  0.7003 -2.2468
 9450SOL     OW39985   0.319   0.964   7.731  0.4113  0.3387 -0.1718
 9450SOL    HW139986   0.224   0.961   7.744  0.5413  0.1801  0.7942
 9450SOL    HW239987   0.341   0.962   7.824  0.3521  3.8313 -0.0965
 9451SOL     OW39988   4.556   4.026  14.082  0.0565  0.1730  0.0222
 9451SOL    HW139989   4.564   4.122  14.086 -1.0252  0.3186 -1.4545
 9451SOL    HW239990   4.465   4.010  14.058 -0.3080  0.8068  0.9578
 9452SOL     OW39991   2.010   1.281   2.501 -0.1919  0.2781 -0.2282
 9452SOL    HW139992   1.979   1.301   2.589 -1.7209 -0.9631 -0.4901
 9452SOL    HW239993   2.101   1.262   2.525 -0.7815 -3.0778 -0.5924
 9453SOL     OW39994   2.295   0.279  13.463  0.4363 -0.3320  0.3739
 9453SOL    HW139995   2.266   0.322  13.543  0.0070  0.1239 -0.0274
 9453SOL    HW239996   2.263   0.328  13.387 -2.0483 -0.6769  1.2205
 9454SOL     OW39997   4.119   4.140   7.865 -0.3849  0.5762  0.5555
 9454SOL    HW139998   4.124   4.161   7.772  0.4888 -2.1766 -0.0229
 9454SOL    HW239999   4.197   4.183   7.902  1.9374 -2.5836 -0.6835
 9455SOL     OW40000   1.163   1.294   4.804  0.0419 -0.3077  0.6628
 9455SOL    HW140001   1.196   1.374   4.764  0.1290 -0.2853  0.7759
 9455SOL    HW240002   1.185   1.236   4.731  0.3484  0.0297  0.4882
 9456SOL     OW40003   2.614   2.349   5.544  0.1640 -0.1606 -0.1059
 9456SOL    HW140004   2.580   2.294   5.474 -0.2126  0.0844 -0.1181
 9456SOL    HW240005   2.704   2.370   5.521  0.5792  0.3050  1.9233
 9457SOL     OW40006   1.381   1.614  17.531 -0.2124  0.2026  0.0553
 9457SOL    HW140007   1.348   1.527  17.509 -1.6590  0.5145  0.9294
 9457SOL    HW240008   1.315   1.641  17.595  0.6562 -0.3454  1.1757
 9458SOL     OW40009   1.267   2.469   3.612  0.4082  0.0011 -0.8918
 9458SOL    HW140010   1.186   2.487   3.658  1.0176 -0.1751  0.2592
 9458SOL    HW240011   1.240   2.513   3.532  1.3263  2.1060 -0.0451
 9459SOL     OW40012   4.703   0.113   9.218 -0.2132  0.3638 -0.0117
 9459SOL    HW140013   4.643   0.074   9.281  2.7890  0.4196  2.8694
 9459SOL    HW240014   0.047   0.084   9.257 -0.0742 -0.2839 -0.7674
 9460SOL     OW40015   2.779   4.305  16.479 -0.9023  0.1096  0.1337
 9460SOL    HW140016   2.804   4.295  16.387  3.9496  3.4653  1.1074
 9460SOL    HW240017   2.740   4.393  16.480  1.1570  1.0223 -0.6115
 9461SOL     OW40018   3.823   0.171   9.286 -0.6307  0.5676  0.0822
 9461SOL    HW140019   3.826   0.246   9.226  0.2630  0.0675 -0.5161
 9461SOL    HW240020   3.815   0.213   9.371  0.6976  1.8236 -0.3979
 9462SOL     OW40021   3.133   1.146   7.670  0.0334 -0.0613  0.1139
 9462SOL    HW140022   3.094   1.228   7.642 -0.6047  0.2801  2.0008
 9462SOL    HW240023   3.065   1.124   7.734 -1.5893 -0.1659 -1.6450
 9463SOL     OW40024   2.249   3.660  14.552  0.7887  0.4334  0.4111
 9463SOL    HW140025   2.302   3.704  14.486 -1.8121 -1.7226 -3.0558
 9463SOL    HW240026   2.281   3.715  14.624  2.0370 -1.2791  1.1754
 9464SOL     OW40027   4.615   2.633  12.463  0.2649  0.4249 -0.1780
 9464SOL    HW140028   4.637   2.726  12.461  0.0689  0.4769  0.0308
 9464SOL    HW240029   4.582   2.624  12.374 -2.0944  2.2594  0.4914
 9465SOL     OW40030   2.344   3.954   5.681 -0.6943  0.1761  0.6854
 9465SOL    HW140031   2.256   3.983   5.659 -0.2790 -0.5926 -1.9774
 9465SOL    HW240032   2.391   4.034   5.658  0.9133 -1.2987 -1.1527
 9466SOL     OW40033   1.182   2.185   4.870  0.5879  0.1949 -0.2253
 9466SOL    HW140034   1.198   2.094   4.848  1.7127  0.5816 -1.0151
 9466SOL    HW240035   1.261   2.223   4.831  1.2545  0.4564  1.3784
 9467SOL     OW40036   0.881   3.937   7.092 -0.1046  0.1631 -0.3551
 9467SOL    HW140037   0.875   3.846   7.063 -0.6296  0.4009 -0.9779
 9467SOL    HW240038   0.872   3.977   7.006 -0.6541 -0.9277 -0.8113
 9468SOL     OW40039   3.371   3.915   2.789  0.0917 -0.0796 -0.5110
 9468SOL    HW140040   3.365   4.007   2.761  1.9973  0.1544 -0.1816
 9468SOL    HW240041   3.402   3.923   2.879  2.1093  1.8273 -1.3495
 9469SOL     OW40042   2.279   0.804   3.304 -0.1758 -0.1293  0.1073
 9469SOL    HW140043   2.347   0.838   3.247 -0.8940 -0.0784 -0.7131
 9469SOL    HW240044   2.310   0.714   3.314  1.9709  0.7625  1.4795
 9470SOL     OW40045   3.670   2.193   0.862 -0.3243 -0.3886  0.2748
 9470SOL    HW140046   3.628   2.256   0.804  0.4676  0.9928  1.1989
 9470SOL    HW240047   3.626   2.199   0.946  0.5436 -0.6197  0.7566
 9471SOL     OW40048   0.640   4.224   7.789  0.0940  0.0398 -0.3329
 9471SOL    HW140049   0.556   4.253   7.754  1.0536  1.8617 -1.1113
 9471SOL    HW240050   0.610   4.173   7.864  0.8499 -0.5740 -0.4394
 9472SOL     OW40051   3.338   4.386  16.647  0.4419  0.5798  0.2244
 9472SOL    HW140052   3.387   4.305  16.636  2.1454  1.0778  4.0107
 9472SOL    HW240053   3.407   4.450  16.630  0.0938  1.4030  1.8704
 9473SOL     OW40054   0.873   1.243   6.981  0.1083 -0.0013  0.2327
 9473SOL    HW140055   0.940   1.312   6.985 -0.0515  0.0392  2.0545
 9473SOL    HW240056   0.821   1.279   6.908 -0.2108 -0.3282  0.3026
 9474SOL     OW40057   2.285   3.647   6.030 -0.4524 -0.1650 -0.1620
 9474SOL    HW140058   2.333   3.656   5.948 -0.4506 -0.6705 -0.2183
 9474SOL    HW240059   2.198   3.686   6.026 -1.2005 -1.7188  1.2084
 9475SOL     OW40060   3.485   0.382  13.115 -0.1193 -0.1385  0.4889
 9475SOL    HW140061   3.440   0.380  13.200 -0.0923 -2.7044  0.4542
 9475SOL    HW240062   3.487   0.476  13.102  1.9173 -0.2541  0.0024
 9476SOL     OW40063   3.268   0.337  17.740  0.0515  0.5018  0.4221
 9476SOL    HW140064   3.306   0.377  17.662  0.5228 -0.1082  0.3413
 9476SOL    HW240065   3.317   0.254  17.735 -0.9761 -0.1595  1.1744
 9477SOL     OW40066   0.605   2.291   6.347  0.0175  0.6416  0.0651
 9477SOL    HW140067   0.689   2.302   6.301  0.9422 -1.7205  1.1852
 9477SOL    HW240068   0.571   2.221   6.292 -0.6846 -0.1538  1.4998
 9478SOL     OW40069   3.369   2.821   7.905  0.0327  0.3940 -0.2353
 9478SOL    HW140070   3.442   2.766   7.877  1.6398  2.0714  0.6626
 9478SOL    HW240071   3.348   2.866   7.823 -0.5357 -0.2947 -0.4676
 9479SOL     OW40072   1.206   2.834  12.058 -0.0653 -0.1468  0.0577
 9479SOL    HW140073   1.185   2.784  11.979  2.4748 -2.0189  0.5583
 9479SOL    HW240074   1.193   2.921  12.020  2.3186 -0.0725 -0.6174
 9480SOL     OW40075   4.567   2.336   8.797  0.2773  0.2662  0.3186
 9480SOL    HW140076   4.618   2.383   8.731  1.8551 -2.2262 -0.2141
 9480SOL    HW240077   4.614   2.255   8.816 -0.7739  0.1958  2.6378
 9481SOL     OW40078   2.770   1.563   9.151 -0.2670 -0.1819 -0.4405
 9481SOL    HW140079   2.822   1.643   9.157  0.9244 -0.9071 -0.9819
 9481SOL    HW240080   2.820   1.507   9.091  1.8233  2.0980 -0.8051
 9482SOL     OW40081   4.572   2.311   4.000 -0.5447 -0.4670  0.0495
 9482SOL    HW140082   4.631   2.307   3.925  0.6957 -0.4999  1.0312
 9482SOL    HW240083   4.535   2.396   3.975 -0.3992 -0.6934 -0.9454
 9483SOL     OW40084   2.745   1.268  11.386 -0.0741  0.0062  0.0336
 9483SOL    HW140085   2.718   1.350  11.344  0.3993 -0.2618 -0.7951
 9483SOL    HW240086   2.827   1.288  11.431 -0.8212 -0.0843  1.4553
 9484SOL     OW40087   2.168   3.093   3.194 -0.2978  0.1398  0.1050
 9484SOL    HW140088   2.258   3.113   3.170  0.1304 -1.1914  0.6426
 9484SOL    HW240089   2.129   3.176   3.165  1.4678  1.4184  1.4443
 9485SOL     OW40090   0.110   1.743   7.346 -0.2585 -0.4905 -0.7626
 9485SOL    HW140091   0.068   1.707   7.268  0.1602  0.4710 -1.4436
 9485SOL    HW240092   0.047   1.756   7.416 -1.6613 -1.1537 -1.9073
 9486SOL     OW40093   1.117   2.024   6.222 -0.0556  0.5166  0.9834
 9486SOL    HW140094   1.049   2.056   6.282 -0.0990  1.1120  0.6147
 9486SOL    HW240095   1.104   1.929   6.222  0.2039  0.4826  0.0442
 9487SOL     OW40096   0.827   0.057   9.481 -0.6380 -0.1196 -0.2707
 9487SOL    HW140097   0.853   0.031   9.569  1.4324 -0.4439 -0.9932
 9487SOL    HW240098   0.787   0.141   9.506  1.5638  0.5424  0.9624
 9488SOL     OW40099   4.325   2.476   6.951  0.1175 -0.1770  0.0641
 9488SOL    HW140100   4.377   2.406   6.911  1.0246  1.4133 -1.5471
 9488SOL    HW240101   4.332   2.446   7.041  0.9595 -1.4007 -0.3994
 9489SOL     OW40102   4.072   3.608   0.345  0.6594  0.1807  0.1511
 9489SOL    HW140103   4.162   3.623   0.318 -0.2956  0.4087 -2.8960
 9489SOL    HW240104   4.041   3.691   0.381 -0.8169 -0.0919 -0.4897
 9490SOL     OW40105   3.983   2.497   9.874  0.1471  0.3551  0.8534
 9490SOL    HW140106   4.050   2.441   9.836  0.1222  0.6270  0.4102
 9490SOL    HW240107   3.980   2.469   9.965 -0.0540 -0.2930  0.6485
 9491SOL     OW40108   4.419   2.036  17.629 -0.1118  0.0143  0.3433
 9491SOL    HW140109   4.465   2.038  17.545  0.4972  0.6834  0.6958
 9491SOL    HW240110   4.388   2.123  17.654 -0.3128  0.2021 -0.5612
 9492SOL     OW40111   1.148   4.542   4.082  0.1241 -0.2253 -0.4736
 9492SOL    HW140112   1.146   4.516   4.174  1.1763  0.8465 -0.1391
 9492SOL    HW240113   1.111   4.629   4.096 -1.9387 -1.1311 -0.3721
 9493SOL     OW40114   2.382   4.073   6.662 -0.2976 -0.6776 -0.6514
 9493SOL    HW140115   2.355   4.137   6.596  0.6316  0.7897  0.4096
 9493SOL    HW240116   2.448   4.122   6.711  0.5641 -2.0960 -0.3854
 9494SOL     OW40117   2.442   1.131  14.790 -0.0298 -0.3432 -0.4683
 9494SOL    HW140118   2.477   1.045  14.814 -1.2377 -1.2720 -2.0449
 9494SOL    HW240119   2.507   1.193  14.822 -0.7306 -0.0894  0.4789
 9495SOL     OW40120   0.014   3.707   5.194 -0.2208 -0.5241 -0.2571
 9495SOL    HW140121   4.667   3.724   5.154  0.2180 -0.2727 -1.0822
 9495SOL    HW240122   0.031   3.619   5.161 -1.6292 -1.1583  0.7211
 9496SOL     OW40123   2.872   3.100   1.713 -0.0757 -0.2321  0.4617
 9496SOL    HW140124   2.932   3.168   1.745 -0.7368 -0.1071  1.4286
 9496SOL    HW240125   2.858   3.045   1.790 -0.4842 -0.1249  0.4659
 9497SOL     OW40126   2.848   1.585   4.508  0.0107 -0.7052  0.3417
 9497SOL    HW140127   2.760   1.596   4.545  0.0877  0.4623  0.1979
 9497SOL    HW240128   2.892   1.664   4.539 -0.5448 -0.1433 -0.3056
 9498SOL     OW40129   1.617   4.267   3.368  0.2587 -0.4042  0.4990
 9498SOL    HW140130   1.555   4.196   3.386 -0.7262  0.1696 -0.6006
 9498SOL    HW240131   1.675   4.223   3.306 -3.3422  0.5437 -3.5747
 9499SOL     OW40132   3.619   4.331  15.500 -0.1841 -1.4163  0.3947
 9499SOL    HW140133   3.605   4.413  15.453 -0.9901  0.5422  4.0645
 9499SOL    HW240134   3.713   4.316  15.495 -0.1728 -1.3902  0.5351
 9500SOL     OW40135   4.528   2.560  14.456 -0.3380  0.6232 -0.4947
 9500SOL    HW140136   4.616   2.524  14.445  0.0221  1.3794 -0.0766
 9500SOL    HW240137   4.493   2.591  14.373 -1.8722  0.0118 -0.0882
 9501SOL     OW40138   3.012   2.857   7.422 -0.2339 -0.2158 -0.0437
 9501SOL    HW140139   2.956   2.883   7.349  1.1641  1.3008 -0.5596
 9501SOL    HW240140   3.010   2.947   7.455  0.9894 -0.1701 -0.1125
 9502SOL     OW40141   1.319   3.457  11.381 -0.2875 -0.0924 -0.6913
 9502SOL    HW140142   1.356   3.391  11.322  3.4516  0.4754  0.9999
 9502SOL    HW240143   1.281   3.509  11.310 -2.1689 -0.1765  0.2706
 9503SOL     OW40144   3.802   0.732  14.723  0.2839 -0.3296  0.0614
 9503SOL    HW140145   3.788   0.686  14.806  0.7462  0.9686  0.8718
 9503SOL    HW240146   3.737   0.676  14.680  0.2249 -0.2536  0.0513
 9504SOL     OW40147   0.559   2.310   4.530 -0.1891 -0.2112  0.3643
 9504SOL    HW140148   0.537   2.403   4.530  0.7417  0.0104 -0.4561
 9504SOL    HW240149   0.624   2.302   4.600 -0.1889 -1.6674  0.2054
 9505SOL     OW40150   4.412   3.156   7.244  0.3937 -0.4181  0.3510
 9505SOL    HW140151   4.420   3.092   7.174 -0.8300 -2.2717  1.8991
 9505SOL    HW240152   4.324   3.189   7.222  0.1546 -1.0594  0.3524
 9506SOL     OW40153   4.381   4.672   7.972 -0.3860 -0.3237 -0.0967
 9506SOL    HW140154   4.414   0.023   7.969  1.1315 -0.8453  1.1611
 9506SOL    HW240155   4.328   4.666   7.893  1.2026  0.8894 -1.2669
 9507SOL     OW40156   1.918   3.229   3.449  0.3540  0.9886  0.1346
 9507SOL    HW140157   1.914   3.324   3.435  0.8606  0.8463 -0.9317
 9507SOL    HW240158   1.918   3.196   3.359 -1.9917  0.5275  0.2969
 9508SOL     OW40159   3.014   0.156   6.433  0.3257  0.0911  0.1021
 9508SOL    HW140160   3.041   0.227   6.490  2.4989  0.4816 -1.3971
 9508SOL    HW240161   3.090   0.099   6.439 -0.0212 -0.6032 -1.8782
 9509SOL     OW40162   1.192   3.054   1.467 -0.1904 -0.2987 -0.4640
 9509SOL    HW140163   1.288   3.048   1.472 -0.1863 -0.8895 -1.2635
 9509SOL    HW240164   1.181   3.147   1.484  0.3265  0.1962 -2.7477
 9510SOL     OW40165   0.736   2.989   0.958 -0.1945  0.0960 -0.1016
 9510SOL    HW140166   0.765   2.917   0.901  0.8105  1.6535 -1.5518
 9510SOL    HW240167   0.760   2.955   1.044 -0.0283 -3.3780 -1.4908
 9511SOL     OW40168   0.027   4.693  16.545 -0.0994  0.5510  0.2235
 9511SOL    HW140169   4.726   0.003  16.472  0.3237  0.1753 -0.2558
 9511SOL    HW240170   0.086   4.635  16.496 -0.8727  0.1445 -0.2376
 9512SOL     OW40171   1.312   2.845   4.745  0.5101 -0.0907 -0.4461
 9512SOL    HW140172   1.252   2.803   4.807  1.2814 -0.3039  0.1466
 9512SOL    HW240173   1.393   2.804   4.773 -0.0009 -0.5326  0.3878
 9513SOL     OW40174   2.973   1.197  11.556  0.0645 -0.1611 -0.1246
 9513SOL    HW140175   3.068   1.201  11.558 -0.0943  3.1427  0.0983
 9513SOL    HW240176   2.951   1.235  11.642  0.3405  0.1837 -0.2076
 9514SOL     OW40177   1.147   4.398   9.488 -0.1329  0.1309 -0.0462
 9514SOL    HW140178   1.224   4.385   9.542 -0.9501  0.9461  1.3268
 9514SOL    HW240179   1.145   4.494   9.498 -1.2552 -0.3150  3.7240
 9515SOL     OW40180   1.546   3.903   7.035 -0.5666 -0.2627 -0.1027
 9515SOL    HW140181   1.562   3.994   7.010  0.8874 -0.7060 -0.8348
 9515SOL    HW240182   1.635   3.889   7.068 -1.1171 -0.9726  1.0625
 9516SOL     OW40183   3.490   3.932  11.854  0.9423 -0.3046  0.2683
 9516SOL    HW140184   3.579   3.955  11.880  1.6066 -1.4741 -0.9186
 9516SOL    HW240185   3.506   3.912  11.761 -2.2660  0.1287 -0.3555
 9517SOL     OW40186   2.847   4.408  16.825 -0.0432  0.1673 -0.7223
 9517SOL    HW140187   2.763   4.372  16.796  0.4063 -1.1967 -0.3384
 9517SOL    HW240188   2.885   4.448  16.747 -0.6637  0.8099 -0.6891
 9518SOL     OW40189   1.916   3.021   6.711 -0.2585 -0.3791  0.3108
 9518SOL    HW140190   1.950   2.932   6.701 -3.4806 -1.7283  1.2803
 9518SOL    HW240191   1.881   3.033   6.623  1.1806  0.1248 -0.1895
 9519SOL     OW40192   1.477   3.787   4.220 -0.0274 -0.4061  0.1460
 9519SOL    HW140193   1.500   3.703   4.180  1.6204  0.0385  0.1576
 9519SOL    HW240194   1.506   3.775   4.310  0.7517 -0.9717 -0.1760
 9520SOL     OW40195   0.623   1.200   3.679 -0.1920  0.2158 -0.2061
 9520SOL    HW140196   0.675   1.171   3.604  0.0692  0.4763 -0.1262
 9520SOL    HW240197   0.636   1.293   3.660 -1.5287  0.8151  1.8271
 9521SOL     OW40198   3.866   0.850   5.063  0.6756 -0.9675 -0.1022
 9521SOL    HW140199   3.880   0.859   5.158  2.2077  3.1918 -0.7269
 9521SOL    HW240200   3.910   0.764   5.063  0.9171 -0.8525  0.7625
 9522SOL     OW40201   1.656   1.768   8.302 -0.7116  0.3465 -0.0655
 9522SOL    HW140202   1.652   1.674   8.283  1.3066  0.4743 -1.1086
 9522SOL    HW240203   1.741   1.791   8.264  0.6812 -1.5387  1.9365
 9523SOL     OW40204   0.135   2.380   3.355  0.0399 -0.8432  0.3584
 9523SOL    HW140205   0.188   2.459   3.369  1.3869 -1.5247 -0.8667
 9523SOL    HW240206   0.192   2.311   3.387  0.4565 -1.2887 -1.3331
 9524SOL     OW40207   1.598   4.238   2.331 -0.0907  0.1123 -0.0587
 9524SOL    HW140208   1.541   4.162   2.337  1.0892 -0.8566 -1.0705
 9524SOL    HW240209   1.595   4.258   2.238 -2.2486  2.8346  0.6152
 9525SOL     OW40210   2.080   0.757  12.835  0.5476  0.1918  0.2512
 9525SOL    HW140211   2.075   0.672  12.792  0.3379  0.4961 -0.3199
 9525SOL    HW240212   2.170   0.766  12.865  0.8225 -0.8138 -0.2968
 9526SOL     OW40213   2.212   3.532   3.694 -0.4879  0.1086  0.3182
 9526SOL    HW140214   2.185   3.449   3.732  0.9110 -0.9588 -1.0416
 9526SOL    HW240215   2.301   3.536   3.730 -0.2330 -0.2887 -0.2693
 9527SOL     OW40216   3.615   2.621   8.137 -0.1911  0.3551  0.3093
 9527SOL    HW140217   3.635   2.541   8.088  0.4670  0.5676  0.2273
 9527SOL    HW240218   3.640   2.598   8.226  0.6246 -0.8786 -0.2296
 9528SOL     OW40219   1.386   3.878  15.295 -0.5344  0.4772 -0.0011
 9528SOL    HW140220   1.392   3.969  15.323 -1.1456  0.5651 -0.1553
 9528SOL    HW240221   1.292   3.862  15.285 -0.6049  0.7323  0.2734
 9529SOL     OW40222   3.473   4.166   1.649  0.0120  0.4254  0.3474
 9529SOL    HW140223   3.495   4.166   1.556  2.2480 -1.1333  0.8649
 9529SOL    HW240224   3.437   4.078   1.660  0.5038  0.4445  2.1369
 9530SOL     OW40225   2.484   3.843  14.872 -0.0341  0.1327 -0.3395
 9530SOL    HW140226   2.512   3.935  14.879  1.1587 -0.1994 -0.7865
 9530SOL    HW240227   2.409   3.862  14.815 -0.8704  1.1285  1.0918
 9531SOL     OW40228   2.074   3.535  11.450 -0.6475 -0.5460 -0.4086
 9531SOL    HW140229   2.116   3.595  11.388  0.0987 -0.8200 -0.1775
 9531SOL    HW240230   2.106   3.574  11.531  0.4447  1.2478 -1.7212
 9532SOL     OW40231   3.230   1.302   5.988 -0.6628 -0.2161 -0.1613
 9532SOL    HW140232   3.302   1.349   6.030 -1.2885 -1.8601  2.7366
 9532SOL    HW240233   3.207   1.371   5.925  0.4502  2.3061  2.2107
 9533SOL     OW40234   3.483   2.292  11.278 -0.0183  0.2768 -0.2183
 9533SOL    HW140235   3.420   2.327  11.341  2.3770 -0.4788  2.5990
 9533SOL    HW240236   3.434   2.221  11.238 -1.0807  0.8100  0.1223
 9534SOL     OW40237   3.566   3.689  11.230  0.1647  0.3968  0.2029
 9534SOL    HW140238   3.598   3.713  11.143 -0.0428  0.1362  0.0525
 9534SOL    HW240239   3.638   3.693  11.292 -1.1207 -0.0854  1.7394
 9535SOL     OW40240   1.419   3.517   7.178  0.2489  0.0032  1.1957
 9535SOL    HW140241   1.360   3.570   7.231  0.5938  0.6899  0.9006
 9535SOL    HW240242   1.443   3.454   7.246  0.2054 -1.8409 -0.4706
 9536SOL     OW40243   1.282   2.955   7.264  0.5431 -0.5146 -0.2674
 9536SOL    HW140244   1.317   2.955   7.175 -2.1991  0.0424 -1.3679
 9536SOL    HW240245   1.364   2.924   7.301  1.3286  1.9383  0.0230
 9537SOL     OW40246   4.395   1.106   6.620 -0.9599 -0.3653  0.1652
 9537SOL    HW140247   4.358   1.177   6.567 -2.5270 -0.5903  0.9942
 9537SOL    HW240248   4.471   1.095   6.561 -0.1277 -1.5749  1.4619
 9538SOL     OW40249   2.662   4.563  16.590  0.1856 -0.4337  0.0067
 9538SOL    HW140250   2.626   4.647  16.617  1.7476 -0.2721  1.6248
 9538SOL    HW240251   2.722   4.595  16.524  2.6922  0.4801  2.7498
 9539SOL     OW40252   1.799   2.257   1.441 -0.3785 -0.6436  0.1518
 9539SOL    HW140253   1.842   2.174   1.418  2.0614  0.6131  0.1890
 9539SOL    HW240254   1.820   2.320   1.372 -1.3546 -0.2745  0.2080
 9540SOL     OW40255   3.253   0.948   7.061 -0.1627  0.2033  0.1747
 9540SOL    HW140256   3.280   0.936   7.152  1.4571  1.8835 -0.0705
 9540SOL    HW240257   3.249   1.043   7.052 -1.3556 -0.0467 -1.9380
 9541SOL     OW40258   2.989   0.716   9.160  0.5319  0.5597  0.2695
 9541SOL    HW140259   3.041   0.730   9.239  2.8063  1.4203 -1.3755
 9541SOL    HW240260   3.013   0.788   9.101 -0.2898  1.1525  0.6557
 9542SOL     OW40261   3.304   3.434   2.116  0.6604 -0.2455  0.1241
 9542SOL    HW140262   3.363   3.358   2.116 -0.1297 -0.8675 -0.0707
 9542SOL    HW240263   3.254   3.399   2.190 -1.7847  0.3167 -1.2365
 9543SOL     OW40264   3.424   4.223  10.877 -0.9295  0.1013  0.4423
 9543SOL    HW140265   3.416   4.219  10.973  0.3243 -1.7690  0.4610
 9543SOL    HW240266   3.515   4.252  10.870 -0.0761 -2.7689 -0.0306
 9544SOL     OW40267   1.562   4.157   6.957  0.4221 -0.5271  0.0796
 9544SOL    HW140268   1.630   4.224   6.966 -1.0572  1.0324 -0.4047
 9544SOL    HW240269   1.548   4.159   6.862 -0.0977 -0.2293  0.1637
 9545SOL     OW40270   1.221   2.655   7.422 -0.3621 -0.4598  0.2794
 9545SOL    HW140271   1.315   2.642   7.421 -0.5037 -1.4898  1.2986
 9545SOL    HW240272   1.204   2.653   7.328  0.5439 -2.0458  0.1593
 9546SOL     OW40273   1.265   3.338   8.255  0.4097  0.0145 -0.2728
 9546SOL    HW140274   1.335   3.361   8.316  1.5169  1.6907 -2.1981
 9546SOL    HW240275   1.187   3.373   8.298  1.6590 -0.2580  2.2260
 9547SOL     OW40276   0.969   1.654   9.122 -0.4030  0.2748 -0.1568
 9547SOL    HW140277   0.999   1.679   9.210  0.0332 -0.4006 -0.1164
 9547SOL    HW240278   0.952   1.560   9.132 -1.9547  0.4534 -1.1959
 9548SOL     OW40279   1.698   0.887  13.771  0.7103  0.0839 -0.0966
 9548SOL    HW140280   1.706   0.792  13.770 -0.3210  0.0161 -2.0804
 9548SOL    HW240281   1.668   0.894  13.681 -0.2518 -1.3772  0.1152
 9549SOL     OW40282   4.472   1.393   2.849  0.1662 -0.0660  0.4061
 9549SOL    HW140283   4.536   1.392   2.778 -0.0748  1.2231  0.1684
 9549SOL    HW240284   4.465   1.298   2.862 -0.1741  0.0903  1.3557
 9550SOL     OW40285   2.081   1.154   1.050  0.0235 -0.0640  0.3201
 9550SOL    HW140286   2.052   1.244   1.060  1.3563  0.3653  0.3656
 9550SOL    HW240287   2.023   1.110   1.112  0.1849  0.0147  0.5259
 9551SOL     OW40288   4.515   0.538   7.660 -0.2964  0.0987 -0.1618
 9551SOL    HW140289   4.503   0.565   7.569 -1.3742  1.1635  0.2852
 9551SOL    HW240290   4.429   0.497   7.674 -0.3480  0.5113  0.7205
 9552SOL     OW40291   1.007   3.523   3.392 -0.5362 -0.3413 -0.3027
 9552SOL    HW140292   0.947   3.460   3.432  0.6241 -0.1802  1.6522
 9552SOL    HW240293   0.968   3.537   3.305  0.8063  0.0748 -0.8369
 9553SOL     OW40294   1.564   0.848   3.644  0.4265  0.1533  0.3421
 9553SOL    HW140295   1.496   0.783   3.629 -1.6577  2.2324  0.7234
 9553SOL    HW240296   1.639   0.802   3.681  1.6858  1.5171 -0.5308
 9554SOL     OW40297   2.422   3.988   9.712  0.0788  0.4907 -0.1450
 9554SOL    HW140298   2.449   3.932   9.785 -1.6542 -1.6334 -1.1198
 9554SOL    HW240299   2.393   3.920   9.651 -0.2633  1.1370 -0.7083
 9555SOL     OW40300   4.552   0.279   7.251  0.3645 -0.1828  0.1982
 9555SOL    HW140301   4.611   0.250   7.181  0.6837 -2.4350  1.4026
 9555SOL    HW240302   4.467   0.245   7.225  0.8280 -0.2252 -1.2925
 9556SOL     OW40303   0.020   2.471  13.586  0.1577  0.1548 -0.6394
 9556SOL    HW140304   4.690   2.533  13.612 -0.6142 -0.6392 -0.7861
 9556SOL    HW240305   0.064   2.515  13.514  1.3377 -2.1262 -1.3030
 9557SOL     OW40306   3.919   4.363  13.580  0.8361  0.6849  0.0831
 9557SOL    HW140307   3.961   4.448  13.562  1.4034  0.1885 -0.9192
 9557SOL    HW240308   3.926   4.325  13.492 -3.7340  0.0189  0.0208
 9558SOL     OW40309   1.362   3.058   5.083  0.3599 -0.4201 -0.8126
 9558SOL    HW140310   1.271   3.083   5.099  0.9550 -0.5466  2.8140
 9558SOL    HW240311   1.372   3.033   5.175  1.4068  0.3854 -0.6982
 9559SOL     OW40312   0.045   3.046  17.023  0.0845 -0.1042 -0.3844
 9559SOL    HW140313   0.024   3.107  16.951  1.1679 -1.5058 -1.8788
 9559SOL    HW240314   0.024   3.093  17.104  0.8081  1.8777 -1.3474
 9560SOL     OW40315   3.423   0.529   0.199  0.4240  0.0621 -0.1128
 9560SOL    HW140316   3.508   0.487   0.198  1.3998  2.0661 -1.3035
 9560SOL    HW240317   3.437   0.619   0.228  1.5531 -0.1037 -0.1700
 9561SOL     OW40318   0.258   1.353   9.681 -0.1558 -0.4100 -0.3324
 9561SOL    HW140319   0.267   1.266   9.717  0.6783 -0.4267 -0.5779
 9561SOL    HW240320   0.344   1.394   9.688  0.0335 -0.6081 -1.3988
 9562SOL     OW40321   4.236   0.353   1.874 -0.2239 -0.0922  0.4108
 9562SOL    HW140322   4.239   0.436   1.826 -1.6421 -0.0847  0.3394
 9562SOL    HW240323   4.281   0.289   1.818  1.3612  1.2945  0.0959
 9563SOL     OW40324   2.243   4.211   4.141  0.1720  0.3765 -1.3853
 9563SOL    HW140325   2.194   4.293   4.142  2.4544  1.7354 -0.7486
 9563SOL    HW240326   2.274   4.210   4.051 -0.9884 -0.8715 -1.7680
 9564SOL     OW40327   4.163   3.498   1.536 -0.0911 -0.3130 -0.6296
 9564SOL    HW140328   4.121   3.545   1.464  1.1034  1.3228 -0.2564
 9564SOL    HW240329   4.222   3.437   1.494  0.4303 -0.8182  0.8245
 9565SOL     OW40330   3.708   0.251   7.448 -0.4456 -0.4049 -0.0307
 9565SOL    HW140331   3.692   0.160   7.422  2.0202 -0.9625  0.4270
 9565SOL    HW240332   3.803   0.248   7.435 -0.4888 -0.8121 -0.2504
 9566SOL     OW40333   4.263   1.523   8.188  0.1008  0.2401  0.2548
 9566SOL    HW140334   4.303   1.510   8.274 -0.9239  1.3116  0.8974
 9566SOL    HW240335   4.224   1.437   8.171  1.1507 -0.2358  0.2241
 9567SOL     OW40336   3.480   0.075   5.728  0.2628  0.2208 -0.3414
 9567SOL    HW140337   3.385   0.075   5.712  0.6841 -1.4816 -2.8861
 9567SOL    HW240338   3.482   0.162   5.767 -1.8939 -0.4957  1.4340
 9568SOL     OW40339   3.661   0.398   0.326 -0.3270 -0.3334  0.0315
 9568SOL    HW140340   3.650   0.324   0.266  1.5084 -0.9695  0.4931
 9568SOL    HW240341   3.623   0.375   0.410  0.8593 -0.6114  0.4848
 9569SOL     OW40342   3.292   3.495  10.402  0.6923 -0.5898 -0.3008
 9569SOL    HW140343   3.294   3.459  10.490  1.0154  2.0715  0.7746
 9569SOL    HW240344   3.385   3.487  10.381 -0.4070 -1.2718 -4.9012
   4.73863   4.73863  17.75244
