Membrane in water
40344
    1TMC1    C1    1   1.752   2.776  10.796 -0.4864  0.6209  0.2377
    1TMC1    C2    2   1.718   2.902  10.835 -0.4688  0.3783 -0.6312
    1TMC1    C3    3   1.733   2.995  10.737 -0.3940 -0.1142  0.3062
    1TMC1    C4    4   1.793   2.741  10.672 -0.9429  0.0030 -0.2796
    1TMC1    C5    5   1.804   2.840  10.573  0.4548  0.7835  0.2044
    1TMC1    C6    6   1.764   2.963  10.604 -0.3260  0.4169  0.7575
    1TMC1     C    7   1.730   2.672  10.903  0.2362 -0.2992 -0.5182
    1TMC1     O    8   1.687   2.721  11.008  0.1349  0.0796 -0.8308
    1TMC1     H    9   1.679   2.922  10.935  0.3588  1.7340 -0.5929
    1TMC1    H1   10   1.834   2.643  10.650  1.5621  1.1565 -0.7711
    1TMC1    H2   11   1.764   3.044  10.532 -1.8178  1.4130  1.9003
    1TMC1    C7   12   1.837   2.806  10.436  0.0735 -0.3190  0.5157
    1TMC1    C8   13   1.700   3.131  10.759 -0.4196 -1.1397 -0.4933
    1TMC1    O1   14   1.848   2.694  10.394  0.1487 -0.0597 -0.1204
    1TMC1    O2   15   1.665   3.207  10.668  0.5236  0.2282  0.4073
    1TMC1    O3   16   1.922   2.908  10.408 -0.0468 -0.5212  0.0283
    1TMC1    H3   17   1.921   2.990  10.462  0.9342 -0.2955 -0.2934
    1TMC1    O5   18   1.712   3.170  10.890  0.3298  0.0402 -0.0124
    1TMC1    H5   19   1.747   3.104  10.953 -2.6193 -0.1793  1.3778
    2MPD2     C   20   1.544   2.204  10.999  0.6582 -0.4276 -0.6221
    2MPD2    C1   21   1.523   2.323  11.071  0.4275  0.1879 -0.5580
    2MPD2    C2   22   1.595   2.438  11.031  0.0068  0.7661 -0.0840
    2MPD2    C3   23   1.682   2.431  10.922  0.8062  0.0142 -0.6782
    2MPD2    C4   24   1.691   2.317  10.849 -0.1812 -0.2570  0.1841
    2MPD2    C5   25   1.620   2.211  10.883 -0.2069  0.3995 -0.2356
    2MPD2     H   26   1.590   2.531  11.087  1.2375  0.7344  0.0754
    2MPD2    H1   27   1.751   2.310  10.759  1.3187 -0.5218  1.2117
    2MPD2    H2   28   1.499   2.109  11.026  0.9183 -0.6434 -0.9578
    2MPD2    H3   29   1.627   2.118  10.827  1.0317  0.4485 -0.1437
    2MPD2     N   30   1.731   2.538  10.855  0.5578 -0.3511 -0.2324
    2MPD2    H5   31   1.765   2.517  10.762  2.0661 -1.6725  0.6424
    2MPD2    N1   32   1.423   2.341  11.169 -0.0216 -0.2364 -0.0336
    2MPD2    H7   33   1.411   2.440  11.189 -1.1779  0.2234 -2.8505
    3TMC1    C1   34   1.384   4.299  10.357  0.5907  0.8275 -0.2570
    3TMC1    C2   35   1.387   4.412  10.283  0.4500 -0.4207  0.4127
    3TMC1    C3   36   1.498   4.442  10.204  0.2353  0.1611 -0.5111
    3TMC1    C4   37   1.481   4.208  10.340 -0.3058 -0.2207  0.7835
    3TMC1    C5   38   1.588   4.235  10.265  0.4627  0.0295  0.1558
    3TMC1    C6   39   1.604   4.354  10.195  0.9016 -0.0260 -0.5746
    3TMC1     C   40   1.251   4.268  10.412 -0.4639 -0.3958 -0.1559
    3TMC1     O   41   1.162   4.345  10.387 -0.2005 -0.1272 -0.0960
    3TMC1     H   42   1.298   4.474  10.275  0.1746 -0.6403  1.7713
    3TMC1    H1   43   1.484   4.112  10.390  1.6875  0.0782  1.2176
    3TMC1    H2   44   1.688   4.372  10.129  1.1370 -0.0315 -0.2769
    3TMC1    C7   45   1.693   4.138  10.254 -0.0903  0.7213 -0.4563
    3TMC1    C8   46   1.481   4.532  10.094  0.0124  0.1766 -0.2310
    3TMC1    O1   47   1.668   4.020  10.293 -0.5157  0.4616 -0.5784
    3TMC1    O2   48   1.498   4.502   9.979 -0.0419  0.4486  0.4737
    3TMC1    O3   49   1.815   4.200  10.222 -0.2341 -0.0255 -0.3579
    3TMC1    H3   50   1.817   4.298  10.224  1.1287 -0.0971  1.3522
    3TMC1    O5   51   1.391   4.629  10.128  0.1132  0.4605 -0.3742
    3TMC1    H5   52   1.382   4.643  10.225  1.0488  1.6357 -0.4565
    4MPD2     C   53   0.886   3.972  10.623  0.0521 -0.3530 -0.4206
    4MPD2    C1   54   0.889   4.109  10.600 -0.6383  0.0073 -0.9177
    4MPD2    C2   55   1.008   4.171  10.563  0.2893 -0.3337 -0.2813
    4MPD2    C3   56   1.127   4.097  10.539 -0.3294 -0.5415 -1.7905
    4MPD2    C4   57   1.118   3.961  10.571  0.6453  0.1777  0.1323
    4MPD2    C5   58   0.998   3.899  10.597  0.1577  0.2307  0.5490
    4MPD2     H   59   1.018   4.279  10.553  0.0008 -0.0017  3.2660
    4MPD2    H1   60   1.205   3.902  10.547 -0.4787 -0.4479 -2.4443
    4MPD2    H2   61   0.793   3.922  10.648 -0.4140  0.4082 -0.6245
    4MPD2    H3   62   0.993   3.791  10.602 -0.2496  0.3210  2.1062
    4MPD2     N   63   1.246   4.152  10.489 -0.2448 -0.2743 -0.2658
    4MPD2    H5   64   1.327   4.091  10.499 -2.0830 -2.0742  3.8917
    4MPD2    N1   65   0.773   4.193  10.623 -0.2553 -0.0327  0.1785
    4MPD2    H7   66   0.792   4.290  10.600 -2.0240 -0.2444 -2.1760
    5TCq1    O1   67   2.409   0.453  12.684  0.4494 -0.7059  0.1366
    5TCq1    C1   68   2.325   0.408  12.590 -0.4422 -0.2682  0.1641
    5TCq1    O2   69   2.334   0.310  12.513  0.0616  0.1933 -0.4663
    5TCq1    C2   70   2.203   0.484  12.590  0.4065  0.4551  0.1077
    5TCq1    C3   71   2.147   0.511  12.716  0.4678 -0.3276  0.1303
    5TCq1    C4   72   2.014   0.544  12.722  0.3631  0.0416 -0.0935
    5TCq1    C5   73   1.943   0.551  12.604  0.2527  0.1466 -0.5162
    5TCq1    C6   74   2.003   0.531  12.484 -0.4969  0.0801 -0.0321
    5TCq1    C7   75   2.132   0.490  12.472 -0.5782 -0.0763 -0.5761
    5TCq1    C8   76   1.925   0.543  12.358  0.8849  0.6337  0.1472
    5TCq1    O4   77   1.950   0.481  12.257  0.0253 -0.2918 -1.0881
    5TCq1    C9   78   1.939   0.560  12.844 -0.3333 -0.1881  0.1037
    5TCq1    O5   79   1.825   0.609  12.852  0.3455 -0.1822 -0.6489
    5TCq1    O6   80   2.009   0.525  12.946 -0.3751 -0.2838  0.5158
    5TCq1    H1   81   2.380   0.537  12.724  1.3358 -0.9060  1.2116
    5TCq1    H2   82   2.202   0.500  12.808  0.7555 -0.4093 -0.0532
    5TCq1    H3   83   1.835   0.543  12.613  0.3324  0.9784  1.1705
    5TCq1    H4   84   2.184   0.464  12.381  0.2702  2.5346 -0.8360
    6MPD2     C   85   1.661   0.783  12.318  0.1738 -0.2385  0.0350
    6MPD2    C1   86   1.731   0.666  12.288  0.0332 -0.1010 -0.4031
    6MPD2    C2   87   1.698   0.595  12.174 -0.0285  0.6748  0.1382
    6MPD2    C3   88   1.592   0.631  12.092  0.1419  0.3586  0.6080
    6MPD2    C4   89   1.527   0.746  12.125  0.2349 -0.3401 -0.7118
    6MPD2    C5   90   1.553   0.814  12.242  0.0830  0.3222 -0.3876
    6MPD2     H   91   1.749   0.502  12.148 -1.7779  0.6695 -3.3322
    6MPD2    H1   92   1.444   0.788  12.070  0.9064 -0.1131 -1.5648
    6MPD2    H2   93   1.688   0.852  12.396  1.5714  1.1986 -1.7273
    6MPD2    H3   94   1.485   0.894  12.268  1.2573  1.0319  0.5163
    6MPD2     N   95   1.570   0.559  11.979 -0.0585  0.5158 -0.4382
    6MPD2    H5   96   1.637   0.485  11.962 -1.2286 -0.5542 -0.3883
    6MPD2    N1   97   1.828   0.632  12.383  0.1148 -0.1632 -0.1776
    6MPD2    H7   98   1.853   0.697  12.457 -0.8343  3.0759 -2.6976
    7TCq1    O1   99   3.748   4.626  12.728 -0.0666 -0.2680  0.2159
    7TCq1    C1  100   3.742   4.708  12.834 -0.2303  0.7002  0.1623
    7TCq1    O2  101   3.656   0.057  12.851 -0.0897  0.0539 -0.1526
    7TCq1    C2  102   3.806   4.622  12.933 -0.4056  0.7878  0.1118
    7TCq1    C3  103   3.939   4.580  12.903 -0.4047  0.0886  0.1745
    7TCq1    C4  104   3.985   4.486  12.984 -0.0852  0.5714  0.2617
    7TCq1    C5  105   3.916   4.445  13.096  0.8149 -0.2750 -0.5722
    7TCq1    C6  106   3.790   4.492  13.125  0.2514  0.0994 -0.8050
    7TCq1    C7  107   3.732   4.570  13.036  0.2111  0.0462  0.1192
    7TCq1    C8  108   3.700   4.391  13.172  0.6477 -0.4892  0.1830
    7TCq1    O4  109   3.703   4.366  13.293 -0.2966 -0.4202 -0.8577
    7TCq1    C9  110   4.102   4.417  12.947  0.2679 -0.0382  0.3544
    7TCq1    O5  111   4.139   4.434  12.826 -0.3237 -0.0551 -0.2368
    7TCq1    O6  112   4.132   4.321  13.019  0.3640 -0.2368  0.0640
    7TCq1    H1  113   3.814   4.556  12.743  0.0857  0.2367  1.8500
    7TCq1    H2  114   3.999   4.606  12.816 -0.8963  1.5972  0.2804
    7TCq1    H3  115   3.960   4.374  13.164  0.1304 -0.4064 -0.2607
    7TCq1    H4  116   3.629   4.601  13.047 -0.3449 -0.8574 -2.6578
    8MPD2     C  117   3.387   3.994  13.052  0.4210 -0.0196 -0.1949
    8MPD2    C1  118   3.428   4.040  13.174  0.3131 -0.4546  0.6817
    8MPD2    C2  119   3.517   4.145  13.183 -0.2719 -0.3203 -0.8557
    8MPD2    C3  120   3.558   4.213  13.074  1.1257 -0.4429 -0.0455
    8MPD2    C4  121   3.524   4.161  12.947 -0.4649  0.6459 -0.2095
    8MPD2    C5  122   3.445   4.047  12.941 -0.4716 -0.1888  0.3007
    8MPD2     H  123   3.562   4.172  13.278 -2.3852 -3.0455  0.8867
    8MPD2    H1  124   3.577   4.197  12.860  0.7987  2.2536  1.2269
    8MPD2    H2  125   3.327   3.904  13.056 -1.8847  1.5590  1.0466
    8MPD2    H3  126   3.430   3.987  12.851 -1.9409 -0.6874  0.8789
    8MPD2     N  127   3.630   4.332  13.070  0.3979 -0.5426 -0.0515
    8MPD2    H5  128   3.650   4.377  12.982  2.3684  1.5622  1.4794
    8MPD2    N1  129   3.367   3.989  13.294  0.6911  0.5598  0.4082
    8MPD2    H7  130   3.296   3.918  13.281  0.4716  0.8294  0.1300
    9TMC1    C1  131   1.728   3.889  11.070 -0.1936  0.3246  0.4492
    9TMC1    C2  132   1.636   3.963  11.139  0.2286 -0.3590 -0.1874
    9TMC1    C3  133   1.633   4.100  11.135 -0.6107  0.1428  0.1637
    9TMC1    C4  134   1.842   3.951  11.022  0.5628 -0.5903  0.4541
    9TMC1    C5  135   1.846   4.088  11.031  0.0702 -0.5772  0.4853
    9TMC1    C6  136   1.742   4.164  11.084  0.0734  0.2340  0.0420
    9TMC1     C  137   1.720   3.742  11.078 -0.1205  0.2189 -0.2635
    9TMC1     O  138   1.792   3.674  11.002 -0.0920  0.6638 -0.5530
    9TMC1     H  139   1.548   3.902  11.158  1.0041 -0.0671  4.2515
    9TMC1    H1  140   1.918   3.896  10.966  0.3538 -0.0288 -0.3769
    9TMC1    H2  141   1.747   4.268  11.053 -0.7064  0.2560 -0.0072
    9TMC1    C7  142   1.930   4.152  10.939 -0.1466  0.7059 -0.2820
    9TMC1    C8  143   1.506   4.166  11.133 -0.2092 -1.2721 -0.3456
    9TMC1    O1  144   1.917   4.253  10.874 -0.5432  0.7902 -0.5805
    9TMC1    O2  145   1.412   4.108  11.081  0.2698  0.0376  0.9133
    9TMC1    O3  146   2.049   4.096  10.963 -0.5652  0.5658  0.0400
    9TMC1    H3  147   2.057   4.024  11.030  0.3124 -0.2189 -0.8938
    9TMC1    O5  148   1.510   4.276  11.200 -0.2116 -0.0134 -0.2141
    9TMC1    H5  149   1.601   4.310  11.213 -0.2941  0.2516 -0.3190
   10MPD2     C  150   1.667   3.469  11.155  0.3786  0.4618  0.8206
   10MPD2    C1  151   1.652   3.573  11.246 -0.6053 -0.1739  0.2066
   10MPD2    C2  152   1.604   3.549  11.377 -0.4457  0.7601  0.0731
   10MPD2    C3  153   1.555   3.430  11.411  0.3885  0.5108 -0.4605
   10MPD2    C4  154   1.571   3.327  11.323 -0.2924 -0.3025  0.4371
   10MPD2    C5  155   1.631   3.346  11.198 -0.3255  0.2363 -0.8647
   10MPD2     H  156   1.587   3.632  11.445 -1.7265  0.5722 -0.0187
   10MPD2    H1  157   1.554   3.222  11.344  3.3892 -0.9192  0.4345
   10MPD2    H2  158   1.694   3.473  11.050 -0.3586  1.0914  0.6544
   10MPD2    H3  159   1.630   3.267  11.124 -2.2779 -0.8834  0.3631
   10MPD2     N  160   1.511   3.389  11.540  0.4742  0.5692  0.6569
   10MPD2    H5  161   1.513   3.292  11.567 -0.5064  1.2852  3.2841
   10MPD2    N1  162   1.678   3.702  11.205 -0.2263 -0.0999 -0.4468
   10MPD2    H7  163   1.653   3.763  11.282  0.6464 -1.5185  0.9606
   11TCq1    O1  164   1.791   3.576  14.294  0.2675  0.2428  0.0451
   11TCq1    C1  165   1.783   3.546  14.165 -0.3043 -0.3831 -0.2801
   11TCq1    O2  166   1.811   3.442  14.106 -0.3413 -0.0751 -0.1588
   11TCq1    C2  167   1.784   3.672  14.100 -0.5579 -0.0582  0.0220
   11TCq1    C3  168   1.871   3.765  14.140 -0.5191  0.4539  0.7413
   11TCq1    C4  169   1.846   3.894  14.101 -0.4422 -0.2391 -0.0341
   11TCq1    C5  170   1.739   3.933  14.021  0.3567  0.5420 -0.5153
   11TCq1    C6  171   1.652   3.832  13.986  0.1871 -0.4809 -0.1058
   11TCq1    C7  172   1.673   3.704  14.035 -0.5474 -0.3792 -0.7112
   11TCq1    C8  173   1.532   3.864  13.907 -0.5977 -0.0975  0.3275
   11TCq1    O4  174   1.500   3.981  13.896  0.0352 -0.0796  0.4689
   11TCq1    C9  175   1.948   3.995  14.134 -0.4210  0.2265  0.3098
   11TCq1    O5  176   2.050   3.949  14.191  0.1030  0.5839  0.5615
   11TCq1    O6  177   1.930   4.113  14.096  0.0485  0.6511 -0.0796
   11TCq1    H1  178   1.753   3.663  14.319  0.0666 -0.4153  2.0331
   11TCq1    H2  179   1.957   3.751  14.204 -0.9323 -0.9290  0.9962
   11TCq1    H3  180   1.713   4.036  13.999  2.5261  1.3414  0.6951
   11TCq1    H4  181   1.602   3.625  14.015 -0.2994  0.0828 -3.4274
   12MPD2     C  182   1.242   3.856  13.792 -0.2604  0.3681  0.1561
   12MPD2    C1  183   1.330   3.750  13.810  0.8473  0.1080  0.1220
   12MPD2    C2  184   1.285   3.627  13.781  0.1785 -0.4808  0.5010
   12MPD2    C3  185   1.161   3.610  13.718  1.0654 -0.0802 -0.7156
   12MPD2    C4  186   1.077   3.716  13.710  0.1675  0.1608  0.2697
   12MPD2    C5  187   1.122   3.841  13.729 -0.6567  0.3479  0.6997
   12MPD2     H  188   1.353   3.545  13.799  0.4630  0.1482  2.2965
   12MPD2    H1  189   0.979   3.703  13.665  0.1070 -2.3314  1.1302
   12MPD2    H2  190   1.278   3.956  13.815  0.8650  0.8185 -3.5125
   12MPD2    H3  191   1.054   3.918  13.692 -1.3452  0.3446  1.9742
   12MPD2     N  192   1.108   3.478  13.687 -0.0231 -0.1283 -0.1735
   12MPD2    H5  193   1.008   3.479  13.671 -0.4131 -1.2022  2.2494
   12MPD2    N1  194   1.463   3.754  13.875  0.4348 -0.4982  0.2542
   12MPD2    H7  195   1.514   3.667  13.885 -0.1127 -0.8349  0.1457
   13TCq1    O1  196   2.039   4.528  10.559 -0.0648 -0.4040  0.2753
   13TCq1    C1  197   1.913   4.533  10.514 -0.2485 -0.0496 -0.5827
   13TCq1    O2  198   1.886   4.468  10.415  0.2826 -0.4524 -0.1461
   13TCq1    C2  199   1.831   4.530  10.632  0.5654  0.0155  0.3482
   13TCq1    C3  200   1.868   4.603  10.742 -0.4006 -0.2085 -0.1340
   13TCq1    C4  201   1.794   4.588  10.856  0.4032  0.2864 -0.1178
   13TCq1    C5  202   1.688   4.501  10.856  0.3146  0.0272  0.4879
   13TCq1    C6  203   1.653   4.424  10.745  0.6599 -0.3542 -0.5367
   13TCq1    C7  204   1.723   4.443  10.627  0.1239 -0.4133 -0.1670
   13TCq1    C8  205   1.570   4.307  10.764 -0.2658  0.3798 -0.1700
   13TCq1    O4  206   1.484   4.323  10.847  0.6081 -0.0578 -0.5686
   13TCq1    C9  207   1.831   4.651  10.982  0.2481  0.5333 -0.6248
   13TCq1    O5  208   1.938   4.721  10.965 -0.3135  0.0024 -0.0839
   13TCq1    O6  209   1.748   4.659  11.076  0.1839  0.0715  0.0078
   13TCq1    H1  210   2.042   4.525  10.657 -0.4289 -0.5403  0.2847
   13TCq1    H2  211   1.939   4.685  10.736 -0.8204  0.1842  0.2296
   13TCq1    H3  212   1.625   4.502  10.943 -1.0383 -2.8659 -0.4686
   13TCq1    H4  213   1.694   4.404  10.530  0.0262 -0.9518  0.0772
   14MPD2     C  214   1.605   3.984  10.600 -0.1893 -0.0485  0.9843
   14MPD2    C1  215   1.547   4.074  10.678 -0.2845 -0.4675 -0.0490
   14MPD2    C2  216   1.442   4.034  10.759 -0.3559 -0.1242 -0.1103
   14MPD2    C3  217   1.399   3.905  10.763  0.7895 -0.3319  0.1548
   14MPD2    C4  218   1.453   3.810  10.678 -0.6712 -0.3213  0.3023
   14MPD2    C5  219   1.554   3.851  10.594  0.7331 -0.4905 -0.4703
   14MPD2     H  220   1.396   4.114  10.816  1.3903  0.0229  1.1009
   14MPD2    H1  221   1.422   3.706  10.675  0.7064 -0.7165 -0.1205
   14MPD2    H2  222   1.700   4.005  10.553  0.5099 -3.6661  0.8479
   14MPD2    H3  223   1.596   3.776  10.527 -2.9431 -1.3084 -1.8394
   14MPD2     N  224   1.278   3.882  10.831 -0.2766  0.1253 -0.3748
   14MPD2    H5  225   1.235   3.965  10.871 -0.8859  0.1139 -1.0100
   14MPD2    N1  226   1.608   4.200  10.680  0.4885  0.6237 -0.3050
   14MPD2    H7  227   1.697   4.209  10.632  0.2721  0.2336 -0.7703
   15TCq1    O1  228   3.256   2.798   1.784 -0.1796 -0.1168  0.2182
   15TCq1    C1  229   3.191   2.741   1.683  0.0593  0.2373  0.0452
   15TCq1    O2  230   3.081   2.696   1.697 -0.4997  0.0074  0.5313
   15TCq1    C2  231   3.290   2.661   1.619 -0.1658  0.0037  0.0847
   15TCq1    C3  232   3.403   2.717   1.558  0.4149  0.2967 -0.5338
   15TCq1    C4  233   3.497   2.631   1.515  0.0625  0.7829 -0.0493
   15TCq1    C5  234   3.476   2.495   1.513 -0.3194  0.1611 -0.4764
   15TCq1    C6  235   3.359   2.449   1.555  0.1299  0.8729 -0.8210
   15TCq1    C7  236   3.263   2.525   1.613 -0.6426  0.4489  0.5215
   15TCq1    C8  237   3.328   2.311   1.546  0.0790 -0.8556  0.2420
   15TCq1    O4  238   3.415   2.235   1.524  0.2751  0.8892 -0.0667
   15TCq1    C9  239   3.609   2.685   1.452 -0.0843 -0.5885 -0.4025
   15TCq1    O5  240   3.687   2.605   1.399 -0.1068 -0.0058 -0.0720
   15TCq1    O6  241   3.613   2.811   1.426  0.5209 -0.0919  0.3105
   15TCq1    H1  242   3.351   2.810   1.767 -0.2790  1.1006  0.5433
   15TCq1    H2  243   3.409   2.824   1.546 -1.1579  0.5755  1.1901
   15TCq1    H3  244   3.556   2.437   1.469  0.0955  1.9798 -2.1227
   15TCq1    H4  245   3.170   2.487   1.655 -0.3864 -1.5131 -0.6830
   16MPD2     C  246   2.998   2.146   1.514  0.5886 -0.1463  0.6311
   16MPD2    C1  247   3.135   2.153   1.524  0.2171 -0.0763 -0.9069
   16MPD2    C2  248   3.209   2.033   1.517 -0.0117 -0.4056  0.6073
   16MPD2    C3  249   3.145   1.915   1.489 -0.1238  0.4744 -0.3205
   16MPD2    C4  250   3.008   1.910   1.484  0.7506  0.0112  0.3152
   16MPD2    C5  251   2.939   2.026   1.497  0.9881  0.4823  0.0959
   16MPD2     H  252   3.316   2.041   1.531  0.0428 -1.4468  0.8109
   16MPD2    H1  253   2.945   1.828   1.449  0.0348  1.0924 -0.9440
   16MPD2    H2  254   2.936   2.235   1.507 -0.0145 -0.5801  0.4840
   16MPD2    H3  255   2.831   2.033   1.490  0.8836 -1.5015 -0.2684
   16MPD2     N  256   3.232   1.809   1.458  0.0579 -0.5136 -0.0913
   16MPD2    H5  257   3.330   1.835   1.463 -0.0761  0.5454 -2.7289
   16MPD2    N1  258   3.194   2.284   1.537  0.9520  0.3274 -0.5975
   16MPD2    H7  259   3.131   2.363   1.540 -1.7465 -1.8651  0.6321
   17TMC1    C1  260   0.977   3.569  11.616 -0.4994  0.8480  0.2574
   17TMC1    C2  261   0.912   3.453  11.596 -0.4185 -1.3041  0.4775
   17TMC1    C3  262   0.868   3.387  11.708  0.4577 -0.0441 -0.8570
   17TMC1    C4  263   0.986   3.628  11.739 -0.3000  0.0578  0.5475
   17TMC1    C5  264   0.924   3.566  11.850 -0.0124  0.1315  0.1835
   17TMC1    C6  265   0.865   3.446  11.837  0.0205 -1.1065 -0.2968
   17TMC1     C  266   1.043   3.641  11.508  0.5022 -0.0758 -0.1823
   17TMC1     O  267   1.092   3.746  11.541 -0.0474 -0.0674  0.2349
   17TMC1     H  268   0.884   3.421  11.497  0.3242 -1.5073  0.3326
   17TMC1    H1  269   1.009   3.734  11.747 -1.8027  0.4574 -0.4356
   17TMC1    H2  270   0.843   3.397  11.931  1.3025  0.0639  0.6092
   17TMC1    C7  271   0.948   3.608  11.986 -0.3986 -0.0137  0.0329
   17TMC1    C8  272   0.784   3.263  11.701  0.4013 -0.7232 -0.3147
   17TMC1    O1  273   0.883   3.560  12.078 -0.0625 -0.1449  0.0979
   17TMC1    O2  274   0.711   3.220  11.788 -0.1804  0.0737 -0.0433
   17TMC1    O3  275   1.086   3.620  11.989 -0.0021 -0.1810 -0.4342
   17TMC1    H3  276   1.122   3.664  11.909  0.4599  1.6272  0.7852
   17TMC1    O5  277   0.829   3.190  11.602 -0.2430  0.1003 -0.3298
   17TMC1    H5  278   0.907   3.225  11.555 -1.4306  2.6982 -0.3591
   18MPD2     C  279   1.197   3.709  11.278  0.3376  0.3384  0.8417
   18MPD2    C1  280   1.176   3.583  11.316  0.2271  0.5535 -0.5072
   18MPD2    C2  281   1.230   3.474  11.238  0.3748 -0.0035  0.9075
   18MPD2    C3  282   1.306   3.511  11.129 -0.8021 -0.1328 -0.0831
   18MPD2    C4  283   1.349   3.639  11.106  0.0695 -0.1544 -0.8393
   18MPD2    C5  284   1.289   3.740  11.181 -0.1794  0.0656 -0.0053
   18MPD2     H  285   1.193   3.376  11.265  1.0509  0.1654  2.4206
   18MPD2    H1  286   1.408   3.657  11.017 -0.2390 -0.5177 -1.1192
   18MPD2    H2  287   1.145   3.791  11.327  0.5256 -0.4641  2.3791
   18MPD2    H3  288   1.304   3.845  11.158 -2.1719  0.5617  0.9895
   18MPD2     N  289   1.330   3.418  11.019 -0.1917  1.0190 -0.5816
   18MPD2    H5  290   1.369   3.459  10.935  2.4344 -1.4026 -0.5532
   18MPD2    N1  291   1.097   3.547  11.430  0.4821 -0.6314 -0.2632
   18MPD2    H7  292   1.074   3.451  11.454  0.0778 -0.4369  0.1339
   19TMC2    C1  293   2.321   3.543  13.843 -0.1988 -0.6126  0.0131
   19TMC2    C2  294   2.217   3.619  13.798  0.4557 -0.3462 -0.9253
   19TMC2    C3  295   2.090   3.570  13.798  0.3040 -0.7147 -0.5276
   19TMC2    C4  296   2.298   3.414  13.897 -0.2002 -0.1693 -0.0220
   19TMC2    C5  297   2.167   3.369  13.904 -0.4817  0.6567  0.0285
   19TMC2    C6  298   2.067   3.451  13.863  0.2641  0.2756 -0.6245
   19TMC2     C  299   2.448   3.608  13.835  0.1494 -0.1296  0.1168
   19TMC2     O  300   2.446   3.715  13.786 -0.2078 -0.8481  0.1839
   19TMC2     H  301   2.236   3.714  13.749  0.0558  0.3118  0.1999
   19TMC2    H1  302   2.386   3.352  13.912 -0.0213 -0.5950 -2.9895
   19TMC2    H2  303   1.964   3.425  13.881 -0.0008  0.0610 -2.3888
   19TMC2    C7  304   2.132   3.240  13.963  0.3961  0.1523 -0.3052
   19TMC2    C8  305   1.977   3.654  13.769  0.5589 -0.1434 -0.4721
   19TMC2    O1  306   2.016   3.195  13.951 -0.1189  0.3599  0.2390
   19TMC2    O2  307   1.999   3.775  13.750  0.3273 -0.4383  0.2958
   19TMC2    O5  308   1.896   3.583  13.693  0.3177  0.5777  0.8192
   19TMC2    H5  309   1.927   3.494  13.667 -0.8545  0.6030 -0.6377
   20MPD2     C  310   2.738   3.709  13.864 -0.6970 -0.0811  0.6037
   20MPD2    C1  311   2.679   3.603  13.935  0.1355  0.7216  0.1818
   20MPD2    C2  312   2.756   3.541  14.029 -0.1359 -0.0164  0.1211
   20MPD2    C3  313   2.898   3.561  14.036  0.4468  0.3670 -0.8104
   20MPD2    C4  314   2.952   3.662  13.962 -0.5810 -0.5622 -0.5988
   20MPD2    C5  315   2.872   3.738  13.882 -0.8326  0.0588  0.5564
   20MPD2     H  316   2.707   3.469  14.094 -0.3286  0.7784  0.8618
   20MPD2    H1  317   3.055   3.693  13.951 -0.9103  0.4022 -1.0686
   20MPD2    H2  318   2.679   3.760  13.788  1.1175  0.9982 -0.0768
   20MPD2    H3  319   2.911   3.821  13.823  1.4266 -1.9259 -0.7441
   20MPD2     N  320   2.987   3.477  14.107 -0.0156 -0.0802 -0.3623
   20MPD2    H5  321   3.085   3.500  14.107  0.1811 -0.9250 -0.8747
   20MPD2    N1  322   2.539   3.561  13.925 -0.1805  0.4466 -0.7216
   20MPD2    H7  323   2.514   3.480  13.982 -1.6601  2.3657  1.3426
   21TMC2    C1  324   0.283   3.545  14.463 -0.6323 -0.0263  0.1824
   21TMC2    C2  325   0.293   3.434  14.541 -0.0035  0.5118  0.6364
   21TMC2    C3  326   0.214   3.407  14.646 -0.5566  0.5986  0.0478
   21TMC2    C4  327   0.177   3.630  14.483 -0.0995  0.3621  0.0438
   21TMC2    C5  328   0.082   3.591  14.576 -0.7229 -0.3343 -0.3481
   21TMC2    C6  329   0.101   3.481  14.657  0.0560 -0.2396 -0.7903
   21TMC2     C  330   0.412   3.591  14.421 -0.6383  0.9610  0.4519
   21TMC2     O  331   0.496   3.509  14.387 -0.1514  0.4203 -0.2456
   21TMC2     H  332   0.369   3.358  14.529 -0.2201  0.3455  0.3095
   21TMC2    H1  333   0.160   3.715  14.418  0.5589  1.4000  1.2432
   21TMC2    H2  334   0.026   3.452  14.730 -0.0673 -2.1765 -1.6943
   21TMC2    C7  335   0.002   3.698  14.635 -0.0818 -0.2827 -0.0658
   21TMC2    C8  336   0.206   3.272  14.695  0.0128 -0.2674 -0.4792
   21TMC2    O1  337   0.014   3.701  14.758 -0.7113  0.8077 -0.0696
   21TMC2    O2  338   0.264   3.183  14.637  0.0080 -0.1539  0.4746
   21TMC2    O5  339   0.130   3.251  14.806 -0.0184 -0.2503 -0.0425
   21TMC2    H5  340   0.117   3.340  14.845  0.1687 -0.3902  0.3458
   22MPD2     C  341   0.708   3.981  14.262 -0.9402 -0.8736 -0.2135
   22MPD2    C1  342   0.728   3.847  14.264 -0.2221 -0.1993 -0.2895
   22MPD2    C2  343   0.634   3.759  14.322  0.3190  0.3400  0.1061
   22MPD2    C3  344   0.518   3.809  14.370  0.4538  0.1732  0.4636
   22MPD2    C4  345   0.491   3.948  14.364  0.2405 -0.8858  0.3310
   22MPD2    C5  346   0.588   4.025  14.310  0.1672  0.2240  0.1501
   22MPD2     H  347   0.657   3.653  14.320  0.2137  0.3085  0.5299
   22MPD2    H1  348   0.403   4.001  14.399 -1.6200 -2.4100 -2.0316
   22MPD2    H2  349   0.778   4.057  14.231  0.1365 -1.0337  1.8384
   22MPD2    H3  350   0.572   4.132  14.309  0.4424  0.2741  1.0592
   22MPD2     N  351   0.418   3.724  14.432 -0.6609  0.9991 -0.3748
   22MPD2    H5  352   0.335   3.764  14.476 -1.1451  1.7193 -1.9767
   22MPD2    N1  353   0.838   3.788  14.199 -0.4552  0.1220 -0.3988
   22MPD2    H7  354   0.851   3.688  14.196  1.4156  0.3010  1.0789
   23TMC2    C1  355   1.674   4.607  14.536 -0.5014 -0.0472  0.1236
   23TMC2    C2  356   1.697   4.696  14.433  0.0471 -0.6811 -0.5539
   23TMC2    C3  357   1.609   4.698  14.332 -0.6699  0.6277 -0.0686
   23TMC2    C4  358   1.570   4.519  14.535 -0.8508  0.2520 -0.5156
   23TMC2    C5  359   1.491   4.526  14.422 -0.0861 -0.4275  0.0892
   23TMC2    C6  360   1.499   4.609  14.317 -0.3695  0.4373 -0.4590
   23TMC2     C  361   1.754   4.623  14.659 -0.3788  0.2085  0.1710
   23TMC2     O  362   1.730   4.551  14.755 -0.4822 -0.0381  0.0960
   23TMC2     H  363   1.784   0.026  14.424 -0.7108  0.6328  1.5048
   23TMC2    H1  364   1.552   4.447  14.614 -0.4884 -0.8094 -1.3877
   23TMC2    H2  365   1.430   4.612  14.234 -2.0710  0.2487  0.9526
   23TMC2    C7  366   1.375   4.433  14.438  0.7373  0.1170 -0.5835
   23TMC2    C8  367   1.643   0.048  14.217 -0.1882 -0.1137  0.5190
   23TMC2    O1  368   1.387   4.340  14.516  0.3418 -0.0898 -0.0658
   23TMC2    O2  369   1.756   0.088  14.206  0.5044 -0.0345 -0.3248
   23TMC2    O5  370   1.537   0.063  14.131 -0.2552  0.2843 -0.6388
   23TMC2    H5  371   1.448   0.064  14.171 -0.8942  0.3814 -2.0633
   24MPD2     C  372   2.142   0.138  14.914 -0.0824  0.2469  0.4656
   24MPD2    C1  373   2.063   0.033  14.955  0.1655 -0.6235  0.2481
   24MPD2    C2  374   1.960   4.713  14.871  0.4323  0.5203  0.5034
   24MPD2    C3  375   1.922   0.043  14.753 -0.2462  0.2778  0.1888
   24MPD2    C4  376   1.995   0.156  14.723 -0.1529  0.3425  0.5822
   24MPD2    C5  377   2.102   0.197  14.797  0.1939 -0.5225 -0.1181
   24MPD2     H  378   1.909   4.621  14.895  0.0664  1.1310  2.0750
   24MPD2    H1  379   1.969   0.200  14.627  0.1367  2.6295  1.5521
   24MPD2    H2  380   2.222   0.179  14.975  0.3491 -1.5034  1.0554
   24MPD2    H3  381   2.158   0.283  14.763  0.2312 -0.7322 -0.5759
   24MPD2     N  382   1.824   0.005  14.662  0.0758  0.2186  0.1046
   24MPD2    H5  383   1.800   0.076  14.594  0.0033 -1.0686 -1.2241
   24MPD2    N1  384   2.098   4.698  15.079  0.6503  0.1627  0.0651
   24MPD2    H7  385   2.041   4.615  15.088 -2.0772  1.9160 -0.9514
   25TMC2    C1  386   4.592   2.340  10.988 -0.5330 -0.8880 -0.4246
   25TMC2    C2  387   4.559   2.473  10.970  0.2567  0.5649  0.2862
   25TMC2    C3  388   4.554   2.547  11.078  0.7783  0.1604 -0.9607
   25TMC2    C4  389   4.586   2.290  11.124 -0.2057  0.1957  0.2244
   25TMC2    C5  390   4.576   2.373  11.227 -0.0559  0.3671  0.4316
   25TMC2    C6  391   4.564   2.503  11.206  0.4688  0.2739 -0.1257
   25TMC2     C  392   4.579   2.247  10.871  0.7500 -0.1834  0.3531
   25TMC2     O  393   4.553   2.302  10.767 -0.7259  0.4405 -0.0748
   25TMC2     H  394   4.539   2.505  10.869  4.2407  0.6185 -0.4597
   25TMC2    H1  395   4.588   2.183  11.144 -0.3130  0.3539  1.0741
   25TMC2    H2  396   4.533   2.566  11.288  1.7346  2.1964 -1.1419
   25TMC2    C7  397   4.611   2.333  11.358  0.4357  0.0465  0.0515
   25TMC2    C8  398   4.523   2.687  11.062 -0.5917 -0.4449  0.4078
   25TMC2    O1  399   4.565   2.404  11.450 -0.2232 -0.2306 -0.2732
   25TMC2    O2  400   4.473   2.734  10.962 -0.5336  0.4600 -0.2812
   25TMC2    O5  401   4.609   2.766  11.133 -0.1702  0.6961  0.5742
   25TMC2    H5  402   4.667   2.726  11.202  1.3907  1.2353 -0.4221
   26MPD2     C  403   4.475   1.762  10.706  0.3330 -0.3239 -0.6648
   26MPD2    C1  404   4.515   1.759  10.840 -0.5265  0.0605 -0.5524
   26MPD2    C2  405   4.551   1.875  10.905  1.2555  0.9983 -1.2886
   26MPD2    C3  406   4.553   2.001  10.838  1.0486 -0.3690 -0.0576
   26MPD2    C4  407   4.510   2.000  10.711 -0.3889 -0.1356  0.4321
   26MPD2    C5  408   4.468   1.886  10.644  0.1731 -0.6073  0.0048
   26MPD2     H  409   4.574   1.868  11.011  0.0957 -0.3495 -1.1329
   26MPD2    H1  410   4.513   2.083  10.642 -2.2695 -1.4113 -1.1864
   26MPD2    H2  411   4.467   1.679  10.637 -0.3213  0.7397 -1.8614
   26MPD2    H3  412   4.447   1.893  10.538  0.5938 -0.6764 -0.0830
   26MPD2     N  413   4.585   2.113  10.917 -0.3371  0.4578  0.2298
   26MPD2    H5  414   4.606   2.089  11.013 -1.6298 -2.1267 -0.1344
   26MPD2    N1  415   4.533   1.630  10.892  0.1181  0.4703 -0.2906
   26MPD2    H7  416   4.514   1.550  10.832  2.3846 -0.0598 -0.2923
   27TMC2    C1  417   4.105   4.601  12.261 -0.0279  0.1484 -0.4901
   27TMC2    C2  418   4.095   4.726  12.208  0.2381  0.1507 -0.1100
   27TMC2    C3  419   4.185   0.085  12.247 -0.3740 -0.9444 -0.2448
   27TMC2    C4  420   4.210   4.557  12.331  0.3733 -0.3591 -0.5395
   27TMC2    C5  421   4.302   4.654  12.364 -0.5064 -0.7399  0.4601
   27TMC2    C6  422   4.295   0.052  12.320 -0.9932 -0.0774  0.1947
   27TMC2     C  423   4.031   4.497  12.199 -0.2716  0.3930  0.0481
   27TMC2     O  424   4.044   4.486  12.080 -0.2764  0.2262  0.9199
   27TMC2     H  425   4.019   0.015  12.134  0.8797  1.7106 -0.2636
   27TMC2    H1  426   4.219   4.454  12.362  0.2675 -0.0857  0.3893
   27TMC2    H2  427   4.365   0.129  12.351 -1.6077  1.2168 -1.6385
   27TMC2    C7  428   4.429   4.619  12.424  0.0914  0.6759  0.2779
   27TMC2    C8  429   4.225   0.193  12.160  0.3098 -0.4805 -0.2953
   27TMC2    O1  430   4.526   4.695  12.418  0.8498  0.4161  0.1266
   27TMC2    O2  431   4.334   0.196  12.114 -0.4292  0.7065  0.1184
   27TMC2    O5  432   4.118   0.252  12.093  0.0080  0.3568 -0.7224
   27TMC2    H5  433   4.034   0.255  12.143 -1.1006  0.2533 -2.5646
   28MPD2     C  434   3.679   4.135  12.198 -0.1661 -0.1435 -0.2669
   28MPD2    C1  435   3.657   4.214  12.310 -1.0077  0.1407  0.1669
   28MPD2    C2  436   3.751   4.312  12.335  0.2618 -0.3913 -0.1451
   28MPD2    C3  437   3.856   4.330  12.250  0.7754  0.2000 -0.4253
   28MPD2    C4  438   3.877   4.256  12.139 -0.2995  0.4529  0.0185
   28MPD2    C5  439   3.789   4.155  12.117  0.1093  0.5558  0.5018
   28MPD2     H  440   3.743   4.369  12.427 -0.4420 -0.6003 -0.0687
   28MPD2    H1  441   3.957   4.271  12.068 -1.2838  0.6310 -1.0571
   28MPD2    H2  442   3.624   4.044  12.177 -0.5978  0.2786 -0.9440
   28MPD2    H3  443   3.808   4.088  12.034  1.1768  0.3700  0.9023
   28MPD2     N  444   3.949   4.428  12.288  0.4447 -0.2189  0.0033
   28MPD2    H5  445   3.947   4.473  12.380 -0.1314  0.4445 -0.3324
   28MPD2    N1  446   3.545   4.185  12.389  0.3114 -0.9763  0.3904
   28MPD2    H7  447   3.489   4.108  12.353 -0.0720  0.5700 -2.3622
   29TMC2    C1  448   3.658   1.963  13.938 -0.3037 -0.7526  0.7823
   29TMC2    C2  449   3.775   1.945  14.001 -0.1671  0.1785 -0.6283
   29TMC2    C3  450   3.829   2.052  14.065 -0.5853 -0.3820 -0.2030
   29TMC2    C4  451   3.582   2.073  13.965  0.2298 -0.5072 -0.2777
   29TMC2    C5  452   3.635   2.175  14.044 -0.7883  0.2844 -0.0076
   29TMC2    C6  453   3.766   2.168  14.081 -0.0769 -0.1645  0.2423
   29TMC2     C  454   3.598   1.841  13.874 -0.0063 -0.0718  0.3099
   29TMC2     O  455   3.668   1.737  13.880  0.3078 -0.2623 -0.1201
   29TMC2     H  456   3.828   1.852  13.983  1.3168  1.0511 -0.7701
   29TMC2    H1  457   3.482   2.092  13.928  0.0619 -0.4888  0.1916
   29TMC2    H2  458   3.816   2.246  14.138  0.4747 -1.5011  1.5943
   29TMC2    C7  459   3.547   2.291  14.073  0.1185  0.8102  0.4317
   29TMC2    C8  460   3.974   2.055  14.092 -0.8364 -0.0518 -0.9163
   29TMC2    O1  461   3.425   2.274  14.077  0.2328  0.0349  0.1811
   29TMC2    O2  462   4.017   2.094  14.202 -0.0086 -0.7669  0.0905
   29TMC2    O5  463   4.037   1.986  13.992 -0.0546 -0.5422  0.4540
   29TMC2    H5  464   3.983   1.964  13.914 -0.2090 -1.2278  0.7580
   30MPD2     C  465   3.289   1.591  13.537 -0.8304 -1.0750  0.4807
   30MPD2    C1  466   3.395   1.544  13.607  0.2338  0.0643  0.3677
   30MPD2    C2  467   3.459   1.636  13.689  0.7274 -0.2084 -0.0701
   30MPD2    C3  468   3.432   1.770  13.694  0.3836  0.0525  0.8605
   30MPD2    C4  469   3.336   1.819  13.615 -0.0207 -0.3528  0.1985
   30MPD2    C5  470   3.269   1.729  13.530  0.2727 -0.4018 -0.2271
   30MPD2     H  471   3.524   1.601  13.768  0.5255  0.1378  0.2494
   30MPD2    H1  472   3.296   1.920  13.618  0.5649 -0.1350  0.6058
   30MPD2    H2  473   3.228   1.527  13.474 -0.7365 -0.7611  0.0694
   30MPD2    H3  474   3.184   1.754  13.467  2.0619 -2.0240 -3.2711
   30MPD2     N  475   3.489   1.866  13.788  0.1507  0.4205 -0.4585
   30MPD2    H5  476   3.448   1.958  13.786 -0.8283  0.0037  1.2319
   30MPD2    N1  477   3.427   1.403  13.623  0.0832  0.2247 -0.4651
   30MPD2    H7  478   3.484   1.379  13.704  0.3515 -1.3705 -1.1340
   31TMC2    C1  479   1.504   0.528  15.239  0.0205 -0.6335 -0.2847
   31TMC2    C2  480   1.437   0.435  15.169  0.1896 -0.1495 -0.5081
   31TMC2    C3  481   1.441   0.300  15.203 -0.2963 -0.1139 -0.4766
   31TMC2    C4  482   1.585   0.492  15.342  0.1318  0.1363 -0.5159
   31TMC2    C5  483   1.593   0.359  15.379 -0.3230  0.3512  0.2475
   31TMC2    C6  484   1.522   0.264  15.306 -0.6161  0.4649  0.3384
   31TMC2     C  485   1.525   0.652  15.181 -0.1368  0.4101 -0.7406
   31TMC2     O  486   1.445   0.701  15.104  0.2094 -0.1852 -0.2115
   31TMC2     H  487   1.376   0.474  15.088 -1.2790 -1.3941 -0.0065
   31TMC2    H1  488   1.639   0.564  15.402  0.2515  1.1140 -1.7851
   31TMC2    H2  489   1.521   0.164  15.349  0.0014  0.2327 -0.1790
   31TMC2    C7  490   1.644   0.314  15.498 -0.4385  0.5504  0.9087
   31TMC2    C8  491   1.326   0.219  15.159  0.2387  0.2865  0.4663
   31TMC2    O1  492   1.677   0.195  15.501 -0.0540  0.3656 -0.4561
   31TMC2    O2  493   1.271   0.260  15.056 -0.6832 -1.4014  0.4719
   31TMC2    O5  494   1.256   0.200  15.277  0.3889  0.4574 -0.2630
   31TMC2    H5  495   1.319   0.204  15.352 -0.5351 -1.8099  0.6376
   32MPD2     C  496   1.817   1.067  15.110  0.4012  0.2356 -0.0745
   32MPD2    C1  497   1.707   1.020  15.035  0.0950 -0.2296 -0.2637
   32MPD2    C2  498   1.647   0.903  15.078 -0.2538 -0.2881 -0.5989
   32MPD2    C3  499   1.699   0.830  15.188 -0.5249  0.5952  0.5570
   32MPD2    C4  500   1.806   0.881  15.255 -0.3443  0.2046  0.5990
   32MPD2    C5  501   1.867   0.989  15.210 -0.1936 -0.5320 -1.2978
   32MPD2     H  502   1.561   0.863  15.026  0.2434 -1.7702 -0.2946
   32MPD2    H1  503   1.837   0.837  15.349 -1.8493 -0.9417  0.5469
   32MPD2    H2  504   1.870   1.158  15.087 -1.2164  1.5649  1.5073
   32MPD2    H3  505   1.957   1.021  15.261 -1.2139 -0.3374  0.3630
   32MPD2     N  506   1.642   0.703  15.224  0.2285  0.0266  0.2730
   32MPD2    H5  507   1.699   0.653  15.291  1.8016  1.9280  0.3604
   32MPD2    N1  508   1.656   1.100  14.927 -0.0592  0.4051 -0.0926
   32MPD2    H7  509   1.712   1.180  14.898  0.7613 -0.7292 -1.5913
   33TMC2    C1  510   1.198   3.595   9.953  0.4083  0.0105  0.1638
   33TMC2    C2  511   1.065   3.576   9.938 -0.5939 -0.2255  0.6734
   33TMC2    C3  512   0.996   3.683   9.893  0.9456  0.2545 -0.0655
   33TMC2    C4  513   1.254   3.711   9.905  0.0271 -0.1553  0.2668
   33TMC2    C5  514   1.184   3.809   9.844  0.1730 -0.3788  1.3670
   33TMC2    C6  515   1.044   3.802   9.851  0.4939 -0.8262  0.0248
   33TMC2     C  516   1.253   3.509  10.053 -0.2026 -0.6920  0.4827
   33TMC2     O  517   1.179   3.442  10.123  0.2186  0.1872 -0.0164
   33TMC2     H  518   1.010   3.498   9.989 -1.1744 -0.6047 -0.5163
   33TMC2    H1  519   1.362   3.718   9.900 -0.2133  1.9031 -2.1384
   33TMC2    H2  520   0.982   3.867   9.791  1.7459 -0.4453 -0.8597
   33TMC2    C7  521   1.257   3.903   9.761  0.3551  0.3129  0.4837
   33TMC2    C8  522   0.860   3.665   9.878  0.3180  0.0899  0.4090
   33TMC2    O1  523   1.374   3.884   9.736 -0.4757 -0.1574  0.4430
   33TMC2    O2  524   0.812   3.572   9.812  0.4132  0.5753 -0.3179
   33TMC2    O5  525   0.806   3.787   9.901 -0.3282  0.1231  0.5774
   33TMC2    H5  526   0.866   3.834   9.962 -0.1988 -0.8332  1.1891
   34MPD2     C  527   1.634   3.296  10.324 -0.0132  0.1273  0.3610
   34MPD2    C1  528   1.499   3.323  10.358 -0.3083  0.3857 -0.3895
   34MPD2    C2  529   1.424   3.400  10.267  0.4812  0.2771  0.9664
   34MPD2    C3  530   1.474   3.454  10.151  0.1619  0.1392  0.0740
   34MPD2    C4  531   1.606   3.431  10.125  0.2046 -0.1542 -0.7910
   34MPD2    C5  532   1.683   3.354  10.211  0.0804  0.8862  0.1321
   34MPD2     H  533   1.318   3.399  10.292  0.1264  2.1357 -0.5000
   34MPD2    H1  534   1.643   3.462  10.027 -0.0615  2.7077  0.0100
   34MPD2    H2  535   1.699   3.252  10.398  1.3340 -0.3752 -1.1123
   34MPD2    H3  536   1.787   3.353  10.179  0.8570  1.6072  2.6660
   34MPD2     N  537   1.394   3.509  10.054 -0.1253 -0.4346 -0.2862
   34MPD2    H5  538   1.447   3.572   9.995  0.5540  0.6612  1.4796
   34MPD2    N1  539   1.456   3.255  10.476 -0.6876 -0.3675 -0.6558
   34MPD2    H7  540   1.523   3.196  10.525 -0.4525  1.2313  0.9548
   35TMC2    C1  541   2.541   4.252  10.986  0.2846 -0.1822 -0.0142
   35TMC2    C2  542   2.461   4.298  10.882 -0.7835  0.2161  0.7135
   35TMC2    C3  543   2.332   4.312  10.909 -0.2016  0.5724  0.1733
   35TMC2    C4  544   2.493   4.240  11.116 -0.0112 -0.3955 -0.3673
   35TMC2    C5  545   2.354   4.265  11.138  0.0075 -0.7491 -0.5301
   35TMC2    C6  546   2.273   4.312  11.030 -0.4206 -0.2614 -0.3048
   35TMC2     C  547   2.687   4.273  10.965  0.5162 -0.6600 -1.0464
   35TMC2     O  548   2.727   4.295  10.855 -0.7130 -0.3144 -0.1887
   35TMC2     H  549   2.504   4.305  10.783 -0.2397 -2.3251  0.7485
   35TMC2    H1  550   2.544   4.201  11.203 -0.2802 -0.7370 -0.3652
   35TMC2    H2  551   2.166   4.321  11.025 -0.5945 -2.2499 -0.3096
   35TMC2    C7  552   2.276   4.181  11.232  0.0591  0.2849 -0.3470
   35TMC2    C8  553   2.243   4.350  10.801 -0.4303 -0.3603 -0.0294
   35TMC2    O1  554   2.333   4.098  11.305 -0.1259 -0.0234 -0.5320
   35TMC2    O2  555   2.263   4.296  10.696 -0.1399 -0.3487  0.0507
   35TMC2    O5  556   2.202   4.472  10.821 -0.2126 -0.7473 -0.6560
   35TMC2    H5  557   2.190   4.501  10.914 -0.6778  0.0845 -0.9721
   36MPD2     C  558   3.143   4.434  11.085 -0.0911  0.5922 -0.0741
   36MPD2    C1  559   3.110   4.340  11.184  0.3422  0.7761  0.5366
   36MPD2    C2  560   2.974   4.300  11.183 -0.3318 -0.2261  0.2184
   36MPD2    C3  561   2.886   4.338  11.077  0.8276 -0.2009  0.3184
   36MPD2    C4  562   2.934   4.428  10.987 -0.1682  0.3898  0.3791
   36MPD2    C5  563   3.055   4.476  10.991  1.1728  0.1132 -0.0007
   36MPD2     H  564   2.944   4.230  11.260  1.1363 -0.8528  0.2229
   36MPD2    H1  565   2.865   4.474  10.918 -1.0754  1.0717  1.7388
   36MPD2    H2  566   3.246   4.461  11.068  0.1855 -0.5404 -0.1685
   36MPD2    H3  567   3.088   4.550  10.919  1.5384  0.7269  0.8100
   36MPD2     N  568   2.758   4.289  11.077  1.0356  0.0872 -0.8278
   36MPD2    H5  569   2.722   4.244  11.161 -0.4508 -0.6084 -1.8445
   36MPD2    N1  570   3.216   4.297  11.276  0.4099  0.4627  0.4032
   36MPD2    H7  571   3.310   4.329  11.259 -0.5142  2.2524 -1.3175
   37TMC2    C1  572   0.160   0.117  11.604 -0.0388 -0.9439 -0.5280
   37TMC2    C2  573   0.080   0.153  11.500 -0.3283  0.1225 -0.2191
   37TMC2    C3  574   0.115   0.116  11.379 -0.1681 -0.2173  0.1437
   37TMC2    C4  575   0.266   0.032  11.591 -0.0866 -0.6648  1.0604
   37TMC2    C5  576   0.300   4.723  11.470  0.1904  0.3051 -0.0146
   37TMC2    C6  577   0.230   0.039  11.358  0.1569 -0.4868  0.5018
   37TMC2     C  578   0.078   0.113  11.728  0.1432  0.2150 -0.5569
   37TMC2     O  579   4.692   0.113  11.723 -0.3949  0.4205 -0.3181
   37TMC2     H  580   4.733   0.225  11.507 -0.8912 -0.5011 -0.3296
   37TMC2    H1  581   0.325   0.001  11.677  0.0055  0.9970  1.6133
   37TMC2    H2  582   0.242   4.721  11.265 -1.7417 -0.0493  0.0098
   37TMC2    C7  583   0.418   4.641  11.456  0.7773  0.3336  0.1051
   37TMC2    C8  584   0.028   0.135  11.264 -0.1440 -0.7561 -0.8789
   37TMC2    O1  585   0.512   4.653  11.534 -0.0444 -0.3996  0.0376
   37TMC2    O2  586   0.065   0.174  11.154  0.1671  0.3212  0.6230
   37TMC2    O5  587   4.637   0.150  11.310  0.2630  0.1859  0.1276
   37TMC2    H5  588   4.616   0.111  11.397 -1.3985  0.7032 -0.0494
   38MPD2     C  589   0.053   0.048  12.234  0.1945 -0.7782 -0.0023
   38MPD2    C1  590   0.183   0.066  12.195  0.3120  0.6793  0.1093
   38MPD2    C2  591   0.206   0.096  12.066 -0.7220 -0.3692 -0.4491
   38MPD2    C3  592   0.111   0.109  11.971 -0.4039  0.4778 -0.6395
   38MPD2    C4  593   4.715   0.120  12.018  0.4644  0.0876  0.3374
   38MPD2    C5  594   4.689   0.066  12.144 -0.3114  0.4235 -0.1765
   38MPD2     H  595   0.307   0.102  12.028 -0.4492 -3.1811 -0.1844
   38MPD2    H1  596   4.636   0.139  11.946  0.4418  1.2113  0.6604
   38MPD2    H2  597   0.026   0.012  12.332 -0.8625 -0.8307 -0.3144
   38MPD2    H3  598   4.586   0.038  12.162 -0.1912 -0.9744 -1.6109
   38MPD2     N  599   0.156   0.123  11.839 -0.0129  0.6139 -0.1470
   38MPD2    H5  600   0.257   0.133  11.828  0.5737 -2.3310  2.2630
   38MPD2    N1  601   0.299   0.050  12.272  0.6245  0.0120  0.3749
   38MPD2    H7  602   0.384   0.072  12.222  1.4551  0.1428  1.8640
   39TMC2    C1  603   3.350   1.705   1.851  0.5783 -0.1252 -0.7351
   39TMC2    C2  604   3.475   1.680   1.889 -0.0188  0.3673 -0.5567
   39TMC2    C3  605   3.555   1.790   1.916  0.3806 -0.8301  0.3936
   39TMC2    C4  606   3.304   1.833   1.839  0.3885  0.1005  0.3516
   39TMC2    C5  607   3.389   1.939   1.871  0.3285 -0.1011  0.3939
   39TMC2    C6  608   3.517   1.918   1.895  0.7037 -0.0925 -0.9266
   39TMC2     C  609   3.267   1.603   1.787 -0.5709  0.4140  1.0138
   39TMC2     O  610   3.147   1.629   1.785 -0.1685 -1.1655  0.6254
   39TMC2     H  611   3.511   1.579   1.901 -0.1213  0.3615 -0.2931
   39TMC2    H1  612   3.202   1.865   1.820 -0.0289 -0.9560  0.8099
   39TMC2    H2  613   3.580   1.996   1.936  0.1645 -0.5792  0.8329
   39TMC2    C7  614   3.334   2.073   1.862  0.0913 -1.2521  0.1673
   39TMC2    C8  615   3.695   1.779   1.945  0.2733  0.1990  0.0764
   39TMC2    O1  616   3.221   2.081   1.916  0.0725  0.0608 -0.6238
   39TMC2    O2  617   3.777   1.865   1.925  0.2835  0.0439 -0.3642
   39TMC2    O5  618   3.710   1.663   2.016 -0.2056  0.0878  0.1977
   39TMC2    H5  619   3.630   1.623   2.056  0.6306 -1.1177  0.6586
   40MPD2     C  620   3.374   1.274   1.665 -0.3019 -0.0368 -0.0686
   40MPD2    C1  621   3.293   1.383   1.673 -0.2443  0.5293 -0.2632
   40MPD2    C2  622   3.173   1.383   1.604  0.4107 -0.2813 -0.0521
   40MPD2    C3  623   3.143   1.278   1.517  0.2707  0.5052  0.1141
   40MPD2    C4  624   3.240   1.173   1.495 -0.0783 -1.0247 -0.2870
   40MPD2    C5  625   3.349   1.179   1.571 -0.1064  0.1151 -0.3196
   40MPD2     H  626   3.117   1.475   1.603 -0.8361 -1.0216  1.5586
   40MPD2    H1  627   3.226   1.096   1.420 -0.6074 -0.6422 -0.5806
   40MPD2    H2  628   3.469   1.260   1.715 -0.1332  2.6529  0.3721
   40MPD2    H3  629   3.421   1.100   1.559 -2.3101 -1.7054 -1.6326
   40MPD2     N  630   3.027   1.267   1.443 -0.2948 -0.1576  0.2722
   40MPD2    H5  631   3.031   1.182   1.388  1.1570  1.9062 -2.8103
   40MPD2    N1  632   3.344   1.491   1.746  1.0968  0.2686  0.3209
   40MPD2    H7  633   3.433   1.479   1.793  1.3629  1.3537  0.0899
   41TMC2    C1  634   2.874   4.586  13.293 -0.2306  0.6995  0.3786
   41TMC2    C2  635   2.969   4.506  13.347  0.8628 -0.1095 -0.5497
   41TMC2    C3  636   2.986   4.379  13.291  1.1164  0.0129 -0.2863
   41TMC2    C4  637   2.809   4.565  13.178  0.1099  0.0361  0.0197
   41TMC2    C5  638   2.834   4.439  13.126  0.2948  0.3307  0.6459
   41TMC2    C6  639   2.928   4.348  13.171 -0.2563  0.4734  0.0545
   41TMC2     C  640   2.887   4.726  13.336  0.8335  0.9118  0.3877
   41TMC2     O  641   2.996   0.037  13.353  0.0652  0.2861 -0.0788
   41TMC2     H  642   3.025   4.552  13.427  0.3814  0.5623 -0.5919
   41TMC2    H1  643   2.736   4.638  13.143  1.7161 -0.1778 -3.7368
   41TMC2    H2  644   2.927   4.242  13.150  0.6034  0.0036  2.3873
   41TMC2    C7  645   2.726   4.386  13.049  0.3102 -0.2198 -0.5073
   41TMC2    C8  646   3.040   4.271  13.365 -0.0557  0.0417  0.0326
   41TMC2    O1  647   2.611   4.416  13.069  0.7792 -0.3121 -0.2480
   41TMC2    O2  648   3.078   4.165  13.323  0.0408 -0.2614 -0.2656
   41TMC2    O5  649   3.001   4.295  13.490  0.4612  0.8072  0.0207
   41TMC2    H5  650   2.949   4.373  13.520  1.0649  1.7973 -1.5191
   42MPD2     C  651   2.852   0.279  13.418  0.0253 -0.4061  0.4533
   42MPD2    C1  652   2.767   0.170  13.451 -0.1803 -0.0596 -0.2805
   42MPD2    C2  653   2.662   0.193  13.530 -0.8968  0.6059  0.4401
   42MPD2    C3  654   2.661   0.309  13.607 -0.0355  0.5010  0.5130
   42MPD2    C4  655   2.744   0.410  13.572 -0.0923  0.2009  0.4711
   42MPD2    C5  656   2.837   0.396  13.480 -0.7497 -0.3460  0.4289
   42MPD2     H  657   2.592   0.114  13.553 -0.5859 -0.3827 -2.0792
   42MPD2    H1  658   2.742   0.507  13.620  2.3879  0.2524  0.4560
   42MPD2    H2  659   2.936   0.269  13.350 -1.7373  1.1780 -1.9521
   42MPD2    H3  660   2.911   0.476  13.471 -0.5932 -0.3128  2.1340
   42MPD2     N  661   2.565   0.333  13.708 -0.4858 -0.2761  0.4315
   42MPD2    H5  662   2.571   0.423  13.754 -0.4266 -0.3351  0.5389
   42MPD2    N1  663   2.774   0.048  13.383  0.5093 -1.0780 -0.8100
   42MPD2    H7  664   2.693   4.724  13.402 -1.4181  1.6754 -0.4900
   43TMC2    C1  665   3.774   2.362   0.951  0.7186  0.4167  0.4902
   43TMC2    C2  666   3.800   2.310   1.077  0.2781  0.6463 -0.6973
   43TMC2    C3  667   3.835   2.396   1.172  0.6331 -0.3432  0.4427
   43TMC2    C4  668   3.779   2.502   0.936  0.1481 -0.0527 -0.7180
   43TMC2    C5  669   3.811   2.581   1.040  0.1003  0.2538  0.1941
   43TMC2    C6  670   3.842   2.529   1.158 -0.9024  1.1744  0.0622
   43TMC2     C  671   3.749   2.276   0.836  0.0459  0.3255  0.7870
   43TMC2     O  672   3.777   2.160   0.841 -0.7459  0.6027  0.0392
   43TMC2     H  673   3.787   2.205   1.102  0.8851  0.6881 -0.1882
   43TMC2    H1  674   3.739   2.545   0.845 -2.3225 -0.2605  0.2478
   43TMC2    H2  675   3.899   2.585   1.231 -2.1944  1.7407  0.6257
   43TMC2    C7  676   3.802   2.722   1.016  0.3804  0.6096  0.3329
   43TMC2    C8  677   3.865   2.330   1.294  0.2548  0.7157 -0.3322
   43TMC2    O1  678   3.797   2.761   0.902 -0.1319  0.4201  0.5541
   43TMC2    O2  679   3.915   2.221   1.294 -0.5041 -0.5364  0.2325
   43TMC2    O5  680   3.858   2.414   1.402  0.0345 -0.7445  0.3005
   43TMC2    H5  681   3.796   2.488   1.388  1.1394  0.2963  0.9476
   44MPD2     C  682   3.524   2.168   0.383 -0.1023 -0.2070  0.1697
   44MPD2    C1  683   3.633   2.103   0.435 -0.4533 -0.0065 -0.7496
   44MPD2    C2  684   3.679   2.153   0.554 -0.2046  0.0157 -0.4162
   44MPD2    C3  685   3.617   2.264   0.617 -0.1469  0.6339 -0.3120
   44MPD2    C4  686   3.507   2.322   0.562 -1.0911  0.0838  0.6570
   44MPD2    C5  687   3.459   2.265   0.448 -0.4847 -0.2519 -0.4234
   44MPD2     H  688   3.762   2.109   0.608 -1.3504 -0.5504  0.8806
   44MPD2    H1  689   3.460   2.407   0.611 -0.6929  1.0712 -0.6834
   44MPD2    H2  690   3.476   2.138   0.291 -1.2702 -1.3513  1.1391
   44MPD2    H3  691   3.375   2.304   0.392 -0.3099 -0.0945 -0.5767
   44MPD2     N  692   3.661   2.331   0.741 -0.6308  0.0308  0.5195
   44MPD2    H5  693   3.626   2.425   0.758  1.7836  1.4135 -2.0191
   44MPD2    N1  694   3.714   1.997   0.371 -0.5375  0.0103 -0.1164
   44MPD2    H7  695   3.783   1.949   0.428 -0.8140 -1.2444 -0.8419
   45TMC2    C1  696   4.469   0.036   9.396 -0.1376 -0.1821 -0.2576
   45TMC2    C2  697   4.517   4.687   9.297 -0.1362 -0.5469 -0.6899
   45TMC2    C3  698   4.655   4.694   9.291 -0.1909 -0.1901  0.2984
   45TMC2    C4  699   4.547   0.112   9.477  0.0418  0.3022 -0.1772
   45TMC2    C5  700   4.682   0.112   9.465  0.0227  0.3953  0.9663
   45TMC2    C6  701   0.002   0.032   9.373 -0.6647 -0.4873 -0.3277
   45TMC2     C  702   4.326   0.074   9.401  0.0604  1.2173 -0.8842
   45TMC2     O  703   4.297   0.178   9.460 -0.3980 -0.0167  0.1416
   45TMC2     H  704   4.453   4.623   9.238 -0.4935 -0.1086 -0.7823
   45TMC2    H1  705   4.501   0.172   9.555 -0.6355  3.2749 -2.8610
   45TMC2    H2  706   0.108   0.015   9.360 -0.4329  0.0231  0.8733
   45TMC2    C7  707   0.020   0.189   9.567  0.9530 -0.3468 -0.4576
   45TMC2    C8  708   4.714   4.602   9.206 -0.4414 -0.2228 -0.3421
   45TMC2    O1  709   4.685   0.242   9.649  0.3150  0.5481 -0.0301
   45TMC2    O2  710   0.069   4.527   9.237 -0.1203  0.2656  0.5500
   45TMC2    O5  711   4.650   4.607   9.089 -0.3261  0.0173  0.4468
   45TMC2    H5  712   4.602   4.692   9.079 -1.5744 -1.0252 -2.4169
   46MPD2     C  713   4.055   4.594   9.278  0.3035  0.0520 -0.3207
   46MPD2    C1  714   4.105   4.713   9.326  0.0297 -0.3511 -0.4462
   46MPD2    C2  715   4.024   0.090   9.352 -0.7589  0.1430 -0.0685
   46MPD2    C3  716   3.887   0.084   9.328  0.0191 -0.0182 -0.6773
   46MPD2    C4  717   3.837   4.703   9.275  0.1569 -0.1865  0.4074
   46MPD2    C5  718   3.921   4.594   9.250  0.3857 -0.3562 -0.0473
   46MPD2     H  719   4.056   0.190   9.379 -1.0629  0.4714 -0.9242
   46MPD2    H1  720   3.731   4.689   9.256  0.1049 -1.6258  1.7975
   46MPD2    H2  721   4.121   4.513   9.250  1.8848  1.0751  0.4682
   46MPD2    H3  722   3.876   4.505   9.208 -0.7307  0.1583  0.0476
   46MPD2     N  723   3.809   0.194   9.368 -0.0920 -0.6972 -0.1033
   46MPD2    H5  724   3.857   0.281   9.389  0.7779 -1.3057  0.4286
   46MPD2    N1  725   4.244   4.713   9.343 -0.2891 -0.0845 -0.6847
   46MPD2    H7  726   4.291   4.623   9.330 -0.7177 -0.2352 -1.1837
   47TMC2    C1  727   1.271   0.883   9.768  0.4969  0.4512  0.4351
   47TMC2    C2  728   1.150   0.943   9.793 -0.5421 -0.4311  0.3819
   47TMC2    C3  729   1.047   0.894   9.715  0.8437  0.2055  0.9770
   47TMC2    C4  730   1.294   0.779   9.682 -0.2333 -0.8433  0.3686
   47TMC2    C5  731   1.188   0.739   9.608  0.2314 -0.1615 -0.8941
   47TMC2    C6  732   1.061   0.790   9.624 -0.3724 -0.0026 -0.0530
   47TMC2     C  733   1.385   0.953   9.831 -0.0693  0.2366  1.0686
   47TMC2     O  734   1.366   1.032   9.921 -0.5929 -0.2898  0.4759
   47TMC2     H  735   1.140   1.027   9.861  0.5198 -0.6006  0.7545
   47TMC2    H1  736   1.389   0.727   9.679 -1.0376 -2.1755 -2.3004
   47TMC2    H2  737   0.981   0.777   9.552 -1.5395 -1.1859  1.4616
   47TMC2    C7  738   1.212   0.641   9.505 -0.0339 -0.0735  0.0983
   47TMC2    C8  739   0.929   0.969   9.715 -0.5368 -0.0378 -0.5156
   47TMC2    O1  740   1.319   0.647   9.452 -0.2482  0.1401 -0.2547
   47TMC2    O2  741   0.868   0.976   9.610 -0.3129 -0.3216 -0.1302
   47TMC2    O5  742   0.908   1.042   9.825 -0.1401 -0.4047 -0.1630
   47TMC2    H5  743   0.933   0.994   9.907  0.4342  1.0189  0.5019
   48MPD2     C  744   1.649   1.076   9.879  0.6165  0.6293 -0.2849
   48MPD2    C1  745   1.629   0.971   9.801  0.3245  0.0740 -0.8479
   48MPD2    C2  746   1.736   0.935   9.720  1.2246  0.7597  0.2879
   48MPD2    C3  747   1.859   0.997   9.713 -0.0601 -0.3791 -0.1174
   48MPD2    C4  748   1.877   1.104   9.795 -0.8314  0.8611  0.1372
   48MPD2    C5  749   1.766   1.143   9.870  0.4029  0.3627  0.1155
   48MPD2     H  750   1.711   0.856   9.650  0.8824 -0.0424  1.3125
   48MPD2    H1  751   1.965   1.167   9.804 -2.0611  2.8454 -1.8602
   48MPD2    H2  752   1.579   1.125   9.947  1.6293  0.2752  1.0014
   48MPD2    H3  753   1.794   1.228   9.932 -2.0214  0.3332  1.2146
   48MPD2     N  754   1.963   0.934   9.637 -0.1145 -0.1906  0.3038
   48MPD2    H5  755   1.936   0.851   9.584  3.7061 -0.1296 -1.7394
   48MPD2    N1  756   1.503   0.915   9.774  0.2360 -0.4110 -0.8241
   48MPD2    H7  757   1.511   0.839   9.708  2.0592  0.6557 -1.8499
   49TMC2    C1  758   0.262   3.329   9.708  0.3913  0.2068 -0.3303
   49TMC2    C2  759   0.210   3.445   9.653 -0.6742 -0.0274 -0.1222
   49TMC2    C3  760   0.084   3.441   9.592  0.1253  0.7560  0.7764
   49TMC2    C4  761   0.178   3.218   9.713  0.4124 -0.3549  0.5749
   49TMC2    C5  762   0.057   3.223   9.651 -0.5799  0.0710 -0.4110
   49TMC2    C6  763   0.005   3.331   9.596 -0.1291  0.1888 -0.3447
   49TMC2     C  764   0.397   3.333   9.754  0.8143 -1.2168  0.1902
   49TMC2     O  765   0.470   3.393   9.676  0.2425  0.2861 -0.8539
   49TMC2     H  766   0.278   3.529   9.641  0.4452 -0.5807  2.4545
   49TMC2    H1  767   0.225   3.124   9.739  4.1017  1.4895  0.5023
   49TMC2    H2  768   4.637   3.345   9.565 -0.1013 -0.9831 -0.9917
   49TMC2    C7  769   4.709   3.107   9.644  1.1549 -0.2798  0.1514
   49TMC2    C8  770   0.026   3.564   9.551 -0.1169  0.5029 -0.1402
   49TMC2    O1  771   4.619   3.097   9.563 -0.1186 -0.1877  0.6445
   49TMC2    O2  772   4.640   3.591   9.553 -0.3655 -0.1688 -0.8047
   49TMC2    O5  773   0.117   3.629   9.477  0.1744 -0.1684 -0.0216
   49TMC2    H5  774   0.196   3.571   9.469 -0.8626 -1.5287 -0.4665
   50MPD2     C  775   0.671   3.248   9.830 -0.5638  0.4361 -0.6508
   50MPD2    C1  776   0.557   3.210   9.893 -0.0077 -1.0489 -0.0686
   50MPD2    C2  777   0.573   3.148  10.022 -0.1297 -0.0562 -0.6954
   50MPD2    C3  778   0.696   3.105  10.067 -0.3736  0.6254  0.0583
   50MPD2    C4  779   0.807   3.123   9.989 -0.0087  0.8611  0.4019
   50MPD2    C5  780   0.795   3.200   9.874  0.0000  0.4181  1.1431
   50MPD2     H  781   0.483   3.134  10.079  1.1572  0.7610  1.5466
   50MPD2    H1  782   0.900   3.076  10.017  0.1460  0.9402  0.0233
   50MPD2    H2  783   0.678   3.314   9.744  2.1610 -0.4215 -1.0620
   50MPD2    H3  784   0.881   3.216   9.809 -0.6859  1.4069  0.4716
   50MPD2     N  785   0.714   3.038  10.188 -0.1740 -0.0306  0.5674
   50MPD2    H5  786   0.800   2.987  10.203  0.4407  1.1917  1.1193
   50MPD2    N1  787   0.432   3.240   9.844  0.4837 -0.1698  0.1646
   50MPD2    H7  788   0.354   3.186   9.880 -0.7149  1.7394  0.4794
   51TMC2    C1  789   0.574   1.814   1.157  0.0827 -0.1083 -0.1671
   51TMC2    C2  790   0.440   1.777   1.147 -0.5832 -0.1408  0.4498
   51TMC2    C3  791   0.364   1.847   1.066  0.4686  0.3115 -0.3395
   51TMC2    C4  792   0.625   1.909   1.072  0.1021 -0.1799  0.2973
   51TMC2    C5  793   0.547   1.971   0.994  0.1330 -0.5282 -0.5556
   51TMC2    C6  794   0.417   1.936   0.975 -0.4045  0.1024 -0.1069
   51TMC2     C  795   0.681   1.730   1.218 -0.2828  0.8762 -0.1087
   51TMC2     O  796   0.786   1.725   1.148 -0.7086  0.1506  0.2524
   51TMC2     H  797   0.394   1.701   1.210  0.3245  0.2950  1.6441
   51TMC2    H1  798   0.729   1.936   1.082  0.9239 -1.9474 -3.7817
   51TMC2    H2  799   0.340   1.991   0.921  0.9174  2.0976  0.0916
   51TMC2    C7  800   0.586   2.105   0.949 -0.2866  0.9210  0.8864
   51TMC2    C8  801   0.232   1.850   1.092 -0.6684  0.6213 -0.0332
   51TMC2    O1  802   0.691   2.147   0.999 -0.1156  0.1118  0.7450
   51TMC2    O2  803   0.158   1.901   1.006 -0.5188 -0.4259  0.4362
   51TMC2    O5  804   0.235   1.895   1.222  0.7816  0.3848 -0.0692
   51TMC2    H5  805   0.299   1.841   1.273 -0.2679 -1.3721 -0.6118
   52MPD2     C  806   0.852   1.412   1.566 -0.6379  0.3104  1.2071
   52MPD2    C1  807   0.890   1.438   1.439  0.1845 -0.0427  0.9537
   52MPD2    C2  808   0.807   1.508   1.355  0.0401  0.3427 -0.9563
   52MPD2    C3  809   0.695   1.569   1.395  0.4434 -0.0227  0.3893
   52MPD2    C4  810   0.658   1.535   1.524 -0.0829  0.0297 -0.5494
   52MPD2    C5  811   0.730   1.451   1.608  0.3341  0.0445 -1.1109
   52MPD2     H  812   0.838   1.512   1.251 -2.1370 -0.5287 -1.6468
   52MPD2    H1  813   0.561   1.562   1.566 -0.2952  0.8894 -1.6007
   52MPD2    H2  814   0.920   1.361   1.634  2.5690  1.0354 -1.4898
   52MPD2    H3  815   0.683   1.428   1.703 -3.0124 -1.2232 -3.0419
   52MPD2     N  816   0.625   1.661   1.320  0.7729 -0.0297  0.4173
   52MPD2    H5  817   0.535   1.689   1.358 -0.2168 -2.6688  0.0102
   52MPD2    N1  818   1.000   1.385   1.376 -0.0632  0.0589 -0.6656
   52MPD2    H7  819   1.019   1.396   1.277  0.2252 -0.6534 -0.6901
   53TMC2    C1  820   0.954   4.148  11.567 -0.3650 -0.3460  0.6419
   53TMC2    C2  821   1.051   4.048  11.548  0.1811  0.6417 -0.4398
   53TMC2    C3  822   1.168   4.064  11.619  0.0920  0.4495 -0.1593
   53TMC2    C4  823   0.976   4.265  11.638 -0.3870 -0.5953  0.9860
   53TMC2    C5  824   1.095   4.265  11.708  0.1604  0.4801  0.4072
   53TMC2    C6  825   1.191   4.167  11.705  0.6100 -0.4404 -0.0392
   53TMC2     C  826   0.835   4.129  11.490 -0.3024  0.0330  0.8359
   53TMC2     O  827   0.803   4.014  11.465 -0.0036  0.4795 -0.5541
   53TMC2     H  828   1.019   3.965  11.486  0.1979 -0.2181  0.7041
   53TMC2    H1  829   0.901   4.340  11.661  1.6103  1.6679  0.1452
   53TMC2    H2  830   1.291   4.188  11.739  0.9445 -2.4060  0.2239
   53TMC2    C7  831   1.114   4.391  11.791 -0.4616  0.0907 -0.4062
   53TMC2    C8  832   1.285   3.974  11.589  0.6928 -0.0142  0.2559
   53TMC2    O1  833   1.040   4.481  11.775  0.0627 -0.6657  0.1385
   53TMC2    O2  834   1.385   3.982  11.662 -0.0167  0.0557 -0.5193
   53TMC2    O5  835   1.291   3.985  11.458 -0.1064 -0.6772  0.7819
   53TMC2    H5  836   1.204   4.004  11.417  0.5938  1.4484  0.2923
   54MPD2     C  837   0.571   4.162  11.352  0.1249 -0.0856 -0.5884
   54MPD2    C1  838   0.631   4.262  11.426 -0.1924  0.0739 -0.2142
   54MPD2    C2  839   0.576   4.390  11.415 -0.2961  1.1904 -0.6292
   54MPD2    C3  840   0.457   4.425  11.351  0.1370  0.5360 -0.5162
   54MPD2    C4  841   0.395   4.317  11.286 -0.7093 -0.5810  0.7540
   54MPD2    C5  842   0.456   4.195  11.277 -0.6344 -0.7409  0.2489
   54MPD2     H  843   0.624   4.471  11.468 -1.6648  0.7774  1.2342
   54MPD2    H1  844   0.300   4.324  11.236 -0.6687 -3.0704  0.3060
   54MPD2    H2  845   0.613   4.062  11.351  0.1713 -0.0686  1.4771
   54MPD2    H3  846   0.400   4.118  11.225 -1.9766  0.9966 -0.8492
   54MPD2     N  847   0.396   4.547  11.368  0.3786  0.3195  0.5169
   54MPD2    H5  848   0.307   4.550  11.318  1.0361  1.1067 -0.6002
   54MPD2    N1  849   0.758   4.243  11.486  0.0321  0.0209 -0.2030
   54MPD2    H7  850   0.808   4.327  11.512  0.3881 -0.1754 -0.2552
   55TMC2    C1  851   2.072   2.740  17.607 -0.1308 -0.8258 -0.4712
   55TMC2    C2  852   2.042   2.678  17.487  0.4374  0.4992 -0.1584
   55TMC2    C3  853   2.027   2.541  17.486  0.1340  1.0282 -0.1855
   55TMC2    C4  854   2.077   2.674  17.726  0.8610  0.1917  0.3115
   55TMC2    C5  855   2.033   2.537  17.721  0.3990  0.5311 -0.0640
   55TMC2    C6  856   2.016   2.470  17.601 -0.6951  0.1357 -0.0428
   55TMC2     C  857   2.048   2.882  17.629  0.1287 -0.3237 -0.0005
   55TMC2     O  858   2.037   2.927   0.001 -0.5429  0.3641 -0.0895
   55TMC2     H  859   2.024   2.725  17.391  1.1308 -0.0032 -0.5415
   55TMC2    H1  860   2.088   2.724   0.084 -1.2156 -0.4187  0.8572
   55TMC2    H2  861   1.989   2.365  17.597 -0.5626  0.1497 -1.1840
   55TMC2    C7  862   2.019   2.462   0.106 -0.5964 -0.1409 -1.1304
   55TMC2    C8  863   1.945   2.494  17.372 -0.0834  0.8888  0.0863
   55TMC2    O1  864   2.043   2.342   0.102 -0.7321 -0.1457 -0.0286
   55TMC2    O2  865   1.974   2.417  17.278  0.0388 -0.1477  0.1681
   55TMC2    O5  866   1.837   2.574  17.376 -0.2154 -0.1088  0.4211
   55TMC2    H5  867   1.822   2.616  17.463 -0.7579 -1.6028  1.0508
   56MPD2     C  868   2.090   3.155  17.393 -0.2112 -0.3975  0.5106
   56MPD2    C1  869   2.034   3.085  17.503 -0.2425 -0.8757 -0.1126
   56MPD2    C2  870   1.963   3.155  17.601  0.5659  0.8746  0.3637
   56MPD2    C3  871   1.940   3.289  17.584 -0.1464 -0.7931  0.8816
   56MPD2    C4  872   1.989   3.351  17.474  0.3363  0.2713  0.0084
   56MPD2    C5  873   2.069   3.288  17.386  0.4589  0.2752  0.5890
   56MPD2     H  874   1.922   3.112  17.691 -1.4539 -2.6604 -2.2837
   56MPD2    H1  875   1.979   3.459  17.469  1.9241  0.2782 -3.3445
   56MPD2    H2  876   2.156   3.097  17.330  0.8024  0.9340  0.3441
   56MPD2    H3  877   2.115   3.337  17.301  0.3421 -1.4161 -0.4578
   56MPD2     N  878   1.850   3.353  17.666  0.1420  0.7020 -0.7186
   56MPD2    H5  879   1.827   3.309   0.017 -0.2732  0.3237 -1.0110
   56MPD2    N1  880   2.054   2.946  17.511 -0.7053  0.1688 -0.8674
   56MPD2    H7  881   2.093   2.902  17.428 -1.0803  1.7875 -1.9074
   57TMC2    C1  882   0.494   3.261  13.426  0.8949  0.7447  0.1543
   57TMC2    C2  883   0.416   3.193  13.342 -0.3318  0.2077 -0.1395
   57TMC2    C3  884   0.476   3.129  13.240 -0.1918  0.4074  0.7679
   57TMC2    C4  885   0.629   3.271  13.405  0.2330  0.8779 -0.8124
   57TMC2    C5  886   0.689   3.210  13.300 -0.3980 -0.2487 -0.4275
   57TMC2    C6  887   0.612   3.125  13.221  0.1146  0.5134 -0.3998
   57TMC2     C  888   0.427   3.339  13.533 -0.0575  0.5379  0.1538
   57TMC2     O  889   0.315   3.384  13.513 -0.3153  0.4820 -0.2907
   57TMC2     H  890   0.308   3.189  13.347 -0.2981 -0.6356 -0.0994
   57TMC2    H1  891   0.691   3.325  13.476 -2.4215  1.7235  0.8414
   57TMC2    H2  892   0.648   3.066  13.137  2.4904  1.2412  0.1233
   57TMC2    C7  893   0.836   3.200  13.305  0.5284  0.5343  0.1471
   57TMC2    C8  894   0.392   3.023  13.184  0.6003  0.1026 -0.9066
   57TMC2    O1  895   0.896   3.295  13.351 -0.5245 -0.2732 -0.0974
   57TMC2    O2  896   0.435   2.911  13.175 -0.6876 -0.2085 -0.1750
   57TMC2    O5  897   0.301   3.088  13.106  0.3807  1.3370  0.3252
   57TMC2    H5  898   0.299   3.186  13.109 -2.0088  1.2406  1.4349
   58MPD2     C  899   0.445   3.545  14.000 -0.9373  1.5824  0.0561
   58MPD2    C1  900   0.343   3.546  13.910  0.2418  0.1547  0.2138
   58MPD2    C2  901   0.355   3.474  13.792 -0.3667 -0.5095 -0.5559
   58MPD2    C3  902   0.476   3.407  13.765  0.6034  0.6854  0.1376
   58MPD2    C4  903   0.579   3.408  13.854  0.5025  0.1993  0.4870
   58MPD2    C5  904   0.561   3.472  13.971 -0.3824 -0.0323  0.5173
   58MPD2     H  905   0.270   3.470  13.726 -2.1627 -3.1392  1.9259
   58MPD2    H1  906   0.677   3.362  13.842  0.0292 -0.3277 -1.3306
   58MPD2    H2  907   0.442   3.615  14.083 -0.7348  0.6851  0.8261
   58MPD2    H3  908   0.646   3.485  14.037  0.9288  0.7325 -1.3337
   58MPD2     N  909   0.507   3.346  13.641 -0.2990  0.2154 -0.3320
   58MPD2    H5  910   0.594   3.294  13.630 -0.5493 -0.8917  2.9179
   58MPD2    N1  911   0.234   3.640  13.924 -0.4534  0.1514  0.1866
   58MPD2    H7  912   0.187   3.660  13.836 -0.8741  2.7792  1.0066
   59TMC2    C1  913   3.595   3.690  12.464 -0.3472 -0.5127 -0.8208
   59TMC2    C2  914   3.603   3.600  12.566  0.2088  0.4101  0.3570
   59TMC2    C3  915   3.517   3.492  12.543  0.1977  0.6738 -0.3668
   59TMC2    C4  916   3.516   3.675  12.353 -0.4876  0.3891 -0.2056
   59TMC2    C5  917   3.445   3.568  12.335  0.0194 -0.1256 -0.2962
   59TMC2    C6  918   3.435   3.481  12.433  0.5301 -0.2095  0.3102
   59TMC2     C  919   3.669   3.812  12.485  0.1552 -0.8146  0.3839
   59TMC2     O  920   3.702   3.868  12.380 -0.8176 -0.3739 -0.5523
   59TMC2     H  921   3.676   3.590  12.644 -0.7575 -1.3002  1.0387
   59TMC2    H1  922   3.518   3.757  12.282  1.6219  0.9697  0.5335
   59TMC2    H2  923   3.374   3.391  12.426 -1.3244  1.2768 -2.7233
   59TMC2    C7  924   3.350   3.571  12.236 -0.1232 -0.0150 -0.2738
   59TMC2    C8  925   3.520   3.379  12.634  0.3383  0.0570 -0.0758
   59TMC2    O1  926   3.244   3.512  12.253 -0.8205  0.0097  0.0317
   59TMC2    O2  927   3.467   3.389  12.747 -0.2955  0.1082 -0.0685
   59TMC2    O5  928   3.653   3.338  12.629  0.2176 -0.4212 -0.3873
   59TMC2    H5  929   3.694   3.345  12.541 -2.5883 -2.0720 -1.8280
   60MPD2     C  930   3.823   4.050  12.572 -0.3334 -0.4742  0.2108
   60MPD2    C1  931   3.768   3.957  12.660  0.2658  0.3307  0.6740
   60MPD2    C2  932   3.795   3.962  12.791  0.1513 -0.1457  0.1417
   60MPD2    C3  933   3.882   4.064  12.838  0.2377 -0.3075  0.2016
   60MPD2    C4  934   3.941   4.155  12.748  0.4519 -0.9762 -0.0088
   60MPD2    C5  935   3.903   4.153  12.618  0.0734  0.1368 -0.1141
   60MPD2     H  936   3.754   3.885  12.855 -1.4341  0.8611  0.3392
   60MPD2    H1  937   4.007   4.232  12.786 -0.6485 -0.4326  0.8043
   60MPD2    H2  938   3.803   4.046  12.465 -2.5731 -0.6316  0.6415
   60MPD2    H3  939   3.941   4.223  12.544  0.0051  2.2253  1.8058
   60MPD2     N  940   3.915   4.094  12.978  0.0760  0.9679 -0.1609
   60MPD2    H5  941   3.970   4.176  13.003  1.6383  0.3567 -1.5323
   60MPD2    N1  942   3.692   3.842  12.619 -0.1264  0.3193 -0.7512
   60MPD2    H7  943   3.644   3.784  12.687  0.1417  1.1964  0.1826
   61TMC2    C1  944   2.464   1.164  15.804  1.0510 -0.0276 -0.2715
   61TMC2    C2  945   2.528   1.185  15.921  0.2633  0.3634  0.1554
   61TMC2    C3  946   2.642   1.261  15.927 -1.1935 -0.4827  0.0326
   61TMC2    C4  947   2.512   1.218  15.691  0.5724 -0.4296  1.1653
   61TMC2    C5  948   2.623   1.305  15.698 -0.0346  0.2243  0.0451
   61TMC2    C6  949   2.690   1.324  15.817  0.1593  0.1222 -0.4472
   61TMC2     C  950   2.413   1.030  15.794  0.1467 -0.8136  0.1837
   61TMC2     O  951   2.350   0.981  15.892  0.3817  0.0104  0.3074
   61TMC2     H  952   2.492   1.133  16.009  1.0453  0.4401  0.5193
   61TMC2    H1  953   2.464   1.202  15.595  1.8467 -0.0760  0.4770
   61TMC2    H2  954   2.788   1.369  15.825 -0.8047  2.1852 -0.1264
   61TMC2    C7  955   2.705   1.297  15.584 -0.5330 -0.0760  0.4990
   61TMC2    C8  956   2.747   1.216  16.018  0.0794 -0.8886  0.3941
   61TMC2    O1  957   2.690   1.381  15.496  0.0773 -0.4744 -0.0278
   61TMC2    O2  958   2.766   1.100  16.042  0.0671  0.3686  0.3772
   61TMC2    O5  959   2.829   1.319  16.052 -0.1201  0.2974 -0.2001
   61TMC2    H5  960   2.788   1.403  16.025  0.0408 -0.1623 -1.9150
   62MPD2     C  961   2.280   0.795  15.668  0.5151  0.5505  0.2927
   62MPD2    C1  962   2.391   0.858  15.608  0.4390  0.6034  1.0562
   62MPD2    C2  963   2.463   0.809  15.501 -0.3215  0.3288 -0.3472
   62MPD2    C3  964   2.419   0.691  15.443 -0.1516  0.4359 -0.2539
   62MPD2    C4  965   2.313   0.620  15.498  0.2076 -0.4290 -0.0267
   62MPD2    C5  966   2.242   0.676  15.598 -0.5450 -0.4003 -0.3880
   62MPD2     H  967   2.547   0.868  15.466 -1.5038  1.4916 -1.1706
   62MPD2    H1  968   2.267   0.534  15.451  0.5143  0.7410 -2.4534
   62MPD2    H2  969   2.228   0.827  15.757  1.2196  1.5050  0.3566
   62MPD2    H3  970   2.154   0.624  15.632 -0.6955  0.0289 -0.1152
   62MPD2     N  971   2.482   0.642  15.324 -0.0253 -0.3465  0.4450
   62MPD2    H5  972   2.456   0.548  15.296  1.7800  0.0334 -2.5447
   62MPD2    N1  973   2.439   0.981  15.663  0.1724 -0.5107  0.6204
   62MPD2    H7  974   2.504   1.034  15.606  1.2511  0.0962  2.3988
   63TMC2    C1  975   1.873   1.037  10.710 -0.3633  0.2003  1.1212
   63TMC2    C2  976   1.766   1.125  10.701 -0.4431 -0.2113 -0.4299
   63TMC2    C3  977   1.776   1.218  10.610  0.1305 -0.0424 -0.1074
   63TMC2    C4  978   1.988   1.054  10.633  0.6880 -0.2672  0.1718
   63TMC2    C5  979   1.992   1.160  10.545 -0.6026  0.0915  0.0598
   63TMC2    C6  980   1.885   1.238  10.529 -0.4629  0.4873  0.5313
   63TMC2     C  981   1.864   0.934  10.804  0.0385  0.3759  0.0652
   63TMC2     O  982   1.776   0.942  10.892 -1.1569  0.2745  0.8443
   63TMC2     H  983   1.672   1.106  10.750  0.4894 -2.5582  0.4653
   63TMC2    H1  984   2.076   0.990  10.636  0.3951 -0.7254 -1.1332
   63TMC2    H2  985   1.891   1.316  10.454  0.1571 -1.2663 -1.2264
   63TMC2    C7  986   2.121   1.207  10.487  0.2455 -0.5091 -0.4218
   63TMC2    C8  987   1.659   1.290  10.563  0.2158  0.7656 -0.3075
   63TMC2    O1  988   2.122   1.263  10.380 -0.6782 -0.3045 -0.1770
   63TMC2    O2  989   1.662   1.362  10.463 -0.0957  0.3737 -0.2691
   63TMC2    O5  990   1.554   1.291  10.657 -0.3734 -0.4749 -0.4457
   63TMC2    H5  991   1.559   1.227  10.731 -0.4363  0.6827  0.5503
   64MPD2     C  992   2.081   0.528  11.037 -0.2315 -0.0183 -0.1254
   64MPD2    C1  993   2.128   0.538  10.910  0.3748 -0.7998 -1.0734
   64MPD2    C2  994   2.091   0.647  10.834 -0.0822 -0.7913 -0.1104
   64MPD2    C3  995   1.991   0.735  10.877 -0.2655 -0.9379 -0.7640
   64MPD2    C4  996   1.953   0.725  11.009  0.1671  0.4414  0.5844
   64MPD2    C5  997   1.998   0.626  11.085  0.5415  0.2766 -0.2737
   64MPD2     H  998   2.124   0.640  10.731  1.9775  0.2815  0.4830
   64MPD2    H1  999   1.888   0.797  11.058 -2.7892 -1.3956 -0.7189
   64MPD2    H2 1000   2.111   0.446  11.102  2.7934 -0.6978 -2.4029
   64MPD2    H3 1001   1.975   0.637  11.191  2.1266 -0.6789  0.1850
   64MPD2     N 1002   1.957   0.835  10.789 -0.2741  1.1208  0.2250
   64MPD2    H5 1003   2.000   0.835  10.697  1.7424 -1.3314  1.1828
   64MPD2    N1 1004   2.202   0.439  10.844 -0.7453  0.2550  0.1885
   64MPD2    H7 1005   2.234   0.450  10.748  0.6737 -1.7898  0.4206
   65TMC2    C1 1006   3.814   0.127  16.091  0.6151  0.5234  0.3869
   65TMC2    C2 1007   3.799   0.202  16.204  0.7382  0.0495 -0.2585
   65TMC2    C3 1008   3.748   0.332  16.178 -0.0682  0.1448  0.0839
   65TMC2    C4 1009   3.784   0.176  15.967  0.1039 -0.4607  0.0929
   65TMC2    C5 1010   3.719   0.292  15.951 -0.1080  0.1466  0.4908
   65TMC2    C6 1011   3.696   0.376  16.058  0.3645 -0.9830 -0.6976
   65TMC2     C 1012   3.861   4.727  16.121  0.1708  0.0922  0.2703
   65TMC2     O 1013   3.906   4.702  16.235 -0.0916 -0.4651  0.2015
   65TMC2     H 1014   3.821   0.168  16.305  1.4200 -0.9452 -0.7483
   65TMC2    H1 1015   3.824   0.116  15.886 -0.2599 -0.1553 -0.3161
   65TMC2    H2 1016   3.636   0.466  16.053 -1.5261 -2.2426 -0.7641
   65TMC2    C7 1017   3.696   0.341  15.813  1.0650 -0.4289 -0.2417
   65TMC2    C8 1018   3.704   0.402  16.301  0.3905  0.6653 -0.2098
   65TMC2    O1 1019   3.748   0.284  15.722  0.3012  0.3461  0.4692
   65TMC2    O2 1020   3.633   0.504  16.280 -0.7005  0.2396 -0.0085
   65TMC2    O5 1021   3.778   0.376  16.411  1.0623  0.7788 -0.3029
   65TMC2    H5 1022   3.853   0.315  16.399  0.2023 -0.0572 -1.4230
   66MPD2     C 1023   3.969   4.455  16.099  0.3913 -0.0508 -0.7297
   66MPD2    C1 1024   3.859   4.499  16.031  0.3257 -0.8848  0.0824
   66MPD2    C2 1025   3.779   4.410  15.959 -0.9222  0.2261 -0.3644
   66MPD2    C3 1026   3.815   4.274  15.959  0.3126  0.1465  1.0303
   66MPD2    C4 1027   3.917   4.233  16.036 -0.0352 -0.0058 -0.3178
   66MPD2    C5 1028   4.000   4.324  16.101  0.1622 -0.4976 -0.3189
   66MPD2     H 1029   3.696   4.444  15.899  1.9005  1.9764 -3.2353
   66MPD2    H1 1030   3.939   4.127  16.040 -2.5806 -0.5343 -0.1949
   66MPD2    H2 1031   4.029   4.518  16.164 -0.4755  0.0088  0.0106
   66MPD2    H3 1032   4.079   4.291  16.168  1.8238  1.8716 -1.1364
   66MPD2     N 1033   3.761   4.181  15.879 -0.6901 -0.0441 -0.2707
   66MPD2    H5 1034   3.786   4.083  15.894  0.3347  0.0030 -1.6709
   66MPD2    N1 1035   3.816   4.638  16.032 -0.3343  0.4806 -0.6715
   66MPD2    H7 1036   3.744   4.665  15.966 -1.9378 -2.0633  0.0691
   67TMC2    C1 1037   3.471   3.810  14.291 -0.0511 -0.1445  0.6628
   67TMC2    C2 1038   3.492   3.772  14.165  0.4201 -0.1960 -0.1814
   67TMC2    C3 1039   3.619   3.785  14.114  0.1429  0.8154 -0.1704
   67TMC2    C4 1040   3.578   3.857  14.363  0.4407 -0.1442 -0.2840
   67TMC2    C5 1041   3.700   3.891  14.311  0.3474  0.1828  0.9094
   67TMC2    C6 1042   3.719   3.852  14.187  0.0594  0.6506 -0.1326
   67TMC2     C 1043   3.355   3.761  14.367  0.3458  0.4098  0.2541
   67TMC2     O 1044   3.371   3.738  14.486  0.3739 -0.1450  0.1598
   67TMC2     H 1045   3.407   3.724  14.118 -0.7424  1.6493  0.0277
   67TMC2    H1 1046   3.550   3.894  14.461  0.5201  0.0584 -0.3377
   67TMC2    H2 1047   3.821   3.844  14.149 -0.1948  1.6787 -1.0462
   67TMC2    C7 1048   3.807   3.930  14.400  0.7528 -0.4326  0.1799
   67TMC2    C8 1049   3.636   3.753  13.971 -0.4485 -0.3956 -0.3885
   67TMC2    O1 1050   3.918   3.923  14.349  0.0472  1.0728 -0.0712
   67TMC2    O2 1051   3.566   3.677  13.905 -0.2094  0.1105 -0.3089
   67TMC2    O5 1052   3.732   3.836  13.928  0.1167  0.0916 -0.3203
   67TMC2    H5 1053   3.774   3.893  13.996  0.1382  1.3941 -1.4327
   68MPD2     C 1054   3.080   3.664  14.456 -0.3087  0.3429  0.9230
   68MPD2    C1 1055   3.104   3.748  14.348 -0.0457 -0.2015 -0.3711
   68MPD2    C2 1056   2.999   3.788  14.269  0.0369  0.2599  0.1178
   68MPD2    C3 1057   2.871   3.760  14.313  0.3025 -0.0935 -0.6205
   68MPD2    C4 1058   2.850   3.679  14.418  0.2873 -0.5954 -0.3408
   68MPD2    C5 1059   2.951   3.630  14.491  0.0434 -1.4068  0.1341
   68MPD2     H 1060   3.016   3.843  14.177  1.5903 -1.0733 -0.3875
   68MPD2    H1 1061   2.753   3.637  14.439  0.0015  0.0858 -0.3042
   68MPD2    H2 1062   3.162   3.612  14.505 -0.8011 -0.8122  0.5102
   68MPD2    H3 1063   2.940   3.548  14.561 -1.0176  1.2754  3.1426
   68MPD2     N 1064   2.754   3.790  14.249  0.0196  0.0785 -0.2574
   68MPD2    H5 1065   2.672   3.748  14.292  1.4317  0.8813  3.2575
   68MPD2    N1 1066   3.236   3.779  14.301  0.3581  0.3133  0.0337
   68MPD2    H7 1067   3.248   3.824  14.210  0.2347  0.6095  0.1621
   69TMC2    C1 1068   1.364   0.281  12.032  0.1169  0.2690 -0.1521
   69TMC2    C2 1069   1.239   0.320  11.987 -0.5271 -0.5192 -0.3032
   69TMC2    C3 1070   1.193   0.273  11.861  0.6327  0.1920 -0.1359
   69TMC2    C4 1071   1.448   0.207  11.956  0.2291  0.9064 -0.4795
   69TMC2    C5 1072   1.398   0.160  11.834  0.3786 -0.2425 -0.5264
   69TMC2    C6 1073   1.272   0.194  11.785 -0.2899  0.3770  0.7383
   69TMC2     C 1074   1.397   0.323  12.166 -0.0542  0.4094 -0.3686
   69TMC2     O 1075   1.315   0.377  12.242 -0.2268  0.3174 -0.1799
   69TMC2     H 1076   1.179   0.387  12.047  1.2071  0.2663  0.5664
   69TMC2    H1 1077   1.542   0.169  11.993 -0.6176 -0.6230  0.0609
   69TMC2    H2 1078   1.236   0.160  11.688  1.4362  0.8564 -0.0784
   69TMC2    C7 1079   1.489   0.077  11.753 -0.1366 -0.5113  0.4307
   69TMC2    C8 1080   1.050   0.265  11.860 -0.7037  0.6008 -0.4381
   69TMC2    O1 1081   1.606   0.100  11.773  0.3235 -0.4374  0.6172
   69TMC2    O2 1082   0.987   0.338  11.931  0.2305 -0.3305 -0.5689
   69TMC2    O5 1083   1.015   0.139  11.809 -0.2554 -0.1954  0.3201
   69TMC2    H5 1084   1.079   0.084  11.758  0.1620 -0.6686  1.3641
   70MPD2     C 1085   1.717   0.254  12.347  0.3681 -0.8879  0.2197
   70MPD2    C1 1086   1.576   0.269  12.332  0.6676 -0.4199  0.0007
   70MPD2    C2 1087   1.494   0.254  12.441  0.0976 -0.5061  0.0472
   70MPD2    C3 1088   1.550   0.236  12.564  0.5273  0.3651  0.0787
   70MPD2    C4 1089   1.685   0.230  12.575 -0.1756  0.5126 -0.3329
   70MPD2    C5 1090   1.775   0.230  12.473 -0.8363  0.4857 -0.2213
   70MPD2     H 1091   1.388   0.254  12.418  0.2938  1.3882 -0.9241
   70MPD2    H1 1092   1.729   0.212  12.672 -2.9551  0.8016  0.9768
   70MPD2    H2 1093   1.780   0.255  12.259  0.7749  0.6067  0.5203
   70MPD2    H3 1094   1.879   0.209  12.491 -0.5592 -0.1963 -2.6149
   70MPD2     N 1095   1.481   0.213  12.684  0.5136  0.0307 -0.5162
   70MPD2    H5 1096   1.538   0.193  12.765  2.0081 -2.2777 -2.1596
   70MPD2    N1 1097   1.524   0.282  12.200  0.5274 -0.4404 -0.9073
   70MPD2    H7 1098   1.597   0.271  12.131  2.2379 -1.9857  1.1333
   71TMC2    C1 1099   2.842   1.136   1.764 -0.0199  0.4342  0.4624
   71TMC2    C2 1100   2.947   1.209   1.809 -0.1002 -0.4213 -0.2991
   71TMC2    C3 1101   2.931   1.298   1.913  0.3360  0.6651 -1.0016
   71TMC2    C4 1102   2.711   1.165   1.803 -0.1064 -0.1223 -0.2044
   71TMC2    C5 1103   2.693   1.266   1.891  0.3331  0.2818 -0.3918
   71TMC2    C6 1104   2.802   1.332   1.949 -0.6770 -0.1808  0.1118
   71TMC2     C 1105   2.867   1.033   1.664  0.3236  0.3296 -0.1286
   71TMC2     O 1106   2.986   1.007   1.638  0.2132 -0.6889 -0.2201
   71TMC2     H 1107   3.047   1.182   1.778  0.3328  1.8069 -0.8424
   71TMC2    H1 1108   2.630   1.111   1.756  0.1329 -0.9949  0.3949
   71TMC2    H2 1109   2.788   1.414   2.019  1.1442  1.1523 -1.0763
   71TMC2    C7 1110   2.558   1.294   1.943  0.3010  0.2460  0.5520
   71TMC2    C8 1111   3.037   1.374   1.982  0.4463  0.3934  0.0549
   71TMC2    O1 1112   2.548   1.376   2.031 -0.5172 -0.3795  0.1120
   71TMC2    O2 1113   3.023   1.456   2.071 -0.7197 -0.7411 -0.5615
   71TMC2    O5 1114   3.165   1.337   1.949  0.2411  0.3729  1.0123
   71TMC2    H5 1115   3.171   1.257   1.893  1.4131  0.7135  0.6734
   72MPD2     C 1116   2.682   0.657   1.361  0.3621 -0.1553 -0.0894
   72MPD2    C1 1117   2.815   0.698   1.376 -0.0235  0.4735 -0.1754
   72MPD2    C2 1118   2.841   0.800   1.471 -0.8486  0.1114 -0.0333
   72MPD2    C3 1119   2.735   0.864   1.533 -0.3831  0.1227 -0.6458
   72MPD2    C4 1120   2.607   0.827   1.513  0.0142 -0.0757 -0.5973
   72MPD2    C5 1121   2.584   0.717   1.438  0.2696  0.2031 -0.9118
   72MPD2     H 1122   2.941   0.841   1.481 -0.8649  0.1920 -0.1924
   72MPD2    H1 1123   2.521   0.875   1.557 -1.1099 -2.2362 -0.4778
   72MPD2    H2 1124   2.664   0.584   1.283  0.3427  0.7018 -0.8835
   72MPD2    H3 1125   2.480   0.692   1.419  1.0705 -2.5682 -1.7262
   72MPD2     N 1126   2.757   0.964   1.628  0.1546 -0.0999 -0.0933
   72MPD2    H5 1127   2.670   0.994   1.671  0.3284 -0.3625  0.4403
   72MPD2    N1 1128   2.924   0.645   1.301  0.3820 -0.8430  0.6153
   72MPD2    H7 1129   3.018   0.682   1.312  0.6279 -1.2147 -0.2249
   73TMC2    C1 1130   2.479   2.596  13.895  1.1864 -0.0923  0.1036
   73TMC2    C2 1131   2.417   2.603  14.018 -0.3069 -0.4287  0.3794
   73TMC2    C3 1132   2.488   2.573  14.133  0.0996 -0.4542  0.6837
   73TMC2    C4 1133   2.607   2.555  13.900 -0.1695 -0.1437 -0.0795
   73TMC2    C5 1134   2.680   2.528  14.015  0.4958  0.0014  0.3275
   73TMC2    C6 1135   2.616   2.531  14.138 -0.5553  0.2092 -0.3396
   73TMC2     C 1136   2.475   2.719  13.832  0.2643 -0.2740  0.1417
   73TMC2     O 1137   2.585   2.755  13.793 -0.2508  0.0559  0.4316
   73TMC2     H 1138   2.317   2.642  14.033 -0.5637 -1.2354  0.7554
   73TMC2    H1 1139   2.667   2.541  13.811  0.7613  0.2933  0.4710
   73TMC2    H2 1140   2.684   2.544  14.222 -2.1569 -0.6881  1.0841
   73TMC2    C7 1141   2.817   2.589  14.021 -0.1934  0.2735 -0.0405
   73TMC2    C8 1142   2.433   2.600  14.261 -0.0326  0.5146  0.1653
   73TMC2    O1 1143   2.902   2.542  14.096  0.3009 -0.3364 -0.6521
   73TMC2    O2 1144   2.488   2.659  14.349  0.1713 -0.0394  0.3009
   73TMC2    O5 1145   2.321   2.529  14.278 -0.6864 -0.4750 -0.1589
   73TMC2    H5 1146   2.298   2.475  14.200  0.1766 -1.4162  0.2429
   74MPD2     C 1147   2.285   3.141  13.629  0.1388 -0.1299  0.6284
   74MPD2    C1 1148   2.411   3.117  13.672  0.3021  0.6310  0.3086
   74MPD2    C2 1149   2.428   3.000  13.734 -0.1430  0.3688 -0.5891
   74MPD2    C3 1150   2.329   2.903  13.748 -0.0973  0.2806  0.2685
   74MPD2    C4 1151   2.202   2.924  13.703 -0.0993  0.1765  0.1050
   74MPD2    C5 1152   2.182   3.049  13.649 -0.3682 -0.3731 -0.2959
   74MPD2     H 1153   2.530   2.978  13.764 -0.3609 -0.7396 -0.6489
   74MPD2    H1 1154   2.114   2.864  13.719  1.2874 -1.5599  1.1041
   74MPD2    H2 1155   2.260   3.226  13.566  1.7296  0.1189  0.3533
   74MPD2    H3 1156   2.083   3.076  13.615  0.1575  0.9742 -0.7858
   74MPD2     N 1157   2.351   2.774  13.810 -0.1452  0.5425  0.2933
   74MPD2    H5 1158   2.273   2.712  13.827  1.5237 -1.2149  1.5591
   74MPD2    N1 1159   2.512   3.214  13.648  0.3511 -0.2946 -0.2947
   74MPD2    H7 1160   2.491   3.298  13.594  0.9798  0.4565  0.6226
   75TMC2    C1 1161   2.593   3.911  14.120  0.4653  0.3770  0.3052
   75TMC2    C2 1162   2.499   3.833  14.181  0.0056 -0.1467 -0.1306
   75TMC2    C3 1163   2.368   3.858  14.151  0.5112  0.0729  0.0232
   75TMC2    C4 1164   2.570   3.991  14.013 -0.0411 -0.5296  0.6187
   75TMC2    C5 1165   2.438   4.007  13.974  0.0035  0.4587 -0.0678
   75TMC2    C6 1166   2.340   3.954  14.054  1.0668 -0.5054 -0.0897
   75TMC2     C 1167   2.734   3.892  14.152  0.1140 -0.4762 -0.0462
   75TMC2     O 1168   2.822   3.968  14.107  0.3612 -0.1658 -0.4702
   75TMC2     H 1169   2.529   3.775  14.267  1.4367  0.3313 -0.2979
   75TMC2    H1 1170   2.656   4.030  13.961 -0.6353  1.4001  1.1071
   75TMC2    H2 1171   2.238   3.974  14.022  2.0573  0.4469 -2.6978
   75TMC2    C7 1172   2.418   4.015  13.831  0.3101  0.0360  0.3523
   75TMC2    C8 1173   2.286   3.741  14.168 -0.0866 -0.4144 -0.1300
   75TMC2    O1 1174   2.309   3.985  13.781  0.2393 -0.6631 -0.1227
   75TMC2    O2 1175   2.346   3.636  14.191  0.6167  0.2422 -0.1287
   75TMC2    O5 1176   2.179   3.756  14.086  0.1781 -0.0559 -0.4081
   75TMC2    H5 1177   2.134   3.835  14.122 -0.6655 -0.3045 -0.9073
   76TMC2    C1 1178   2.058   3.479  12.114 -0.4912 -0.1075  0.0507
   76TMC2    C2 1179   1.968   3.490  12.220  0.1464 -0.4301 -1.0647
   76TMC2    C3 1180   1.986   3.419  12.333  0.4190  0.1604 -0.3585
   76TMC2    C4 1181   2.167   3.402  12.129  0.6877  0.0620  0.2625
   76TMC2    C5 1182   2.190   3.347  12.249  0.0950 -0.1929 -0.6193
   76TMC2    C6 1183   2.099   3.347  12.351  0.4886 -0.0989 -0.1247
   76TMC2     C 1184   2.059   3.578  12.009  0.4637  0.7544 -0.4565
   76TMC2     O 1185   1.991   3.677  12.034  0.2639 -0.2285  0.0042
   76TMC2     H 1186   1.882   3.555  12.208  1.6536  0.9965 -4.1933
   76TMC2    H1 1187   2.237   3.384  12.048 -0.2345 -3.1328  0.1610
   76TMC2    H2 1188   2.122   3.301  12.447 -1.1902 -2.6674 -0.9486
   76TMC2    C7 1189   2.318   3.287  12.265 -0.2300  0.5358  1.0915
   76TMC2    C8 1190   1.899   3.465  12.438  0.7388  0.5070  0.5540
   76TMC2    O1 1191   2.319   3.177  12.321 -0.3625  0.1097 -0.8126
   76TMC2    O2 1192   1.846   3.577  12.427  0.2216 -0.5338  0.1934
   76TMC2    O5 1193   1.889   3.378  12.536  0.1136  0.1829 -0.9741
   76TMC2    H5 1194   1.947   3.300  12.523 -0.4509 -0.5585  0.9833
   77MPD2     C 1195   2.255   3.841  11.609  0.4679 -0.0437 -0.8758
   77MPD2    C1 1196   2.186   3.889  11.717  0.2288 -0.2090 -0.2824
   77MPD2    C2 1197   2.136   3.801  11.814 -0.0959  0.2679  0.3848
   77MPD2    C3 1198   2.191   3.668  11.817  0.2932 -0.7589 -0.2589
   77MPD2    C4 1199   2.277   3.635  11.716  0.5677 -0.4210  0.2165
   77MPD2    C5 1200   2.299   3.714  11.608 -0.9813  0.0804 -0.4196
   77MPD2     H 1201   2.059   3.833  11.883  0.1885  0.0378  0.8065
   77MPD2    H1 1202   2.328   3.539  11.717  1.0967 -0.1720 -2.6518
   77MPD2    H2 1203   2.273   3.900  11.520 -2.0474  1.6827 -0.2744
   77MPD2    H3 1204   2.375   3.686  11.536  1.1573  1.8779  1.1297
   77MPD2     N 1205   2.157   3.568  11.915  0.0126 -0.0662 -0.6752
   77MPD2    H5 1206   2.197   3.475  11.905  2.1986  0.7023  1.1141
   77MPD2    N1 1207   2.150   4.022  11.725 -0.8313 -0.4591 -0.3680
   77MPD2    H7 1208   2.088   4.047  11.802  0.3020  0.2104  0.3358
   78TMC2    C1 1209   3.989   2.235   1.917 -0.0412  0.3510  0.5083
   78TMC2    C2 1210   3.882   2.206   1.840 -0.2706  0.1190  0.1586
   78TMC2    C3 1211   3.895   2.097   1.754 -0.4709 -0.1729  0.2705
   78TMC2    C4 1212   4.107   2.161   1.921  1.0848 -0.3834 -0.6519
   78TMC2    C5 1213   4.110   2.045   1.840 -0.1074 -0.5189  0.0161
   78TMC2    C6 1214   4.008   2.016   1.753  0.4685  0.2301  0.4404
   78TMC2     C 1215   3.989   2.357   2.003 -0.1455  0.1956  0.1159
   78TMC2     O 1216   4.099   2.406   2.017  0.2636 -0.1430 -0.0925
   78TMC2     H 1217   3.789   2.262   1.844 -1.4425 -1.8237  0.4525
   78TMC2    H1 1218   4.187   2.187   1.990  0.6236  0.4180 -0.4154
   78TMC2    H2 1219   4.014   1.932   1.685  0.7935 -0.0860  0.8613
   78TMC2    C7 1220   4.218   1.956   1.835 -0.2622  0.4426  0.3747
   78TMC2    C8 1221   3.778   2.064   1.676 -0.8802  0.3035  0.9382
   78TMC2    O1 1222   4.215   1.874   1.741 -0.0001 -0.0818 -0.0057
   78TMC2    O2 1223   3.667   2.111   1.698  0.3543  0.1942  0.0080
   78TMC2    O5 1224   3.810   1.995   1.570  0.1774  0.0943 -0.1152
   78TMC2    H5 1225   3.906   1.974   1.561  0.0995  0.1238 -1.0009
   79MPD1     C 1226   3.741   2.743   2.238  0.2599  0.2703  0.5137
   79MPD1    C1 1227   3.874   2.732   2.208 -0.3106 -0.0543 -0.1950
   79MPD1    C2 1228   3.925   2.620   2.143 -0.4906  0.5749 -0.2970
   79MPD1    C3 1229   3.837   2.511   2.121  1.1697 -0.4158  0.4508
   79MPD1    C4 1230   3.703   2.515   2.166 -0.3538  0.2028  0.6729
   79MPD1    C5 1231   3.653   2.640   2.221  0.1251 -0.5190 -0.1154
   79MPD1     H 1232   4.030   2.626   2.116 -0.1029 -0.4239  0.9612
   79MPD1    H1 1233   3.635   2.432   2.155 -0.3294  0.2036  0.5137
   79MPD1    H2 1234   3.702   2.837   2.276  1.4720 -0.0766  2.6162
   79MPD1    H3 1235   3.547   2.650   2.239 -0.2251  0.9103 -2.9077
   79MPD1     N 1236   3.863   2.392   2.048 -0.6472 -0.3114 -0.2814
   79MPD1    H5 1237   3.786   2.327   2.038 -0.7874 -0.3698  1.1368
   79MPD1    N1 1238   3.956   2.845   2.220  0.1736  0.3659  0.2036
   79MPD1    H6 1239   3.939   2.895   2.307 -3.0463 -1.2828  0.5166
   79MPD1    H7 1240   4.055   2.822   2.217  0.4714  2.1053 -2.7441
   80TMC2    C1 1241   0.685   3.980  11.764  1.2509 -0.1787  0.3491
   80TMC2    C2 1242   0.599   4.077  11.719 -0.2249 -0.5964 -0.4631
   80TMC2    C3 1243   0.488   4.030  11.651  0.0266 -0.7897 -0.2457
   80TMC2    C4 1244   0.663   3.848  11.746  1.1250 -1.2351  0.0984
   80TMC2    C5 1245   0.551   3.805  11.684 -0.0121  0.0598 -0.2181
   80TMC2    C6 1246   0.458   3.893  11.639  0.2656 -0.5222  0.4236
   80TMC2     C 1247   0.800   4.023  11.844  0.3110 -0.1613 -0.0618
   80TMC2     O 1248   0.884   3.935  11.870  0.0700  0.7819 -0.3315
   80TMC2     H 1249   0.627   4.182  11.716  1.2359 -0.9299  1.8145
   80TMC2    H1 1250   0.727   3.772  11.791  1.2352 -1.6639 -0.7726
   80TMC2    H2 1251   0.362   3.855  11.607 -0.1038  0.4175  0.4279
   80TMC2    C7 1252   0.508   3.674  11.719 -0.4223  0.5807 -0.4122
   80TMC2    C8 1253   0.376   4.114  11.652 -0.1744 -0.0201  0.0055
   80TMC2    O1 1254   0.545   3.575  11.651 -0.4526 -0.9671  0.0795
   80TMC2    O2 1255   0.387   4.230  11.695 -0.4187  0.0623 -0.3638
   80TMC2    O5 1256   0.285   4.075  11.562  0.0130  0.3716  0.6856
   80TMC2    H5 1257   0.295   3.999  11.501 -0.7546  0.8091  0.0060
   81MPD2     C 1258   0.980   4.154  12.042  0.1974  0.5895 -0.1456
   81MPD2    C1 1259   0.855   4.205  12.014  0.2323  0.0190  0.3991
   81MPD2    C2 1260   0.807   4.313  12.085  0.5056  0.0276 -0.5858
   81MPD2    C3 1261   0.884   4.371  12.183 -0.2595  0.2809 -0.4724
   81MPD2    C4 1262   0.999   4.302  12.213 -0.1307 -0.7732 -0.3207
   81MPD2    C5 1263   1.057   4.199  12.145  0.3660  0.1796 -0.0172
   81MPD2     H 1264   0.708   4.346  12.056 -1.2546 -0.6938  4.5389
   81MPD2    H1 1265   1.058   4.343  12.294 -0.1626  0.9419 -1.1563
   81MPD2    H2 1266   1.008   4.057  12.004  0.2996  0.5503  0.0281
   81MPD2    H3 1267   1.155   4.161  12.168  0.0777  0.1636  1.1990
   81MPD2     N 1268   0.830   4.473  12.264 -0.3794  0.0677 -0.2360
   81MPD2    H5 1269   0.884   4.500  12.346 -0.6120  1.7774 -0.6379
   81MPD2    N1 1270   0.777   4.138  11.913  0.3947 -1.0167  0.1231
   81MPD2    H7 1271   0.695   4.192  11.887  1.4315  0.2393 -0.5188
   82TMC2    C1 1272   3.486   3.683  10.946 -0.0988  0.3130 -0.3932
   82TMC2    C2 1273   3.541   3.750  11.048 -1.1942  0.1772  0.3341
   82TMC2    C3 1274   3.569   3.685  11.163 -0.0605  0.0589 -0.5890
   82TMC2    C4 1275   3.443   3.552  10.964  0.1649 -0.4417 -0.2765
   82TMC2    C5 1276   3.478   3.495  11.082 -0.1414 -0.0758  0.2955
   82TMC2    C6 1277   3.529   3.559  11.191 -0.3833  0.2388 -0.0539
   82TMC2     C 1278   3.459   3.746  10.819  0.3598 -0.9724 -0.3895
   82TMC2     O 1279   3.359   3.711  10.755  0.0869 -0.1725  0.1335
   82TMC2     H 1280   3.568   3.854  11.037 -3.0899  0.7406  0.9500
   82TMC2    H1 1281   3.407   3.496  10.878  0.9066 -1.8664  0.3552
   82TMC2    H2 1282   3.564   3.501  11.276 -0.7058 -1.2358 -0.9240
   82TMC2    C7 1283   3.451   3.360  11.113 -0.3695  0.8633  0.2628
   82TMC2    C8 1284   3.676   3.753  11.246 -0.6555  0.0141  0.7805
   82TMC2    O1 1285   3.437   3.338  11.229  0.0092 -0.5246  0.4518
   82TMC2    O2 1286   3.748   3.834  11.191 -0.0408  0.3858  0.7419
   82TMC2    O5 1287   3.706   3.659  11.340  0.0374  0.6798 -0.3794
   82TMC2    H5 1288   3.623   3.635  11.385 -0.4316  2.8300 -0.0728
   83MPD2     C 1289   3.506   4.171  10.537  0.1417 -0.5612  0.7261
   83MPD2    C1 1290   3.395   4.088  10.556 -0.1693  0.1442 -0.2311
   83MPD2    C2 1291   3.405   3.975  10.630  0.5130 -0.0449  0.3101
   83MPD2    C3 1292   3.528   3.942  10.690  0.4382 -0.1627  0.3008
   83MPD2    C4 1293   3.637   4.027  10.673  0.5568 -0.3463  0.4784
   83MPD2    C5 1294   3.622   4.152  10.608  0.0905 -0.5639 -0.4427
   83MPD2     H 1295   3.321   3.906  10.634  1.1306 -0.8103  0.1419
   83MPD2    H1 1296   3.729   3.993  10.721  2.2197  2.8285 -0.4551
   83MPD2    H2 1297   3.505   4.251  10.465  0.9487 -1.4596 -0.2795
   83MPD2    H3 1298   3.709   4.217  10.603  0.3638 -0.9245 -0.3497
   83MPD2     N 1299   3.554   3.837  10.781 -0.1730  0.0285  0.0519
   83MPD2    H5 1300   3.643   3.839  10.831  0.0832  0.3460 -0.4150
   83MPD2    N1 1301   3.279   4.116  10.474  0.2531 -0.8578 -0.3855
   83MPD2    H7 1302   3.277   4.199  10.416 -0.3576 -0.5641  0.0587
   84TMC2    C1 1303   0.618   2.896  10.634 -0.6032  0.9976 -0.2633
   84TMC2    C2 1304   0.685   2.784  10.618  0.0048 -0.8398  0.2871
   84TMC2    C3 1305   0.732   2.755  10.489 -0.3451  0.7946  0.4418
   84TMC2    C4 1306   0.602   2.981  10.525 -0.3550 -0.0767  0.2052
   84TMC2    C5 1307   0.646   2.955  10.397 -0.2974  0.4561 -0.5952
   84TMC2    C6 1308   0.706   2.841  10.379 -0.0997  0.0374  0.1299
   84TMC2     C 1309   0.582   2.936  10.767 -0.1198  0.2849 -0.1993
   84TMC2     O 1310   0.517   3.037  10.767 -0.3860  0.5818  0.2996
   84TMC2     H 1311   0.684   2.711  10.698  0.0603  0.6142  1.6157
   84TMC2    H1 1312   0.546   3.073  10.540 -0.2322  0.0930 -0.4115
   84TMC2    H2 1313   0.721   2.798  10.280  1.0857 -0.2272  0.4267
   84TMC2    C7 1314   0.625   3.057  10.292 -0.4797  0.1492  0.2146
   84TMC2    C8 1315   0.774   2.617  10.464  0.1863  0.0511  0.1041
   84TMC2    O1 1316   0.551   3.151  10.315  0.3142 -0.4226  0.3018
   84TMC2    O2 1317   0.766   2.554  10.361  0.8165 -0.5551 -0.7292
   84TMC2    O5 1318   0.842   2.583  10.577 -0.0012 -0.5784  0.4959
   84TMC2    H5 1319   0.855   2.654  10.643 -1.1501 -0.6084  0.7577
   85TMC2    C1 1320   1.165   1.539  15.888 -0.3620  0.1738 -0.2047
   85TMC2    C2 1321   1.041   1.541  15.830 -0.1486 -0.5301  0.5362
   85TMC2    C3 1322   1.020   1.636  15.732 -0.5017  0.2074  0.7650
   85TMC2    C4 1323   1.259   1.630  15.861  0.6766  0.0095  0.1233
   85TMC2    C5 1324   1.231   1.735  15.774 -0.2662 -0.4814  0.8468
   85TMC2    C6 1325   1.111   1.728  15.701  0.1023  0.1414 -0.6699
   85TMC2     C 1326   1.189   1.467  16.011 -0.4398 -0.4468  0.9724
   85TMC2     O 1327   1.272   1.515  16.086  0.0560  0.6448  0.0363
   85TMC2     H 1328   0.958   1.480  15.864  0.9165 -1.5531  1.2916
   85TMC2    H1 1329   1.351   1.628  15.918  0.3743 -1.8114  0.5567
   85TMC2    H2 1330   1.103   1.777  15.605 -0.9504  0.2228 -0.5489
   85TMC2    C7 1331   1.335   1.824  15.724  0.1229  0.3778 -0.1322
   85TMC2    C8 1332   0.886   1.639  15.685 -0.7288  0.6521  0.6967
   85TMC2    O1 1333   1.445   1.795  15.764  0.2846  0.3150 -0.1477
   85TMC2    O2 1334   0.808   1.548  15.699 -0.0822  0.1596 -0.5315
   85TMC2    O5 1335   0.860   1.759  15.637 -0.4015 -0.4010  0.2342
   85TMC2    H5 1336   0.923   1.823  15.677 -0.3805 -0.5985  0.5143
   86MPD2     C 1337   1.083   1.082  16.326  0.1996  0.0295 -0.1293
   86MPD2    C1 1338   1.013   1.058  16.204  0.1541  0.6059 -0.3005
   86MPD2    C2 1339   1.027   1.142  16.098 -0.1651  0.3448  0.1232
   86MPD2    C3 1340   1.114   1.253  16.114  0.3700  0.1908 -0.8422
   86MPD2    C4 1341   1.185   1.272  16.235 -0.1946 -0.8870  0.1144
   86MPD2    C5 1342   1.176   1.182  16.336 -0.2149  0.6432  0.6136
   86MPD2     H 1343   0.986   1.118  16.000 -1.5045 -0.4742  0.8866
   86MPD2    H1 1344   1.257   1.352  16.248 -1.0106  0.0979 -1.6050
   86MPD2    H2 1345   1.067   1.019  16.413 -1.8309 -0.9643 -1.2167
   86MPD2    H3 1346   1.242   1.204  16.419 -1.3220  0.5854  1.5095
   86MPD2     N 1347   1.115   1.350  16.012  0.8515  0.2508  0.2540
   86MPD2    H5 1348   1.069   1.326  15.925  1.3132  0.7223 -0.1180
   86MPD2    N1 1349   0.931   0.941  16.185  0.2914  0.5161 -0.2484
   86MPD2    H7 1350   0.881   0.925  16.099 -1.4390 -1.4773  1.1291
   87TMC2    C1 1351   3.422   3.584   0.837 -0.0625 -0.4313 -0.5273
   87TMC2    C2 1352   3.412   3.487   0.937 -0.2596 -0.2070  0.1398
   87TMC2    C3 1353   3.374   3.530   1.062  0.1135  0.4917 -0.7675
   87TMC2    C4 1354   3.408   3.715   0.867 -0.1323  0.0279 -0.5681
   87TMC2    C5 1355   3.389   3.757   0.998 -0.1956 -0.0736 -0.7011
   87TMC2    C6 1356   3.367   3.662   1.092 -0.0282 -0.1775  0.1935
   87TMC2     C 1357   3.449   3.554   0.697  0.2613 -0.2618  0.0499
   87TMC2     O 1358   3.477   3.653   0.630  0.2050  1.2826 -0.1902
   87TMC2     H 1359   3.437   3.383   0.919  0.3362 -0.0042 -0.1962
   87TMC2    H1 1360   3.435   3.794   0.798  0.3766  0.6770  0.3733
   87TMC2    H2 1361   3.333   3.686   1.192 -1.1442  0.3598 -0.3152
   87TMC2    C7 1362   3.354   3.897   1.024 -0.3103  0.3915  1.0790
   87TMC2    C8 1363   3.390   3.451   1.181 -0.2813  0.3275  0.6866
   87TMC2    O1 1364   3.325   3.976   0.934  0.6580 -1.0203  0.0236
   87TMC2    O2 1365   3.299   3.442   1.262  0.3523  0.5473  0.6114
   87TMC2    O5 1366   3.513   3.423   1.207  0.0050 -0.0036 -0.0732
   87TMC2    H5 1367   3.570   3.469   1.142  0.5552  0.1663  0.5268
   88MPD2     C 1368   3.379   4.027   1.369 -0.3628 -0.2793  0.6830
   88MPD2    C1 1369   3.330   4.029   1.239 -0.2426  0.2400 -0.0074
   88MPD2    C2 1370   3.255   4.139   1.204  0.3980 -0.7612  0.1041
   88MPD2    C3 1371   3.226   4.244   1.297 -0.3150 -0.2423 -0.5888
   88MPD2    C4 1372   3.276   4.237   1.423 -0.0732  0.3130 -0.3592
   88MPD2    C5 1373   3.340   4.124   1.458 -0.8322 -0.5719  0.2823
   88MPD2     H 1374   3.222   4.146   1.101 -0.0827  0.7957  0.3619
   88MPD2    H1 1375   3.267   4.313   1.500 -1.9908  0.6431 -0.8922
   88MPD2    H2 1376   3.432   3.940   1.404 -1.5796 -1.8465 -1.3583
   88MPD2    H3 1377   3.379   4.106   1.558  2.5817  1.3343 -0.6983
   88MPD2     N 1378   3.153   4.365   1.262 -0.0148  0.4151 -1.1951
   88MPD2    H5 1379   3.137   4.438   1.331  1.5593 -0.4335  0.0601
   88MPD2    N1 1380   3.368   3.920   1.164 -0.0440 -0.0600  0.4263
   88MPD2    H7 1381   3.418   3.846   1.212  0.0797  0.6828  1.4463
   89TMC2    C1 1382   3.825   2.694   1.780  0.2781  0.0686  0.3163
   89TMC2    C2 1383   3.808   2.792   1.875 -0.7953 -0.1381 -0.0904
   89TMC2    C3 1384   3.869   2.914   1.858 -0.0367 -0.1541  0.0496
   89TMC2    C4 1385   3.917   2.706   1.682 -0.0104 -0.2646  0.6612
   89TMC2    C5 1386   3.974   2.840   1.667  0.2452 -0.5812  0.4600
   89TMC2    C6 1387   3.944   2.948   1.748 -0.4759 -0.1654  0.3939
   89TMC2     C 1388   3.739   2.579   1.780  0.0788  0.2011  0.5103
   89TMC2     O 1389   3.782   2.476   1.724  0.1168 -0.2674 -0.3577
   89TMC2     H 1390   3.736   2.791   1.956 -0.8034 -0.0233 -0.0969
   89TMC2    H1 1391   3.899   2.639   1.599 -0.8937 -0.2662  0.8526
   89TMC2    H2 1392   3.995   3.042   1.732 -0.7896  0.0162  0.4829
   89TMC2    C7 1393   4.054   2.863   1.562  0.0093 -0.3754 -0.0118
   89TMC2    C8 1394   3.809   3.019   1.931  0.6248 -0.2941  0.4576
   89TMC2    O1 1395   4.085   2.980   1.534 -0.3124  0.2303  0.4837
   89TMC2    O2 1396   3.691   3.015   1.967  0.3281  0.4404 -0.2215
   89TMC2    O5 1397   3.877   3.131   1.913 -0.4787  0.3323 -0.6959
   89TMC2    H5 1398   3.969   3.098   1.904  0.1857  1.6682  0.9802
   90MPD2     C 1399   3.307   2.357   1.929 -0.8048  0.4169 -0.3055
   90MPD2    C1 1400   3.419   2.301   1.869  0.1056 -0.6223  0.3189
   90MPD2    C2 1401   3.525   2.379   1.842 -0.1434  0.0958  0.3790
   90MPD2    C3 1402   3.522   2.513   1.880  0.2652 -0.1019  0.4678
   90MPD2    C4 1403   3.419   2.567   1.951 -0.2230  0.5682  0.2762
   90MPD2    C5 1404   3.308   2.492   1.970  0.8695  0.2671  0.0992
   90MPD2     H 1405   3.610   2.332   1.794 -0.5248 -0.9392  0.7275
   90MPD2    H1 1406   3.415   2.669   1.986  0.4569  0.6344  0.1634
   90MPD2    H2 1407   3.218   2.304   1.960 -0.2341 -0.3932 -0.0561
   90MPD2    H3 1408   3.226   2.542   2.020  0.2409 -2.1723  1.5102
   90MPD2     N 1409   3.618   2.603   1.840 -0.1123 -0.1016 -0.5924
   90MPD2    H5 1410   3.591   2.698   1.863 -1.5646 -1.1462  1.9940
   90MPD2    N1 1411   3.433   2.166   1.847  0.5007  0.3918 -0.7731
   90MPD2    H7 1412   3.520   2.136   1.803 -0.6866 -1.5053 -1.7969
   91TMC2    C1 1413   0.761   1.856  16.321  0.2993  0.7459  0.3116
   91TMC2    C2 1414   0.775   1.986  16.270 -0.0765 -0.4897  0.7196
   91TMC2    C3 1415   0.678   2.021  16.181  0.3502  0.7711 -0.2131
   91TMC2    C4 1416   0.652   1.778  16.294  0.6619 -0.8626 -0.0026
   91TMC2    C5 1417   0.567   1.819  16.192  0.5695 -0.2104 -1.2841
   91TMC2    C6 1418   0.577   1.938  16.132 -0.0750  0.5018  0.5705
   91TMC2     C 1419   0.841   1.815  16.437  0.3061 -0.0353 -0.1992
   91TMC2     O 1420   0.800   1.725  16.515 -0.7837  0.7466  0.3141
   91TMC2     H 1421   0.853   2.058  16.294 -1.3895  1.3666 -0.5725
   91TMC2    H1 1422   0.638   1.678  16.334  1.3798 -0.0737  2.2028
   91TMC2    H2 1423   0.502   1.975  16.063  1.5236  1.5779 -0.5683
   91TMC2    C7 1424   0.461   1.731  16.146 -0.2944  0.1457 -0.2648
   91TMC2    C8 1425   0.700   2.130  16.099  0.0239 -0.4247  0.4428
   91TMC2    O1 1426   0.415   1.652  16.226 -0.6770  0.1037 -0.5060
   91TMC2    O2 1427   0.734   2.125  15.982  0.2424  0.0791  0.0385
   91TMC2    O5 1428   0.726   2.239  16.176  0.7747  0.1871  0.0705
   91TMC2    H5 1429   0.689   2.224  16.266  0.2683 -1.4596 -0.4127
   92MPD2     C 1430   1.048   1.795  16.668 -0.4947 -0.2858  0.7349
   92MPD2    C1 1431   1.059   1.861  16.548 -0.5363  0.1300  0.2685
   92MPD2    C2 1432   1.184   1.914  16.521  0.4636 -0.4555  0.9741
   92MPD2    C3 1433   1.287   1.912  16.614 -0.5515  0.0949  0.5606
   92MPD2    C4 1434   1.276   1.836  16.729 -0.4966 -0.6120  0.1223
   92MPD2    C5 1435   1.158   1.782  16.749 -0.0420  0.0611  0.0708
   92MPD2     H 1436   1.205   1.957  16.424  1.3361 -0.7665  1.0243
   92MPD2    H1 1437   1.337   1.834  16.818 -1.6130  1.6963  0.9462
   92MPD2    H2 1438   0.952   1.753  16.694 -0.9563 -0.2508 -0.9249
   92MPD2    H3 1439   1.148   1.726  16.841 -0.5014 -0.7319 -0.4675
   92MPD2     N 1440   1.407   1.976  16.578 -0.4787 -0.1214 -0.3404
   92MPD2    H5 1441   1.415   2.028  16.491 -0.9607  0.9759  0.2636
   92MPD2    N1 1442   0.962   1.874  16.445  0.2423 -0.0378  0.0458
   92MPD2    H7 1443   0.987   1.927  16.362  1.5136 -0.6055  0.0568
   93TMC2    C1 1444   2.891   1.971  13.716 -0.1188  0.0362 -1.0804
   93TMC2    C2 1445   2.790   2.008  13.800  0.3178  0.1400  0.6320
   93TMC2    C3 1446   2.813   2.088  13.904 -0.3180  0.2043 -0.0094
   93TMC2    C4 1447   3.017   2.014  13.739 -0.2598  0.5389  0.6212
   93TMC2    C5 1448   3.036   2.082  13.857  0.7601  0.0282 -0.0285
   93TMC2    C6 1449   2.936   2.132  13.936  0.7397  0.2716  0.2164
   93TMC2     C 1450   2.864   1.922  13.591  0.0355 -0.1530  0.4162
   93TMC2     O 1451   2.966   1.898  13.530 -0.3681 -0.1984 -0.2865
   93TMC2     H 1452   2.693   1.963  13.786  0.4802 -0.7792  2.4808
   93TMC2    H1 1453   3.103   1.988  13.678 -1.4535 -0.0811 -0.7950
   93TMC2    H2 1454   2.951   2.190  14.027  0.7240 -0.3514  0.6154
   93TMC2    C7 1455   3.163   2.147  13.857  0.3083 -0.2353 -0.1632
   93TMC2    C8 1456   2.721   2.091  14.014 -0.7361 -0.2247  0.2024
   93TMC2    O1 1457   3.256   2.080  13.827  0.8236 -0.3448 -0.9308
   93TMC2    O2 1458   2.737   2.103  14.136  0.0117  0.2418 -0.1450
   93TMC2    O5 1459   2.604   2.113  13.950  0.4459 -0.0037 -0.4176
   93TMC2    H5 1460   2.602   2.140  13.856  0.2810 -1.3252 -0.7970
   94MPD2     C 1461   2.788   1.781  13.353 -0.1012 -0.2032  0.1614
   94MPD2    C1 1462   2.695   1.837  13.438  0.1822  0.9733 -0.0368
   94MPD2    C2 1463   2.561   1.839  13.404  0.4700 -0.0815 -0.5474
   94MPD2    C3 1464   2.529   1.802  13.277  0.5707  0.2155 -0.3385
   94MPD2    C4 1465   2.623   1.742  13.191  0.0326  0.1606  0.4563
   94MPD2    C5 1466   2.750   1.733  13.229 -0.0763 -0.3913 -0.5350
   94MPD2     H 1467   2.498   1.895  13.471 -0.6763  0.6905 -2.2614
   94MPD2    H1 1468   2.599   1.724  13.087 -2.3132  3.4570  0.4255
   94MPD2    H2 1469   2.891   1.757  13.379 -0.3722 -0.6999  0.7903
   94MPD2    H3 1470   2.828   1.689  13.168  0.6291 -0.0603  0.1295
   94MPD2     N 1471   2.398   1.816  13.228 -0.5203  0.5663 -0.2091
   94MPD2    H5 1472   2.376   1.806  13.129 -2.4391 -0.8895  0.3491
   94MPD2    N1 1473   2.732   1.911  13.556  0.3274 -0.0313  1.2260
   94MPD2    H7 1474   2.658   1.944  13.617 -0.1740  2.7985 -0.9116
   95TMC2    C1 1475   3.086   3.842  16.547  0.3660 -0.2342 -0.3529
   95TMC2    C2 1476   3.072   3.728  16.617  0.3112  0.0067  0.1601
   95TMC2    C3 1477   3.083   3.741  16.755  0.2516  0.1305 -0.1211
   95TMC2    C4 1478   3.095   3.969  16.604 -0.0896 -0.2765  0.0408
   95TMC2    C5 1479   3.109   3.978  16.737 -0.2067 -0.0836  0.5600
   95TMC2    C6 1480   3.102   3.865  16.815  0.8542  0.5362 -0.9794
   95TMC2     C 1481   3.101   3.842  16.402  0.1727  0.1748  0.3297
   95TMC2     O 1482   3.150   3.941  16.352 -0.0892 -0.5598 -0.6296
   95TMC2     H 1483   3.068   3.630  16.571  1.0872 -1.0081  2.2576
   95TMC2    H1 1484   3.094   4.059  16.543  0.0364  0.2677  0.8469
   95TMC2    H2 1485   3.130   3.872  16.920 -0.9756  2.9578 -0.6316
   95TMC2    C7 1486   3.127   4.113  16.807 -0.5232 -0.5600  0.3479
   95TMC2    C8 1487   3.121   3.625  16.832 -0.6366 -0.2248 -0.0354
   95TMC2    O1 1488   3.110   4.119  16.924  0.6295  0.1675 -0.4589
   95TMC2    O2 1489   3.199   3.540  16.792  0.3001 -0.1918 -0.4727
   95TMC2    O5 1490   3.037   3.616  16.940 -0.4780 -0.4667  0.5768
   95TMC2    H5 1491   2.981   3.696  16.953 -2.0045 -1.5465  0.6434
   96MPD2     C 1492   3.053   3.638  15.932 -0.4151 -0.2706  0.3233
   96MPD2    C1 1493   3.137   3.734  15.975 -0.9790 -0.8475  0.4723
   96MPD2    C2 1494   3.132   3.764  16.110 -0.4467 -0.2631 -1.0381
   96MPD2    C3 1495   3.037   3.712  16.198 -0.0619 -0.0701  0.1813
   96MPD2    C4 1496   2.954   3.612  16.142  0.4279  0.2351 -0.5935
   96MPD2    C5 1497   2.966   3.578  16.011 -0.7066  0.1897 -0.1136
   96MPD2     H 1498   3.198   3.844  16.141 -1.7052  0.8086 -1.1243
   96MPD2    H1 1499   2.871   3.575  16.201  1.1548 -1.9699 -0.9483
   96MPD2    H2 1500   3.047   3.587  15.836  0.4002  0.4065 -0.0885
   96MPD2    H3 1501   2.895   3.510  15.967 -0.6926  0.4176 -0.4852
   96MPD2     N 1502   3.037   3.741  16.335 -0.4061 -0.0307  0.7586
   96MPD2    H5 1503   2.961   3.688  16.378 -0.6548 -1.8164 -1.9242
   96MPD2    N1 1504   3.245   3.790  15.902  0.2799  0.1324 -0.1766
   96MPD2    H7 1505   3.241   3.768  15.803  1.7919 -0.9598  0.0029
   97TMC2    C1 1506   0.250   1.967  17.583  0.4600 -0.5203 -0.0973
   97TMC2    C2 1507   0.158   1.950  17.480 -0.2984 -0.0244 -0.4219
   97TMC2    C3 1508   0.106   2.061  17.418 -0.3636  0.4821 -0.8423
   97TMC2    C4 1509   0.292   2.092  17.622  0.0279 -0.2630 -0.0883
   97TMC2    C5 1510   0.241   2.201  17.559 -0.3435  0.0763  0.0507
   97TMC2    C6 1511   0.144   2.186  17.465 -0.1979 -0.4134  0.0438
   97TMC2     C 1512   0.312   1.848  17.645 -0.5836 -0.7752  0.6356
   97TMC2     O 1513   0.378   1.878   0.006 -0.0888  0.2871  0.3006
   97TMC2     H 1514   0.115   1.852  17.460  1.0156 -0.7392  0.2273
   97TMC2    H1 1515   0.348   2.096  17.715 -1.0321  0.1436  0.5238
   97TMC2    H2 1516   0.124   2.262  17.391  0.2029 -0.6236 -0.2830
   97TMC2    C7 1517   0.246   2.333  17.624  0.7813 -0.3510  0.3992
   97TMC2    C8 1518   0.026   2.037  17.295 -0.1749 -0.5647  0.4711
   97TMC2    O1 1519   0.296   2.332  17.735  1.0317  0.9440 -0.2008
   97TMC2    O2 1520   0.031   1.933  17.230 -0.5504 -0.0702 -0.1776
   97TMC2    O5 1521   4.672   2.138  17.278  0.0822 -0.4784 -0.2726
   97TMC2    H5 1522   4.664   2.197  17.355 -1.3658 -1.6480  0.4621
   98MPD2     C 1523   0.327   1.336  17.702  0.2338 -0.2052  0.7804
   98MPD2    C1 1524   0.368   1.427   0.056 -0.1096  0.4578  0.4424
   98MPD2    C2 1525   0.350   1.563   0.018 -0.1548  0.3539 -0.2782
   98MPD2    C3 1526   0.306   1.601  17.626 -1.3752 -0.5309 -0.0437
   98MPD2    C4 1527   0.258   1.497  17.545 -0.3009  0.4066  0.1364
   98MPD2    C5 1528   0.272   1.364  17.575 -0.3150 -0.5820 -0.3464
   98MPD2     H 1529   0.367   1.646   0.087 -0.4921  0.0374  0.1835
   98MPD2    H1 1530   0.221   1.532  17.449 -0.4255 -0.2219 -0.0474
   98MPD2    H2 1531   0.337   1.230  17.722 -2.2950 -1.2820 -3.5536
   98MPD2    H3 1532   0.248   1.280  17.511  3.0629 -0.0809 -2.2984
   98MPD2     N 1533   0.281   1.732  17.580 -0.0402 -0.3425 -0.4893
   98MPD2    H5 1534   0.236   1.733  17.489  1.8682 -1.9856 -1.4870
   98MPD2    N1 1535   0.402   1.384   0.190 -0.0796 -0.4358  0.5090
   98MPD2    H7 1536   0.409   1.284   0.207 -0.7596 -0.2674  1.8087
   99TMC2    C1 1537   3.906   3.336   1.594  0.5178  0.7210 -0.0240
   99TMC2    C2 1538   3.987   3.441   1.628  0.9644  0.3365  0.1427
   99TMC2    C3 1539   3.945   3.511   1.740  0.0185  1.0693  0.3215
   99TMC2    C4 1540   3.792   3.304   1.660 -0.4375 -0.3243  0.3640
   99TMC2    C5 1541   3.741   3.391   1.752 -0.3635  0.4364 -0.6664
   99TMC2    C6 1542   3.819   3.494   1.801  0.0388 -0.7537 -0.7476
   99TMC2     C 1543   3.928   3.288   1.454 -0.9613  0.3034  0.3808
   99TMC2     O 1544   3.980   3.369   1.377 -0.1929  0.2825 -0.2810
   99TMC2     H 1545   4.077   3.456   1.570  0.7848 -1.6903 -0.6553
   99TMC2    H1 1546   3.732   3.221   1.624 -1.2983 -0.1829  1.4782
   99TMC2    H2 1547   3.779   3.572   1.865  1.7049  1.5649 -2.5393
   99TMC2    C7 1548   3.606   3.377   1.813  0.5299 -0.4878 -0.0836
   99TMC2    C8 1549   4.004   3.648   1.755  0.3021 -0.4390  0.2551
   99TMC2    O1 1550   3.607   3.405   1.932 -0.0722  0.5507  0.0667
   99TMC2    O2 1551   3.936   3.752   1.747 -0.0843  0.5685 -0.0542
   99TMC2    O5 1552   4.133   3.633   1.710 -0.2164  0.0163  0.0444
   99TMC2    H5 1553   4.159   3.542   1.735 -0.3773 -0.7481 -2.4827
  100MPD2     C 1554   3.860   3.205   1.182 -0.6039 -0.4099 -0.0821
  100MPD2    C1 1555   3.849   3.124   1.290 -0.3085  0.4003  1.0425
  100MPD2    C2 1556   3.829   2.989   1.270  0.1110 -0.5503 -0.4819
  100MPD2    C3 1557   3.821   2.938   1.142  0.2668 -0.0011 -0.7847
  100MPD2    C4 1558   3.836   3.020   1.036  0.6868  0.2668 -0.0872
  100MPD2    C5 1559   3.855   3.154   1.058 -0.2343 -0.3821  0.2055
  100MPD2     H 1560   3.818   2.927   1.359  2.1691  1.4741  1.1727
  100MPD2    H1 1561   3.831   2.989   0.933  0.3767  2.4818 -0.7517
  100MPD2    H2 1562   3.883   3.310   1.176  2.9131 -1.0028  3.4237
  100MPD2    H3 1563   3.859   3.215   0.969  0.1982 -1.3512 -0.4390
  100MPD2     N 1564   3.800   2.797   1.132  0.8032 -0.2062  0.2815
  100MPD2    H5 1565   3.785   2.751   1.221 -1.7311 -0.8268 -0.4869
  100MPD2    N1 1566   3.868   3.171   1.422  0.9313  0.2154 -0.2525
  100MPD2    H7 1567   3.857   3.109   1.502 -1.4116 -0.2607 -0.9449
  101TMC2    C1 1568   4.577   0.008  12.819 -0.0795  1.0564  0.6112
  101TMC2    C2 1569   4.497   0.087  12.742  0.3964 -0.2465  0.1089
  101TMC2    C3 1570   4.552   0.179  12.661  0.2073 -0.3181 -0.1161
  101TMC2    C4 1571   4.715   0.032  12.825 -0.2409 -0.0428  0.2007
  101TMC2    C5 1572   0.031   0.130  12.753 -0.2460  0.1615  0.0287
  101TMC2    C6 1573   4.684   0.200  12.669  0.3965  0.4847  0.0990
  101TMC2     C 1574   4.506   4.630  12.891 -0.3286 -0.3779  0.0082
  101TMC2     O 1575   4.384   4.628  12.902  0.4586 -0.0258 -0.0334
  101TMC2     H 1576   4.390   0.078  12.733  0.2703  0.5044  0.8862
  101TMC2    H1 1577   0.045   4.714  12.894  0.2364  0.4452  0.1287
  101TMC2    H2 1578   4.720   0.282  12.608  1.6987  0.8076  1.3084
  101TMC2    C7 1579   0.176   0.144  12.731  0.1215  0.5717  0.7205
  101TMC2    C8 1580   4.477   0.300  12.639 -0.7105  0.4385  0.4394
  101TMC2    O1 1581   0.200   0.221  12.635 -0.0217  0.0172  0.3750
  101TMC2    O2 1582   4.358   0.301  12.608 -0.0954  0.2480  0.0356
  101TMC2    O5 1583   4.540   0.385  12.715 -0.0798  0.5510 -0.0877
  101TMC2    H5 1584   4.621   0.348  12.757  0.3247 -0.4680 -1.7659
  102MPD2     C 1585   4.692   4.343  13.048  0.2291 -0.7232 -0.3197
  102MPD2    C1 1586   4.576   4.419  13.013 -0.5408 -0.0664 -0.3806
  102MPD2    C2 1587   4.449   4.382  13.063 -0.0289 -0.2944 -0.0772
  102MPD2    C3 1588   4.443   4.275  13.153  0.2476 -0.1395 -0.3485
  102MPD2    C4 1589   4.557   4.213  13.199 -0.0910 -0.4299  0.1224
  102MPD2    C5 1590   4.678   4.244  13.143 -0.0242 -0.6254 -0.0274
  102MPD2     H 1591   4.362   4.442  13.039  0.7179 -0.5783 -3.4324
  102MPD2    H1 1592   4.561   4.136  13.274  0.5885 -0.6251 -0.1111
  102MPD2    H2 1593   0.060   4.364  13.022 -1.0758  3.8826 -1.8096
  102MPD2    H3 1594   0.037   4.193  13.165  0.6976 -0.3522 -2.4522
  102MPD2     N 1595   4.317   4.232  13.193  0.3776  0.0142 -0.1948
  102MPD2    H5 1596   4.239   4.265  13.137 -0.9848 -1.0072  1.0931
  102MPD2    N1 1597   4.597   4.531  12.931 -0.6244  0.3827 -0.0518
  102MPD2    H7 1598   4.696   4.540  12.912 -0.9427 -1.4970 -2.5192
  103TMC2    C1 1599   2.898   3.811  12.246  0.2010  0.7418 -0.0530
  103TMC2    C2 1600   3.033   3.802  12.215 -0.6543 -0.1685 -0.2866
  103TMC2    C3 1601   3.115   3.908  12.252  0.8690  0.0000  0.1979
  103TMC2    C4 1602   2.848   3.893  12.348  0.0895 -0.7495 -0.1791
  103TMC2    C5 1603   2.946   3.981  12.395 -0.1791 -1.1009  0.1322
  103TMC2    C6 1604   3.069   3.995  12.346 -0.8470 -0.2249  0.0703
  103TMC2     C 1605   2.804   3.711  12.211  0.3601 -0.3362 -0.1835
  103TMC2     O 1606   2.690   3.754  12.219 -0.3391  0.3158 -0.2897
  103TMC2     H 1607   3.070   3.730  12.143  0.4059  1.2020 -1.1296
  103TMC2    H1 1608   2.744   3.897  12.377  0.2097  0.7169  0.0244
  103TMC2    H2 1609   3.137   4.075  12.372 -0.4856 -0.5721  0.1898
  103TMC2    C7 1610   2.906   4.072  12.503 -0.2288 -1.0283  0.2690
  103TMC2    C8 1611   3.249   3.942  12.206  0.4516 -0.0801 -0.4796
  103TMC2    O1 1612   2.971   4.173  12.522  0.0799 -0.0669  0.1916
  103TMC2    O2 1613   3.342   3.962  12.285  0.2309  0.6876 -0.0509
  103TMC2    O5 1614   3.216   4.030  12.101  0.5208  0.0649 -0.2981
  103TMC2    H5 1615   3.149   3.998  12.037 -0.3066 -1.3620  1.2574
  104MPD2     C 1616   2.839   3.346  12.261 -0.3851  0.0175  0.0683
  104MPD2    C1 1617   2.776   3.467  12.228  0.2213 -0.2616 -0.6272
  104MPD2    C2 1618   2.639   3.465  12.221  0.2104  0.2572  0.3356
  104MPD2    C3 1619   2.556   3.353  12.240  0.1772  0.0239 -0.0447
  104MPD2    C4 1620   2.619   3.233  12.269 -0.2545  0.3097 -0.0246
  104MPD2    C5 1621   2.759   3.231  12.273 -0.5275 -0.5673  1.1478
  104MPD2     H 1622   2.587   3.560  12.210  0.4534  0.2962 -0.4526
  104MPD2    H1 1623   2.552   3.150  12.290 -0.4746  0.2511 -0.9631
  104MPD2    H2 1624   2.947   3.335  12.265 -0.3820 -1.7724 -4.3772
  104MPD2    H3 1625   2.802   3.132  12.279 -1.7689 -1.2442 -0.9684
  104MPD2     N 1626   2.419   3.374  12.230 -0.1526  0.0271 -0.2779
  104MPD2    H5 1627   2.396   3.468  12.201 -1.4603  0.4538  2.1587
  104MPD2    N1 1628   2.858   3.583  12.208 -0.7807 -0.6158  0.5357
  104MPD2    H7 1629   2.957   3.577  12.225 -0.1588  3.8296 -1.4282
  105TMC2    C1 1630   3.821   3.604  17.585 -0.4327 -0.0662 -0.3449
  105TMC2    C2 1631   3.784   3.739  17.600 -0.1306 -0.3080  0.3765
  105TMC2    C3 1632   3.694   3.763  17.696 -0.3847 -0.6097  0.1351
  105TMC2    C4 1633   3.757   3.504  17.663  0.0719  0.1094  0.2864
  105TMC2    C5 1634   3.659   3.532   0.010 -0.2748  0.5189  0.1049
  105TMC2    C6 1635   3.620   3.664   0.024 -0.5728 -0.1015 -0.1225
  105TMC2     C 1636   3.934   3.577  17.499 -0.4999 -0.0231 -0.1935
  105TMC2     O 1637   3.994   3.474  17.532  0.2855 -0.3328 -1.2786
  105TMC2     H 1638   3.830   3.817  17.541 -0.2821  1.0131  2.0047
  105TMC2    H1 1639   3.781   3.400  17.649 -0.0419  0.0038  0.8551
  105TMC2    H2 1640   3.532   3.688   0.082  0.4826  0.2897  1.2925
  105TMC2    C7 1641   3.593   3.426   0.078  0.6051 -0.4629  0.2787
  105TMC2    C8 1642   3.657   3.904  17.699  0.1477 -0.6286 -0.2498
  105TMC2    O1 1643   3.610   3.313   0.033  0.3797 -0.0553  0.1315
  105TMC2    O2 1644   3.708   3.982  17.619 -0.3175  0.0865 -0.8424
  105TMC2    O5 1645   3.605   3.941   0.079  0.0120  0.0440 -0.0196
  105TMC2    H5 1646   3.590   3.868   0.142  1.4180  1.5210  2.0129
  106MPD2     C 1647   4.351   3.704  17.219 -0.7951  0.1947  0.2672
  106MPD2    C1 1648   4.253   3.798  17.211  0.1539 -0.2335  0.2754
  106MPD2    C2 1649   4.130   3.787  17.276  0.0517 -0.6698 -0.2141
  106MPD2    C3 1650   4.099   3.677  17.351  0.4266  0.8640 -0.0244
  106MPD2    C4 1651   4.192   3.575  17.355  0.3063  0.8155  0.1309
  106MPD2    C5 1652   4.315   3.590  17.291  0.0485 -0.0873  0.0918
  106MPD2     H 1653   4.060   3.870  17.277  0.0251 -0.6743 -1.8982
  106MPD2    H1 1654   4.175   3.479  17.402  1.3560  0.1789 -0.7968
  106MPD2    H2 1655   4.442   3.707  17.160 -0.8926  1.2519  0.1686
  106MPD2    H3 1656   4.374   3.499  17.284 -0.0234 -0.3735  3.1684
  106MPD2     N 1657   3.977   3.678  17.413  0.1216  0.6239  0.9414
  106MPD2    H5 1658   3.919   3.760  17.403 -0.0755  0.5039  1.0963
  106MPD2    N1 1659   4.269   3.921  17.139  0.0003  0.9134  0.7002
  106MPD2    H7 1660   4.183   3.974  17.129 -1.2385 -1.9339 -4.0016
  107TMC2    C1 1661   0.004   3.176  11.498 -0.3408  0.9112  0.0777
  107TMC2    C2 1662   4.715   3.271  11.408 -0.1974 -0.4136 -0.2699
  107TMC2    C3 1663   0.051   3.281  11.288 -0.5880  0.0573  0.1024
  107TMC2    C4 1664   0.095   3.075  11.476 -0.5055  0.3153 -0.2294
  107TMC2    C5 1665   0.156   3.083  11.354 -0.1630 -0.4675  0.2169
  107TMC2    C6 1666   0.148   3.190  11.264 -0.2428  0.3818 -0.1490
  107TMC2     C 1667   4.674   3.197  11.625  0.3485  0.0961 -1.1263
  107TMC2     O 1668   4.642   3.310  11.652  0.8533  0.1464  0.1288
  107TMC2     H 1669   4.643   3.347  11.437 -1.2981 -0.9345 -1.6692
  107TMC2    H1 1670   0.117   2.997  11.548 -0.4017 -0.4237 -1.0657
  107TMC2    H2 1671   0.214   3.206  11.179 -3.0231 -1.2906 -2.6408
  107TMC2    C7 1672   0.249   2.977  11.335 -0.1055  0.1935  0.2403
  107TMC2    C8 1673   0.086   3.419  11.263 -0.0027 -0.2133 -0.0519
  107TMC2    O1 1674   0.257   2.886  11.418  0.0246  0.0021 -0.5339
  107TMC2    O2 1675   0.133   3.487  11.353 -0.2351  0.2781 -0.5504
  107TMC2    O5 1676   0.112   3.431  11.133 -0.1243 -0.4615 -0.0938
  107TMC2    H5 1677   0.084   3.359  11.073  3.9783 -1.3850 -0.9102
  108MPD2     C 1678   4.670   2.967  11.913 -0.6452  0.3197  0.7190
  108MPD2    C1 1679   4.642   3.080  11.834  0.1584  0.4068  0.2298
  108MPD2    C2 1680   4.556   3.175  11.892 -0.1581 -0.4182 -0.1881
  108MPD2    C3 1681   4.512   3.153  12.028  0.0425 -0.1181 -0.1725
  108MPD2    C4 1682   4.547   3.047  12.104  0.0079 -0.1702  0.7139
  108MPD2    C5 1683   4.617   2.950  12.041 -0.0528 -0.0583  0.3820
  108MPD2     H 1684   4.509   3.255  11.837 -2.3041 -0.7366  1.2126
  108MPD2    H1 1685   4.525   3.027  12.208  0.1384 -1.3593  0.5110
  108MPD2    H2 1686   0.003   2.887  11.885  0.3564  1.8460 -1.1302
  108MPD2    H3 1687   4.647   2.862  12.096  1.9970 -0.6347 -1.6477
  108MPD2     N 1688   4.417   3.235  12.099  0.6115  0.6706  0.1571
  108MPD2    H5 1689   4.391   3.215  12.195  0.4824  1.1747  0.2239
  108MPD2    N1 1690   4.686   3.085  11.702  0.9974 -0.2170  0.5850
  108MPD2    H7 1691   4.733   3.005  11.662  2.7574  0.9575  0.2939
  109TMC2    C1 1692   4.222   1.178   0.739  0.2652 -0.0868  0.2537
  109TMC2    C2 1693   4.170   1.148   0.616 -0.0014 -0.4727 -0.3214
  109TMC2    C3 1694   4.254   1.092   0.517 -0.1051 -1.0456 -0.4512
  109TMC2    C4 1695   4.349   1.147   0.773  0.0417  0.7652  0.2330
  109TMC2    C5 1696   4.426   1.081   0.680  0.2834  0.3115  0.1787
  109TMC2    C6 1697   4.381   1.049   0.555  0.2457 -0.6382  0.8706
  109TMC2     C 1698   4.122   1.200   0.849 -0.6018 -0.0673 -0.3572
  109TMC2     O 1699   4.009   1.230   0.819 -0.0101 -0.3247 -0.0455
  109TMC2     H 1700   4.069   1.182   0.598 -0.7625 -3.0508 -0.8230
  109TMC2    H1 1701   4.396   1.185   0.864  0.9227 -0.8985  0.4783
  109TMC2    H2 1702   4.452   0.998   0.490 -0.3482  0.4448 -0.6162
  109TMC2    C7 1703   4.568   1.062   0.702 -0.0819 -0.1308 -0.0887
  109TMC2    C8 1704   4.183   1.073   0.390 -0.0318  0.0692  0.1688
  109TMC2    O1 1705   4.630   1.049   0.597  0.1490 -0.2249 -0.0333
  109TMC2    O2 1706   4.075   1.125   0.358  0.1096 -0.1926  0.2611
  109TMC2    O5 1707   4.251   0.976   0.330 -0.0790 -0.1220  0.4529
  109TMC2    H5 1708   4.302   0.927   0.398  0.9268 -0.1536 -0.3204
  110MPD2     C 1709   4.053   1.226   1.361  0.1294 -0.2078  0.1293
  110MPD2    C1 1710   4.186   1.197   1.333  0.1054  0.2123  0.3497
  110MPD2    C2 1711   4.222   1.172   1.200 -0.9828  0.0795  0.0341
  110MPD2    C3 1712   4.131   1.189   1.101  0.1108 -0.0733  0.4896
  110MPD2    C4 1713   3.997   1.201   1.133 -0.0652 -0.0135 -0.6230
  110MPD2    C5 1714   3.959   1.231   1.267  0.7333  0.1523 -0.2222
  110MPD2     H 1715   4.326   1.157   1.171 -1.8007 -1.5335 -2.0616
  110MPD2    H1 1716   3.924   1.214   1.054 -0.7355  0.7491  0.1197
  110MPD2    H2 1717   4.013   1.232   1.461  1.0737 -0.2549  0.5054
  110MPD2    H3 1718   3.855   1.251   1.291  0.8519 -0.3764  0.7171
  110MPD2     N 1719   4.182   1.174   0.970 -0.5127 -0.6724  0.0824
  110MPD2    H5 1720   4.278   1.143   0.964 -0.6041 -0.4951 -2.4775
  110MPD2    N1 1721   4.280   1.197   1.440  0.1644  0.1385  0.6775
  110MPD2    H7 1722   4.248   1.217   1.534 -1.0117 -0.3543  0.3790
  111TMC2    C1 1723   4.566   0.455  11.944  0.0367 -0.8047  0.4050
  111TMC2    C2 1724   4.498   0.472  12.061 -0.2601  0.6200  0.4037
  111TMC2    C3 1725   4.583   0.491  12.170 -0.2108  0.0824  0.4560
  111TMC2    C4 1726   4.703   0.462  11.927 -0.2274  0.2440  0.7455
  111TMC2    C5 1727   0.045   0.493  12.036  0.2091 -0.6196  0.2899
  111TMC2    C6 1728   4.721   0.492  12.164 -0.9983 -0.1068 -0.2660
  111TMC2     C 1729   4.504   0.398  11.829  0.1179 -0.4986  0.0821
  111TMC2     O 1730   4.530   0.447  11.720 -0.5636 -0.5424  0.0912
  111TMC2     H 1731   4.390   0.475  12.074 -0.2094 -0.9956  1.1043
  111TMC2    H1 1732   0.014   0.443  11.830 -0.2630  2.4555  0.2969
  111TMC2    H2 1733   0.047   0.509  12.253  0.5693  0.2886 -1.4012
  111TMC2    C7 1734   0.192   0.455  12.030  0.6937 -0.4418  0.0189
  111TMC2    C8 1735   4.508   0.489  12.298 -0.0458 -0.0768 -0.5575
  111TMC2    O1 1736   0.249   0.407  12.127  0.0823  0.4344  0.4626
  111TMC2    O2 1737   4.389   0.525  12.319  0.2626 -0.1760  0.0154
  111TMC2    O5 1738   4.589   0.424  12.379 -0.5783  0.5485  0.0089
  111TMC2    H5 1739   4.681   0.406  12.348 -0.5695 -0.0227  0.3442
  112MPD2     C 1740   4.263   0.001  11.610  0.8481  0.2068 -0.0098
  112MPD2    C1 1741   4.292   0.125  11.565  0.2024  0.3837  0.8328
  112MPD2    C2 1742   4.350   0.221  11.647  0.1021  0.7634 -0.4700
  112MPD2    C3 1743   4.375   0.191  11.778 -0.2097  0.4598 -0.0440
  112MPD2    C4 1744   4.344   0.061  11.826  0.3294  0.5880 -0.7464
  112MPD2    C5 1745   4.291   4.702  11.739 -1.0542 -0.4136 -0.1461
  112MPD2     H 1746   4.368   0.324  11.621 -1.9709  1.1827 -0.2805
  112MPD2    H1 1747   4.370   0.030  11.926 -1.2074  0.2891 -0.4495
  112MPD2    H2 1748   4.220   4.653  11.554  1.3655  0.1809 -0.3614
  112MPD2    H3 1749   4.268   4.604  11.777  0.7017 -0.6899  0.2345
  112MPD2     N 1750   4.434   0.287  11.868  0.6209  0.4082  0.6578
  112MPD2    H5 1751   4.423   0.266  11.966  2.1236  0.9198  0.9287
  112MPD2    N1 1752   4.260   0.157  11.432  0.6845  0.0905  0.1229
  112MPD2    H7 1753   4.265   0.252  11.397  0.8550 -0.2791 -0.8760
  113TMC2    C1 1754   2.347   3.266   0.669 -0.1848 -0.7137 -1.0631
  113TMC2    C2 1755   2.266   3.367   0.645  0.1577  0.4482 -0.1663
  113TMC2    C3 1756   2.185   3.366   0.534 -0.3890  0.3135  0.3571
  113TMC2    C4 1757   2.350   3.158   0.582  0.4265 -0.2082  0.0400
  113TMC2    C5 1758   2.268   3.156   0.471  0.1357 -0.4633  0.3866
  113TMC2    C6 1759   2.180   3.260   0.450 -0.0202 -0.9164  0.1012
  113TMC2     C 1760   2.436   3.275   0.789  0.2579 -0.2554  0.4269
  113TMC2     O 1761   2.433   3.370   0.860 -0.5469 -0.3017  0.3143
  113TMC2     H 1762   2.245   3.438   0.724 -0.0511 -1.6139  1.6372
  113TMC2    H1 1763   2.409   3.069   0.600 -0.6652 -0.8353  0.5815
  113TMC2    H2 1764   2.109   3.258   0.368  0.1632  0.6844 -0.0875
  113TMC2    C7 1765   2.230   3.030   0.405 -0.3213  0.7575  0.5356
  113TMC2    C8 1766   2.081   3.468   0.520  0.0172  0.0714 -0.0063
  113TMC2    O1 1767   2.176   3.042   0.297 -0.6823  0.0302  0.2374
  113TMC2    O2 1768   2.086   3.554   0.606  0.3050  0.7844 -0.1330
  113TMC2    O5 1769   2.075   3.501   0.389 -0.4751  0.1920  0.1862
  113TMC2    H5 1770   2.028   3.586   0.373 -1.4336 -0.2537  0.6317
  114MPD2     C 1771   2.850   3.123   1.045 -0.0115 -0.6196 -0.2810
  114MPD2    C1 1772   2.779   3.240   1.054  0.0765  0.4889 -0.5724
  114MPD2    C2 1773   2.668   3.256   0.967 -0.0317  0.5791  0.0884
  114MPD2    C3 1774   2.638   3.162   0.878  0.2122  0.0273  0.3273
  114MPD2    C4 1775   2.722   3.055   0.858  0.0391  0.1931  0.0519
  114MPD2    C5 1776   2.830   3.041   0.934  0.1579 -0.0461 -0.0028
  114MPD2     H 1777   2.614   3.348   0.986 -2.1260  0.0972 -3.5224
  114MPD2    H1 1778   2.692   2.977   0.789  0.9647  0.2362 -0.4062
  114MPD2    H2 1779   2.930   3.088   1.108 -0.2090  0.0878  0.3642
  114MPD2    H3 1780   2.902   2.960   0.926  0.6091  0.2306  1.2850
  114MPD2     N 1781   2.528   3.172   0.786  0.0965  0.2977  0.2935
  114MPD2    H5 1782   2.511   3.099   0.718  1.5611 -0.1686  0.4273
  114MPD2    N1 1783   2.805   3.337   1.150  0.0137 -0.3739 -0.3525
  114MPD2    H7 1784   2.746   3.420   1.159  0.0521 -0.3176 -0.6305
  115TMC2    C1 1785   3.465   1.048   0.070 -0.1113  0.3393  0.2705
  115TMC2    C2 1786   3.595   1.021   0.049 -0.3131 -0.6444  0.5309
  115TMC2    C3 1787   3.667   1.119  17.725  0.1332  0.2243  0.4688
  115TMC2    C4 1788   3.419   1.178   0.050  1.1651  0.2510  0.5198
  115TMC2    C5 1789   3.491   1.264  17.723  0.2265 -0.3877  0.7969
  115TMC2    C6 1790   3.616   1.238  17.685  0.1777 -0.2041 -0.5708
  115TMC2     C 1791   3.374   0.942   0.047  0.6216 -0.3175  0.1110
  115TMC2     O 1792   3.413   0.827   0.022  0.5480 -0.3540 -0.0275
  115TMC2     H 1793   3.632   0.919   0.047 -1.7425 -1.1357 -1.8850
  115TMC2    H1 1794   3.323   1.214   0.086  0.9245  1.0123 -0.8952
  115TMC2    H2 1795   3.683   1.305  17.633 -0.3627  0.4648 -0.4098
  115TMC2    C7 1796   3.442   1.402  17.697  0.0622  0.1176  0.9651
  115TMC2    C8 1797   3.787   1.075  17.652  0.4286 -0.3809 -0.1436
  115TMC2    O1 1798   3.333   1.433   0.009  1.0342 -0.1329 -0.2705
  115TMC2    O2 1799   3.817   1.124  17.544 -0.4203  0.1916  0.0167
  115TMC2    O5 1800   3.865   1.005  17.733  0.8651  0.5212 -0.0604
  115TMC2    H5 1801   3.835   0.992   0.087  0.4583 -2.0621 -0.5334
  116MPD2     C 1802   2.902   0.762   0.038  0.9831 -0.4488 -0.9877
  116MPD2    C1 1803   3.019   0.691   0.015  0.3964  0.9817  0.1556
  116MPD2    C2 1804   3.139   0.756   0.026  0.1232 -0.5105  0.6794
  116MPD2    C3 1805   3.134   0.894   0.053  0.0785 -0.3672  0.2447
  116MPD2    C4 1806   3.021   0.969   0.073 -0.6723  0.3732  0.0348
  116MPD2    C5 1807   2.903   0.895   0.073 -0.2054 -0.7453  0.6317
  116MPD2     H 1808   3.232   0.700   0.018  0.2417 -0.3373  0.8516
  116MPD2    H1 1809   3.025   1.072   0.107 -1.2763  1.5201 -3.3013
  116MPD2    H2 1810   2.809   0.707   0.049 -0.8467  3.1495  1.7004
  116MPD2    H3 1811   2.810   0.938   0.107 -0.1416  0.4314 -0.7121
  116MPD2     N 1812   3.243   0.979   0.067 -0.5426 -0.0012 -0.3908
  116MPD2    H5 1813   3.225   1.071   0.105  2.4178  1.3912 -2.3579
  116MPD2    N1 1814   2.999   0.558  17.708  0.0886  0.4208  0.1621
  116MPD2    H7 1815   2.906   0.519  17.709  1.2487 -2.3967 -0.2151
  117TMC2    C1 1816   1.736   2.471  13.916  0.6957 -0.1855 -0.0845
  117TMC2    C2 1817   1.758   2.364  13.999 -0.2994  0.0958  0.2695
  117TMC2    C3 1818   1.826   2.393  14.116  0.1752 -0.5033 -0.2527
  117TMC2    C4 1819   1.787   2.588  13.933  0.3411  0.2327  0.1828
  117TMC2    C5 1820   1.869   2.606  14.045 -0.3793  0.2753  0.1457
  117TMC2    C6 1821   1.889   2.513  14.142 -0.2981 -0.5961  0.4751
  117TMC2     C 1822   1.649   2.444  13.798 -0.7263  0.1298  0.3231
  117TMC2     O 1823   1.645   2.327  13.758 -0.2306 -0.1203 -0.8584
  117TMC2     H 1824   1.715   2.266  13.980 -0.4785  0.4017 -0.9065
  117TMC2    H1 1825   1.773   2.662  13.856 -0.0675  1.1958  1.1893
  117TMC2    H2 1826   1.961   2.529  14.222 -1.6910  0.7963  1.4694
  117TMC2    C7 1827   1.937   2.738  14.051 -0.1156 -0.5262  0.2493
  117TMC2    C8 1828   1.866   2.279  14.188  0.0136 -0.2810 -0.0008
  117TMC2    O1 1829   1.902   2.824  13.968 -0.3773 -0.0859  0.6623
  117TMC2    O2 1830   1.895   2.300  14.303  0.2603 -0.3374 -0.0551
  117TMC2    O5 1831   1.943   2.200  14.106 -0.0780  0.4444  0.1487
  117TMC2    H5 1832   1.916   2.213  14.013 -3.0340 -1.0203  0.7800
  118MPD2     C 1833   2.209   2.853  14.278  0.7797 -0.3997 -0.4253
  118MPD2    C1 1834   2.120   2.863  14.173 -0.2427  0.1376  0.7902
  118MPD2    C2 1835   2.123   2.979  14.095  0.7384 -0.0038  0.4295
  118MPD2    C3 1836   2.227   3.075  14.111 -0.1214 -0.1017 -0.5016
  118MPD2    C4 1837   2.306   3.061  14.219 -0.1554  0.3253  0.0690
  118MPD2    C5 1838   2.299   2.949  14.298 -0.5323 -0.1475 -0.2478
  118MPD2     H 1839   2.050   2.995  14.017  0.3444  0.1249  0.8267
  118MPD2    H1 1840   2.377   3.140  14.238 -1.4766  1.6713 -0.5327
  118MPD2    H2 1841   2.211   2.772  14.350 -1.0571 -1.8589 -2.0045
  118MPD2    H3 1842   2.376   2.937  14.373 -0.1175 -0.4991 -0.7313
  118MPD2     N 1843   2.238   3.191  14.035 -0.1436 -0.1685 -0.1737
  118MPD2    H5 1844   2.329   3.236  14.038  0.2949 -1.0197 -0.7066
  118MPD2    N1 1845   2.035   2.750  14.150 -0.0191  1.0335  0.2445
  118MPD2    H7 1846   2.051   2.678  14.220 -0.8999  0.8456  0.2524
  119TMC2    C1 1847   0.344   3.725  13.515 -0.2224 -0.0115  0.0503
  119TMC2    C2 1848   0.461   3.682  13.462 -0.1581  0.1277 -0.1562
  119TMC2    C3 1849   0.469   3.642  13.333  0.7273  0.3000  0.2449
  119TMC2    C4 1850   0.229   3.714  13.441  0.3138 -0.2184  0.5211
  119TMC2    C5 1851   0.233   3.652  13.320  0.4954  0.5876 -0.2190
  119TMC2    C6 1852   0.350   3.611  13.264 -0.1139 -0.0634 -0.3415
  119TMC2     C 1853   0.336   3.820  13.625 -0.6767  0.3560 -0.2615
  119TMC2     O 1854   0.239   3.887  13.630 -0.0846 -0.5048  0.5809
  119TMC2     H 1855   0.556   3.696  13.511 -0.8034 -0.4859  1.2575
  119TMC2    H1 1856   0.138   3.747  13.490 -0.3170  0.8776 -1.3837
  119TMC2    H2 1857   0.356   3.553  13.172  0.5485  1.3670 -1.1943
  119TMC2    C7 1858   0.111   3.602  13.257  0.5349  0.0035 -0.3596
  119TMC2    C8 1859   0.591   3.580  13.279 -0.3089  0.1894  0.5956
  119TMC2    O1 1860   0.129   3.556  13.141 -0.2040  0.0483 -0.2967
  119TMC2    O2 1861   0.693   3.558  13.340 -0.4231 -0.7188  0.5362
  119TMC2    O5 1862   0.576   3.573  13.147  0.3324  0.8857  0.2133
  119TMC2    H5 1863   0.516   3.648  13.128 -2.6107 -2.0839 -2.2669
  120MPD2     C 1864   0.544   4.109  13.984 -0.2053 -0.4019  0.1394
  120MPD2    C1 1865   0.417   4.106  13.934 -0.3213  0.8994 -0.6817
  120MPD2    C2 1866   0.384   4.018  13.836 -0.2334  0.0490 -0.8513
  120MPD2    C3 1867   0.475   3.923  13.801 -0.1346  0.2205 -0.5836
  120MPD2    C4 1868   0.598   3.914  13.857  0.3892  0.1321 -0.3648
  120MPD2    C5 1869   0.631   4.008  13.947  0.2264  0.1815 -0.3189
  120MPD2     H 1870   0.288   4.025  13.786 -0.8392 -2.0884  0.0073
  120MPD2    H1 1871   0.670   3.836  13.832  0.5515  0.2891 -0.3868
  120MPD2    H2 1872   0.578   4.173  14.065  2.0945 -0.6380 -0.6233
  120MPD2    H3 1873   0.730   4.016  13.989 -0.2127  1.0164  0.5458
  120MPD2     N 1874   0.452   3.824  13.702 -0.4100  0.0854  0.1100
  120MPD2    H5 1875   0.528   3.760  13.677 -0.2492  1.1209 -2.1000
  120MPD2    N1 1876   0.319   4.195  13.980 -0.0110 -0.1100  0.1970
  120MPD2    H7 1877   0.352   4.282  14.021 -0.0508  0.9925 -2.1199
  121TMC2    C1 1878   1.600   0.621  14.275 -0.1860 -0.0478  0.3088
  121TMC2    C2 1879   1.695   0.543  14.335 -0.7439  0.3166 -0.0308
  121TMC2    C3 1880   1.651   0.439  14.407 -0.3506 -0.7582  0.1164
  121TMC2    C4 1881   1.469   0.610  14.307 -0.2109 -0.6880  0.2944
  121TMC2    C5 1882   1.427   0.498  14.373  0.9123  0.4735 -0.2093
  121TMC2    C6 1883   1.516   0.414  14.425  1.1465  0.2921 -0.1157
  121TMC2     C 1884   1.647   0.745  14.218 -1.0132  0.6132  0.3218
  121TMC2     O 1885   1.762   0.745  14.172  0.3249 -0.1571  0.2810
  121TMC2     H 1886   1.797   0.571  14.310 -0.7395 -0.3425 -0.7478
  121TMC2    H1 1887   1.404   0.675  14.249 -1.7822 -0.6107  2.1548
  121TMC2    H2 1888   1.473   0.334  14.484  1.0649  0.4780  0.0762
  121TMC2    C7 1889   1.293   0.457  14.376 -0.5730 -0.1858 -0.2223
  121TMC2    C8 1890   1.729   0.343  14.479  0.3855 -0.1002  0.6282
  121TMC2    O1 1891   1.277   0.340  14.406 -0.5947 -0.0412  0.2359
  121TMC2    O2 1892   1.672   0.241  14.516 -0.1959  0.2028 -0.4550
  121TMC2    O5 1893   1.843   0.390  14.509 -0.5300  0.5253 -0.3345
  121TMC2    H5 1894   1.845   0.488  14.506 -0.1270  0.4356 -2.9144
  122MPD2     C 1895   1.504   1.079  14.267  0.6142  0.0500  0.1563
  122MPD2    C1 1896   1.596   0.985  14.219  0.2196  0.0898 -0.0742
  122MPD2    C2 1897   1.684   1.022  14.113  0.8925 -0.2020 -0.4365
  122MPD2    C3 1898   1.692   1.153  14.070  0.3023 -0.3143  0.1689
  122MPD2    C4 1899   1.615   1.255  14.130 -0.3489  0.8049 -0.3521
  122MPD2    C5 1900   1.524   1.212  14.226  0.4406 -0.6927  0.4478
  122MPD2     H 1901   1.751   0.950  14.067 -0.2927 -0.1790 -2.1952
  122MPD2    H1 1902   1.600   1.351  14.083 -1.8703  1.1586  0.8224
  122MPD2    H2 1903   1.425   1.065  14.340  0.1355 -1.7318 -0.7070
  122MPD2    H3 1904   1.453   1.286  14.262  0.3091 -0.1762 -0.8767
  122MPD2     N 1905   1.772   1.182  13.960 -0.4669  0.7982  0.1535
  122MPD2    H5 1906   1.812   1.103  13.910 -1.5041  0.9339 -0.8788
  122MPD2    N1 1907   1.573   0.853  14.259  0.6566 -0.3193 -0.4616
  122MPD2    H7 1908   1.492   0.834  14.316 -0.8924 -1.7663 -3.1575
  123TMC2    C1 1909   1.185   4.308   9.970 -0.5564 -0.2062 -0.2547
  123TMC2    C2 1910   1.250   4.382   9.873  0.1424 -0.3427 -0.0653
  123TMC2    C3 1911   1.188   4.489   9.811 -0.2246  1.0760  0.0038
  123TMC2    C4 1912   1.057   4.349  10.011  0.7857 -0.0182 -0.9831
  123TMC2    C5 1913   1.000   4.455   9.943 -0.2346  1.0574 -0.2999
  123TMC2    C6 1914   1.065   4.527   9.844  0.5986 -0.1304  0.3072
  123TMC2     C 1915   1.255   4.198  10.034 -0.0891 -0.1846 -0.0406
  123TMC2     O 1916   1.376   4.191  10.015 -0.4154  0.0378  0.0959
  123TMC2     H 1917   1.352   4.356   9.846  0.8722  2.2640  0.1723
  123TMC2    H1 1918   0.995   4.275  10.060  4.1882 -1.9602  0.3344
  123TMC2    H2 1919   1.014   4.609   9.795 -1.1963 -0.4339  1.6483
  123TMC2    C7 1920   0.859   4.447   9.928 -0.0053 -0.2347 -0.7025
  123TMC2    C8 1921   1.254   4.579   9.721 -0.8535  0.3752  0.4618
  123TMC2    O1 1922   0.820   4.421   9.817  0.4768  0.5173 -0.0991
  123TMC2    O2 1923   1.203   4.651   9.633  0.7258  0.3066 -0.3564
  123TMC2    O5 1924   1.380   4.608   9.764 -0.4659  0.3325  0.0069
  123TMC2    H5 1925   1.406   4.559   9.845  0.4730  0.5858 -0.1493
  124MPD2     C 1926   1.287   3.758  10.305 -0.0513  0.8739  0.1360
  124MPD2    C1 1927   1.156   3.788  10.272 -0.3494  0.2462 -0.4013
  124MPD2    C2 1928   1.126   3.905  10.206  0.7498  0.3193  0.0714
  124MPD2    C3 1929   1.215   3.991  10.161  0.0409 -0.3101 -0.3510
  124MPD2    C4 1930   1.348   3.962  10.198  0.3532 -0.0624 -0.0122
  124MPD2    C5 1931   1.384   3.853  10.274  0.2031  0.2696 -0.6634
  124MPD2     H 1932   1.022   3.909  10.174  0.0297 -3.2392  1.8633
  124MPD2    H1 1933   1.423   4.032  10.161 -0.2107  0.1332 -0.7905
  124MPD2    H2 1934   1.315   3.672  10.365  0.0778  1.2628  0.6378
  124MPD2    H3 1935   1.486   3.833  10.306 -0.2645 -1.1129 -0.0426
  124MPD2     N 1936   1.171   4.104  10.085  0.0677  0.5525 -0.2875
  124MPD2    H5 1937   1.071   4.109  10.073  0.1442  0.4688 -0.9362
  124MPD2    N1 1938   1.062   3.686  10.312  0.2769 -0.3112  0.3646
  124MPD2    H7 1939   1.084   3.623  10.388 -1.0786  2.4173  3.0270
  125TMC2    C1 1940   1.671   0.329   8.960 -0.0278  0.0730 -0.0717
  125TMC2    C2 1941   1.684   0.292   8.831  0.1155  0.5013 -0.3592
  125TMC2    C3 1942   1.587   0.210   8.769 -0.0174 -0.3321 -0.0465
  125TMC2    C4 1943   1.554   0.295   9.022  0.0932 -0.4205 -0.4060
  125TMC2    C5 1944   1.452   0.230   8.950  0.0477 -0.5126 -0.4956
  125TMC2    C6 1945   1.469   0.177   8.830  0.3308  0.1760 -0.4862
  125TMC2     C 1946   1.763   0.414   9.034 -0.4556  0.0913  0.3403
  125TMC2     O 1947   1.716   0.455   9.141 -0.4550 -0.2356 -0.4918
  125TMC2     H 1948   1.764   0.321   8.764  0.6893  1.6399  0.8157
  125TMC2    H1 1949   1.535   0.319   9.126  2.2993 -0.6358  0.0461
  125TMC2    H2 1950   1.386   0.125   8.783 -1.5833  0.8014  2.2216
  125TMC2    C7 1951   1.322   0.213   9.009 -0.1236 -0.7768 -0.3451
  125TMC2    C8 1952   1.631   0.134   8.657 -0.0033  0.7072 -0.3642
  125TMC2    O1 1953   1.251   0.121   8.972  0.2271  0.3045 -0.0981
  125TMC2    O2 1954   1.745   0.102   8.636  0.0387  0.1958  0.2328
  125TMC2    O5 1955   1.529   0.085   8.583  0.2980  0.3860 -0.2260
  125TMC2    H5 1956   1.455   0.149   8.595  1.3164  1.7532 -1.1910
  126MPD1     C 1957   2.213   0.616   9.093  0.1634 -0.1166 -0.4236
  126MPD1    C1 1958   2.217   0.548   8.974  0.1747 -0.0424  0.5529
  126MPD1    C2 1959   2.099   0.491   8.938 -0.2546  0.2905  0.3752
  126MPD1    C3 1960   1.994   0.486   9.021 -0.8600  0.4639  0.1875
  126MPD1    C4 1961   1.996   0.549   9.149  0.0241 -0.6341 -0.2303
  126MPD1    C5 1962   2.111   0.614   9.183 -0.2904  0.2851  0.3685
  126MPD1     H 1963   2.096   0.436   8.844  1.8006  1.7363 -0.5503
  126MPD1    H1 1964   1.917   0.539   9.222  0.7256 -0.1396  0.6039
  126MPD1    H2 1965   2.297   0.674   9.128 -1.8005  2.6320 -0.3357
  126MPD1    H3 1966   2.107   0.679   9.270  0.7282 -1.4864  1.7313
  126MPD1     N 1967   1.882   0.421   8.974 -0.1512 -0.3446  1.1959
  126MPD1    H5 1968   1.897   0.395   8.877 -0.8518  2.8716  0.2305
  126MPD1    N1 1969   2.321   0.565   8.880  0.0953 -0.2209 -0.2965
  126MPD1    H6 1970   2.397   0.599   8.939 -0.8082  1.0874  0.1297
  126MPD1    H7 1971   2.354   0.477   8.843  0.5924 -0.5460  0.9234
  127TMC2    C1 1972   1.882   4.605   9.521  0.0343 -0.1880 -0.1813
  127TMC2    C2 1973   1.905   4.628   9.651  0.3343  0.0293  0.0832
  127TMC2    C3 1974   1.826   4.557   9.742  0.0221  0.4345 -0.1512
  127TMC2    C4 1975   1.797   4.512   9.479 -0.3701 -0.4862  0.0973
  127TMC2    C5 1976   1.721   4.442   9.570 -0.6951 -0.6532  0.8793
  127TMC2    C6 1977   1.735   4.465   9.709  0.7859 -0.1304  0.0657
  127TMC2     C 1978   1.979   4.660   9.429  0.3356 -0.2702 -0.5353
  127TMC2     O 1979   1.998   4.595   9.327 -0.4915 -0.4898  0.7410
  127TMC2     H 1980   1.990   4.689   9.682  0.6535 -0.5579  0.3584
  127TMC2    H1 1981   1.783   4.502   9.372  2.3574 -0.3703 -0.2709
  127TMC2    H2 1982   1.665   4.445   9.789  1.9036  0.5078  1.1944
  127TMC2    C7 1983   1.586   4.413   9.521 -1.2171 -0.6233 -0.0613
  127TMC2    C8 1984   1.842   4.593   9.879 -0.3616  0.5323 -0.6014
  127TMC2    O1 1985   1.547   4.467   9.418  0.3525  0.4196  0.3600
  127TMC2    O2 1986   1.797   4.514   9.960 -0.5285  0.5030 -0.0912
  127TMC2    O5 1987   1.861   4.728   9.889 -0.1473  0.2977 -0.3909
  127TMC2    H5 1988   1.860   0.046   9.806 -3.3371  0.7674 -0.0665
  128MPD2     C 1989   2.207   0.060   9.309  0.5316 -0.1007 -0.1589
  128MPD2    C1 1990   2.131   0.119   9.407  0.2546  0.0169  0.0620
  128MPD2    C2 1991   2.155   0.250   9.444 -0.2924 -0.0543 -0.0486
  128MPD2    C3 1992   2.260   0.319   9.390 -0.4251 -0.4261  0.0514
  128MPD2    C4 1993   2.343   0.257   9.298 -0.0976 -0.1361 -0.3459
  128MPD2    C5 1994   2.308   0.129   9.252  1.0357 -0.4391  0.1926
  128MPD2     H 1995   2.085   0.288   9.518 -0.9360 -3.4029  1.0562
  128MPD2    H1 1996   2.432   0.301   9.255  0.2165 -0.4266  0.0088
  128MPD2    H2 1997   2.192   4.694   9.272 -0.6096 -0.0333  0.0965
  128MPD2    H3 1998   2.363   0.080   9.172  3.2371  3.0490 -0.4536
  128MPD2     N 1999   2.290   0.457   9.431  0.4803  0.0181  0.4738
  128MPD2    H5 2000   2.376   0.502   9.403  0.7598 -0.1617  1.0437
  128MPD2    N1 2001   2.029   0.047   9.473 -0.3644  0.7568  0.1427
  128MPD2    H7 2002   1.987   0.101   9.547 -0.6687  0.3637  0.2564
  129TMC2    C1 2003   0.894   0.376   1.473  1.0906 -0.0992  0.6521
  129TMC2    C2 2004   0.808   0.485   1.482 -0.1492  0.2524 -0.1834
  129TMC2    C3 2005   0.672   0.452   1.478 -0.4892  0.0413  0.4492
  129TMC2    C4 2006   0.857   0.248   1.485 -0.0732  0.3398  0.2137
  129TMC2    C5 2007   0.727   0.222   1.510  0.2920 -0.2033 -0.7890
  129TMC2    C6 2008   0.633   0.324   1.498  0.5809  0.0369  0.1108
  129TMC2     C 2009   1.038   0.402   1.468 -0.4155  0.4607 -0.3475
  129TMC2     O 2010   1.111   0.303   1.471 -0.2705  0.0410  0.0904
  129TMC2     H 2011   0.836   0.589   1.477 -1.1436  0.5757  0.9050
  129TMC2    H1 2012   0.931   0.169   1.478 -0.3751  0.1279 -0.6626
  129TMC2    H2 2013   0.534   0.296   1.531  0.9869 -1.3297  0.1874
  129TMC2    C7 2014   0.682   0.086   1.525  0.9109 -0.0318  0.2358
  129TMC2    C8 2015   0.586   0.573   1.494  0.3059 -0.1906  0.0780
  129TMC2    O1 2016   0.562   0.064   1.500  0.0676 -0.2929 -0.0783
  129TMC2    O2 2017   0.631   0.681   1.522 -0.0191 -0.0366  0.1863
  129TMC2    O5 2018   0.458   0.539   1.454  0.0455 -0.2700 -0.3093
  129TMC2    H5 2019   0.451   0.449   1.415  0.4113 -0.2299 -0.4655
  130MPD2     C 2020   1.301   0.498   1.364 -0.1761 -0.5277  0.6209
  130MPD2    C1 2021   1.198   0.579   1.401 -0.1298 -0.8784 -0.4278
  130MPD2    C2 2022   1.211   0.721   1.399 -0.5793  0.5447  0.3070
  130MPD2    C3 2023   1.325   0.784   1.347 -0.2451 -0.2564 -0.8503
  130MPD2    C4 2024   1.420   0.699   1.293  0.0291 -0.5119  0.7321
  130MPD2    C5 2025   1.410   0.563   1.317  0.4269 -0.7554 -0.0963
  130MPD2     H 2026   1.128   0.782   1.433 -1.4412  1.0098 -2.6673
  130MPD2    H1 2027   1.503   0.749   1.243 -0.5819 -0.3304 -0.1073
  130MPD2    H2 2028   1.288   0.391   1.353 -1.9596  0.0703 -2.9583
  130MPD2    H3 2029   1.490   0.494   1.290  1.7608 -0.3191  2.7810
  130MPD2     N 2030   1.326   0.926   1.334  0.2804 -0.6398  0.0220
  130MPD2    H5 2031   1.246   0.985   1.357  0.5052  0.4079 -1.8804
  130MPD2    N1 2032   1.072   0.531   1.434 -0.3128 -0.3163 -0.6367
  130MPD2    H7 2033   0.992   0.593   1.426 -0.5393 -0.5920 -0.5340
  131TMC2    C1 2034   4.702   3.840  10.177 -0.3278  1.0754 -0.2248
  131TMC2    C2 2035   4.627   3.754  10.104  0.7282  0.4437  1.1068
  131TMC2    C3 2036   4.569   3.799   9.992  0.0715 -0.1459  0.1117
  131TMC2    C4 2037   4.712   3.969  10.136  0.0145  0.4406 -0.0805
  131TMC2    C5 2038   4.654   4.012  10.023  0.1912 -0.4809 -0.1000
  131TMC2    C6 2039   4.572   3.926   9.958 -0.2257 -0.2331  0.2243
  131TMC2     C 2040   0.074   3.789  10.259 -0.2050 -0.1236  0.0459
  131TMC2     O 2041   0.178   3.852  10.244 -0.7346  0.1958 -0.4616
  131TMC2     H 2042   4.621   3.648  10.125 -0.6984  0.3569  0.2567
  131TMC2    H1 2043   0.034   4.032  10.203  1.4813 -0.3649 -0.5757
  131TMC2    H2 2044   4.539   3.951   9.858  0.2646  1.8226  0.5798
  131TMC2    C7 2045   4.706   4.138   9.971  0.0900  0.6681  0.1928
  131TMC2    C8 2046   4.506   3.711   9.899  0.0210  0.6947  0.1949
  131TMC2    O1 2047   0.062   4.189  10.037  0.2202  0.2055 -0.2533
  131TMC2    O2 2048   4.478   3.759   9.792 -0.1038 -0.0479 -0.3965
  131TMC2    O5 2049   4.439   3.612   9.963  0.4822  0.2107 -0.1235
  131TMC2    H5 2050   4.469   3.597  10.055 -1.8037 -1.2003  0.3839
  132MPD2     C 2051   0.084   3.572  10.550 -1.0628  0.4141  0.3016
  132MPD2    C1 2052   0.133   3.641  10.444 -0.0537  0.6505 -0.9128
  132MPD2    C2 2053   0.268   3.636  10.420 -0.4564 -1.1202 -0.3364
  132MPD2    C3 2054   0.355   3.561  10.496  0.3387  0.5856 -0.9255
  132MPD2    C4 2055   0.306   3.509  10.613  0.2325  0.3272 -0.3422
  132MPD2    C5 2056   0.169   3.509  10.632 -0.3710 -0.7685  0.4610
  132MPD2     H 2057   0.305   3.681  10.329  0.6022  1.0712  1.1585
  132MPD2    H1 2058   0.367   3.452  10.682  0.6393  1.7743  0.4863
  132MPD2    H2 2059   4.712   3.568  10.570 -1.2320  0.5025 -0.6184
  132MPD2    H3 2060   0.126   3.454  10.714 -0.3273 -1.7668 -0.1797
  132MPD2     N 2061   0.489   3.550  10.450 -0.5694 -0.4491  0.2241
  132MPD2    H5 2062   0.513   3.597  10.363 -2.4421  0.8502  0.3950
  132MPD2    N1 2063   0.040   3.694  10.354 -0.0463 -0.0142  0.4483
  132MPD2    H7 2064   4.679   3.660  10.360 -0.8886  2.7779  2.7422
  133TMC2    C1 2065   4.496   0.625   9.620 -0.4730 -0.0028 -0.6669
  133TMC2    C2 2066   4.576   0.648   9.727  0.0125  0.1038 -0.0932
  133TMC2    C3 2067   4.704   0.606   9.723  0.3921  0.0460  0.2912
  133TMC2    C4 2068   4.544   0.583   9.503  0.5596 -1.2059 -0.3395
  133TMC2    C5 2069   4.677   0.554   9.494 -0.3646  0.3423  1.0020
  133TMC2    C6 2070   0.024   0.573   9.609  0.1826 -0.1980  0.5188
  133TMC2     C 2071   4.351   0.627   9.629 -0.4383  0.0859 -0.1529
  133TMC2     O 2072   4.295   0.531   9.582  0.0259  0.4458 -0.3458
  133TMC2     H 2073   4.526   0.666   9.821  0.2644 -1.0223  0.2544
  133TMC2    H1 2074   4.467   0.570   9.428 -1.3589 -0.9649  1.6240
  133TMC2    H2 2075   0.118   0.518   9.613  0.6336  0.5028 -0.3345
  133TMC2    C7 2076   4.731   0.501   9.376 -0.6779 -0.1433 -0.1047
  133TMC2    C8 2077   0.043   0.618   9.846  0.3766 -0.0896 -0.2679
  133TMC2    O1 2078   0.117   0.505   9.362 -0.2342 -0.3478 -0.3987
  133TMC2    O2 2079   4.734   0.582   9.954 -0.3034  0.5418  0.1949
  133TMC2    O5 2080   0.120   0.730   9.833  0.3534  0.0051  0.0004
  133TMC2    H5 2081   0.170   0.747   9.751  0.0401 -2.8237 -0.7665
  134MPD2     C 2082   4.156   0.871   9.818 -0.6379 -0.1553  0.0681
  134MPD2    C1 2083   4.171   0.773   9.726  0.7477  0.4612  0.1082
  134MPD2    C2 2084   4.064   0.713   9.661 -0.0668 -0.8138  0.2909
  134MPD2    C3 2085   3.935   0.756   9.690 -0.5238  0.0073 -0.5382
  134MPD2    C4 2086   3.923   0.860   9.779  0.0081 -0.4365 -0.9315
  134MPD2    C5 2087   4.031   0.909   9.852 -0.1190  0.0141  0.3272
  134MPD2     H 2088   4.084   0.634   9.589 -1.5670  1.1311 -2.2571
  134MPD2    H1 2089   3.824   0.899   9.801  0.6604  1.4142 -1.2521
  134MPD2    H2 2090   4.246   0.920   9.854  0.1030 -2.4117  1.2579
  134MPD2    H3 2091   4.013   0.991   9.921 -0.1943  0.6815 -0.4823
  134MPD2     N 2092   3.816   0.702   9.636 -0.1406 -0.4078  0.3252
  134MPD2    H5 2093   3.727   0.734   9.675 -1.0573 -0.0706 -2.0369
  134MPD2    N1 2094   4.308   0.739   9.699 -0.5733 -0.2413  0.4111
  134MPD2    H7 2095   4.374   0.810   9.729 -0.0311 -0.3265 -0.5746
  135TMC2    C1 2096   1.022   1.353   9.664  0.1829  0.2092  0.0050
  135TMC2    C2 2097   0.993   1.362   9.528 -1.1212 -0.3586 -0.6842
  135TMC2    C3 2098   0.863   1.385   9.496  0.2419 -0.0376 -1.0058
  135TMC2    C4 2099   0.930   1.387   9.761 -1.1829  0.3346 -0.4929
  135TMC2    C5 2100   0.799   1.393   9.719 -0.6555 -0.6509 -0.0005
  135TMC2    C6 2101   0.761   1.408   9.586 -0.0296  0.2240 -0.5925
  135TMC2     C 2102   1.158   1.342   9.712  0.0518 -0.1517  0.3074
  135TMC2     O 2103   1.186   1.397   9.816  0.2282  0.1292 -0.0462
  135TMC2     H 2104   1.061   1.334   9.449 -2.3075 -1.2447 -1.3811
  135TMC2    H1 2105   0.959   1.381   9.865 -0.8990 -0.9957 -0.6530
  135TMC2    H2 2106   0.655   1.414   9.564  0.7091  0.1178 -4.1298
  135TMC2    C7 2107   0.697   1.381   9.824  0.2236  0.3638  0.0850
  135TMC2    C8 2108   0.833   1.391   9.354 -0.1536 -0.6628 -0.1910
  135TMC2    O1 2109   0.598   1.452   9.813 -0.2100 -0.3353  0.6608
  135TMC2    O2 2110   0.904   1.339   9.267 -0.0434  0.0608 -0.1806
  135TMC2    O5 2111   0.699   1.401   9.341 -0.0149 -0.0997  0.6809
  135TMC2    H5 2112   0.671   1.485   9.383  0.8718  0.7320 -0.3868
  136MPD2     C 2113   1.445   1.362   9.683 -0.6447  0.7646  0.3953
  136MPD2    C1 2114   1.373   1.265   9.615  0.1772  0.1682  0.0363
  136MPD2    C2 2115   1.431   1.173   9.535  0.3759 -0.6731  0.1520
  136MPD2    C3 2116   1.569   1.188   9.516 -0.2816 -0.0651  0.0842
  136MPD2    C4 2117   1.645   1.292   9.570  0.7462  0.1275 -1.2825
  136MPD2    C5 2118   1.575   1.382   9.647 -0.6051  0.2971  0.8405
  136MPD2     H 2119   1.366   1.107   9.478 -2.7492  3.2884 -0.9351
  136MPD2    H1 2120   1.750   1.301   9.545  1.4117 -3.6493  0.1805
  136MPD2    H2 2121   1.409   1.442   9.746 -1.6215  0.2115  0.5368
  136MPD2    H3 2122   1.628   1.465   9.692 -1.1581  1.3781 -0.5161
  136MPD2     N 2123   1.645   1.104   9.439  0.6938 -0.6725  0.7787
  136MPD2    H5 2124   1.745   1.123   9.435  0.9433 -1.9818  0.3954
  136MPD2    N1 2125   1.235   1.269   9.619 -0.5071  0.3050 -0.3628
  136MPD2    H7 2126   1.190   1.215   9.545 -1.2502  1.2377 -0.5948
  137TMC2    C1 2127   1.413   0.143   9.359  0.1556 -0.1652  0.1006
  137TMC2    C2 2128   1.534   0.115   9.302  0.2854  0.2564 -0.7002
  137TMC2    C3 2129   1.532   4.732   9.232 -0.0755 -0.9360 -0.4224
  137TMC2    C4 2130   1.305   0.061   9.357 -0.6534 -0.4539 -0.3047
  137TMC2    C5 2131   1.309   4.680   9.289  0.4248 -0.0986  0.4612
  137TMC2    C6 2132   1.421   4.651   9.219 -0.3682  0.5282 -0.2427
  137TMC2     C 2133   1.420   0.234   9.472  0.0366  0.0184  0.2442
  137TMC2     O 2134   1.498   0.325   9.455 -0.4368 -0.1416 -0.9945
  137TMC2     H 2135   1.619   0.182   9.302 -0.5877  1.3854  1.0263
  137TMC2    H1 2136   1.207   0.095   9.389 -1.7497 -3.2499 -0.6424
  137TMC2    H2 2137   1.418   4.558   9.163 -0.8858 -0.1122  0.8460
  137TMC2    C7 2138   1.193   4.599   9.276  0.4282  0.7363 -0.0471
  137TMC2    C8 2139   1.651   4.700   9.158  0.2354  0.5492 -0.3643
  137TMC2    O1 2140   1.181   4.526   9.179 -0.4651 -0.4016 -0.6290
  137TMC2    O2 2141   1.742   0.045   9.148  0.4146 -0.1931  0.1495
  137TMC2    O5 2142   1.641   4.564   9.155 -0.5104  0.4215 -0.0930
  137TMC2    H5 2143   1.594   4.532   9.235  0.6883 -1.0657  0.0188
  138MPD2     C 2144   1.182   0.263   9.758  0.5122  0.5615 -0.4294
  138MPD2    C1 2145   1.305   0.278   9.688  0.7500 -0.2671  0.4709
  138MPD2    C2 2146   1.398   0.355   9.733 -0.3654  0.1248  0.5381
  138MPD2    C3 2147   1.372   0.429   9.846  0.4926 -0.1955  0.1886
  138MPD2    C4 2148   1.252   0.415   9.920 -0.3684  0.2536  0.0019
  138MPD2    C5 2149   1.157   0.330   9.872 -0.0684 -0.4519 -0.0149
  138MPD2     H 2150   1.497   0.368   9.692 -0.3262  1.7531  1.1268
  138MPD2    H1 2151   1.223   0.471  10.009  3.1970  0.5919  0.9617
  138MPD2    H2 2152   1.097   0.209   9.716 -0.9888  0.6837  2.4200
  138MPD2    H3 2153   1.060   0.340   9.918 -0.2387 -0.7351 -0.3182
  138MPD2     N 2154   1.477   0.514   9.884 -0.0612  0.0096  0.4926
  138MPD2    H5 2155   1.544   0.533   9.811  0.8220 -1.4258  0.9383
  138MPD2    N1 2156   1.328   0.202   9.568 -0.3300  0.5275  0.4885
  138MPD2    H7 2157   1.272   0.118   9.556  1.4219 -0.4277 -1.0194
  139TMC2    C1 2158   1.885   3.545  13.317 -0.5569  0.7107  0.1201
  139TMC2    C2 2159   2.009   3.598  13.342  0.0843 -0.0419  0.0357
  139TMC2    C3 2160   2.012   3.717  13.406 -0.3220 -0.3971 -0.0969
  139TMC2    C4 2161   1.772   3.611  13.365  0.0021  0.5260  0.1353
  139TMC2    C5 2162   1.792   3.726  13.445  0.1110  0.3150 -0.0159
  139TMC2    C6 2163   1.910   3.781  13.468 -0.3698 -0.2533 -0.4491
  139TMC2     C 2164   1.871   3.420  13.248 -0.0462 -0.2743 -0.3077
  139TMC2     O 2165   1.969   3.368  13.190  0.2704  0.1935 -0.0061
  139TMC2     H 2166   2.098   3.558  13.295 -0.7276  0.5105 -1.9598
  139TMC2    H1 2167   1.679   3.562  13.338 -0.6867  1.6435  0.4983
  139TMC2    H2 2168   1.929   3.870  13.527  0.1378 -1.3041  0.9756
  139TMC2    C7 2169   1.682   3.804  13.497  0.5078 -0.2544 -0.2722
  139TMC2    C8 2170   2.141   3.760  13.422  0.1603 -0.1610  0.2115
  139TMC2    O1 2171   1.708   3.908  13.554 -0.0030 -0.4395 -0.2170
  139TMC2    O2 2172   2.232   3.681  13.445  0.0584 -0.0270  0.1458
  139TMC2    O5 2173   2.153   3.892  13.392  0.3614 -0.3440 -0.2456
  139TMC2    H5 2174   2.067   3.939  13.395  1.7691  2.3765 -2.3085
  140MPD2     C 2175   1.620   3.165  13.306 -0.1422 -0.5865  0.0646
  140MPD2    C1 2176   1.719   3.224  13.233  0.1437  0.5902 -0.0989
  140MPD2    C2 2177   1.768   3.170  13.118  0.4902  0.4934 -0.0304
  140MPD2    C3 2178   1.728   3.048  13.077 -0.0035  0.2438  0.2097
  140MPD2    C4 2179   1.627   2.983  13.155  0.4500 -0.4746 -0.2470
  140MPD2    C5 2180   1.572   3.043  13.264 -0.3449  0.5006  0.6591
  140MPD2     H 2181   1.839   3.225  13.057  0.9214  0.5174  0.4884
  140MPD2    H1 2182   1.582   2.887  13.134  0.0446 -0.6266  1.2941
  140MPD2    H2 2183   1.573   3.211  13.392  1.2105  2.5723 -0.8758
  140MPD2    H3 2184   1.488   3.001  13.319 -1.3756  0.1376 -1.2035
  140MPD2     N 2185   1.806   2.988  12.970 -0.7696  0.0065  0.3437
  140MPD2    H5 2186   1.880   3.042  12.928 -1.2669  0.7604  0.4432
  140MPD2    N1 2187   1.760   3.353  13.287  0.4462  0.1730  0.2494
  140MPD2    H7 2188   1.705   3.387  13.365 -0.6865 -2.1585  0.4813
  141TMC2    C1 2189   2.414   0.282  13.884 -0.4010 -0.3066  0.3020
  141TMC2    C2 2190   2.388   0.417  13.892 -0.4843  0.4106 -0.4910
  141TMC2    C3 2191   2.378   0.467  14.018  0.4284 -0.0375  0.2043
  141TMC2    C4 2192   2.432   0.198  13.988 -0.6786  0.3017  0.6543
  141TMC2    C5 2193   2.419   0.258  14.115  0.4893 -0.4873 -0.6530
  141TMC2    C6 2194   2.401   0.394  14.132  0.2078 -0.0907  0.4354
  141TMC2     C 2195   2.487   0.233  13.765  0.9200  0.9078  0.5352
  141TMC2     O 2196   2.489   0.111  13.754 -0.7248 -0.0103 -0.3965
  141TMC2     H 2197   2.351   0.468  13.804  0.9293 -0.1517 -1.4165
  141TMC2    H1 2198   2.448   0.091  13.981 -2.0141 -0.0011  2.1448
  141TMC2    H2 2199   2.388   0.436  14.231  0.1920  0.3539  0.2463
  141TMC2    C7 2200   2.450   0.173  14.224  0.8874 -0.1328  0.2323
  141TMC2    C8 2201   2.345   0.611  14.024  0.3997 -0.2941  0.2873
  141TMC2    O1 2202   2.455   0.052  14.204  0.5252  0.6633  0.4502
  141TMC2    O2 2203   2.273   0.677  13.952 -0.2728  0.2187 -0.2576
  141TMC2    O5 2204   2.424   0.665  14.116  0.2132  0.4612  0.0443
  141TMC2    H5 2205   2.479   0.593  14.153 -0.2814 -0.1896 -0.4797
  142TMC2    C1 2206   0.174   3.864   9.828  0.3876  0.0131 -0.7911
  142TMC2    C2 2207   0.102   3.876   9.710 -0.9209 -0.1586  0.2214
  142TMC2    C3 2208   0.142   3.975   9.626 -0.4671 -0.1148 -0.2994
  142TMC2    C4 2209   0.265   3.960   9.871  0.0111 -0.0655  0.2510
  142TMC2    C5 2210   0.291   4.060   9.783 -0.0725 -0.3452 -0.1825
  142TMC2    C6 2211   0.237   4.069   9.662 -0.2574  0.4719  0.2331
  142TMC2     C 2212   0.202   3.730   9.879 -0.3638 -0.8748  0.4118
  142TMC2     O 2213   0.126   3.635   9.851  0.3212 -0.1016 -0.2675
  142TMC2     H 2214   0.034   3.802   9.668  0.9247 -1.2267 -0.8683
  142TMC2    H1 2215   0.308   3.952   9.970 -2.8607  0.7597  1.5587
  142TMC2    H2 2216   0.248   4.157   9.600 -1.1212  0.9232  0.7237
  142TMC2    C7 2217   0.380   4.162   9.815  0.1444  0.1534  0.2692
  142TMC2    C8 2218   0.053   3.990   9.512  0.4079  0.2497 -0.1229
  142TMC2    O1 2219   0.454   4.214   9.736  0.0505 -0.1505  0.3495
  142TMC2    O2 2220   4.672   3.948   9.512 -0.1946 -0.4696  0.6409
  142TMC2    O5 2221   0.115   4.054   9.413  0.4647 -0.1456 -0.2081
  142TMC2    H5 2222   0.205   4.084   9.436  0.7389 -1.4072  0.3704
  143MPD2     C 2223   0.507   3.425  10.153  0.0953 -0.0169 -0.3098
  143MPD2    C1 2224   0.372   3.424  10.149 -0.4819 -1.0592 -0.2258
  143MPD2    C2 2225   0.312   3.522  10.067  0.0503 -0.4520  0.3129
  143MPD2    C3 2226   0.386   3.615   9.996  0.4231 -0.0754  0.1311
  143MPD2    C4 2227   0.517   3.612  10.009 -0.3607  0.1215  0.0132
  143MPD2    C5 2228   0.579   3.521  10.091  0.3671 -0.5418  0.4337
  143MPD2     H 2229   0.205   3.530  10.054 -0.3158 -1.7196  2.5101
  143MPD2    H1 2230   0.587   3.686   9.972 -0.2133 -0.9645 -1.8869
  143MPD2    H2 2231   0.569   3.358  10.212 -1.3407 -0.3471  0.8195
  143MPD2    H3 2232   0.686   3.519  10.102  0.6444  3.6438 -1.5359
  143MPD2     N 2233   0.332   3.719   9.916 -0.1573 -0.3859 -0.2792
  143MPD2    H5 2234   0.394   3.797   9.896  0.9910 -1.6264 -1.5817
  143MPD2    N1 2235   0.310   3.333  10.235  0.2648  0.7940 -1.3449
  143MPD2    H7 2236   0.376   3.273  10.283 -0.8201  1.8280  1.4287
  144TMC2    C1 2237   2.846   1.916   0.907  0.2955 -0.8058 -0.2861
  144TMC2    C2 2238   2.866   1.780   0.916 -0.5240  0.0923  0.4266
  144TMC2    C3 2239   2.944   1.738   1.021  0.0584 -0.5524 -0.9864
  144TMC2    C4 2240   2.909   2.007   0.993 -0.4491 -0.4203  0.6988
  144TMC2    C5 2241   2.989   1.955   1.091  0.6524  0.0131  0.1472
  144TMC2    C6 2242   3.012   1.820   1.103  0.0971  0.0807  0.2680
  144TMC2     C 2243   2.793   1.968   0.785 -0.0137 -0.5942  0.0577
  144TMC2     O 2244   2.809   1.902   0.681  0.1905  0.4277  0.4531
  144TMC2     H 2245   2.808   1.716   0.851  1.4547 -1.0044 -0.2459
  144TMC2    H1 2246   2.925   2.112   0.970 -0.1918 -1.3477 -3.4227
  144TMC2    H2 2247   3.081   1.788   1.180  0.0638 -1.8320 -0.5120
  144TMC2    C7 2248   3.088   2.039   1.159 -0.2497 -0.7677 -0.2847
  144TMC2    C8 2249   2.969   1.593   1.014  0.4658  0.0440  0.6014
  144TMC2    O1 2250   3.201   1.990   1.171 -0.1585 -0.2749 -0.2040
  144TMC2    O2 2251   2.950   1.526   0.914  0.4375  0.8821  0.0926
  144TMC2    O5 2252   2.976   1.536   1.138  0.4730 -0.1412 -0.0132
  144TMC2    H5 2253   3.003   1.597   1.210 -3.6060  0.2872  1.1925
  145MPD2     C 2254   2.628   2.368   0.520  1.1215  0.5029 -0.0124
  145MPD2    C1 2255   2.690   2.253   0.479  0.3360 -0.6456 -0.4181
  145MPD2    C2 2256   2.729   2.162   0.575  0.5831  0.4830 -0.6242
  145MPD2    C3 2257   2.711   2.183   0.708 -0.1712 -0.7819  0.3614
  145MPD2    C4 2258   2.653   2.303   0.748  0.2097 -0.1523  0.5844
  145MPD2    C5 2259   2.610   2.389   0.653 -0.2175  0.0755 -0.2280
  145MPD2     H 2260   2.764   2.066   0.540  1.8693  0.2402  1.3441
  145MPD2    H1 2261   2.650   2.330   0.853 -3.0365  0.6409  0.2868
  145MPD2    H2 2262   2.590   2.442   0.449 -0.8598  1.2168  1.7961
  145MPD2    H3 2263   2.562   2.476   0.697 -2.0883  0.3501 -2.7597
  145MPD2     N 2264   2.757   2.099   0.811  0.2378 -0.0528  0.8378
  145MPD2    H5 2265   2.754   2.127   0.909  1.9475  0.6063  0.6998
  145MPD2    N1 2266   2.709   2.209   0.349 -0.3881  0.2545 -0.6765
  145MPD2    H7 2267   2.738   2.113   0.332  0.1996  0.2748  0.2139
  146TMC2    C1 2268   4.097   1.109  12.472  0.5633  0.1433  0.9891
  146TMC2    C2 2269   3.988   1.029  12.442  0.2374  0.7098  0.7624
  146TMC2    C3 2270   3.987   0.977  12.313 -0.4870 -0.3496 -0.2877
  146TMC2    C4 2271   4.210   1.105  12.400 -0.2794 -0.6499  0.9047
  146TMC2    C5 2272   4.208   1.040  12.281  0.4108 -0.1001 -0.2348
  146TMC2    C6 2273   4.095   0.982  12.226  0.1699  0.6757  0.1683
  146TMC2     C 2274   4.106   1.150  12.609  0.8429 -0.2825 -0.4619
  146TMC2     O 2275   4.006   1.202  12.653 -0.1684  0.1552 -0.4873
  146TMC2     H 2276   3.903   1.019  12.508  1.0237 -0.2266  1.6224
  146TMC2    H1 2277   4.306   1.147  12.428  0.1080 -0.4038 -0.7941
  146TMC2    H2 2278   4.083   0.941  12.127 -0.4472 -0.9111  0.8977
  146TMC2    C7 2279   4.336   1.004  12.218  0.5012 -0.0605 -0.4228
  146TMC2    C8 2280   3.865   0.915  12.264  0.2714 -0.3018 -0.5428
  146TMC2    O1 2281   4.329   0.988  12.096 -0.5536  0.4969  0.3235
  146TMC2    O2 2282   3.822   0.911  12.149 -0.0846  0.2894  1.2058
  146TMC2    O5 2283   3.811   0.843  12.360  0.4746  0.2698  0.1311
  146TMC2    H5 2284   3.867   0.827  12.438  1.6479 -0.0942 -0.7783
  147MPD2     C 2285   0.075   0.795  12.222  0.8589  1.0775  0.0564
  147MPD2    C1 2286   0.026   0.792  12.350  0.1879 -0.3828 -0.0929
  147MPD2    C2 2287   4.640   0.859  12.375  0.4816 -0.2206 -0.0050
  147MPD2    C3 2288   4.567   0.917  12.274 -0.2320  0.4222 -0.1961
  147MPD2    C4 2289   4.617   0.912  12.144 -0.5137  0.5259  0.1947
  147MPD2    C5 2290   4.734   0.851  12.118  0.5232 -0.1368  0.4145
  147MPD2     H 2291   4.600   0.870  12.475  1.2853 -0.1367  0.3053
  147MPD2    H1 2292   4.567   0.941  12.052  1.4160  2.4629 -0.2314
  147MPD2    H2 2293   0.177   0.760  12.213  1.0130  1.2004  1.3564
  147MPD2    H3 2294   0.036   0.849  12.016  2.2948  3.3709  1.0109
  147MPD2     N 2295   4.436   0.967  12.307 -0.3696 -0.6622  0.1869
  147MPD2    H5 2296   4.413   0.966  12.406  0.3134  2.1534  0.3897
  147MPD2    N1 2297   0.091   0.714  12.451  0.4635 -0.1666  0.0816
  147MPD2    H7 2298   0.182   0.675  12.428  1.0667  0.9543  0.5428
  148TMC2    C1 2299   4.564   4.534  10.150  0.7168  0.3643  0.6005
  148TMC2    C2 2300   4.693   4.580  10.167 -0.0118 -0.7145  0.2038
  148TMC2    C3 2301   0.044   4.499  10.243 -0.1138 -0.4070 -0.1100
  148TMC2    C4 2302   4.520   4.414  10.199 -0.4091 -0.6059 -0.0142
  148TMC2    C5 2303   4.608   4.337  10.272  0.2518  0.3343 -0.2528
  148TMC2    C6 2304   4.734   4.386  10.311 -0.4474 -0.6692 -0.5260
  148TMC2     C 2305   4.475   4.633  10.102  0.1481  0.8277 -0.6086
  148TMC2     O 2306   4.501   0.017  10.127  0.0735  0.6129  0.2826
  148TMC2     H 2307   4.723   4.677  10.130  1.7808 -1.1971  0.4200
  148TMC2    H1 2308   4.418   4.381  10.188 -0.6224  0.1335 -0.2405
  148TMC2    H2 2309   0.069   4.323  10.365 -0.3883 -0.5460 -0.4590
  148TMC2    C7 2310   4.565   4.208  10.309  0.5013 -0.0115  0.7081
  148TMC2    C8 2311   0.152   4.569  10.294 -0.0854  0.2746 -0.4069
  148TMC2    O1 2312   4.475   4.161  10.237  0.0449  0.1495 -0.0533
  148TMC2    O2 2313   0.189   4.561  10.412 -0.3864  0.4479  0.7602
  148TMC2    O5 2314   0.223   4.633  10.195 -0.2732  0.4739 -0.1969
  148TMC2    H5 2315   0.181   4.622  10.107  1.5881  0.0009 -1.0358
  149MPD2     C 2316   4.210   0.032  10.114  0.3574  0.0934 -0.4235
  149MPD2    C1 2317   4.228   4.639  10.073 -0.4850  0.4088  0.0908
  149MPD2    C2 2318   4.113   4.568  10.044 -0.1898  0.0314  0.3882
  149MPD2    C3 2319   3.989   4.627  10.049  1.0694  0.6011  0.0702
  149MPD2    C4 2320   3.974   0.020  10.109  0.3849 -0.2762 -0.0508
  149MPD2    C5 2321   4.086   0.079  10.136 -0.0832 -0.4921 -0.4863
  149MPD2     H 2322   4.132   4.468  10.004 -0.6811 -0.4886  1.4633
  149MPD2    H1 2323   3.880   0.074  10.109  0.2921 -0.4342 -0.9188
  149MPD2    H2 2324   4.285   0.102  10.150 -0.9707  1.3830 -0.1707
  149MPD2    H3 2325   4.076   0.180  10.175 -1.1143 -1.4897  1.8045
  149MPD2     N 2326   3.867   4.558  10.021  0.2864  0.0607  0.5334
  149MPD2    H5 2327   3.778   4.597  10.051  0.2283 -0.2512  0.7604
  149MPD2    N1 2328   4.354   4.572  10.074 -0.8675 -0.0109 -0.3182
  149MPD2    H7 2329   4.365   4.477  10.040 -0.2167  0.1541 -0.5794
  150TMC2    C1 2330   1.653   3.817  12.720  0.3355  0.2986 -0.8772
  150TMC2    C2 2331   1.619   3.934  12.781  0.2539  0.1677  0.0328
  150TMC2    C3 2332   1.701   4.044  12.775 -0.4929 -0.7258 -0.7813
  150TMC2    C4 2333   1.780   3.792  12.660 -0.2486 -0.2858  0.2398
  150TMC2    C5 2334   1.857   3.905  12.661 -0.0934 -0.1571  0.2864
  150TMC2    C6 2335   1.819   4.028  12.709 -0.3268 -0.8726 -0.3388
  150TMC2     C 2336   1.544   3.722  12.699 -0.4012 -0.1848 -0.4235
  150TMC2     O 2337   1.446   3.729  12.776  0.2910  0.7284 -0.1473
  150TMC2     H 2338   1.518   3.942  12.821  0.2736 -0.0234  0.1186
  150TMC2    H1 2339   1.805   3.694  12.620  0.1350  0.3681 -1.1107
  150TMC2    H2 2340   1.875   4.117  12.681 -2.3672  1.3884  2.8098
  150TMC2    C7 2341   1.987   3.895  12.611  0.0491  0.9103  0.0026
  150TMC2    C8 2342   1.646   4.173  12.808 -0.4114 -0.0673  0.8660
  150TMC2    O1 2343   2.045   3.998  12.592 -0.2489  0.2846 -0.1852
  150TMC2    O2 2344   1.555   4.191  12.894 -0.2161 -0.6416 -0.0766
  150TMC2    O5 2345   1.637   4.236  12.687  0.1081 -0.0170 -0.0330
  150TMC2    H5 2346   1.692   4.199  12.614 -0.3190  2.1178 -1.4262
  151MPD2     C 2347   1.239   3.396  12.437 -0.3117  0.5918  0.0456
  151MPD2    C1 2348   1.340   3.434  12.359  0.2365 -0.0778 -0.8132
  151MPD2    C2 2349   1.453   3.496  12.409 -0.7628  0.7098 -0.2051
  151MPD2    C3 2350   1.454   3.550  12.540  0.7723 -0.7846  0.1253
  151MPD2    C4 2351   1.338   3.516  12.606  0.0639 -0.1745 -0.3848
  151MPD2    C5 2352   1.237   3.441  12.565  0.4148  0.5256  0.7563
  151MPD2     H 2353   1.542   3.518  12.351 -0.3796 -3.1484 -1.0782
  151MPD2    H1 2354   1.325   3.561  12.704  1.8539  1.3505 -0.8477
  151MPD2    H2 2355   1.152   3.342  12.401  0.9015 -1.0560 -0.4419
  151MPD2    H3 2356   1.147   3.432  12.625  0.4019 -1.8406  0.3627
  151MPD2     N 2357   1.555   3.646  12.587  0.3334 -0.0719  0.4726
  151MPD2    H5 2358   1.628   3.671  12.521  2.0032 -2.9782  1.1752
  151MPD2    N1 2359   1.324   3.405  12.218  0.1971  0.3527  0.3594
  151MPD2    H7 2360   1.246   3.345  12.193  0.5050  0.0873  0.0414
  152TMC2    C1 2361   1.206   3.344  12.912  1.0105  0.2082 -0.1165
  152TMC2    C2 2362   1.262   3.235  12.863  0.3004 -0.3347 -0.1132
  152TMC2    C3 2363   1.394   3.223  12.880 -0.3289  0.1463 -0.5454
  152TMC2    C4 2364   1.272   3.451  12.966 -0.2527 -0.3949  0.1703
  152TMC2    C5 2365   1.402   3.432  12.979 -0.4155  0.4273  0.6859
  152TMC2    C6 2366   1.467   3.320  12.944 -0.4026  0.1558  0.1379
  152TMC2     C 2367   1.064   3.366  12.879 -0.7003 -0.0026 -0.1667
  152TMC2     O 2368   1.018   3.476  12.890  1.0630  0.0534 -0.0481
  152TMC2     H 2369   1.213   3.166  12.795  0.9996 -0.1138 -0.8322
  152TMC2    H1 2370   1.224   3.544  12.992  2.1338  0.7482  0.5269
  152TMC2    H2 2371   1.570   3.310  12.973 -0.3418  1.3852  0.3387
  152TMC2    C7 2372   1.475   3.538  13.042  0.3431  0.2661 -0.6154
  152TMC2    C8 2373   1.461   3.110  12.820 -0.7007 -0.5019 -0.5840
  152TMC2    O1 2374   1.412   3.597  13.125 -0.4433  0.1498  0.3734
  152TMC2    O2 2375   1.407   3.001  12.793  0.0860 -0.1794 -0.4310
  152TMC2    O5 2376   1.591   3.148  12.787 -0.0369  0.2985  0.3367
  152TMC2    H5 2377   1.619   3.241  12.796 -0.4753  0.4127  0.5437
  153MPD2     C 2378   0.824   3.104  12.867 -0.1407  0.1836 -0.1032
  153MPD2    C1 2379   0.862   3.233  12.849  0.0853  0.1519  0.3503
  153MPD2    C2 2380   0.773   3.336  12.831 -0.4807 -0.4494  0.0006
  153MPD2    C3 2381   0.641   3.311  12.846  0.0977 -0.5914  0.2163
  153MPD2    C4 2382   0.600   3.182  12.875  0.1648  0.7519  0.0055
  153MPD2    C5 2383   0.692   3.083  12.886 -0.5041 -0.6819  0.2140
  153MPD2     H 2384   0.813   3.434  12.804  1.0675 -0.6684  1.4825
  153MPD2    H1 2385   0.495   3.161  12.892  0.5429 -1.7991 -0.9029
  153MPD2    H2 2386   0.887   3.016  12.869  1.7994  1.5578 -1.8301
  153MPD2    H3 2387   0.659   2.980  12.894  0.7758 -1.2000 -1.2584
  153MPD2     N 2388   0.555   3.418  12.822  0.4465  0.0008  0.1520
  153MPD2    H5 2389   0.598   3.510  12.809  0.4158 -0.1706 -1.1726
  153MPD2    N1 2390   1.000   3.247  12.846 -0.0206 -0.9604  0.2186
  153MPD2    H7 2391   1.053   3.160  12.855  1.2134 -0.3751 -1.2204
  154TMC2    C1 2392   2.843   3.264   0.584  0.2890 -0.5726  0.1451
  154TMC2    C2 2393   2.933   3.281   0.692  0.1366  0.1055 -0.6110
  154TMC2    C3 2394   3.026   3.181   0.706  0.1899 -0.2975 -0.0848
  154TMC2    C4 2395   2.861   3.166   0.492 -0.4085 -0.2280  0.6601
  154TMC2    C5 2396   2.957   3.079   0.505 -0.5458  0.2804  0.6954
  154TMC2    C6 2397   3.046   3.086   0.608 -0.4928  0.0726  0.3064
  154TMC2     C 2398   2.742   3.363   0.569  0.8087  0.6164 -0.3088
  154TMC2     O 2399   2.701   3.412   0.673 -0.1206  0.0185  0.1798
  154TMC2     H 2400   2.916   3.355   0.769  1.2307 -0.7021  0.4091
  154TMC2    H1 2401   2.805   3.165   0.400 -0.3255 -0.6364  0.6143
  154TMC2    H2 2402   3.131   3.019   0.607 -1.1050 -0.6921 -0.3247
  154TMC2    C7 2403   2.995   2.999   0.391 -0.2889  0.2323 -0.3989
  154TMC2    C8 2404   3.135   3.190   0.801  0.9498  0.2823  0.4294
  154TMC2    O1 2405   3.076   2.912   0.409  0.3967 -0.5454 -0.0902
  154TMC2    O2 2406   3.230   3.111   0.799 -0.3859 -0.1835  0.5917
  154TMC2    O5 2407   3.137   3.310   0.853 -0.2398 -0.7251  0.1293
  154TMC2    H5 2408   3.083   3.370   0.797  0.6252  1.1312  1.2989
  155MPD2     C 2409   2.604   3.512   0.254 -0.3060 -0.0147 -0.0072
  155MPD2    C1 2410   2.625   3.493   0.391  0.3208 -1.3305  0.6190
  155MPD2    C2 2411   2.541   3.566   0.472 -0.1329  0.0499  0.1258
  155MPD2    C3 2412   2.444   3.660   0.437 -0.4147  0.1111  0.0427
  155MPD2    C4 2413   2.412   3.667   0.298  0.2198  0.0175 -0.4129
  155MPD2    C5 2414   2.503   3.601   0.212 -0.1804 -1.0171 -0.4208
  155MPD2     H 2415   2.556   3.564   0.580  0.2380 -0.7047  0.0579
  155MPD2    H1 2416   2.342   3.734   0.249  1.0549  1.9454  1.0000
  155MPD2    H2 2417   2.655   3.454   0.178 -1.0357  0.8007 -1.1066
  155MPD2    H3 2418   2.501   3.614   0.104 -0.5502  1.2636 -0.1186
  155MPD2     N 2419   2.379   3.747   0.535  0.2960  0.4347 -0.2022
  155MPD2    H5 2420   2.407   3.732   0.631 -0.0953  0.3120 -0.1054
  155MPD2    N1 2421   2.727   3.404   0.436  0.4227  0.2369 -0.3040
  155MPD2    H7 2422   2.790   3.368   0.365  0.9271  1.3124 -0.4068
  156TMC2    C1 2423   1.855   0.854  11.843 -0.0054  0.3960 -0.7150
  156TMC2    C2 2424   1.966   0.817  11.768 -0.0267  0.1743 -0.2379
  156TMC2    C3 2425   1.951   0.774  11.642  0.1417  0.0604 -0.4224
  156TMC2    C4 2426   1.729   0.847  11.790  0.1609  0.2309 -0.0804
  156TMC2    C5 2427   1.716   0.792  11.666  0.2427 -0.0011  0.3332
  156TMC2    C6 2428   1.827   0.760  11.596 -0.3548 -0.0636 -0.0455
  156TMC2     C 2429   1.855   0.906  11.979  0.0597  0.3383  0.5229
  156TMC2     O 2430   1.762   0.976  12.014 -0.0889 -0.4374  0.0979
  156TMC2     H 2431   2.065   0.837  11.808  0.7699 -1.7330 -1.2476
  156TMC2    H1 2432   1.643   0.856  11.855  0.4978  1.2222  0.2267
  156TMC2    H2 2433   1.808   0.740  11.491 -0.6297 -0.6014  0.1028
  156TMC2    C7 2434   1.594   0.799  11.585  0.1399  0.2876  0.6902
  156TMC2    C8 2435   2.060   0.770  11.547  0.7692 -0.3065 -0.1068
  156TMC2    O1 2436   1.574   0.715  11.495  0.0983  0.3398  0.2532
  156TMC2    O2 2437   2.045   0.767  11.427 -0.3440  0.1374 -0.2684
  156TMC2    O5 2438   2.186   0.792  11.598  0.3549  0.0743 -1.0116
  156TMC2    H5 2439   2.210   0.798  11.693 -0.9350  0.8288 -0.7323
  157MPD2     C 2440   2.088   0.823  12.253  0.0412 -0.2942  0.0979
  157MPD2    C1 2441   1.987   0.892  12.180 -0.0474 -0.3248  0.3765
  157MPD2    C2 2442   1.926   0.998  12.248  1.1015 -0.7511  0.1946
  157MPD2    C3 2443   1.976   1.039  12.372  0.1966  0.5235  0.4705
  157MPD2    C4 2444   2.071   0.965  12.438 -0.0251  0.5967  0.1037
  157MPD2    C5 2445   2.130   0.856  12.383  1.5446  0.1376  0.0706
  157MPD2     H 2446   1.853   1.062  12.199 -0.5026 -1.5486  1.5355
  157MPD2    H1 2447   2.089   0.990  12.542  0.3517  1.8774 -0.2694
  157MPD2    H2 2448   2.127   0.735  12.202 -0.9756 -0.9299  0.4348
  157MPD2    H3 2449   2.188   0.781  12.436 -2.0911 -1.4189  1.8445
  157MPD2     N 2450   1.919   1.159  12.415  0.3675  0.5347  0.0552
  157MPD2    H5 2451   1.858   1.206  12.349  1.3465  0.9008 -0.5984
  157MPD2    N1 2452   1.960   0.852  12.053 -0.8556 -0.1674  0.3486
  157MPD2    H7 2453   2.012   0.771  12.021 -2.6737 -0.7047 -1.2162
  158TMC2    C1 2454   1.834   0.542  13.905  0.3377  0.5575 -0.1406
  158TMC2    C2 2455   1.904   0.659  13.869 -0.3511  0.1332 -0.0802
  158TMC2    C3 2456   1.857   0.729  13.760 -0.2213 -0.3553 -0.4224
  158TMC2    C4 2457   1.732   0.497  13.833  0.8298 -0.2465  0.2065
  158TMC2    C5 2458   1.699   0.561  13.715  0.5621 -0.6505 -0.5489
  158TMC2    C6 2459   1.756   0.680  13.685  0.8658  1.2873  0.1186
  158TMC2     C 2460   1.885   0.465  14.021 -0.1640  0.2987 -0.8100
  158TMC2     O 2461   1.846   0.347  14.031  0.1746  0.6794  0.6413
  158TMC2     H 2462   1.999   0.690  13.913 -0.4435  0.0780  0.1583
  158TMC2    H1 2463   1.674   0.414  13.871 -1.5578  0.1378 -2.5600
  158TMC2    H2 2464   1.710   0.743  13.609 -1.8236 -0.6120  0.2158
  158TMC2    C7 2465   1.578   0.526  13.641  0.2501 -1.1749  0.0409
  158TMC2    C8 2466   1.877   0.872  13.762 -0.0625  0.0519  0.3072
  158TMC2    O1 2467   1.545   0.607  13.555  0.1339 -0.0824  0.0476
  158TMC2    O2 2468   1.866   0.952  13.856 -0.2238 -0.2783 -0.5924
  158TMC2    O5 2469   1.865   0.918  13.636  1.1524  0.0017 -0.0711
  158TMC2    H5 2470   1.900   0.848  13.577 -0.4986  0.0640 -1.1240
  159MPD2     C 2471   2.204   0.362  14.409 -0.5108 -0.1728 -0.7666
  159MPD2    C1 2472   2.137   0.281  14.325 -0.1375  0.3512  0.7034
  159MPD2    C2 2473   2.056   0.339  14.226  0.5305  0.1118  0.0806
  159MPD2    C3 2474   2.052   0.476  14.198 -0.9584 -0.2235 -0.2901
  159MPD2    C4 2475   2.134   0.553  14.276  0.5827  0.9550  0.2581
  159MPD2    C5 2476   2.202   0.500  14.386 -0.4871 -0.4089 -0.1468
  159MPD2     H 2477   1.992   0.278  14.163 -0.6198  1.5185 -0.0953
  159MPD2    H1 2478   2.130   0.661  14.264  2.4050  0.9593 -0.4068
  159MPD2    H2 2479   2.252   0.319  14.497 -1.4568 -0.2505 -0.2847
  159MPD2    H3 2480   2.256   0.558  14.459  0.1497  0.0527 -0.9831
  159MPD2     N 2481   1.977   0.531  14.094  0.0287  0.8564 -0.2313
  159MPD2    H5 2482   1.982   0.631  14.081 -1.3101  0.7276 -1.7401
  159MPD2    N1 2483   2.141   0.141  14.352  0.2614  0.6792 -0.4532
  159MPD2    H7 2484   2.172   0.109  14.443  2.8937  2.2871 -0.7525
  160TMC2    C1 2485   1.677   2.494   1.356  0.2536 -0.6220  0.6524
  160TMC2    C2 2486   1.726   2.381   1.415 -0.1439 -0.2823  0.6597
  160TMC2    C3 2487   1.850   2.335   1.375 -0.1239  0.8107  0.1526
  160TMC2    C4 2488   1.742   2.550   1.254  0.2542 -0.2997 -0.8877
  160TMC2    C5 2489   1.869   2.496   1.218  0.1887 -0.1411  0.4272
  160TMC2    C6 2490   1.917   2.390   1.276 -0.9404  0.2582 -0.4805
  160TMC2     C 2491   1.546   2.541   1.395 -0.5710 -0.7958 -0.1936
  160TMC2     O 2492   1.484   2.456   1.453 -0.0848 -0.3243 -0.4608
  160TMC2     H 2493   1.664   2.322   1.481 -1.0659 -1.8942 -1.6576
  160TMC2    H1 2494   1.701   2.630   1.194 -2.0342  0.3011  1.4831
  160TMC2    H2 2495   2.001   2.336   1.234 -1.0672  0.8939 -1.5822
  160TMC2    C7 2496   1.958   2.554   1.118 -0.0371 -0.4827  0.2962
  160TMC2    C8 2497   1.874   2.203   1.403 -0.8303 -0.3740  0.0880
  160TMC2    O1 2498   2.038   2.482   1.059  0.0357  0.5406 -0.2835
  160TMC2    O2 2499   1.794   2.114   1.429  0.1590  0.3249 -0.5084
  160TMC2    O5 2500   2.006   2.180   1.391 -0.2966  0.1969 -0.9605
  160TMC2    H5 2501   2.045   2.270   1.399 -0.4016  0.4296 -3.1320
  161MPD2     C 2502   1.280   2.667   1.469  0.0914  0.1351 -0.0121
  161MPD2    C1 2503   1.381   2.734   1.399  0.3940 -0.2231  0.3788
  161MPD2    C2 2504   1.365   2.866   1.370  0.4921 -1.0722 -0.3390
  161MPD2    C3 2505   1.250   2.930   1.403 -0.3461  1.1669  0.2565
  161MPD2    C4 2506   1.155   2.865   1.475 -0.1336 -0.0726 -0.6637
  161MPD2    C5 2507   1.168   2.738   1.510 -0.2716 -0.8188 -0.8074
  161MPD2     H 2508   1.445   2.920   1.321  0.3761 -0.9733 -0.4214
  161MPD2    H1 2509   1.062   2.912   1.506  0.2353  0.8440 -0.9409
  161MPD2    H2 2510   1.301   2.566   1.503  1.8386  0.0946 -1.2497
  161MPD2    H3 2511   1.085   2.694   1.565 -0.0408 -0.3433 -0.0707
  161MPD2     N 2512   1.235   3.067   1.370 -0.5063  0.1551 -0.5343
  161MPD2    H5 2513   1.307   3.111   1.312 -0.4059 -0.1314 -0.6260
  161MPD2    N1 2514   1.504   2.671   1.357 -0.2540  0.0029 -0.0975
  161MPD2    H7 2515   1.568   2.726   1.301 -1.2515  3.2912  1.9878
  162TMC2    C1 2516   4.523   0.426   1.063  0.5134  0.9036  0.0157
  162TMC2    C2 2517   4.454   0.549   1.079  0.1395 -0.0471 -0.3663
  162TMC2    C3 2518   4.436   0.585   1.209 -1.1976 -0.7243 -0.2900
  162TMC2    C4 2519   4.549   0.332   1.163 -0.0555 -0.2269  0.0374
  162TMC2    C5 2520   4.504   0.371   1.288 -0.0683  0.5185  0.5497
  162TMC2    C6 2521   4.459   0.498   1.312 -0.0468  0.2632 -0.0371
  162TMC2     C 2522   4.605   0.416   0.937 -0.1531  0.0800 -0.1706
  162TMC2     O 2523   4.650   0.302   0.918 -0.2576 -0.1286 -0.1101
  162TMC2     H 2524   4.436   0.615   0.995 -1.7383 -0.9778 -0.6990
  162TMC2    H1 2525   4.592   0.235   1.142  2.2837  0.3957  1.9829
  162TMC2    H2 2526   4.426   0.525   1.412 -0.1226  2.4508 -0.6453
  162TMC2    C7 2527   4.442   0.270   1.383 -0.3664 -0.2362  0.7596
  162TMC2    C8 2528   4.358   0.701   1.244 -0.2844  0.4885  0.0301
  162TMC2    O1 2529   4.351   0.307   1.454  0.0045 -0.7179  0.1655
  162TMC2    O2 2530   4.395   0.809   1.204  0.0313 -1.2031 -0.3341
  162TMC2    O5 2531   4.230   0.655   1.270  0.7559 -0.2760  0.6693
  162TMC2    H5 2532   4.217   0.558   1.276 -2.4247  0.0927 -0.2757
  163MPD2     C 2533   4.702   0.548   0.453 -0.2951 -0.2548 -0.5206
  163MPD2    C1 2534   4.679   0.421   0.504 -0.0838  0.3008 -0.3879
  163MPD2    C2 2535   4.639   0.415   0.634  0.7066 -0.0807 -1.0749
  163MPD2    C3 2536   4.641   0.526   0.717 -0.2032  0.3269  0.2277
  163MPD2    C4 2537   4.670   0.648   0.664  0.8403 -0.7124 -0.2809
  163MPD2    C5 2538   4.701   0.659   0.532 -0.4476  0.6794 -0.7349
  163MPD2     H 2539   4.623   0.319   0.681 -1.1596  1.6370  1.8522
  163MPD2    H1 2540   4.692   0.732   0.729 -1.8012  0.9029 -1.5043
  163MPD2    H2 2541   0.004   0.565   0.352  0.7297 -2.4041 -0.5104
  163MPD2    H3 2542   0.008   0.748   0.486  1.7692 -0.2133 -0.4182
  163MPD2     N 2543   4.607   0.529   0.856 -0.3145  0.8240  0.8015
  163MPD2    H5 2544   4.583   0.613   0.906  3.5202  3.0999 -1.2003
  163MPD2    N1 2545   4.700   0.309   0.417  0.1529  0.0844 -0.6215
  163MPD2    H7 2546   4.711   0.325   0.317 -1.0957 -2.3663 -1.1668
  164TMC2    C1 2547   0.543   4.246  10.661  0.1647 -0.0372 -0.2213
  164TMC2    C2 2548   0.569   4.380  10.628 -0.0528  0.2182  0.3272
  164TMC2    C3 2549   0.467   4.472  10.600  0.0705  0.3412 -0.0719
  164TMC2    C4 2550   0.418   4.190  10.675  0.1376  0.3912  0.1407
  164TMC2    C5 2551   0.323   4.285  10.655  0.1538 -0.3782 -0.6292
  164TMC2    C6 2552   0.343   4.418  10.629 -0.6166  0.0151 -0.4313
  164TMC2     C 2553   0.645   4.146  10.655 -0.4121  0.2980  0.8121
  164TMC2     O 2554   0.606   4.029  10.665 -0.3944 -0.4604 -0.0775
  164TMC2     H 2555   0.668   4.422  10.643  0.4988 -0.1286 -2.3445
  164TMC2    H1 2556   0.384   4.090  10.698  3.4729 -1.9086 -4.9776
  164TMC2    H2 2557   0.260   4.487  10.624 -0.4546  0.2082 -0.4721
  164TMC2    C7 2558   0.187   4.257  10.696 -0.7477  0.4121 -0.3920
  164TMC2    C8 2559   0.493   4.611  10.631 -0.3278  0.1413 -0.0561
  164TMC2    O1 2560   0.092   4.312  10.643 -0.1019 -0.4838 -0.3498
  164TMC2    O2 2561   0.600   4.652  10.667 -0.1276  0.1079  0.7177
  164TMC2    O5 2562   0.396   4.693  10.573 -0.2963 -0.8533  0.3664
  164TMC2    H5 2563   0.329   4.634  10.533 -0.1268 -0.7208 -0.1079
  165TMC2    C1 2564   1.086   2.493   0.726 -0.4632  0.3274  0.3877
  165TMC2    C2 2565   1.096   2.612   0.662  0.2160  0.0398 -0.0541
  165TMC2    C3 2566   1.223   2.664   0.661 -0.6596  0.0484 -0.1418
  165TMC2    C4 2567   1.193   2.414   0.766  0.1601  0.1401  0.3597
  165TMC2    C5 2568   1.315   2.468   0.734  0.7916 -0.2655  0.4379
  165TMC2    C6 2569   1.334   2.590   0.687  0.4956 -0.8163  0.0158
  165TMC2     C 2570   0.958   2.432   0.755 -0.3398  0.2034  0.5024
  165TMC2     O 2571   0.955   2.342   0.838 -0.1368 -0.2003 -0.0608
  165TMC2     H 2572   1.016   2.681   0.636  0.8911  0.5116 -0.8984
  165TMC2    H1 2573   1.168   2.318   0.808  0.2123 -0.7041 -1.5445
  165TMC2    H2 2574   1.431   2.623   0.651  0.9546 -2.4910 -0.2640
  165TMC2    C7 2575   1.427   2.380   0.761  0.5730 -0.2396  0.1506
  165TMC2    C8 2576   1.248   2.785   0.591 -0.0810  0.0230  0.2231
  165TMC2    O1 2577   1.510   2.362   0.675 -0.2931 -0.1782 -0.5569
  165TMC2    O2 2578   1.367   2.821   0.576 -0.1921 -0.0554  0.1212
  165TMC2    O5 2579   1.157   2.794   0.491 -0.0058  0.4383 -0.1353
  165TMC2    H5 2580   1.074   2.744   0.503 -0.7957  1.6840 -0.4868
  166MPD2     C 2581   0.461   2.315   0.676 -0.3805 -0.0434  0.5102
  166MPD2    C1 2582   0.550   2.263   0.768  0.2242 -0.1515 -0.0390
  166MPD2    C2 2583   0.687   2.298   0.753  0.5086  0.0846 -0.4638
  166MPD2    C3 2584   0.731   2.387   0.660 -0.7865 -0.0273 -0.5951
  166MPD2    C4 2585   0.641   2.427   0.562  0.0454 -0.1762 -0.4776
  166MPD2    C5 2586   0.505   2.394   0.572  0.3935  0.2227 -0.2211
  166MPD2     H 2587   0.759   2.274   0.830  1.7002 -0.9931 -1.9355
  166MPD2    H1 2588   0.666   2.495   0.481  0.3118  1.6701  1.1543
  166MPD2    H2 2589   0.358   2.282   0.675 -0.3332 -0.0616 -2.4396
  166MPD2    H3 2590   0.431   2.425   0.499 -0.4962 -2.8992 -0.6436
  166MPD2     N 2591   0.857   2.455   0.667 -0.0464 -0.0651  0.2629
  166MPD2    H5 2592   0.875   2.535   0.607 -2.3034  1.3368  1.4609
  166MPD2    N1 2593   0.506   2.169   0.852  0.1277 -0.5828 -0.1962
  166MPD2    H7 2594   0.414   2.132   0.829 -0.7818  1.9318 -0.6122
  167TMC2    C1 2595   4.597   3.900  12.736 -0.2813 -0.0233  0.1154
  167TMC2    C2 2596   4.480   3.893  12.809 -0.3396 -0.8338 -0.7889
  167TMC2    C3 2597   4.396   3.778  12.802  0.8926 -0.4702 -0.2176
  167TMC2    C4 2598   4.621   3.797  12.647  0.3082 -0.1585  0.0964
  167TMC2    C5 2599   4.540   3.686  12.645 -0.7974 -0.6386  0.2335
  167TMC2    C6 2600   4.437   3.675  12.731 -0.5571  0.3866  0.3964
  167TMC2     C 2601   4.676   4.029  12.731 -0.1434 -0.0518 -0.7593
  167TMC2     O 2602   0.052   4.019  12.672  0.1250  0.0179 -0.2460
  167TMC2     H 2603   4.459   3.970  12.882  0.2942 -1.2621 -0.1562
  167TMC2    H1 2604   4.723   3.793  12.612 -0.6731 -0.5508 -2.7179
  167TMC2    H2 2605   4.389   3.580  12.752  1.5502 -0.7026  0.2312
  167TMC2    C7 2606   4.592   3.551  12.624  0.7013  0.0357  0.1441
  167TMC2    C8 2607   4.316   3.763  12.916  0.1747  0.2180 -0.1654
  167TMC2    O1 2608   4.552   3.452  12.679 -0.2928  0.0046 -0.2170
  167TMC2    O2 2609   4.251   3.857  12.964  0.3503 -0.3923  0.3869
  167TMC2    O5 2610   4.397   3.686  12.990 -0.1969 -0.3814 -0.1466
  167TMC2    H5 2611   4.489   3.667  12.959  0.1978  0.4759  0.5107
  168MPD2     C 2612   0.008   4.316  12.705 -0.1049  0.5062  0.4089
  168MPD2    C1 2613   4.618   4.261  12.690 -0.5091 -0.8376 -0.1886
  168MPD2    C2 2614   4.515   4.321  12.622  0.0731  0.6796  0.6828
  168MPD2    C3 2615   4.538   4.444  12.563 -0.2336 -0.2428 -0.9451
  168MPD2    C4 2616   4.663   4.510  12.584  0.4150 -0.2893 -0.2966
  168MPD2    C5 2617   0.022   4.441  12.658  0.8571 -0.2307  0.0960
  168MPD2     H 2618   4.419   4.272  12.615  1.1242 -1.3096  0.3221
  168MPD2    H1 2619   4.689   4.607  12.544  0.4029  0.1618  0.7768
  168MPD2    H2 2620   0.088   4.274  12.764 -1.4757 -0.5756  1.4782
  168MPD2    H3 2621   0.118   4.488  12.674  0.7212 -0.0354  0.3490
  168MPD2     N 2622   4.431   4.499  12.489 -0.2742 -0.9407  0.4084
  168MPD2    H5 2623   4.341   4.453  12.482  0.5598 -2.4120 -0.7159
  168MPD2    N1 2624   4.587   4.132  12.734  0.4000 -0.2385 -0.2133
  168MPD2    H7 2625   4.488   4.110  12.729  0.5317 -0.9187  0.2487
  169MPD1     C 2626   0.836   4.669   8.747  0.6431 -0.5499  0.5093
  169MPD1    C1 2627   0.958   4.688   8.809 -0.6553  0.5597 -0.3253
  169MPD1    C2 2628   1.013   4.592   8.893 -0.1810  0.1069  0.3955
  169MPD1    C3 2629   0.967   4.462   8.909  0.2689 -0.4804  0.5241
  169MPD1    C4 2630   0.848   4.443   8.847  0.7777  0.2795 -0.1891
  169MPD1    C5 2631   0.788   4.536   8.762 -0.4086  0.3694  0.1435
  169MPD1     H 2632   1.101   4.622   8.948 -1.3399  1.5862  1.4516
  169MPD1    H1 2633   0.804   4.344   8.838 -0.1030  0.5569  1.0144
  169MPD1    H2 2634   0.787   0.005   8.682 -0.0635  0.2018  1.8813
  169MPD1    H3 2635   0.695   4.501   8.718  0.0606  2.1726 -2.2743
  169MPD1     N 2636   1.035   4.363   8.980  0.4832  0.5269 -0.3066
  169MPD1    H5 2637   1.122   4.385   9.027 -0.4162  1.0008  1.1245
  169MPD1    N1 2638   0.997   0.088   8.811  0.5192  0.9964 -0.6307
  169MPD1    H6 2639   0.979   0.123   8.717  2.1425  0.9317 -0.9683
  169MPD1    H7 2640   1.093   0.100   8.843  0.7477 -0.9129 -0.6127
  170MPD1     C 2641   0.679   1.573  12.504 -0.2435 -0.3041  0.2676
  170MPD1    C1 2642   0.592   1.663  12.451 -0.4874  0.2000 -0.0525
  170MPD1    C2 2643   0.529   1.740  12.549 -0.4235  0.1020  0.0870
  170MPD1    C3 2644   0.566   1.729  12.684  0.8993  0.6329  0.6536
  170MPD1    C4 2645   0.663   1.638  12.729  0.1495 -0.0601 -0.1261
  170MPD1    C5 2646   0.715   1.560  12.634 -0.2644 -0.0227 -1.1123
  170MPD1     H 2647   0.439   1.789  12.514 -1.0674 -0.5294  0.8708
  170MPD1    H1 2648   0.682   1.619  12.834  2.1444  1.2348 -0.2366
  170MPD1    H2 2649   0.730   1.502  12.441 -0.0975  0.2497 -0.2433
  170MPD1    H3 2650   0.780   1.478  12.662 -1.5374 -0.7790 -0.3318
  170MPD1     N 2651   0.482   1.795  12.775 -0.2653 -0.4054  0.4747
  170MPD1    H5 2652   0.402   1.845  12.737 -1.2080 -3.8870 -2.0888
  170MPD1    N1 2653   0.538   1.654  12.318  0.0264  0.0032  0.0078
  170MPD1    H6 2654   0.604   1.589  12.275  0.7483  0.6805  0.0965
  170MPD1    H7 2655   0.521   1.740  12.266  0.0404 -1.0793 -1.7656
  171MPD1     C 2656   3.308   3.027  15.827  0.4638  0.3118  0.3861
  171MPD1    C1 2657   3.274   2.908  15.773  0.4907 -0.2983  0.0321
  171MPD1    C2 2658   3.347   2.797  15.798 -0.1197  0.1466  0.2836
  171MPD1    C3 2659   3.469   2.805  15.860 -0.4429 -0.5303 -0.9365
  171MPD1    C4 2660   3.522   2.932  15.875 -0.2785  0.0334 -1.5201
  171MPD1    C5 2661   3.439   3.044  15.867  0.0438 -0.2338 -0.1687
  171MPD1     H 2662   3.301   2.700  15.789  2.3231 -0.7663 -2.1727
  171MPD1    H1 2663   3.627   2.937  15.903 -0.8394  1.4791  0.2963
  171MPD1    H2 2664   3.236   3.107  15.818  1.8302  1.3984 -0.9823
  171MPD1    H3 2665   3.479   3.141  15.893 -0.6453  0.3449 -1.2649
  171MPD1     N 2666   3.559   2.697  15.885  0.0376 -0.6827  0.6619
  171MPD1    H5 2667   3.658   2.718  15.898 -0.5162  2.7504 -0.5657
  171MPD1    N1 2668   3.141   2.885  15.728  0.0271  0.0645  0.7207
  171MPD1    H6 2669   3.118   2.955  15.658  2.3371 -1.0564 -1.1310
  171MPD1    H7 2670   3.127   2.792  15.691  0.7145  1.2593 -2.5022
  172MPD1     C 2671   3.443   2.755   0.987  0.3715  0.3938  0.2102
  172MPD1    C1 2672   3.319   2.811   1.018  0.0573  0.3824 -0.6480
  172MPD1    C2 2673   3.212   2.773   0.934 -0.5277 -0.3747 -0.4821
  172MPD1    C3 2674   3.234   2.698   0.822 -0.2242 -0.4514  0.2998
  172MPD1    C4 2675   3.356   2.654   0.788 -0.3489  0.1424 -0.5519
  172MPD1    C5 2676   3.455   2.681   0.869  0.9367 -0.0910  0.0808
  172MPD1     H 2677   3.114   2.809   0.964  0.5017  0.7852  1.5319
  172MPD1    H1 2678   3.377   2.608   0.692  0.9399  0.0106 -0.2143
  172MPD1    H2 2679   3.526   2.764   1.056 -0.0898  1.7640  0.5716
  172MPD1    H3 2680   3.553   2.652   0.835  0.5110 -0.3579 -0.9225
  172MPD1     N 2681   3.131   2.665   0.730  0.0056 -0.0446  0.1953
  172MPD1    H5 2682   3.166   2.625   0.644  2.9435 -0.4315  1.5889
  172MPD1    N1 2683   3.308   2.872   1.146  0.0021 -0.7917 -0.2914
  172MPD1    H6 2684   3.392   2.917   1.182  0.6804 -2.5930  0.3588
  172MPD1    H7 2685   3.242   2.950   1.150 -0.9686 -1.6036 -0.6423
  173MPD1     C 2686   4.404   2.325  13.726 -0.0905 -0.6905 -0.3967
  173MPD1    C1 2687   4.290   2.304  13.795 -0.2709  0.3426 -0.1218
  173MPD1    C2 2688   4.290   2.215  13.901 -0.1152 -0.3244  0.1314
  173MPD1    C3 2689   4.403   2.146  13.947 -0.6904  0.2482  0.3371
  173MPD1    C4 2690   4.520   2.171  13.874  0.5742  0.1521  0.9280
  173MPD1    C5 2691   4.518   2.262  13.765  0.5717 -0.9506 -0.4769
  173MPD1     H 2692   4.194   2.196  13.947  1.1353  2.9816  4.0453
  173MPD1    H1 2693   4.609   2.116  13.901  1.7879  1.0576 -1.2242
  173MPD1    H2 2694   4.400   2.379  13.633  3.6098  2.1614  1.1092
  173MPD1    H3 2695   4.609   2.284  13.710  0.2971  0.5131 -0.3338
  173MPD1     N 2696   4.395   2.063  14.072  0.4157 -0.1204  0.4244
  173MPD1    H5 2697   4.305   2.050  14.116  0.2795 -1.3135 -0.2029
  173MPD1    N1 2698   4.163   2.348  13.744  0.0919 -0.6092 -0.0938
  173MPD1    H6 2699   4.094   2.345  13.819 -1.7351  1.3162 -1.7096
  173MPD1    H7 2700   4.162   2.434  13.690 -0.5140  0.8259  2.2476
  174MPD1     C 2701   0.023   1.518  14.966 -0.2572 -0.2275 -0.2999
  174MPD1    C1 2702   0.095   1.612  14.895 -0.1644 -0.1178  0.5686
  174MPD1    C2 2703   0.039   1.659  14.780 -0.1380  0.0643  0.5031
  174MPD1    C3 2704   4.635   1.633  14.756  1.0184  0.8363  0.0367
  174MPD1    C4 2705   4.560   1.560  14.845  0.4770 -0.7950  0.9354
  174MPD1    C5 2706   4.617   1.494  14.949 -0.3744  0.4072 -0.0939
  174MPD1     H 2707   0.102   1.719  14.716  0.6537  1.2878  2.4294
  174MPD1    H1 2708   4.452   1.555  14.834  0.4288  2.4276 -0.3048
  174MPD1    H2 2709   0.070   1.468  15.050 -0.0126 -0.5065 -0.6012
  174MPD1    H3 2710   4.557   1.429  15.012 -1.0104  1.2316  0.1544
  174MPD1     N 2711   4.563   1.692  14.646  0.9684  0.1325  0.3799
  174MPD1    H5 2712   4.462   1.691  14.655  0.6726 -0.4471 -3.0107
  174MPD1    N1 2713   0.236   1.602  14.912 -0.5830 -0.0532 -0.1042
  174MPD1    H6 2714   0.272   1.584  15.006 -1.7703  2.3861  0.8177
  174MPD1    H7 2715   0.289   1.680  14.873 -4.4050  2.3812 -0.4060
  175MPD1     C 2716   3.494   2.551  15.404  0.5421 -0.1422  0.1552
  175MPD1    C1 2717   3.386   2.641  15.414  0.2331 -0.7604 -0.0587
  175MPD1    C2 2718   3.282   2.611  15.497 -0.0549 -0.0087  0.1201
  175MPD1    C3 2719   3.271   2.490  15.557  0.0414 -0.4975  0.0561
  175MPD1    C4 2720   3.366   2.394  15.531  0.1053 -0.5514 -0.0019
  175MPD1    C5 2721   3.483   2.425  15.462 -0.4948 -0.2786 -0.2021
  175MPD1     H 2722   3.202   2.682  15.512 -0.5212 -0.2821 -1.0549
  175MPD1    H1 2723   3.357   2.298  15.579 -0.8640 -0.7374 -0.5496
  175MPD1    H2 2724   3.579   2.575  15.341  0.4849 -0.8708 -0.1999
  175MPD1    H3 2725   3.551   2.345  15.434 -0.9740 -0.0053 -2.1205
  175MPD1     N 2726   3.157   2.452  15.626 -0.2108 -0.3863  0.7279
  175MPD1    H5 2727   3.156   2.357  15.663  1.8333 -1.1253 -1.1773
  175MPD1    N1 2728   3.395   2.770  15.369  0.5754  0.5232  0.6058
  175MPD1    H6 2729   3.300   2.805  15.359  0.4042 -0.1440 -0.1284
  175MPD1    H7 2730   3.457   2.777  15.289 -1.1348 -2.5883 -0.9902
  176MPD1     C 2731   3.944   0.496   0.377 -0.0728  0.7342 -0.2029
  176MPD1    C1 2732   3.962   0.618   0.430 -0.0600  0.3223 -0.3671
  176MPD1    C2 2733   4.012   0.717   0.346 -0.1523  0.5295  0.4061
  176MPD1    C3 2734   4.046   0.686   0.215  0.6033  0.3048  0.2225
  176MPD1    C4 2735   4.027   0.566   0.160  0.6468 -0.0186  1.0669
  176MPD1    C5 2736   3.969   0.476   0.245 -0.0362  0.1311  0.4427
  176MPD1     H 2737   4.022   0.820   0.379 -0.0158  0.4643  0.5723
  176MPD1    H1 2738   4.069   0.532   0.066  0.1601 -0.5586  1.0440
  176MPD1    H2 2739   3.896   0.420   0.438  0.4460  0.9666  0.4942
  176MPD1    H3 2740   3.938   0.381   0.201  2.5043 -0.2317 -0.5588
  176MPD1     N 2741   4.116   0.783   0.143 -0.1702  0.0558 -0.4597
  176MPD1    H5 2742   4.125   0.868   0.197  2.2372  1.0450 -2.4408
  176MPD1    N1 2743   3.921   0.646   0.564 -0.0949 -0.3121 -0.3805
  176MPD1    H6 2744   3.966   0.724   0.611 -1.9532  0.1570  0.6090
  176MPD1    H7 2745   3.927   0.573   0.635  0.6094  0.2382  0.1334
  177MPD1     C 2746   3.003   0.813   9.269 -0.1000 -0.7137 -0.3956
  177MPD1    C1 2747   2.911   0.743   9.195 -0.4784  0.1895  0.0501
  177MPD1    C2 2748   2.781   0.741   9.244  0.3140 -0.4585 -0.1873
  177MPD1    C3 2749   2.746   0.799   9.367  0.8096 -0.7130 -0.0559
  177MPD1    C4 2750   2.842   0.868   9.442 -0.7111  0.0341  1.3705
  177MPD1    C5 2751   2.972   0.877   9.386  0.5533 -0.0418 -0.1203
  177MPD1     H 2752   2.705   0.691   9.186 -1.6829  1.2536  0.9649
  177MPD1    H1 2753   2.829   0.934   9.527 -0.1921  2.0345 -0.1127
  177MPD1    H2 2754   3.099   0.828   9.222 -0.2023 -0.2742 -0.4644
  177MPD1    H3 2755   3.051   0.938   9.430 -0.4739  0.2827  1.2551
  177MPD1     N 2756   2.613   0.798   9.406 -0.4916  0.5480 -0.4099
  177MPD1    H5 2757   2.557   0.735   9.349  0.7312 -0.7912 -0.1312
  177MPD1    N1 2758   2.942   0.697   9.062 -0.1162 -0.1256 -0.2591
  177MPD1    H6 2759   3.043   0.691   9.053  0.1425  1.0896  1.8450
  177MPD1    H7 2760   2.892   0.612   9.039 -0.0595 -0.0868 -0.5175
  178MPD1     C 2761   1.084   0.758   0.453 -0.1904 -0.0467  0.2031
  178MPD1    C1 2762   1.055   0.696   0.331  0.2265 -0.1431 -0.3708
  178MPD1    C2 2763   1.043   0.772   0.217  0.1991  0.6752  0.1576
  178MPD1    C3 2764   1.046   0.911   0.217 -0.1877  0.5940  0.5634
  178MPD1    C4 2765   1.058   0.971   0.343 -0.0851 -0.1375 -0.0122
  178MPD1    C5 2766   1.085   0.893   0.457  0.2943 -0.2515 -0.3307
  178MPD1     H 2767   1.020   0.714   0.129 -0.1972  1.5378 -0.3085
  178MPD1    H1 2768   1.048   1.079   0.355 -2.3037 -0.0573 -2.6880
  178MPD1    H2 2769   1.121   0.716   0.546 -2.4185  0.3993  1.2693
  178MPD1    H3 2770   1.091   0.947   0.551 -0.8128 -0.3191 -0.2280
  178MPD1     N 2771   1.024   0.999   0.108  0.3892  0.5625 -0.8736
  178MPD1    H5 2772   1.040   1.097   0.129  3.3428 -0.2418  0.6132
  178MPD1    N1 2773   1.079   0.561   0.313 -0.2688  0.3922  0.5308
  178MPD1    H6 2774   1.018   0.523   0.241  1.5837  1.3528 -1.5563
  178MPD1    H7 2775   1.055   0.517   0.401  0.4278 -1.0994 -0.0324
  179MPD1     C 2776   0.143   4.439  16.075 -0.2384 -0.2955  0.8262
  179MPD1    C1 2777   0.071   4.426  15.961 -0.3732  0.5966  0.4116
  179MPD1    C2 2778   0.048   4.295  15.913 -0.2176 -0.3428  0.2186
  179MPD1    C3 2779   0.076   4.186  15.995 -0.6239  0.2091  0.1395
  179MPD1    C4 2780   0.138   4.216  16.117 -0.8371 -1.0109 -0.1997
  179MPD1    C5 2781   0.183   4.338  16.154  0.0802  0.3573 -0.3435
  179MPD1     H 2782   0.016   4.282  15.811 -0.9293  0.4299  0.3429
  179MPD1    H1 2783   0.169   4.134  16.181 -1.5065  0.3722  1.9296
  179MPD1    H2 2784   0.178   4.539  16.101  2.5130 -1.1335  0.4258
  179MPD1    H3 2785   0.243   4.341  16.244 -0.2166  0.4807 -0.1524
  179MPD1     N 2786   0.056   4.051  15.963  0.0172  0.4676  0.2799
  179MPD1    H5 2787   0.083   3.990  16.039 -0.9311 -0.6210 -0.2590
  179MPD1    N1 2788   0.048   4.540  15.885 -0.5206  0.2825  0.1949
  179MPD1    H6 2789   0.032   4.628  15.934  2.9550  0.5582  0.8798
  179MPD1    H7 2790   4.707   4.518  15.821 -0.7545  1.2089  0.1596
  180MPD1     C 2791   4.048   0.820  14.653 -0.4476  0.6160 -0.2195
  180MPD1    C1 2792   4.148   0.735  14.687 -0.2076  1.0030 -0.2273
  180MPD1    C2 2793   4.196   0.651  14.592 -0.7169 -0.1717 -0.0049
  180MPD1    C3 2794   4.148   0.649  14.465 -0.1716  0.1325 -0.4919
  180MPD1    C4 2795   4.054   0.747  14.430 -0.2673 -0.0497 -0.1189
  180MPD1    C5 2796   3.997   0.831  14.527  0.4623 -0.0423 -0.6299
  180MPD1     H 2797   4.265   0.569  14.611 -2.6486 -1.5858  0.9621
  180MPD1    H1 2798   4.025   0.758  14.326 -1.5256  0.5919  0.3126
  180MPD1    H2 2799   4.012   0.889  14.729 -1.2054 -0.0105 -0.0150
  180MPD1    H3 2800   3.929   0.910  14.498  1.8740  1.6814  0.7615
  180MPD1     N 2801   4.205   0.570  14.365  0.6747  0.1568 -0.2573
  180MPD1    H5 2802   4.294   0.531  14.393  1.1196  2.7076  1.8776
  180MPD1    N1 2803   4.173   0.707  14.821  0.3144  0.5317 -0.4473
  180MPD1    H6 2804   4.262   0.660  14.831  0.2335  0.0164 -2.2570
  180MPD1    H7 2805   4.164   0.788  14.884  3.4309 -1.1198  2.1253
  181MPD1     C 2806   0.225   2.441   9.586 -0.1035 -0.0367  0.0457
  181MPD1    C1 2807   0.310   2.494   9.675 -0.1205 -0.9378 -0.3901
  181MPD1    C2 2808   0.441   2.480   9.661 -0.0074  0.4665  0.4585
  181MPD1    C3 2809   0.495   2.428   9.546  0.3482  0.4991 -0.2015
  181MPD1    C4 2810   0.409   2.364   9.457 -0.0503 -0.7576  0.0846
  181MPD1    C5 2811   0.269   2.363   9.476 -0.0290  0.1847 -0.1085
  181MPD1     H 2812   0.503   2.513   9.743 -0.5030 -1.0678  1.4495
  181MPD1    H1 2813   0.457   2.321   9.371 -1.7386 -0.6187 -0.9220
  181MPD1    H2 2814   0.118   2.447   9.599 -0.1673 -0.8641 -0.0887
  181MPD1    H3 2815   0.202   2.307   9.413 -0.5645 -1.5657  2.0434
  181MPD1     N 2816   0.635   2.424   9.521  0.2389  0.5277  0.5568
  181MPD1    H5 2817   0.668   2.377   9.437  2.6964  0.4128  1.5832
  181MPD1    N1 2818   0.266   2.532   9.804  0.0565  0.2680 -0.9650
  181MPD1    H6 2819   0.325   2.597   9.856 -0.1058  0.1248 -0.6064
  181MPD1    H7 2820   0.170   2.564   9.798 -0.0394  0.1610 -0.0587
  182MPD1     C 2821   2.156   1.280   1.433 -0.0718  0.1213  0.3802
  182MPD1    C1 2822   2.232   1.198   1.354  0.1817 -0.4144  0.1688
  182MPD1    C2 2823   2.269   1.236   1.228 -0.8995 -0.1454 -0.1628
  182MPD1    C3 2824   2.214   1.354   1.168 -0.1940 -0.7426 -0.1274
  182MPD1    C4 2825   2.134   1.434   1.251  0.7775  0.5904  0.2244
  182MPD1    C5 2826   2.106   1.394   1.377  0.3163 -0.1869 -0.6891
  182MPD1     H 2827   2.329   1.165   1.172  1.2710  1.6894 -0.1601
  182MPD1    H1 2828   2.095   1.531   1.221 -1.7872 -0.6635 -0.4428
  182MPD1    H2 2829   2.127   1.262   1.535 -1.0592 -0.9104 -0.0861
  182MPD1    H3 2830   2.036   1.462   1.425  3.2714  1.8879  0.7056
  182MPD1     N 2831   2.230   1.397   1.033 -0.4160  0.4324  0.4490
  182MPD1    H5 2832   2.176   1.479   1.007 -0.2052  0.8530  1.3242
  182MPD1    N1 2833   2.291   1.088   1.415  0.5839 -0.0246  0.3467
  182MPD1    H6 2834   2.312   1.017   1.346  1.0017  1.4668 -1.0375
  182MPD1    H7 2835   2.228   1.050   1.487 -0.1862  1.1330  0.2780
  183MPD1     C 2836   2.653   1.677  10.462 -0.1909 -0.1004  0.5508
  183MPD1    C1 2837   2.651   1.792  10.537  0.8074 -0.3796  0.2065
  183MPD1    C2 2838   2.722   1.903  10.490  0.5471 -0.4470  0.7907
  183MPD1    C3 2839   2.807   1.888  10.384 -0.7468 -0.3686  0.0468
  183MPD1    C4 2840   2.801   1.768  10.309 -0.1917 -0.3953 -0.2989
  183MPD1    C5 2841   2.725   1.666  10.350 -1.0351  0.7627  0.1584
  183MPD1     H 2842   2.721   1.992  10.552 -0.0074  0.7674 -0.9702
  183MPD1    H1 2843   2.835   1.761  10.207 -2.1218 -3.5138 -0.7261
  183MPD1    H2 2844   2.589   1.595  10.491  2.2405 -1.8788  0.8285
  183MPD1    H3 2845   2.723   1.577  10.288 -0.3880  0.7252  0.1863
  183MPD1     N 2846   2.886   1.998  10.331  0.0734 -0.3801  0.0723
  183MPD1    H5 2847   2.871   2.084  10.382 -0.4919  0.6370 -1.7876
  183MPD1    N1 2848   2.545   1.798  10.624 -0.5090  0.1568 -0.1744
  183MPD1    H6 2849   2.536   1.709  10.673 -2.4736  0.2461 -0.3812
  183MPD1    H7 2850   2.563   1.868  10.696  1.5050  0.5442 -1.0545
  184MPD1     C 2851   1.442   0.733  11.181 -0.6032 -0.1289 -0.9780
  184MPD1    C1 2852   1.566   0.677  11.139 -0.2558 -1.0653 -0.1070
  184MPD1    C2 2853   1.581   0.663  11.001 -0.1861  0.5457  0.2473
  184MPD1    C3 2854   1.477   0.674  10.909 -0.3864  0.0305 -0.1396
  184MPD1    C4 2855   1.353   0.711  10.959  0.6936  0.5338 -0.0532
  184MPD1    C5 2856   1.344   0.753  11.091  0.6298  0.1418  0.7257
  184MPD1     H 2857   1.682   0.653  10.965 -1.0746  0.9585 -2.3471
  184MPD1    H1 2858   1.265   0.720  10.896  2.4293 -1.3469 -2.7896
  184MPD1    H2 2859   1.421   0.768  11.282 -0.0865 -0.0967 -0.8817
  184MPD1    H3 2860   1.267   0.817  11.131  1.5510  1.8476 -0.2696
  184MPD1     N 2861   1.487   0.638  10.774 -0.8705  0.2136  0.4215
  184MPD1    H5 2862   1.405   0.647  10.716 -1.2018 -0.9941  0.7036
  184MPD1    N1 2863   1.678   0.685  11.224 -0.1383 -0.0596  0.4712
  184MPD1    H6 2864   1.643   0.680  11.319  0.0250 -1.4056  0.4597
  184MPD1    H7 2865   1.732   0.600  11.209  0.3939  0.2844  0.4470
  185MPD1     C 2866   0.980   0.101  10.146  0.8328 -1.0786 -0.3561
  185MPD1    C1 2867   0.955   0.218  10.217 -0.5503  0.1435 -0.5208
  185MPD1    C2 2868   1.070   0.277  10.265  0.1440  0.4684  0.7174
  185MPD1    C3 2869   1.198   0.257  10.226 -0.5884 -0.0712  0.7305
  185MPD1    C4 2870   1.213   0.152  10.142 -0.3066  0.3563  0.1351
  185MPD1    C5 2871   1.105   0.080  10.098 -0.4084 -0.2236 -0.1191
  185MPD1     H 2872   1.064   0.371  10.319 -1.9312 -0.2752  1.8144
  185MPD1    H1 2873   1.307   0.123  10.096 -0.1263  0.3327  0.5234
  185MPD1    H2 2874   0.903   0.026  10.136 -0.1064 -0.2961  0.9578
  185MPD1    H3 2875   1.133   4.721  10.050  0.0854  0.0266 -0.3220
  185MPD1     N 2876   1.311   0.328  10.275 -0.1945  0.3193  0.3500
  185MPD1    H5 2877   1.405   0.310  10.241 -0.3890 -1.4549  0.7560
  185MPD1    N1 2878   0.824   0.252  10.268  0.0652  0.5008 -0.0742
  185MPD1    H6 2879   0.759   0.236  10.192 -0.0182  1.8317 -0.2882
  185MPD1    H7 2880   0.809   0.343  10.312  0.8546  0.2259  0.7623
  186MPD1     C 2881   0.616   3.916  16.370 -0.3178  0.6102  0.0897
  186MPD1    C1 2882   0.614   3.987  16.486  0.0321  0.4118 -0.0815
  186MPD1    C2 2883   0.568   4.115  16.482 -0.0161  0.0784 -0.0641
  186MPD1    C3 2884   0.556   4.179  16.359  0.0248  0.3235 -0.3399
  186MPD1    C4 2885   0.578   4.113  16.244  0.3567 -0.5231  0.1470
  186MPD1    C5 2886   0.602   3.979  16.246 -0.5132 -0.2633  0.7530
  186MPD1     H 2887   0.558   4.167  16.576  0.7512 -0.4215  0.2929
  186MPD1    H1 2888   0.561   4.153  16.144 -0.6384 -2.4864 -0.4536
  186MPD1    H2 2889   0.632   3.809  16.375 -1.5167  0.4641  0.6516
  186MPD1    H3 2890   0.607   3.923  16.153  0.8082  2.5492 -0.8640
  186MPD1     N 2891   0.521   4.313  16.340 -0.1005 -0.1380 -0.3048
  186MPD1    H5 2892   0.517   4.348  16.245 -1.7164  1.2123  0.2577
  186MPD1    N1 2893   0.627   3.911  16.605  0.0261  0.3256  0.1720
  186MPD1    H6 2894   0.646   3.977  16.680  0.5298  0.3439  0.0225
  186MPD1    H7 2895   0.701   3.842  16.600 -0.0369  0.3136 -0.6896
  187MPD1     C 2896   0.028   1.796   0.163 -0.5019  0.2975 -0.1947
  187MPD1    C1 2897   0.025   1.659   0.126 -0.2245  0.4335 -0.6278
  187MPD1    C2 2898   4.673   1.622   0.026 -0.1475 -0.4110 -0.8318
  187MPD1    C3 2899   4.609   1.709  17.688 -0.5740  0.1899  0.0656
  187MPD1    C4 2900   4.622   1.838  17.714  0.3869  0.4085 -0.1182
  187MPD1    C5 2901   4.694   1.887   0.080  0.3582  0.0084 -0.2030
  187MPD1     H 2902   4.673   1.517  17.737  0.6514 -0.8932  1.0081
  187MPD1    H1 2903   4.571   1.911  17.653  0.5587 -1.3182 -2.3152
  187MPD1    H2 2904   0.072   1.837   0.254  0.9465  0.7960 -1.1331
  187MPD1    H3 2905   4.693   1.994   0.096 -0.4214 -0.0709  0.2526
  187MPD1     N 2906   4.541   1.678  17.566 -0.2350 -0.5696  0.5169
  187MPD1    H5 2907   4.499   1.756  17.517  3.1450  0.4388 -0.7868
  187MPD1    N1 2908   0.060   1.564   0.225 -0.5671 -0.2729  0.0176
  187MPD1    H6 2909   0.070   1.469   0.189 -0.9313  0.0638 -0.9605
  187MPD1    H7 2910   0.147   1.596   0.267 -1.4201 -1.5716  2.7972
  188MPD1     C 2911   4.385   1.029  10.519  0.0933 -0.4785 -0.0834
  188MPD1    C1 2912   4.472   1.004  10.416  0.3551  0.2925  0.5824
  188MPD1    C2 2913   4.443   0.903  10.336  0.0003 -0.7086 -0.6488
  188MPD1    C3 2914   4.354   0.803  10.372 -0.0600 -0.4582 -0.0864
  188MPD1    C4 2915   4.285   0.819  10.491  0.3412 -0.9338 -0.1392
  188MPD1    C5 2916   4.293   0.937  10.555 -0.0850  0.4822  0.1149
  188MPD1     H 2917   4.496   0.904  10.241  0.6890  0.7017 -0.2458
  188MPD1    H1 2918   4.204   0.757  10.528 -2.0949  1.7524 -0.8996
  188MPD1    H2 2919   4.407   1.117  10.578 -0.6590 -1.6274  1.8954
  188MPD1    H3 2920   4.230   0.957  10.641 -2.0925 -0.6624 -1.1086
  188MPD1     N 2921   4.330   0.689  10.294  0.5089 -0.1364  0.4589
  188MPD1    H5 2922   4.250   0.634  10.322  0.4539 -0.3505 -0.1221
  188MPD1    N1 2923   4.580   1.088  10.386 -0.7101  0.7159  0.0488
  188MPD1    H6 2924   4.636   1.134  10.458  0.1679 -1.2705  0.6237
  188MPD1    H7 2925   4.639   1.062  10.308  2.9873  2.3870  2.2926
  189MPD1     C 2926   1.230   2.363   0.435 -0.7061  0.2070 -0.8402
  189MPD1    C1 2927   1.107   2.312   0.406  0.0071 -0.0081 -0.6621
  189MPD1    C2 2928   1.038   2.375   0.315  0.1286  0.3791 -0.2355
  189MPD1    C3 2929   1.083   2.491   0.250  0.1802  0.4539  0.4106
  189MPD1    C4 2930   1.214   2.536   0.276  0.1946 -0.8057  0.3736
  189MPD1    C5 2931   1.283   2.468   0.371  0.2858  0.4398 -0.1481
  189MPD1     H 2932   0.939   2.338   0.293  0.4902 -0.4766 -0.4262
  189MPD1    H1 2933   1.265   2.617   0.225 -1.2249  0.3538  0.8326
  189MPD1    H2 2934   1.294   2.304   0.500 -2.1723 -0.4409  0.0201
  189MPD1    H3 2935   1.383   2.497   0.401 -0.8782  1.0382  3.1183
  189MPD1     N 2936   0.996   2.565   0.171 -0.0051 -0.5057 -0.1839
  189MPD1    H5 2937   0.901   2.530   0.161  0.4211 -2.3199  1.8525
  189MPD1    N1 2938   1.075   2.181   0.445  0.4643 -0.6378 -0.2246
  189MPD1    H6 2939   0.979   2.152   0.425 -0.3791  0.3886  2.3106
  189MPD1    H7 2940   1.110   2.153   0.536 -0.6945 -0.5361  0.2576
  190MPD1     C 2941   4.535   0.824  15.646  0.5943 -0.0433 -0.1560
  190MPD1    C1 2942   4.599   0.766  15.750  0.1131 -0.0117  0.7033
  190MPD1    C2 2943   0.002   0.762  15.749 -0.4223  0.0519  0.1190
  190MPD1    C3 2944   0.080   0.806  15.656  0.7796  0.8084 -0.4997
  190MPD1    C4 2945   0.019   0.850  15.545 -0.0783  0.0943 -0.0422
  190MPD1    C5 2946   4.614   0.849  15.535 -0.2074  0.7035  0.0509
  190MPD1     H 2947   0.054   0.714  15.831 -2.0767 -1.7665  0.1159
  190MPD1    H1 2948   0.081   0.880  15.461  0.0821 -0.2563 -0.0484
  190MPD1    H2 2949   4.427   0.830  15.639  0.4988 -1.8885 -0.4522
  190MPD1    H3 2950   4.571   0.878  15.440  0.4246 -1.9371 -1.0325
  190MPD1     N 2951   0.217   0.791  15.673 -0.8633 -0.2703  0.4085
  190MPD1    H5 2952   0.243   0.768  15.769  1.7671  0.1209 -0.1907
  190MPD1    N1 2953   4.521   0.731  15.864 -0.3072  0.0767  0.1772
  190MPD1    H6 2954   4.576   0.674  15.928  0.0680  0.4264  0.1715
  190MPD1    H7 2955   4.424   0.705  15.850 -0.4420 -0.0290  1.3105
  191MPD1     C 2956   4.210   3.427  11.277 -0.3481  0.5960  0.5606
  191MPD1    C1 2957   4.305   3.407  11.363 -0.7021  0.2724 -0.2413
  191MPD1    C2 2958   4.329   3.271  11.386 -0.0836 -0.3612  0.6203
  191MPD1    C3 2959   4.261   3.173  11.325  0.5616  0.4267 -0.3221
  191MPD1    C4 2960   4.146   3.205  11.259  0.9583 -0.8466  0.2157
  191MPD1    C5 2961   4.122   3.338  11.238  0.6077  0.0657  0.1527
  191MPD1     H 2962   4.413   3.243  11.449  0.5229  0.4120  0.1615
  191MPD1    H1 2963   4.078   3.134  11.214  0.3388 -1.8209  2.6981
  191MPD1    H2 2964   4.179   3.528  11.254 -0.7837  0.3174 -0.0801
  191MPD1    H3 2965   4.037   3.368  11.178 -0.2001 -4.0445 -0.7513
  191MPD1     N 2966   4.296   3.039  11.348 -0.1105 -0.4996 -0.1916
  191MPD1    H5 2967   4.372   3.018  11.411  0.0348 -0.7232 -0.4435
  191MPD1    N1 2968   4.402   3.502  11.402  0.4549  0.0928  0.0620
  191MPD1    H6 2969   4.354   3.588  11.430  0.7505  0.6036 -1.0034
  191MPD1    H7 2970   4.442   3.461  11.487 -0.2129 -1.2476 -0.2708
  192MPD1     C 2971   3.790   2.144  11.313 -0.4460  0.9355  0.3184
  192MPD1    C1 2972   3.848   2.155  11.435  0.7807 -0.7976 -0.2273
  192MPD1    C2 2973   3.932   2.266  11.461  0.0176 -0.1898  0.0396
  192MPD1    C3 2974   3.951   2.365  11.363  0.6570 -0.4836 -0.4927
  192MPD1    C4 2975   3.886   2.354  11.247  0.0456 -0.3046  0.3280
  192MPD1    C5 2976   3.812   2.242  11.223 -0.3785  0.3196  0.2793
  192MPD1     H 2977   3.979   2.271  11.559 -2.0689  1.6102  0.9356
  192MPD1    H1 2978   3.908   2.423  11.167 -0.6328  0.3818  0.7328
  192MPD1    H2 2979   3.733   2.053  11.299  1.3766 -0.0278 -0.8129
  192MPD1    H3 2980   3.758   2.240  11.129  0.0651 -0.2164  0.0407
  192MPD1     N 2981   4.047   2.469  11.382  0.0191 -0.1191  0.2961
  192MPD1    H5 2982   4.066   2.526  11.300  0.7652 -1.1667 -0.2591
  192MPD1    N1 2983   3.852   2.046  11.517  0.4164  0.4434  0.1231
  192MPD1    H6 2984   3.768   1.988  11.516  1.7255 -1.4145 -1.2688
  192MPD1    H7 2985   3.872   2.072  11.613  2.3755 -0.3743 -0.0809
  193MPD1     C 2986   3.706   2.360  16.313  0.0202 -0.2269 -0.1351
  193MPD1    C1 2987   3.838   2.317  16.302 -0.2289  0.5429  0.0993
  193MPD1    C2 2988   3.929   2.404  16.357  1.0293 -0.0472  0.4393
  193MPD1    C3 2989   3.895   2.525  16.423  0.0357  0.0664 -0.4396
  193MPD1    C4 2990   3.764   2.564  16.420 -0.6281  0.3057  0.3177
  193MPD1    C5 2991   3.672   2.482  16.359  0.0877  0.1123  1.0676
  193MPD1     H 2992   4.029   2.364  16.345  0.9366 -0.1276 -0.1007
  193MPD1    H1 2993   3.735   2.664  16.450  1.5886  1.0100  0.0654
  193MPD1    H2 2994   3.630   2.297  16.269 -1.3466  2.0307 -1.0352
  193MPD1    H3 2995   3.570   2.518  16.361 -0.5064 -1.4148 -1.4307
  193MPD1     N 2996   4.003   2.609  16.466  0.3731  0.0728 -0.1328
  193MPD1    H5 2997   4.097   2.574  16.455  0.0918 -0.6127 -0.3728
  193MPD1    N1 2998   3.882   2.191  16.261 -0.0341  0.5154  0.2355
  193MPD1    H6 2999   3.982   2.189  16.244 -0.3382 -0.1742 -1.4406
  193MPD1    H7 3000   3.823   2.163  16.183 -0.2061  0.2058  0.4768
  194MPD1     C 3001   1.551   4.687  16.564 -0.4974  0.4206  0.3611
  194MPD1    C1 3002   1.500   4.587  16.481  0.8248  0.0683 -0.1995
  194MPD1    C2 3003   1.508   4.456  16.514 -0.3289 -0.1538 -0.2052
  194MPD1    C3 3004   1.538   4.425  16.651 -0.5024  0.0859 -0.1908
  194MPD1    C4 3005   1.561   4.525  16.739 -0.3641 -0.0327  0.1150
  194MPD1    C5 3006   1.570   4.651  16.697 -0.1615  0.3098 -0.0985
  194MPD1     H 3007   1.486   4.377  16.443  0.1125 -1.0916  0.7061
  194MPD1    H1 3008   1.589   4.506  16.842  1.1891 -1.1776 -0.5157
  194MPD1    H2 3009   1.558   0.057  16.536 -1.0365  0.1736 -0.6808
  194MPD1    H3 3010   1.591   4.733  16.764 -0.2742  1.9401 -2.0524
  194MPD1     N 3011   1.536   4.286  16.691  0.4552 -0.2917  0.2412
  194MPD1    H5 3012   1.507   4.267  16.787  0.1817  3.1995  0.8396
  194MPD1    N1 3013   1.471   4.616  16.350 -0.0468  0.1977  0.1466
  194MPD1    H6 3014   1.474   4.717  16.335  0.4867  0.0262 -0.8765
  194MPD1    H7 3015   1.405   4.562  16.296  0.6929 -0.4948 -0.0611
  195MPD1     C 3016   3.253   2.201   0.863  0.4013  0.3726 -0.0373
  195MPD1    C1 3017   3.166   2.131   0.783 -0.3297 -0.3943  0.5381
  195MPD1    C2 3018   3.205   2.008   0.732  0.1085  0.0297 -0.0593
  195MPD1    C3 3019   3.334   1.959   0.760  0.1592  0.2284 -0.4181
  195MPD1    C4 3020   3.422   2.033   0.834 -0.0108 -0.1222  0.2538
  195MPD1    C5 3021   3.379   2.148   0.897 -0.3566  0.5847 -0.3672
  195MPD1     H 3022   3.133   1.947   0.678 -1.1516  0.9233  0.6128
  195MPD1    H1 3023   3.523   2.005   0.859  0.3638  1.9822  1.1299
  195MPD1    H2 3024   3.223   2.300   0.896 -0.7605 -0.3772  1.1556
  195MPD1    H3 3025   3.454   2.204   0.951 -0.2367  0.4179 -0.3632
  195MPD1     N 3026   3.377   1.837   0.703 -0.5616  0.2064 -0.1429
  195MPD1    H5 3027   3.473   1.807   0.717  0.0449  1.3830 -1.7546
  195MPD1    N1 3028   3.047   2.193   0.731 -0.9032  0.2067 -0.3340
  195MPD1    H6 3029   3.005   2.253   0.801  0.3954 -1.2301  1.6772
  195MPD1    H7 3030   2.984   2.119   0.700 -1.3081  0.6028 -0.4688
  196MPD1     C 3031   2.853   0.123   0.449 -0.9278  0.4750 -0.4236
  196MPD1    C1 3032   2.870   0.261   0.435  0.3115  0.0970  0.7193
  196MPD1    C2 3033   2.927   0.327   0.549 -0.9566  0.6176  0.1045
  196MPD1    C3 3034   2.952   0.267   0.670  0.3405  0.5045  0.2097
  196MPD1    C4 3035   2.919   0.140   0.674  0.1854 -0.0154  0.7416
  196MPD1    C5 3036   2.870   0.069   0.573  0.0839  0.3878 -0.3603
  196MPD1     H 3037   2.947   0.431   0.530  1.1965  0.0481 -0.7189
  196MPD1    H1 3038   2.925   0.097   0.774  0.3384 -1.4854  0.1056
  196MPD1    H2 3039   2.834   0.065   0.359  0.1440  1.2690 -1.1703
  196MPD1    H3 3040   2.852   4.697   0.580  0.3718  0.5234  2.2842
  196MPD1     N 3041   3.020   0.331   0.775  0.3228  0.7023  0.4834
  196MPD1    H5 3042   3.016   0.278   0.861 -0.1115 -0.9823 -0.5617
  196MPD1    N1 3043   2.872   0.323   0.310  0.2796  0.5396  0.0733
  196MPD1    H6 3044   2.785   0.290   0.268 -0.0781  1.7993 -0.1785
  196MPD1    H7 3045   2.859   0.423   0.318 -1.1254  0.5797 -2.7010
  197MPD1     C 3046   2.723   2.258  17.404  0.2055  1.1864  0.7009
  197MPD1    C1 3047   2.784   2.363  17.462 -0.1576  0.8069 -0.2172
  197MPD1    C2 3048   2.775   2.490  17.410 -0.3931 -0.0336 -0.1339
  197MPD1    C3 3049   2.725   2.504  17.285  0.1444  1.0518  0.4369
  197MPD1    C4 3050   2.661   2.397  17.225 -0.1000 -0.1245 -0.0952
  197MPD1    C5 3051   2.652   2.273  17.285 -0.4480 -0.1525 -1.0275
  197MPD1     H 3052   2.832   2.573  17.451  2.0352 -1.3853 -0.7730
  197MPD1    H1 3053   2.618   2.408  17.126 -2.3577 -0.5283  0.8224
  197MPD1    H2 3054   2.722   2.160  17.450  1.6227  1.0586  0.4631
  197MPD1    H3 3055   2.584   2.197  17.251  0.0158 -2.1676  2.4835
  197MPD1     N 3056   2.756   2.616  17.201 -0.0769  0.0378 -0.1980
  197MPD1    H5 3057   2.742   2.613  17.101 -2.1049 -2.3249  0.1459
  197MPD1    N1 3058   2.839   2.346  17.593 -0.2276  0.1911 -0.4079
  197MPD1    H6 3059   2.878   2.256  17.617  1.4612  0.6335 -1.4558
  197MPD1    H7 3060   2.916   2.408  17.618 -0.7084  1.2728 -1.6117
  198MPD1     C 3061   4.044   1.529  15.317 -0.1521 -0.0988  1.1432
  198MPD1    C1 3062   4.139   1.438  15.346  0.0932  0.4761  0.2685
  198MPD1    C2 3063   4.270   1.464  15.313 -0.4763 -0.3589 -0.2113
  198MPD1    C3 3064   4.303   1.592  15.281 -0.6345 -0.3973 -0.6607
  198MPD1    C4 3065   4.209   1.692  15.269 -0.1423 -0.4590  0.1071
  198MPD1    C5 3066   4.074   1.656  15.274 -0.0647  0.2377  0.4758
  198MPD1     H 3067   4.342   1.384  15.326 -0.8553 -0.6798 -0.0700
  198MPD1    H1 3068   4.238   1.789  15.232  0.8391  0.0199  2.1088
  198MPD1    H2 3069   3.940   1.498  15.328 -0.6653  1.9785  2.0913
  198MPD1    H3 3070   3.996   1.728  15.252  2.2195  2.0065 -1.7685
  198MPD1     N 3071   4.433   1.613  15.238  0.5016 -0.1496 -0.7943
  198MPD1    H5 3072   4.495   1.533  15.241  0.7036  0.0677  0.7275
  198MPD1    N1 3073   4.099   1.311  15.395 -0.7222  0.1832  0.8944
  198MPD1    H6 3074   4.164   1.259  15.453 -0.4956  1.3949  1.7247
  198MPD1    H7 3075   4.014   1.319  15.450 -1.0207 -1.0670  0.6043
  199MPD1     C 3076   2.278   3.272   9.471 -0.1255 -0.4183 -0.8683
  199MPD1    C1 3077   2.232   3.142   9.430 -0.1342  0.6587  0.1417
  199MPD1    C2 3078   2.097   3.112   9.439  0.6664 -0.1213  0.1952
  199MPD1    C3 3079   2.002   3.207   9.479 -0.0688 -0.5339 -0.3610
  199MPD1    C4 3080   2.053   3.329   9.524  0.0989  0.2124  0.0203
  199MPD1    C5 3081   2.189   3.356   9.518  0.8918 -0.5769  0.2115
  199MPD1     H 3082   2.064   3.013   9.409  1.2363 -0.5324  0.9090
  199MPD1    H1 3083   1.985   3.405   9.561  0.5428  0.4231  0.4105
  199MPD1    H2 3084   2.379   3.307   9.454 -0.3803  0.3570 -0.7624
  199MPD1    H3 3085   2.230   3.445   9.565  1.5470 -1.3972  1.2001
  199MPD1     N 3086   1.862   3.190   9.478 -0.4574 -0.1630  0.3976
  199MPD1    H5 3087   1.810   3.257   9.533 -1.0698  0.4539 -0.9291
  199MPD1    N1 3088   2.315   3.062   9.351 -0.4576 -0.2104  0.4482
  199MPD1    H6 3089   2.412   3.064   9.381  0.1078  0.3782 -1.4077
  199MPD1    H7 3090   2.293   2.963   9.353  0.9045 -0.5263  0.2193
  200MPD1     C 3091   0.402   2.847  14.915  0.2783 -0.1575 -0.9117
  200MPD1    C1 3092   0.406   2.896  14.791 -0.1847  0.3042  0.8309
  200MPD1    C2 3093   0.530   2.899  14.729 -0.1199 -0.0431  0.2055
  200MPD1    C3 3094   0.648   2.868  14.793  0.4869  0.2588  0.0173
  200MPD1    C4 3095   0.643   2.833  14.929  0.5202 -0.5763  0.4808
  200MPD1    C5 3096   0.515   2.812  14.982 -0.0627  0.3316 -0.5251
  200MPD1     H 3097   0.525   2.915  14.622 -0.6567  1.6645  0.4894
  200MPD1    H1 3098   0.726   2.819  14.997  0.4378 -2.2604  0.2323
  200MPD1    H2 3099   0.311   2.840  14.973  0.0399  0.3753 -1.2140
  200MPD1    H3 3100   0.502   2.786  15.087  1.0062 -3.5578 -1.3642
  200MPD1     N 3101   0.771   2.866  14.721 -0.0406  0.4335 -0.1035
  200MPD1    H5 3102   0.767   2.883  14.621  0.4720  1.5158  0.0644
  200MPD1    N1 3103   0.289   2.903  14.721 -0.2614 -0.2834  0.1783
  200MPD1    H6 3104   0.219   2.937  14.786 -0.7348 -0.9250  0.0124
  200MPD1    H7 3105   0.283   2.965  14.641  1.5731  0.2545  0.4557
  201MPD1     C 3106   3.417   2.209  13.011  1.0402 -0.1735 -0.1124
  201MPD1    C1 3107   3.542   2.155  13.020  0.0742  0.1614 -0.1015
  201MPD1    C2 3108   3.556   2.019  12.997 -0.2116 -0.5632  0.6160
  201MPD1    C3 3109   3.444   1.934  12.976  0.3477 -0.3418  0.2932
  201MPD1    C4 3110   3.322   1.998  12.973  0.4594  0.1148 -0.7527
  201MPD1    C5 3111   3.312   2.133  12.983 -0.3166 -0.5125  0.1741
  201MPD1     H 3112   3.651   1.969  13.010 -0.9226 -1.8661  0.8270
  201MPD1    H1 3113   3.232   1.939  12.960  0.6437 -0.0057 -1.5286
  201MPD1    H2 3114   3.394   2.313  13.031  0.2180 -0.2039 -0.9375
  201MPD1    H3 3115   3.213   2.176  12.982 -0.0682  0.0605  0.4996
  201MPD1     N 3116   3.472   1.795  12.981 -0.0233 -0.1383  0.7782
  201MPD1    H5 3117   3.568   1.764  12.982  0.3824  1.1017  0.2380
  201MPD1    N1 3118   3.654   2.226  13.060  0.4729 -0.0046 -0.3339
  201MPD1    H6 3119   3.742   2.176  13.045  0.4547  0.2822 -1.4177
  201MPD1    H7 3120   3.663   2.319  13.018  1.8329 -1.0657 -2.4115
  202MPD1     C 3121   4.109   0.913   9.305  0.0496 -0.0684  0.1807
  202MPD1    C1 3122   4.037   1.024   9.261 -0.2924 -0.1736  0.2609
  202MPD1    C2 3123   4.005   1.108   9.363 -0.2914  0.5850  0.8286
  202MPD1    C3 3124   4.085   1.117   9.478  0.3051 -0.8015 -0.0089
  202MPD1    C4 3125   4.180   1.019   9.499 -0.5795 -0.0279  0.5560
  202MPD1    C5 3126   4.198   0.920   9.405  0.1885 -0.0064 -1.0167
  202MPD1     H 3127   3.944   1.193   9.332  0.8632  1.3611  0.6707
  202MPD1    H1 3128   4.239   1.017   9.590  1.6743  0.3164 -0.8942
  202MPD1    H2 3129   4.118   0.825   9.242  2.9569  1.7526 -1.9101
  202MPD1    H3 3130   4.273   0.843   9.415  0.3143  0.1935 -0.3650
  202MPD1     N 3131   4.059   1.213   9.579 -0.7059 -0.5433 -0.0449
  202MPD1    H5 3132   4.114   1.205   9.664 -2.8939 -1.7118  1.2357
  202MPD1    N1 3133   3.943   0.993   9.159  0.1680  0.2275 -0.1198
  202MPD1    H6 3134   3.991   0.938   9.089  0.7551  0.4504  0.1112
  202MPD1    H7 3135   3.907   1.073   9.108 -0.4249  0.7555  1.1065
  203MPD1     C 3136   1.814   1.753  12.072 -0.0516  0.5049  0.2861
  203MPD1    C1 3137   1.911   1.650  12.046 -0.0802 -0.3058  0.4266
  203MPD1    C2 3138   2.013   1.627  12.139 -0.7662 -0.7939  0.3194
  203MPD1    C3 3139   2.013   1.700  12.262 -0.1163 -0.2982 -0.1295
  203MPD1    C4 3140   1.910   1.787  12.292  0.5321  0.1181 -0.2765
  203MPD1    C5 3141   1.810   1.807  12.199 -0.1197  0.6409  0.4325
  203MPD1     H 3142   2.088   1.553  12.116  0.1397  0.3176 -0.3194
  203MPD1    H1 3143   1.896   1.836  12.387 -0.5154  2.2606 -1.5519
  203MPD1    H2 3144   1.740   1.765  11.993 -0.6455  0.7346  0.8703
  203MPD1    H3 3145   1.729   1.872  12.230 -0.9296  0.5242 -1.4390
  203MPD1     N 3146   2.109   1.658  12.360  0.1151 -0.7338  0.6046
  203MPD1    H5 3147   2.182   1.592  12.337 -0.8380 -1.8858  0.9323
  203MPD1    N1 3148   1.911   1.576  11.924 -0.0932 -0.2727  0.5868
  203MPD1    H6 3149   1.946   1.482  11.943 -0.0792 -0.6185 -1.1265
  203MPD1    H7 3150   1.814   1.568  11.894 -0.1695 -0.6802  0.9414
  204MPD1     C 3151   1.279   3.670  17.280 -0.6143  0.0727  0.3702
  204MPD1    C1 3152   1.367   3.630  17.186 -0.2525 -0.0287 -0.6604
  204MPD1    C2 3153   1.460   3.538  17.225 -0.5263  0.3440  0.0183
  204MPD1    C3 3154   1.454   3.471  17.344 -0.2107 -0.2333  0.2111
  204MPD1    C4 3155   1.362   3.512  17.446  0.3434 -0.0229  0.2969
  204MPD1    C5 3156   1.279   3.615  17.410 -0.2844 -0.1374  0.7666
  204MPD1     H 3157   1.529   3.516  17.145  0.4360 -0.0785  0.9645
  204MPD1    H1 3158   1.361   3.476  17.548 -0.2027 -1.3449 -0.1737
  204MPD1    H2 3159   1.205   3.747  17.261 -0.1187 -0.3555 -3.2807
  204MPD1    H3 3160   1.210   3.656  17.483 -0.0413  1.9519 -0.1801
  204MPD1     N 3161   1.551   3.366  17.354  0.1246 -0.1606 -0.1026
  204MPD1    H5 3162   1.608   3.347  17.273 -0.4866  1.1289 -0.8188
  204MPD1    N1 3163   1.392   3.707  17.069  0.6149 -0.0490 -0.2535
  204MPD1    H6 3164   1.305   3.745  17.032 -0.7830 -1.6239  1.4459
  204MPD1    H7 3165   1.433   3.653  16.993  4.0696  1.2281  0.7102
  205MPD1     C 3166   2.156   1.910  17.226  0.4518 -0.0254  0.9920
  205MPD1    C1 3167   2.179   1.837  17.339 -0.3112 -0.5919  0.4311
  205MPD1    C2 3168   2.094   1.860  17.444 -0.3295  0.0106 -0.8917
  205MPD1    C3 3169   2.009   1.965  17.447 -0.0934 -0.2944 -0.4068
  205MPD1    C4 3170   2.003   2.052  17.338  0.3089  0.7075  0.2109
  205MPD1    C5 3171   2.067   2.014  17.228  0.2513  0.9324  0.0681
  205MPD1     H 3172   2.092   1.785  17.522 -3.0288  1.3912  0.3825
  205MPD1    H1 3173   1.936   2.136  17.324  0.8735  1.1356  0.0893
  205MPD1    H2 3174   2.207   1.901  17.131 -1.2406  1.2147 -0.0565
  205MPD1    H3 3175   2.047   2.071  17.138 -1.3905 -1.9747 -1.4084
  205MPD1     N 3176   1.925   1.996  17.557  0.0489 -0.3575  0.0882
  205MPD1    H5 3177   1.870   2.082  17.556  1.1258  0.3326 -1.3301
  205MPD1    N1 3178   2.255   1.717  17.321  0.5968 -0.9732 -0.3206
  205MPD1    H6 3179   2.341   1.738  17.270  0.8120  0.7897  0.7378
  205MPD1    H7 3180   2.283   1.681  17.412  0.3185 -1.0452 -0.2639
  206MPD1     C 3181   1.914   4.222  16.863  0.5946  0.4376 -0.2714
  206MPD1    C1 3182   1.868   4.354  16.864  0.3701 -0.2219 -0.2541
  206MPD1    C2 3183   1.876   4.426  16.740  0.1219 -0.2033  0.6265
  206MPD1    C3 3184   1.895   4.356  16.625  0.8276  0.1454  0.4490
  206MPD1    C4 3185   1.891   4.220  16.631 -0.3845 -0.5089  0.6105
  206MPD1    C5 3186   1.916   4.156  16.746  0.1502  0.5329  0.2201
  206MPD1     H 3187   1.864   4.534  16.744 -0.5238 -0.2625  0.3596
  206MPD1    H1 3188   1.890   4.155  16.544 -1.6760 -2.1265  1.8231
  206MPD1    H2 3189   1.934   4.164  16.953 -0.9729 -2.1890 -1.6182
  206MPD1    H3 3190   1.928   4.049  16.750  0.8604  0.7183  2.8665
  206MPD1     N 3191   1.910   4.413  16.496 -0.2520 -0.4757 -0.0128
  206MPD1    H5 3192   1.912   4.346  16.420  0.0774 -2.3658  1.6336
  206MPD1    N1 3193   1.869   4.422  16.985 -0.0547  0.0998 -0.1373
  206MPD1    H6 3194   1.814   4.508  16.988 -1.0281 -0.5082 -0.5450
  206MPD1    H7 3195   1.838   4.354  17.054 -1.1979 -0.5564 -1.2745
  207MPD1     C 3196   4.207   3.186  10.918  0.7814 -0.2406 -0.5074
  207MPD1    C1 3197   4.204   3.194  10.776 -0.7397 -0.3653 -0.5015
  207MPD1    C2 3198   4.319   3.169  10.708  0.2070 -1.5142  0.3737
  207MPD1    C3 3199   4.443   3.149  10.769 -0.1287  0.0924  0.3578
  207MPD1    C4 3200   4.442   3.138  10.905 -0.1548  0.1821  0.9199
  207MPD1    C5 3201   4.322   3.153  10.974 -0.2588  0.2585  0.3784
  207MPD1     H 3202   4.312   3.171  10.600 -0.3524  1.1524  0.4714
  207MPD1    H1 3203   4.536   3.123  10.956  0.9690  0.0672 -1.1841
  207MPD1    H2 3204   4.122   3.211  10.981  1.5943 -1.6700  1.1537
  207MPD1    H3 3205   4.321   3.141  11.081 -0.4769 -0.3471  0.3046
  207MPD1     N 3206   4.566   3.139  10.704 -0.7351  0.0045  0.6954
  207MPD1    H5 3207   4.650   3.133  10.761 -0.3684  0.4349  0.1941
  207MPD1    N1 3208   4.103   3.256  10.702 -0.1311 -0.1199  0.5999
  207MPD1    H6 3209   4.096   3.217  10.608  0.7533 -0.9911  0.8969
  207MPD1    H7 3210   4.011   3.247  10.744 -0.2510  2.2440  0.8188
  208MPD1     C 3211   1.549   0.573  17.277  0.0149  0.0319 -0.0252
  208MPD1    C1 3212   1.659   0.564  17.371  0.5471  0.6283 -1.1328
  208MPD1    C2 3213   1.653   0.644  17.481  1.2069  0.2211 -0.5793
  208MPD1    C3 3214   1.548   0.736  17.505 -0.5928  0.5488  0.3412
  208MPD1    C4 3215   1.449   0.745  17.408  0.1539  0.8938 -0.0871
  208MPD1    C5 3216   1.453   0.668  17.296 -0.3720 -0.1884 -0.3626
  208MPD1     H 3217   1.737   0.640  17.550 -1.2040 -1.8178  2.2337
  208MPD1    H1 3218   1.365   0.813  17.411 -0.8765 -0.5191  2.5000
  208MPD1    H2 3219   1.559   0.517  17.185  2.1382 -0.7595  0.6888
  208MPD1    H3 3220   1.371   0.684  17.227 -1.0142 -0.3520  0.3664
  208MPD1     N 3221   1.547   0.808  17.626 -0.7375  0.0382 -0.3164
  208MPD1    H5 3222   1.625   0.784  17.686 -1.3330  1.8111  1.1424
  208MPD1    N1 3223   1.771   0.478  17.354 -0.3455  0.0369  0.5482
  208MPD1    H6 3224   1.786   0.462  17.254 -0.8585 -0.3806  0.5410
  208MPD1    H7 3225   1.860   0.514  17.387 -0.0036  1.2552 -1.6907
  209MPD1     C 3226   0.752   2.045   9.575  1.1978 -0.3562  0.0642
  209MPD1    C1 3227   0.869   2.042   9.649 -0.2490  0.6092  0.4110
  209MPD1    C2 3228   0.864   2.082   9.781 -0.0091  0.2730 -0.2308
  209MPD1    C3 3229   0.749   2.138   9.828  0.3106  0.0012 -0.9034
  209MPD1    C4 3230   0.628   2.140   9.755 -0.6860 -0.3270  0.1428
  209MPD1    C5 3231   0.636   2.104   9.625 -0.5427  0.6644  0.1193
  209MPD1     H 3232   0.944   2.070   9.853  1.1012  2.9988 -1.0357
  209MPD1    H1 3233   0.533   2.167   9.800  0.3040 -1.1666  2.7676
  209MPD1    H2 3234   0.750   2.009   9.472 -2.0335 -0.6565  0.2306
  209MPD1    H3 3235   0.552   2.110   9.557 -1.9150 -1.2943  1.6408
  209MPD1     N 3236   0.753   2.188   9.961 -0.0862 -0.0703 -0.1982
  209MPD1    H5 3237   0.835   2.169  10.017 -0.0443 -0.4947 -0.4052
  209MPD1    N1 3238   0.988   1.975   9.604 -0.2053 -0.0140 -0.9625
  209MPD1    H6 3239   1.005   1.986   9.504 -0.1155  2.0806 -0.7095
  209MPD1    H7 3240   1.071   2.001   9.656  0.1988  0.1904 -1.6998
  210MPD1     C 3241   0.890   1.821  10.842  0.0579  0.3450  0.0828
  210MPD1    C1 3242   0.923   1.789  10.717  0.2616 -0.3489  0.4340
  210MPD1    C2 3243   0.866   1.866  10.618  0.9314 -0.9603  0.0733
  210MPD1    C3 3244   0.781   1.974  10.652  0.0619  0.4495 -0.3301
  210MPD1    C4 3245   0.759   2.008  10.780 -0.2838 -0.0338 -0.0600
  210MPD1    C5 3246   0.803   1.922  10.876  0.8526 -0.1935 -0.1842
  210MPD1     H 3247   0.880   1.832  10.516 -1.1572  0.5946 -0.7315
  210MPD1    H1 3248   0.695   2.089  10.812  0.2259  0.2348  0.2661
  210MPD1    H2 3249   0.917   1.748  10.917  0.0564  0.2103 -0.0470
  210MPD1    H3 3250   0.781   1.936  10.981  0.0235  1.0732 -0.5282
  210MPD1     N 3251   0.719   2.061  10.559  0.3604  0.2793 -0.0083
  210MPD1    H5 3252   0.657   2.132  10.598  1.4770  1.9509 -1.3070
  210MPD1    N1 3253   0.991   1.668  10.679  0.1924 -0.7606 -0.1227
  210MPD1    H6 3254   1.036   1.676  10.587 -1.6874 -0.3058 -0.9941
  210MPD1    H7 3255   1.057   1.642  10.752 -1.1768 -0.0308  1.3729
  211MPD1     C 3256   2.270   1.579  16.889  1.0328 -0.1940 -0.6056
  211MPD1    C1 3257   2.168   1.629  16.970 -0.3926 -0.2317  0.0297
  211MPD1    C2 3258   2.081   1.725  16.909 -0.3364  0.4769 -0.1289
  211MPD1    C3 3259   2.095   1.761  16.772  0.4358 -0.1400 -0.0615
  211MPD1    C4 3260   2.200   1.710  16.699  0.3289  0.1258  0.5398
  211MPD1    C5 3261   2.285   1.627  16.763  0.1348 -0.1909 -0.1096
  211MPD1     H 3262   1.999   1.761  16.971  2.0040  4.4335  0.6579
  211MPD1    H1 3263   2.226   1.748  16.600 -1.3231  0.3684  0.2058
  211MPD1    H2 3264   2.347   1.513  16.928 -0.0932 -1.6123 -0.8253
  211MPD1    H3 3265   2.370   1.596  16.703  1.5170  2.1739  0.6507
  211MPD1     N 3266   2.003   1.858  16.721  0.0347  0.1837  0.2299
  211MPD1    H5 3267   1.925   1.882  16.780  1.4526  0.9412  1.8062
  211MPD1    N1 3268   2.134   1.560  17.091  0.0400 -0.4049 -0.3088
  211MPD1    H6 3269   2.218   1.526  17.136 -0.8112 -0.4769  1.2556
  211MPD1    H7 3270   2.089   1.614  17.166  2.6895  0.5050  0.6308
  212MPD1     C 3271   1.637   0.442  16.535  0.1841  0.0855  0.0657
  212MPD1    C1 3272   1.508   0.478  16.514  0.5994 -1.0521  0.5355
  212MPD1    C2 3273   1.408   0.409  16.580  0.3499 -0.2456 -0.2461
  212MPD1    C3 3274   1.437   0.314  16.673  0.8802 -0.0335 -0.6658
  212MPD1    C4 3275   1.558   0.291  16.708  0.2879  0.6426 -0.0147
  212MPD1    C5 3276   1.660   0.350  16.632 -0.0228 -1.2276 -0.2068
  212MPD1     H 3277   1.305   0.425  16.550  0.0078 -1.3569  0.3132
  212MPD1    H1 3278   1.578   0.225  16.792  2.2755  1.8583  0.4573
  212MPD1    H2 3279   1.726   0.481  16.485  1.0375  1.1921  2.4764
  212MPD1    H3 3280   1.760   0.316  16.658  0.2768  0.5679  0.9594
  212MPD1     N 3281   1.344   0.221  16.721  0.2525 -0.2359  0.6936
  212MPD1    H5 3282   1.379   0.156  16.792  0.5849 -1.5456 -0.6672
  212MPD1    N1 3283   1.477   0.568  16.409  0.1732  0.8763 -0.2355
  212MPD1    H6 3284   1.400   0.632  16.429 -0.5673  0.3498 -1.3743
  212MPD1    H7 3285   1.548   0.633  16.377  1.3056 -0.6381 -0.8163
  213MPD1     C 3286   4.102   1.142  16.002  0.6619  0.6525 -1.1760
  213MPD1    C1 3287   3.993   1.079  15.954 -0.3633  0.3312 -0.1253
  213MPD1    C2 3288   4.019   1.011  15.839  0.3695 -0.5848 -0.4724
  213MPD1    C3 3289   4.121   1.047  15.754  0.6142  0.7309  0.2560
  213MPD1    C4 3290   4.223   1.133  15.795  0.2706  0.0547 -0.2059
  213MPD1    C5 3291   4.209   1.178  15.921  0.0403 -0.6471  0.4655
  213MPD1     H 3292   3.946   0.942  15.798  0.2902  0.3105 -1.8476
  213MPD1    H1 3293   4.315   1.161  15.744  0.5383 -1.8349 -0.7599
  213MPD1    H2 3294   4.090   1.189  16.099  0.5652 -0.2103 -0.7676
  213MPD1    H3 3295   4.296   1.222  15.969  0.9311 -1.8529 -0.0205
  213MPD1     N 3296   4.112   0.996  15.620  0.1271  0.5440 -0.3257
  213MPD1    H5 3297   4.031   0.935  15.609  0.3194  0.6930 -2.6195
  213MPD1    N1 3298   3.900   1.036  16.048 -0.1866 -0.4055  1.0967
  213MPD1    H6 3299   3.813   0.995  16.015 -0.8686  0.5617  1.6958
  213MPD1    H7 3300   3.872   1.116  16.104  1.2227 -0.3996  1.7886
  214MPD1     C 3301   3.663   0.283  15.143  0.1509  0.3710 -0.0551
  214MPD1    C1 3302   3.738   0.288  15.255  0.4613  0.0499  0.0747
  214MPD1    C2 3303   3.815   0.400  15.272 -0.3389  0.1666  0.4622
  214MPD1    C3 3304   3.826   0.499  15.171 -0.6560  0.3574  0.2666
  214MPD1    C4 3305   3.757   0.483  15.055  0.0293  0.3181  0.2696
  214MPD1    C5 3306   3.671   0.380  15.050  0.1541  0.3332  0.5047
  214MPD1     H 3307   3.876   0.409  15.361 -0.4000  1.1529  0.3993
  214MPD1    H1 3308   3.752   0.557  14.976 -2.0955 -1.2600 -1.0866
  214MPD1    H2 3309   3.595   0.200  15.130 -0.1324  1.1016 -3.2866
  214MPD1    H3 3310   3.601   0.372  14.968  1.0992 -0.2711 -0.2463
  214MPD1     N 3311   3.902   0.621  15.178  0.5570  0.1111  0.0493
  214MPD1    H5 3312   3.903   0.667  15.087 -0.3028  0.6616  0.3170
  214MPD1    N1 3313   3.720   0.194  15.355 -0.1289  0.5871 -0.1564
  214MPD1    H6 3314   3.805   0.177  15.410  0.0430  0.5827 -0.4245
  214MPD1    H7 3315   3.695   0.102  15.319 -0.9292  0.5078  0.5987
  215MPD1     C 3316   4.011   1.769  10.526  0.1749 -0.4553  0.0233
  215MPD1    C1 3317   4.073   1.885  10.503  0.4330 -0.3977 -0.1971
  215MPD1    C2 3318   4.135   1.944  10.615  0.0119 -0.5035 -0.4032
  215MPD1    C3 3319   4.118   1.897  10.743  0.0207 -0.6403  0.3514
  215MPD1    C4 3320   4.028   1.789  10.767  0.2268  0.5150 -0.3773
  215MPD1    C5 3321   3.981   1.724  10.653  0.1399  0.3973  0.9283
  215MPD1     H 3322   4.202   2.028  10.606  1.5278 -1.5191  1.5110
  215MPD1    H1 3323   4.016   1.738  10.862  1.4090  0.7596 -0.0942
  215MPD1    H2 3324   3.964   1.724  10.439  0.0400  1.7509 -1.0483
  215MPD1    H3 3325   3.935   1.627  10.670 -3.1379  1.4335 -1.7896
  215MPD1     N 3326   4.181   1.972  10.852 -0.1289  0.1279  0.2344
  215MPD1    H5 3327   4.229   2.057  10.824  2.4693 -1.3117  0.2909
  215MPD1    N1 3328   4.111   1.932  10.379 -0.1956  0.0551  0.3142
  215MPD1    H6 3329   4.135   2.030  10.371 -2.0147  0.4589 -0.1240
  215MPD1    H7 3330   4.045   1.918  10.303 -1.0508  1.5697  0.7801
  216MPD1     C 3331   1.222   0.487  17.097 -0.0597  1.1896 -0.0037
  216MPD1    C1 3332   1.127   0.413  17.162  0.5993  0.4456  0.2600
  216MPD1    C2 3333   1.161   0.289  17.201 -0.5040  0.1075  0.6816
  216MPD1    C3 3334   1.277   0.230  17.153 -0.4040  0.1236 -0.1779
  216MPD1    C4 3335   1.366   0.294  17.071 -0.1229  0.2967 -0.5489
  216MPD1    C5 3336   1.338   0.427  17.056  0.1606  0.1568  0.0925
  216MPD1     H 3337   1.097   0.230  17.266 -1.3584  0.5825  0.2725
  216MPD1    H1 3338   1.466   0.258  17.049 -0.1292  1.9927 -3.3188
  216MPD1    H2 3339   1.213   0.593  17.076 -2.1224  0.5622 -2.3505
  216MPD1    H3 3340   1.417   0.483  17.006 -0.2979 -0.0401 -0.8519
  216MPD1     N 3341   1.312   0.095  17.187  0.4698  0.0206  0.8261
  216MPD1    H5 3342   1.253   0.048  17.255  0.0221 -0.6571 -0.0163
  216MPD1    N1 3343   1.008   0.480  17.205 -0.4199  0.2258  0.6178
  216MPD1    H6 3344   0.970   0.549  17.141 -0.7619 -2.1492 -1.7408
  216MPD1    H7 3345   0.939   0.408  17.223 -1.6372  1.4670  0.8705
  217MPD1     C 3346   1.820   0.560   8.509 -0.6789 -0.5652 -0.3292
  217MPD1    C1 3347   1.702   0.558   8.581 -0.4635 -0.1106  0.2562
  217MPD1    C2 3348   1.701   0.634   8.688  0.4533  0.0815  0.0381
  217MPD1    C3 3349   1.820   0.681   8.744 -0.5282  0.4170 -0.3714
  217MPD1    C4 3350   1.939   0.676   8.678 -0.3060  0.0968  0.0714
  217MPD1    C5 3351   1.939   0.614   8.554 -0.3566  0.5939 -0.0689
  217MPD1     H 3352   1.610   0.663   8.739  0.0557 -0.4533 -0.3726
  217MPD1    H1 3353   2.030   0.723   8.715  0.4346 -1.0391 -0.3165
  217MPD1    H2 3354   1.827   0.527   8.406  1.1203  2.8112 -1.3091
  217MPD1    H3 3355   2.032   0.604   8.499  0.0950  0.9764  0.6333
  217MPD1     N 3356   1.825   0.745   8.872 -1.1174  0.1153 -0.2636
  217MPD1    H5 3357   1.919   0.763   8.905 -0.2982 -0.3143 -2.3807
  217MPD1    N1 3358   1.582   0.541   8.509 -0.2525 -0.4760  0.4725
  217MPD1    H6 3359   1.507   0.513   8.573 -0.1316  0.6728  1.1115
  217MPD1    H7 3360   1.599   0.469   8.439  0.7278  2.4262 -2.2328
  218MPD1     C 3361   3.614   2.951  12.650  0.4742  0.5558  0.5594
  218MPD1    C1 3362   3.740   2.943  12.595 -0.5803  0.1432 -0.6677
  218MPD1    C2 3363   3.789   2.810  12.574  0.5392  0.2660  0.0080
  218MPD1    C3 3364   3.730   2.696  12.626  0.0826 -0.0014 -0.1771
  218MPD1    C4 3365   3.613   2.716  12.692 -0.0499 -1.1159 -0.3541
  218MPD1    C5 3366   3.554   2.837  12.703 -0.8219 -1.1561 -0.8350
  218MPD1     H 3367   3.877   2.799  12.511  0.9468  3.5077 -0.0332
  218MPD1    H1 3368   3.555   2.631  12.727 -0.3089 -0.6963  0.2235
  218MPD1    H2 3369   3.557   3.043  12.656 -0.4538 -0.1971  3.5113
  218MPD1    H3 3370   3.465   2.851  12.764 -0.1164 -1.2136  0.2008
  218MPD1     N 3371   3.790   2.566  12.614 -0.1307 -0.0092  0.3739
  218MPD1    H5 3372   3.862   2.549  12.545  0.1794  1.4158  0.3616
  218MPD1    N1 3373   3.791   3.055  12.534 -0.3364 -0.2362  0.6030
  218MPD1    H6 3374   3.760   3.133  12.591 -0.9222 -0.1823  0.2033
  218MPD1    H7 3375   3.893   3.052  12.526 -0.6077 -0.6177 -2.7346
  219MPD1     C 3376   3.885   1.897  11.900  0.4529 -0.5827  0.1969
  219MPD1    C1 3377   3.945   2.021  11.917  0.0677 -0.1519 -0.1886
  219MPD1    C2 3378   3.944   2.075  12.045  1.0150  0.1780  0.0593
  219MPD1    C3 3379   3.872   2.014  12.149  0.8988  0.6426 -0.3956
  219MPD1    C4 3380   3.815   1.897  12.133 -0.1606  0.6089  0.8021
  219MPD1    C5 3381   3.825   1.832  12.006 -0.4591 -0.4597  0.4136
  219MPD1     H 3382   3.987   2.173  12.060  0.0918  0.4369  1.0149
  219MPD1    H1 3383   3.749   1.848  12.204 -0.8946  1.5580  0.7813
  219MPD1    H2 3384   3.869   1.859  11.800  2.0007 -0.7803  0.0205
  219MPD1    H3 3385   3.765   1.743  11.993 -2.6713  1.0421  0.2941
  219MPD1     N 3386   3.855   2.069  12.276  0.4141 -0.1691 -0.3781
  219MPD1    H5 3387   3.808   2.009  12.343  2.2007 -1.7513 -0.5320
  219MPD1    N1 3388   4.006   2.081  11.806  1.3835 -0.2317  0.7208
  219MPD1    H6 3389   4.086   2.140  11.828  0.9723  0.2987  0.7898
  219MPD1    H7 3390   4.029   2.004  11.744  0.6649  1.3864 -1.5699
  220MPD1     C 3391   3.224   3.065   9.919  0.2346  0.6912 -0.0394
  220MPD1    C1 3392   3.222   2.931   9.898  0.1887 -0.2863 -0.1409
  220MPD1    C2 3393   3.319   2.857   9.964  0.2409 -0.1431 -0.6491
  220MPD1    C3 3394   3.400   2.913  10.066 -0.5783 -0.1332 -0.8677
  220MPD1    C4 3395   3.392   3.049  10.089 -0.0352  0.5805 -0.6927
  220MPD1    C5 3396   3.307   3.124  10.011  0.4612  0.2837 -0.1853
  220MPD1     H 3397   3.316   2.749   9.954  0.1030 -0.0286 -1.8124
  220MPD1    H1 3398   3.440   3.108  10.166  1.2960  0.1088 -1.1564
  220MPD1    H2 3399   3.158   3.136   9.870  0.9700  1.6195  0.3198
  220MPD1    H3 3400   3.299   3.231  10.027 -1.2410  0.2839 -1.0651
  220MPD1     N 3401   3.491   2.832  10.149  0.7741 -0.6817  0.2082
  220MPD1    H5 3402   3.480   2.731  10.143  0.3107 -0.6020 -0.2637
  220MPD1    N1 3403   3.148   2.874   9.790  0.1944  0.1340  0.2269
  220MPD1    H6 3404   3.051   2.903   9.780  1.4685  5.0677  2.1335
  220MPD1    H7 3405   3.130   2.775   9.809 -0.1188  0.2202  0.3709
  221MPD1     C 3406   1.358   1.414  17.107 -0.6608 -0.8877 -0.6447
  221MPD1    C1 3407   1.499   1.433  17.106  0.6770 -0.3069 -0.1703
  221MPD1    C2 3408   1.556   1.452  16.981  0.0134  0.0613  0.6011
  221MPD1    C3 3409   1.477   1.461  16.862 -0.5593 -0.2603  0.2055
  221MPD1    C4 3410   1.346   1.469  16.876 -0.0442 -0.2150  0.1930
  221MPD1    C5 3411   1.290   1.451  16.998 -0.7624 -0.8148 -0.3938
  221MPD1     H 3412   1.664   1.445  16.967 -0.1654  2.1517 -1.8315
  221MPD1    H1 3413   1.286   1.487  16.788 -0.3124 -0.7952  0.2543
  221MPD1    H2 3414   1.306   1.381  17.197 -0.2008  1.8562  0.6370
  221MPD1    H3 3415   1.182   1.462  17.005 -0.8426 -1.6429 -0.3538
  221MPD1     N 3416   1.537   1.486  16.738 -0.1215 -0.2406  0.6502
  221MPD1    H5 3417   1.475   1.498  16.658 -0.4444  0.5910  1.0182
  221MPD1    N1 3418   1.581   1.377  17.213  0.1035  0.0421  0.0234
  221MPD1    H6 3419   1.676   1.414  17.212 -0.1089  0.5654 -1.3587
  221MPD1    H7 3420   1.545   1.381  17.308 -0.4331 -0.2967 -0.1679
  222MPD1     C 3421   0.736   0.022   0.179  0.4847  0.3093 -0.6440
  222MPD1    C1 3422   0.763   0.132   0.101 -0.0107  0.3224  1.0814
  222MPD1    C2 3423   0.759   0.259   0.159 -0.2788  0.2888 -0.6258
  222MPD1    C3 3424   0.707   0.278   0.285 -0.0731 -0.0102 -0.2134
  222MPD1    C4 3425   0.681   0.168   0.359  1.0005 -0.2403 -0.2082
  222MPD1    C5 3426   0.698   0.045   0.306 -0.2552  0.6503  0.1334
  222MPD1     H 3427   0.788   0.337   0.089 -0.9616  2.6336  1.7097
  222MPD1    H1 3428   0.642   0.174   0.460 -0.5225 -0.1329 -0.8017
  222MPD1    H2 3429   0.737   4.657   0.136  0.8822  0.4294 -0.9225
  222MPD1    H3 3430   0.685   4.693   0.369 -2.6444  0.4562 -0.6299
  222MPD1     N 3431   0.686   0.402   0.353 -0.6421 -0.0437  0.5314
  222MPD1    H5 3432   0.655   0.404   0.450  1.3983  0.1069  1.1699
  222MPD1    N1 3433   0.828   0.106  17.713 -0.6859  0.4603  0.0189
  222MPD1    H6 3434   0.838   0.191  17.659  3.5252 -0.6949 -1.0243
  222MPD1    H7 3435   0.761   0.043  17.669  1.2239 -1.4201 -0.1609
  223MPD1     C 3436   1.210   0.626   0.994  0.1902  0.0980  0.0825
  223MPD1    C1 3437   1.221   0.548   0.882 -0.0462  0.2517 -0.1443
  223MPD1    C2 3438   1.112   0.547   0.797 -0.2970  0.0285 -0.3978
  223MPD1    C3 3439   0.990   0.609   0.831 -0.5195 -0.0651 -0.1154
  223MPD1    C4 3440   0.981   0.675   0.953 -0.0429 -0.0043  0.2653
  223MPD1    C5 3441   1.091   0.682   1.030  0.5076 -0.2298  0.0660
  223MPD1     H 3442   1.111   0.487   0.707 -1.0817  1.6323 -1.4702
  223MPD1    H1 3443   0.899   0.735   0.989  1.0834  1.7752 -0.1309
  223MPD1    H2 3444   1.298   0.639   1.056 -0.9859 -0.1708  1.8040
  223MPD1    H3 3445   1.085   0.748   1.116 -1.0031 -3.7194  2.6195
  223MPD1     N 3446   0.884   0.610   0.733 -0.1450 -0.1207  0.1012
  223MPD1    H5 3447   0.907   0.557   0.650  1.8556  1.8985 -0.6443
  223MPD1    N1 3448   1.343   0.502   0.843  0.5525 -0.4674  1.0757
  223MPD1    H6 3449   1.350   0.445   0.759 -2.0704  1.8817 -0.7318
  223MPD1    H7 3450   1.398   0.454   0.913  1.0806 -1.0522  0.2621
  224MPD1     C 3451   1.702   1.075   8.767 -0.7201  0.4617 -0.1191
  224MPD1    C1 3452   1.575   1.074   8.829  0.3548  0.2772  0.3835
  224MPD1    C2 3453   1.564   1.150   8.944  0.0836 -0.8418 -0.3010
  224MPD1    C3 3454   1.671   1.219   8.993 -0.1376 -0.4337 -0.2198
  224MPD1    C4 3455   1.800   1.206   8.940 -0.7712  0.1990 -0.4628
  224MPD1    C5 3456   1.811   1.134   8.823  0.3684  0.0905 -0.4045
  224MPD1     H 3457   1.466   1.166   8.988 -0.3599 -1.3323 -1.0994
  224MPD1    H1 3458   1.881   1.269   8.975  0.5988 -0.8669 -1.7344
  224MPD1    H2 3459   1.724   1.011   8.683 -0.5760 -0.3129  0.5012
  224MPD1    H3 3460   1.907   1.122   8.773  0.4109  0.6360 -0.4585
  224MPD1     N 3461   1.657   1.316   9.093  0.1548 -0.4501  0.0739
  224MPD1    H5 3462   1.745   1.361   9.115  0.6409 -0.8538 -1.0806
  224MPD1    N1 3463   1.462   1.012   8.769  0.2769 -0.6166 -0.3903
  224MPD1    H6 3464   1.490   0.922   8.729  1.6277 -0.6515  0.6341
  224MPD1    H7 3465   1.389   0.983   8.834 -1.5414  2.3452 -1.1492
  225MPD1     C 3466   4.196   2.974  12.173 -0.5525  0.1396 -0.0831
  225MPD1    C1 3467   4.133   2.867  12.118 -0.5593 -0.6295  0.1831
  225MPD1    C2 3468   3.995   2.861  12.122 -0.3320  0.8751  0.2093
  225MPD1    C3 3469   3.918   2.964  12.187 -0.7909  0.0543  0.1728
  225MPD1    C4 3470   3.987   3.066  12.251  0.1601  0.3309  0.5686
  225MPD1    C5 3471   4.119   3.066  12.252  0.2667  0.3356 -0.0639
  225MPD1     H 3472   3.938   2.780  12.077  1.0428 -0.3829  0.7444
  225MPD1    H1 3473   3.929   3.142  12.302  0.4181 -0.6793  2.3666
  225MPD1    H2 3474   4.304   2.981  12.158 -0.4773 -2.7684 -0.9194
  225MPD1    H3 3475   4.176   3.150  12.290 -1.2089  1.1492  0.3475
  225MPD1     N 3476   3.783   2.957  12.214 -0.3720  0.2600 -0.0585
  225MPD1    H5 3477   3.756   3.003  12.301  0.0687 -0.8689  0.6726
  225MPD1    N1 3478   4.193   2.760  12.049 -0.5262 -0.4641 -0.1875
  225MPD1    H6 3479   4.130   2.682  12.033 -0.1821 -1.0084  1.1379
  225MPD1    H7 3480   4.284   2.740  12.089 -1.2677  0.2994  1.8513
  226MPD1     C 3481   1.946   2.844   9.752 -0.9868 -0.0906 -0.8584
  226MPD1    C1 3482   1.949   2.979   9.779 -0.1676  0.1212  1.4410
  226MPD1    C2 3483   2.064   3.037   9.805  0.0151 -0.2101  0.0000
  226MPD1    C3 3484   2.187   2.970   9.799 -0.0846 -0.6311  0.2494
  226MPD1    C4 3485   2.184   2.841   9.756 -0.8767  0.6129 -0.5855
  226MPD1    C5 3486   2.064   2.781   9.736 -0.8414 -0.4290  0.4446
  226MPD1     H 3487   2.068   3.144   9.826 -0.4437 -0.5671  1.9722
  226MPD1    H1 3488   2.272   2.783   9.732 -0.1209  0.7226  1.8606
  226MPD1    H2 3489   1.857   2.785   9.738 -2.4945  2.2063 -0.9396
  226MPD1    H3 3490   2.070   2.675   9.713  1.5744  0.0360 -1.0795
  226MPD1     N 3491   2.311   3.035   9.814 -0.2227 -0.3630  0.0590
  226MPD1    H5 3492   2.299   3.135   9.829 -1.4342 -0.6151  0.7098
  226MPD1    N1 3493   1.830   3.051   9.786 -0.2151  0.6698 -0.0708
  226MPD1    H6 3494   1.849   3.136   9.734 -0.8876  1.6054  1.2127
  226MPD1    H7 3495   1.766   2.999   9.727  1.4720 -0.0503 -1.2901
  227MPD1     C 3496   2.748   3.903   9.743  1.0093 -0.0922 -0.4024
  227MPD1    C1 3497   2.762   3.861   9.875 -0.2242  0.3765 -0.6051
  227MPD1    C2 3498   2.730   3.726   9.906  0.0493 -0.0835 -0.5517
  227MPD1    C3 3499   2.690   3.639   9.798  0.0298  0.1408  0.3598
  227MPD1    C4 3500   2.685   3.690   9.672 -0.2671 -0.3202 -0.7132
  227MPD1    C5 3501   2.706   3.822   9.643  0.2504 -0.1985  0.0819
  227MPD1     H 3502   2.752   3.682  10.003  1.0901 -1.4054 -1.3849
  227MPD1    H1 3503   2.667   3.620   9.592  1.8606  2.1345 -3.3640
  227MPD1    H2 3504   2.776   4.003   9.714 -1.9413  0.6245 -0.8273
  227MPD1    H3 3505   2.700   3.862   9.543 -1.5223  1.3048  0.8038
  227MPD1     N 3506   2.681   3.503   9.828  0.0068  0.0070 -0.2793
  227MPD1    H5 3507   2.705   3.469   9.920 -1.3176 -1.0823 -0.3515
  227MPD1    N1 3508   2.812   3.940   9.981  0.6782 -0.1432 -0.7081
  227MPD1    H6 3509   2.768   3.915  10.069  0.1470  2.0999 -0.3316
  227MPD1    H7 3510   2.826   4.041   9.971 -1.5354  0.1911 -0.5099
  228MPD1     C 3511   0.928   0.583  12.457 -0.2551  0.2811  0.0068
  228MPD1    C1 3512   0.825   0.561  12.367 -0.0429 -0.3388 -0.3595
  228MPD1    C2 3513   0.695   0.564  12.409 -0.3585  0.1829  0.0336
  228MPD1    C3 3514   0.665   0.571  12.541  0.6787 -0.4865 -0.0452
  228MPD1    C4 3515   0.773   0.593  12.625 -0.1141  0.0199 -0.7676
  228MPD1    C5 3516   0.897   0.607  12.586 -0.2561 -0.2820 -0.0276
  228MPD1     H 3517   0.614   0.547  12.339 -0.7792 -0.7257  0.7473
  228MPD1    H1 3518   0.757   0.612  12.730  0.1037 -0.3480 -0.6657
  228MPD1    H2 3519   1.028   0.605  12.421 -0.0485 -1.4602 -0.4564
  228MPD1    H3 3520   0.967   0.634  12.664  0.4914 -0.3981 -0.6571
  228MPD1     N 3521   0.530   0.557  12.578 -0.0469 -0.0042  0.0354
  228MPD1    H5 3522   0.459   0.553  12.506 -0.3169  1.8255  0.2050
  228MPD1    N1 3523   0.861   0.547  12.235 -0.1671 -0.5703 -0.5060
  228MPD1    H6 3524   0.808   0.609  12.174  0.4436  0.8997  0.4613
  228MPD1    H7 3525   0.956   0.568  12.207 -0.3697  2.2571  0.9592
  229MPD1     C 3526   0.031   4.342  14.501  0.7091  0.0597 -0.0340
  229MPD1    C1 3527   0.049   4.218  14.452 -0.0862 -0.0134  0.7247
  229MPD1    C2 3528   0.113   4.125  14.533 -0.5577 -0.1157  0.3203
  229MPD1    C3 3529   0.160   4.154  14.659  0.0300  0.0510 -0.1262
  229MPD1    C4 3530   0.130   4.273  14.709  0.0913  0.3967  0.0005
  229MPD1    C5 3531   0.071   4.366  14.627 -0.4914  0.2788  0.3001
  229MPD1     H 3532   0.134   4.025  14.497 -1.1200 -0.7767  1.8096
  229MPD1    H1 3533   0.158   4.296  14.811  3.6109  0.4755 -0.9562
  229MPD1    H2 3534   4.722   4.425  14.445 -0.4545  0.0562  0.8814
  229MPD1    H3 3535   0.072   4.467  14.667  0.4025  0.2157  0.4507
  229MPD1     N 3536   0.239   4.072  14.737 -0.4471  0.1137  0.6631
  229MPD1    H5 3537   0.275   4.092  14.829  2.1407 -0.4886 -0.2095
  229MPD1    N1 3538   0.033   4.187  14.315  0.3782 -0.6273  0.0617
  229MPD1    H6 3539   0.015   4.089  14.294 -1.7442 -0.2995  0.3546
  229MPD1    H7 3540   4.696   4.248  14.276 -1.6110 -3.6152 -0.9447
  230MPD1     C 3541   0.243   4.122  15.579 -0.3501  0.4557  0.4016
  230MPD1    C1 3542   0.140   4.097  15.493 -1.4346  0.2252  0.0408
  230MPD1    C2 3543   0.172   4.034  15.380  0.2915 -0.2533 -0.2892
  230MPD1    C3 3544   0.299   3.993  15.344 -0.5987  0.0857 -0.0736
  230MPD1    C4 3545   0.398   4.011  15.437 -0.3784 -0.1580  0.4168
  230MPD1    C5 3546   0.370   4.082  15.553 -0.4560 -0.0458 -0.3802
  230MPD1     H 3547   0.085   4.006  15.321 -1.6223  2.3454  1.3230
  230MPD1    H1 3548   0.500   3.980  15.420 -0.1157  1.3219 -0.7011
  230MPD1    H2 3549   0.234   4.193  15.661 -3.0092  0.7212 -0.1263
  230MPD1    H3 3550   0.457   4.099  15.616 -0.1729 -1.0399 -0.4987
  230MPD1     N 3551   0.325   3.941  15.218 -1.0173 -0.4738  0.4944
  230MPD1    H5 3552   0.247   3.940  15.152 -0.3746 -1.0021 -0.2541
  230MPD1    N1 3553   0.011   4.148  15.509  0.5589 -0.4889 -0.5085
  230MPD1    H6 3554   4.683   4.078  15.469  1.7289 -0.5835 -2.1833
  230MPD1    H7 3555   4.723   4.143  15.608  1.4689 -3.6741 -0.4390
  231MPD1     C 3556   3.783   1.092  15.567  0.2389  0.3681 -0.4554
  231MPD1    C1 3557   3.786   0.968  15.507 -0.4374 -0.0377  0.1111
  231MPD1    C2 3558   3.780   0.956  15.372  0.4429 -0.3878 -0.4493
  231MPD1    C3 3559   3.747   1.066  15.290 -0.0700 -0.2725 -0.4739
  231MPD1    C4 3560   3.721   1.187  15.349 -0.6444 -0.0406 -0.4253
  231MPD1    C5 3561   3.746   1.197  15.492 -0.3139  0.3679 -0.2020
  231MPD1     H 3562   3.781   0.855  15.332  1.4251 -0.7741  0.5481
  231MPD1    H1 3563   3.682   1.273  15.294 -0.0225  0.1714 -0.5338
  231MPD1    H2 3564   3.785   1.106  15.675 -0.5076 -1.1423 -0.2402
  231MPD1    H3 3565   3.720   1.294  15.534 -0.0063  0.2693  0.2113
  231MPD1     N 3566   3.740   1.046  15.153  0.4678  0.0088 -0.9169
  231MPD1    H5 3567   3.756   0.952  15.119  0.5426  0.6529 -2.6236
  231MPD1    N1 3568   3.826   0.857  15.583  0.7317 -0.4289  0.2452
  231MPD1    H6 3569   3.804   0.766  15.545  0.0915 -0.1463 -0.0610
  231MPD1    H7 3570   3.785   0.856  15.676 -0.3100 -1.3968 -0.2262
  232MPD1     C 3571   0.600   3.555   0.125 -0.8607  0.8172  0.3680
  232MPD1    C1 3572   0.504   3.488   0.193  0.1295  0.0275  0.2246
  232MPD1    C2 3573   0.379   3.482   0.134 -0.0554 -0.6499  0.7766
  232MPD1    C3 3574   0.357   3.549   0.016 -0.9193 -0.5651  0.1577
  232MPD1    C4 3575   0.458   3.618  17.691 -0.4948  0.5238  0.6850
  232MPD1    C5 3576   0.582   3.624   0.014 -0.1432  0.2687 -0.0030
  232MPD1     H 3577   0.297   3.432   0.184  0.2691 -0.4267  1.5292
  232MPD1    H1 3578   0.452   3.667  17.594 -0.5585  0.7860  0.8202
  232MPD1    H2 3579   0.700   3.555   0.165 -0.6442 -0.8072 -0.1929
  232MPD1    H3 3580   0.668   3.670  17.706  0.1619 -1.4113 -1.0800
  232MPD1     N 3581   0.225   3.538  17.706 -0.4099  0.2606  0.4693
  232MPD1    H5 3582   0.156   3.490   0.024 -0.3005 -0.6415 -0.1744
  232MPD1    N1 3583   0.543   3.412   0.303  0.6940  0.1107  0.5451
  232MPD1    H6 3584   0.609   3.455   0.368  0.7394 -0.8971  1.1625
  232MPD1    H7 3585   0.459   3.393   0.357  1.1082 -1.5193  0.6413
  233MPD1     C 3586   0.723   1.898   0.568  0.9386  0.0582 -0.2322
  233MPD1    C1 3587   0.791   2.018   0.575 -0.7521  0.1291  0.3186
  233MPD1    C2 3588   0.898   2.021   0.662  0.2026 -0.7413  0.0967
  233MPD1    C3 3589   0.929   1.915   0.743 -0.1630 -0.3252 -0.6992
  233MPD1    C4 3590   0.843   1.812   0.747 -0.2052 -0.4593  0.1250
  233MPD1    C5 3591   0.742   1.799   0.659  0.0979  0.3806  0.5204
  233MPD1     H 3592   0.951   2.114   0.681 -0.9786 -0.0764  0.0980
  233MPD1    H1 3593   0.860   1.726   0.810 -0.3118  1.0818  2.2408
  233MPD1    H2 3594   0.637   1.880   0.504  1.1097  0.6917 -0.6417
  233MPD1    H3 3595   0.675   1.714   0.660  2.4055 -1.4620 -1.4609
  233MPD1     N 3596   1.049   1.905   0.823 -0.4425  0.1054  0.2184
  233MPD1    H5 3597   1.051   1.831   0.892 -1.2768  0.0174  0.1472
  233MPD1    N1 3598   0.766   2.120   0.481 -0.6906 -0.4172 -0.1661
  233MPD1    H6 3599   0.665   2.121   0.468 -0.3658 -1.1179 -2.7403
  233MPD1    H7 3600   0.768   2.210   0.528  0.6227 -0.0597 -0.9128
  234MPD1     C 3601   3.141   1.367  10.129 -0.5850  0.9259 -0.3864
  234MPD1    C1 3602   3.081   1.488  10.125  0.2048  0.4168 -0.9539
  234MPD1    C2 3603   2.998   1.520  10.022  0.1181 -0.1641 -0.4867
  234MPD1    C3 3604   2.964   1.425   9.926 -0.0349  0.2136  0.0527
  234MPD1    C4 3605   3.011   1.296   9.949  0.0054  0.0710  0.0405
  234MPD1    C5 3606   3.098   1.265  10.049 -0.1100  0.7516 -0.1348
  234MPD1     H 3607   2.954   1.618  10.011  1.2141  0.4111  0.1434
  234MPD1    H1 3608   2.979   1.215   9.883  0.0397 -0.2250  0.3874
  234MPD1    H2 3609   3.222   1.361  10.202 -0.8602 -1.8183 -0.2997
  234MPD1    H3 3610   3.144   1.167  10.047 -2.0082 -0.1081 -1.2194
  234MPD1     N 3611   2.862   1.459   9.830 -0.7721 -0.2728  0.4363
  234MPD1    H5 3612   2.833   1.556   9.831 -0.5029 -0.1764 -0.8094
  234MPD1    N1 3613   3.122   1.590  10.214 -0.0692  0.2575 -0.0899
  234MPD1    H6 3614   3.104   1.574  10.313 -0.6065  1.2876 -0.0187
  234MPD1    H7 3615   3.082   1.681  10.192 -1.5792  0.0018  1.6801
  235MPD1     C 3616   1.069   2.758  10.622  0.6521 -0.8461  0.2781
  235MPD1    C1 3617   0.990   2.829  10.711 -0.2005 -0.7906  0.7619
  235MPD1    C2 3618   0.952   2.957  10.683  0.0692 -0.4371 -0.4941
  235MPD1    C3 3619   0.999   3.018  10.564 -0.1772  0.3631 -0.2332
  235MPD1    C4 3620   1.078   2.945  10.470 -0.1056 -0.1267 -0.5121
  235MPD1    C5 3621   1.116   2.814  10.503  0.1655  0.0515  0.0542
  235MPD1     H 3622   0.873   3.004  10.740  0.6856 -0.2306  0.1838
  235MPD1    H1 3623   1.109   2.986  10.375 -1.9163 -0.8027 -1.4047
  235MPD1    H2 3624   1.087   2.651  10.625  1.3810 -0.7044  0.8199
  235MPD1    H3 3625   1.174   2.756  10.431 -1.3964 -0.2098 -0.9893
  235MPD1     N 3626   0.953   3.147  10.534  0.0148  0.0271  0.6464
  235MPD1    H5 3627   0.887   3.175  10.606  0.6163 -1.3230  1.7169
  235MPD1    N1 3628   0.927   2.758  10.811 -1.0088 -0.0310 -0.0994
  235MPD1    H6 3629   0.911   2.814  10.895  1.4382  1.1665 -0.4198
  235MPD1    H7 3630   0.984   2.680  10.845 -1.2157 -0.3366 -0.4584
  236MPD1     C 3631   3.012   0.045   9.821 -0.2007 -0.6091 -0.5465
  236MPD1    C1 3632   3.007   4.642   9.805  0.1647 -0.5933 -1.2239
  236MPD1    C2 3633   3.124   4.571   9.838  0.2157 -0.1159  0.2047
  236MPD1    C3 3634   3.245   4.633   9.880  0.5222  0.0173  0.4477
  236MPD1    C4 3635   3.249   0.040   9.867 -0.0600  0.3318 -0.4715
  236MPD1    C5 3636   3.130   0.106   9.844  0.3179 -0.2457  0.2896
  236MPD1     H 3637   3.115   4.464   9.825  0.2279  0.2219 -2.5885
  236MPD1    H1 3638   3.344   0.089   9.884  0.2888 -0.4612 -0.1217
  236MPD1    H2 3639   2.929   0.115   9.827  0.7155  0.4916 -0.8029
  236MPD1    H3 3640   3.131   0.214   9.853  1.0990 -0.3048  0.9291
  236MPD1     N 3641   3.361   4.560   9.921  0.6151  0.0747  1.1172
  236MPD1    H5 3642   3.446   4.614   9.935  0.1707  0.7169  1.3093
  236MPD1    N1 3643   2.886   4.575   9.798  0.4517 -0.4907  0.4455
  236MPD1    H6 3644   2.806   4.635   9.776  0.4702 -0.2932  0.9378
  236MPD1    H7 3645   2.880   4.488   9.746 -1.8482 -1.2071  1.9093
  237MPD1     C 3646   3.887   2.554  14.388 -0.4418 -0.2644 -0.4357
  237MPD1    C1 3647   3.884   2.412  14.377  0.7234 -0.6309  0.8072
  237MPD1    C2 3648   3.769   2.352  14.427  0.2315 -0.9817  0.0256
  237MPD1    C3 3649   3.658   2.426  14.480 -0.7100 -0.1035  0.0062
  237MPD1    C4 3650   3.667   2.557  14.484  0.6619 -0.2314 -0.3539
  237MPD1    C5 3651   3.779   2.626  14.433 -0.4020 -0.1520 -0.1701
  237MPD1     H 3652   3.761   2.244  14.435  0.9830 -1.2088 -2.4710
  237MPD1    H1 3653   3.585   2.622  14.514  0.9198 -0.4899  0.9001
  237MPD1    H2 3654   3.972   2.604  14.342 -0.2461  0.5240  0.7936
  237MPD1    H3 3655   3.777   2.734  14.427  1.5502 -0.0220  1.4575
  237MPD1     N 3656   3.542   2.361  14.532 -0.1770  0.5327  0.2628
  237MPD1    H5 3657   3.469   2.419  14.571  0.1344  1.6128 -0.7501
  237MPD1    N1 3658   3.994   2.336  14.341 -0.4002  0.0719  0.1254
  237MPD1    H6 3659   3.983   2.249  14.289  1.3303 -0.3428  0.4510
  237MPD1    H7 3660   4.052   2.400  14.287 -0.8487  0.2517 -0.1474
  238MPD1     C 3661   0.727   1.003  14.845 -0.2608 -0.8547  0.0584
  238MPD1    C1 3662   0.702   0.867  14.847  0.3696  0.2745  0.0432
  238MPD1    C2 3663   0.581   0.822  14.804  0.3641 -0.1436 -0.8744
  238MPD1    C3 3664   0.478   0.897  14.759  0.5358  0.0782  0.7038
  238MPD1    C4 3665   0.509   1.034  14.747 -0.0081 -0.3223 -0.1811
  238MPD1    C5 3666   0.632   1.078  14.786  0.3633  0.5442  0.4774
  238MPD1     H 3667   0.573   0.716  14.783 -1.5741 -0.0433 -0.7043
  238MPD1    H1 3668   0.439   1.110  14.715 -0.1239 -1.0111 -1.5660
  238MPD1    H2 3669   0.819   1.049  14.878 -1.3670  2.3261 -1.3556
  238MPD1    H3 3670   0.654   1.183  14.769 -0.1274  0.6871  0.7335
  238MPD1     N 3671   0.351   0.845  14.725 -0.0652 -0.0477 -0.2210
  238MPD1    H5 3672   0.278   0.900  14.683  0.1076  0.3544  0.0076
  238MPD1    N1 3673   0.809   0.776  14.883 -0.4033 -0.1042  0.0253
  238MPD1    H6 3674   0.782   0.701  14.945  1.3649 -1.0514 -0.3466
  238MPD1    H7 3675   0.885   0.831  14.922 -0.9922  1.3446 -0.8646
  239MPD1     C 3676   0.726   1.764  14.975 -0.3824 -0.0679  0.2477
  239MPD1    C1 3677   0.598   1.811  14.984  0.4028  0.3486  0.5486
  239MPD1    C2 3678   0.546   1.873  14.878  0.3826 -0.7089  0.5031
  239MPD1    C3 3679   0.626   1.920  14.777  1.2713  0.7450 -0.0104
  239MPD1    C4 3680   0.756   1.882  14.775  0.7560 -0.4593 -0.3980
  239MPD1    C5 3681   0.800   1.799  14.870  0.2401 -0.1125  0.1819
  239MPD1     H 3682   0.441   1.899  14.886  0.7743 -0.0026  3.1957
  239MPD1    H1 3683   0.816   1.926  14.696 -1.6054 -0.0297 -1.9739
  239MPD1    H2 3684   0.769   1.709  15.058  1.4741  0.3022 -0.4666
  239MPD1    H3 3685   0.899   1.755  14.870  0.5528  0.5833 -0.1584
  239MPD1     N 3686   0.571   2.003  14.672 -0.2632  0.3161  0.4117
  239MPD1    H5 3687   0.638   2.022  14.598  0.8600 -0.5674  1.1886
  239MPD1    N1 3688   0.521   1.749  15.087 -0.1300 -0.8531 -0.1709
  239MPD1    H6 3689   0.578   1.718  15.166 -0.7982 -2.3557 -0.2795
  239MPD1    H7 3690   0.448   1.813  15.116  2.4465  1.1637  1.8748
  240MPD1     C 3691   4.625   1.925  13.698  0.5593 -0.0292 -0.4505
  240MPD1    C1 3692   4.510   1.853  13.655 -0.1668 -0.5338  0.2886
  240MPD1    C2 3693   4.481   1.737  13.720  0.3320  0.2451  0.0073
  240MPD1    C3 3694   4.549   1.696  13.831  0.0119  0.6625 -0.0073
  240MPD1    C4 3695   4.663   1.767  13.879 -0.2468  0.5604  0.1640
  240MPD1    C5 3696   4.694   1.886  13.810  0.3002  0.0980  0.1070
  240MPD1     H 3697   4.396   1.684  13.679  0.1620  1.2444 -0.9239
  240MPD1    H1 3698   4.724   1.728  13.960  1.0779  1.7295 -0.2725
  240MPD1    H2 3699   4.653   2.023  13.662 -1.1148  0.2852 -0.8835
  240MPD1    H3 3700   0.049   1.937  13.841  0.1475  0.3965  0.0597
  240MPD1     N 3701   4.492   1.586  13.898  0.3455  0.2559  0.0520
  240MPD1    H5 3702   4.408   1.539  13.866 -0.0273  1.1633 -0.3035
  240MPD1    N1 3703   4.451   1.889  13.532 -0.0436 -0.5338  0.6442
  240MPD1    H6 3704   4.351   1.869  13.533  0.5741 -3.6076  1.2426
  240MPD1    H7 3705   4.454   1.990  13.519 -2.3786 -0.6168 -0.5461
  241MPD1     C 3706   4.542   0.996  14.843  0.2305  0.4498 -0.0181
  241MPD1    C1 3707   4.603   1.108  14.790  0.8980 -0.0117 -0.8120
  241MPD1    C2 3708   4.570   1.152  14.663 -0.6512  0.3459  0.5421
  241MPD1    C3 3709   4.474   1.099  14.583  0.1479 -0.1508  0.1571
  241MPD1    C4 3710   4.403   0.996  14.646  0.2332 -0.2625 -0.0415
  241MPD1    C5 3711   4.438   0.950  14.772 -0.5089  0.3394 -0.2287
  241MPD1     H 3712   4.635   1.224  14.616 -0.2162 -0.1049  0.4522
  241MPD1    H1 3713   4.319   0.950  14.596  0.4558  1.9053 -2.4216
  241MPD1    H2 3714   4.554   0.960  14.945 -0.8251  0.1200 -0.0070
  241MPD1    H3 3715   4.382   0.868  14.817 -1.9664  2.2663  1.4248
  241MPD1     N 3716   4.450   1.139  14.452 -0.1260  0.3213 -0.0395
  241MPD1    H5 3717   4.385   1.080  14.402 -1.8429 -0.1736  2.7860
  241MPD1    N1 3718   4.717   1.155  14.857 -0.3341 -0.3916 -0.8415
  241MPD1    H6 3719   0.001   1.253  14.838  1.2415 -0.2869  1.2271
  241MPD1    H7 3720   4.709   1.135  14.957 -1.2572  1.5264 -0.5177
  242MPD1     C 3721   4.681   0.513  15.475 -0.2035  0.5649 -0.1087
  242MPD1    C1 3722   4.584   0.431  15.422 -0.3065 -0.0398 -0.1864
  242MPD1    C2 3723   4.599   0.386  15.294 -0.6737 -0.0442  0.4237
  242MPD1    C3 3724   4.713   0.413  15.216 -0.2360  0.0138 -0.2440
  242MPD1    C4 3725   0.080   0.484  15.272  0.4429  0.4474  0.3210
  242MPD1    C5 3726   0.061   0.536  15.398 -0.6269 -0.0344  1.1795
  242MPD1     H 3727   4.527   0.313  15.258  0.1439 -0.7373  0.1982
  242MPD1    H1 3728   0.173   0.492  15.216 -1.8278 -0.0222 -3.5128
  242MPD1    H2 3729   4.677   0.546  15.578  0.0182  0.4329 -0.0581
  242MPD1    H3 3730   0.137   0.596  15.446  1.0649 -0.2862 -1.2158
  242MPD1     N 3731   4.734   0.356  15.091  0.0498 -0.1837 -0.4000
  242MPD1    H5 3732   0.093   0.365  15.053 -0.2397 -0.1929 -1.1292
  242MPD1    N1 3733   4.478   0.389  15.505  0.0366 -0.7433  0.7392
  242MPD1    H6 3734   4.459   0.457  15.578  2.4748  2.2756 -1.4712
  242MPD1    H7 3735   4.404   0.352  15.446 -0.2298 -0.0706  0.6507
  243MPD1     C 3736   0.676   3.788  17.402  0.1134 -0.1867  0.2366
  243MPD1    C1 3737   0.805   3.825  17.374 -0.0761 -1.1445  1.2260
  243MPD1    C2 3738   0.895   3.723  17.349 -0.0645  0.3676  0.1519
  243MPD1    C3 3739   0.866   3.587  17.365 -0.3051 -0.2844 -0.5602
  243MPD1    C4 3740   0.733   3.552  17.391  0.3275 -0.5625 -0.2333
  243MPD1    C5 3741   0.640   3.660  17.407 -0.3100  0.6959  0.5249
  243MPD1     H 3742   0.991   3.749  17.308  0.9008 -2.5331  0.5681
  243MPD1    H1 3743   0.702   3.449  17.407 -1.1554 -0.0654  0.0713
  243MPD1    H2 3744   0.597   3.862  17.404  0.6409  0.3215  1.9640
  243MPD1    H3 3745   0.534   3.640  17.421 -0.9432  2.9913 -1.0507
  243MPD1     N 3746   0.963   3.495  17.329  0.0468 -0.2979 -0.3676
  243MPD1    H5 3747   1.048   3.541  17.297 -0.8190  0.6391 -1.2984
  243MPD1    N1 3748   0.827   3.954  17.338 -0.3517 -0.2949 -0.4735
  243MPD1    H6 3749   0.771   4.026  17.385 -0.8736 -1.5735  0.8561
  243MPD1    H7 3750   0.924   3.977  17.355 -0.3557 -1.1812  0.7111
  244MPD1     C 3751   1.420   2.528  17.483  0.2549  0.3027 -0.1768
  244MPD1    C1 3752   1.462   2.575  17.361  0.5920  0.0028 -0.0157
  244MPD1    C2 3753   1.446   2.716  17.341  0.0306 -0.1983  1.1625
  244MPD1    C3 3754   1.397   2.802  17.438  0.3708 -0.3589  0.3944
  244MPD1    C4 3755   1.368   2.747  17.556  0.0008  1.1259  0.2601
  244MPD1    C5 3756   1.387   2.612  17.580 -0.4470  0.8858 -0.0538
  244MPD1     H 3757   1.460   2.758  17.242  0.2726 -3.4367 -0.1531
  244MPD1    H1 3758   1.318   2.806  17.632  0.0776  0.8952  0.4933
  244MPD1    H2 3759   1.420   2.422  17.505  0.0320  0.3389 -0.0043
  244MPD1    H3 3760   1.362   2.575  17.678 -2.0446  0.1098 -0.7598
  244MPD1     N 3761   1.352   2.927  17.399 -0.8433 -0.1679 -0.1053
  244MPD1    H5 3762   1.343   2.944  17.299 -0.8524  0.4511  0.0033
  244MPD1    N1 3763   1.484   2.482  17.257 -0.3734  1.2488 -0.3002
  244MPD1    H6 3764   1.554   2.510  17.188 -0.9069  1.0521 -0.9206
  244MPD1    H7 3765   1.514   2.395  17.301  1.8952  1.5542 -1.2216
  245MPD1     C 3766   3.484   3.139  13.763  0.1338  0.3319  0.1727
  245MPD1    C1 3767   3.500   3.235  13.867  0.2692  0.1006 -0.0395
  245MPD1    C2 3768   3.476   3.363  13.840 -0.4777  0.1590  0.0398
  245MPD1    C3 3769   3.433   3.407  13.717  0.2741  0.4044 -0.3960
  245MPD1    C4 3770   3.407   3.307  13.623  0.1235 -0.2477  0.2667
  245MPD1    C5 3771   3.428   3.176  13.653  0.0137 -0.1714 -0.3363
  245MPD1     H 3772   3.489   3.434  13.921 -1.7989  0.9379 -0.4219
  245MPD1    H1 3773   3.351   3.326  13.532  0.0141 -0.6131  0.2554
  245MPD1    H2 3774   3.509   3.033  13.771 -0.7206  0.0713 -0.5562
  245MPD1    H3 3775   3.405   3.103  13.576 -1.8914 -1.3073  1.2998
  245MPD1     N 3776   3.397   3.546  13.704  0.4396  0.4257  0.1396
  245MPD1    H5 3777   3.408   3.604  13.787  1.4188 -0.3753  0.5743
  245MPD1    N1 3778   3.554   3.196  13.993 -0.0366  0.5106 -0.4738
  245MPD1    H6 3779   3.539   3.098  14.018  0.4381  0.4195 -0.5473
  245MPD1    H7 3780   3.537   3.260  14.071 -1.3014  2.5880 -2.4822
  246MPD1     C 3781   4.718   0.197   8.958  0.8151 -0.1442  0.4355
  246MPD1    C1 3782   4.593   0.193   9.019  0.4997 -1.1955 -0.0279
  246MPD1    C2 3783   4.577   0.266   9.137 -0.8234 -0.1197 -0.7823
  246MPD1    C3 3784   4.677   0.344   9.195  0.0246  0.1962  0.3329
  246MPD1    C4 3785   0.057   0.357   9.129 -0.5169  0.7080 -0.2973
  246MPD1    C5 3786   0.079   0.282   9.018 -0.2509 -0.1632 -0.5735
  246MPD1     H 3787   4.484   0.268   9.191 -0.0469  1.1652  0.5211
  246MPD1    H1 3788   0.125   0.440   9.146  0.6505 -0.6275  1.5220
  246MPD1    H2 3789   0.005   0.145   8.865  0.2954 -1.4446  1.0371
  246MPD1    H3 3790   0.172   0.298   8.964  0.0096  1.2223  0.2901
  246MPD1     N 3791   4.637   0.423   9.311 -0.4142  0.6236  0.1672
  246MPD1    H5 3792   4.538   0.432   9.330 -0.8640 -0.8447 -1.4544
  246MPD1    N1 3793   4.504   0.090   8.976  0.1859  0.3108  0.3501
  246MPD1    H6 3794   4.413   0.101   9.020  0.0199 -1.6639  0.4901
  246MPD1    H7 3795   4.494   0.075   8.876 -0.3940 -0.1358  0.4698
  247MPD1     C 3796   3.192   4.629  16.804  0.4581 -0.1945 -0.8004
  247MPD1    C1 3797   3.150   4.544  16.900  1.0274 -0.6310  0.7966
  247MPD1    C2 3798   3.139   4.402  16.876 -0.4064  0.1001 -0.2437
  247MPD1    C3 3799   3.164   4.355  16.751 -0.1446 -0.2016  0.0688
  247MPD1    C4 3800   3.205   4.442  16.655 -0.7556 -0.2780 -0.0405
  247MPD1    C5 3801   3.231   4.570  16.686 -0.1434  0.0029 -0.0869
  247MPD1     H 3802   3.103   4.334  16.952  0.1158  1.3051  1.0943
  247MPD1    H1 3803   3.212   4.403  16.554 -4.5752 -0.4635 -0.2273
  247MPD1    H2 3804   3.178   0.002  16.809  1.1865 -0.1048 -0.7707
  247MPD1    H3 3805   3.254   4.634  16.602  0.0227  0.0961  0.0291
  247MPD1     N 3806   3.160   4.215  16.722  0.0075 -0.2328  0.0106
  247MPD1    H5 3807   3.195   4.180  16.634  2.3807  1.1667  0.4128
  247MPD1    N1 3808   3.085   4.610  17.004  0.2351 -0.6420 -0.5252
  247MPD1    H6 3809   3.099   4.561  17.092  0.9830  0.3098 -0.1059
  247MPD1    H7 3810   3.120   4.705  17.012  1.1291 -1.0905  0.7620
  248MPD1     C 3811   2.931   2.851  17.642  0.7575 -0.5922  0.2468
  248MPD1    C1 3812   2.876   2.976  17.654  0.7339  0.2953 -0.7870
  248MPD1    C2 3813   2.892   3.042   0.038 -0.8184 -0.0781  0.4964
  248MPD1    C3 3814   2.930   2.970   0.151  0.6471  0.3087  0.3105
  248MPD1    C4 3815   2.965   2.839   0.146 -0.1160  0.4403  0.7958
  248MPD1    C5 3816   2.982   2.783   0.015 -0.4383 -0.6328 -0.0983
  248MPD1     H 3817   2.861   3.145   0.046  1.0046  0.2500  3.3392
  248MPD1    H1 3818   3.010   2.776   0.222 -0.8257  1.6405  2.2110
  248MPD1    H2 3819   2.940   2.800  17.546 -1.8318 -1.0944  0.2803
  248MPD1    H3 3820   3.021   2.682   0.003  1.9528  0.4259 -1.2922
  248MPD1     N 3821   2.943   3.041   0.269  0.5552  0.1361 -0.2720
  248MPD1    H5 3822   2.913   3.138   0.274  2.9372  0.8644 -0.3297
  248MPD1    N1 3823   2.832   3.041  17.539  0.2146 -0.1120  0.4195
  248MPD1    H6 3824   2.767   2.978  17.492 -0.1909  0.2355  0.5111
  248MPD1    H7 3825   2.779   3.121  17.574 -0.5055 -0.9190  1.1935
  249MPD1     C 3826   4.565   2.637   9.785  0.4771  0.5956 -0.0444
  249MPD1    C1 3827   4.672   2.672   9.863  1.2287 -0.2690  0.2173
  249MPD1    C2 3828   4.729   2.792   9.840  0.2375 -0.4268 -0.2935
  249MPD1    C3 3829   4.676   2.887   9.754 -0.4801 -0.1942 -0.0360
  249MPD1    C4 3830   4.551   2.856   9.704 -0.0596  0.9182 -0.1293
  249MPD1    C5 3831   4.496   2.734   9.717  0.2458 -0.1634  0.3021
  249MPD1     H 3832   0.085   2.819   9.892  1.7250 -0.3553 -2.9276
  249MPD1    H1 3833   4.489   2.915   9.637  2.7542  2.9753 -0.9086
  249MPD1    H2 3834   4.522   2.538   9.795  1.6883 -0.0245 -1.0617
  249MPD1    H3 3835   4.406   2.718   9.659 -0.2669 -0.8313  1.2645
  249MPD1     N 3836   0.017   3.005   9.728  0.0139  0.3188 -0.4279
  249MPD1    H5 3837   0.103   3.023   9.778 -0.2951  0.9522 -0.1175
  249MPD1    N1 3838   4.732   2.573   9.944  0.6703  0.0178  0.6208
  249MPD1    H6 3839   4.657   2.509   9.970 -1.3676  1.7754 -0.9667
  249MPD1    H7 3840   0.055   2.604  10.021  1.1717  2.9581 -0.9630
  250MPD2     C 3841   0.974   2.151  12.914  0.6512  0.4683 -0.2080
  250MPD2    C1 3842   1.013   2.180  12.786 -0.3798 -0.4562 -0.1657
  250MPD2    C2 3843   0.974   2.097  12.680 -0.3087 -0.7183  0.0110
  250MPD2    C3 3844   0.892   1.984  12.710  0.5193 -0.4616  0.0263
  250MPD2    C4 3845   0.853   1.961  12.834  0.0282 -0.9192 -0.2621
  250MPD2    C5 3846   0.901   2.038  12.938  0.0355 -0.1448 -0.3501
  250MPD2     H 3847   0.994   2.123  12.577  3.6934  1.3637  1.2902
  250MPD2    H1 3848   0.782   1.881  12.854 -0.5021 -0.3461  0.1375
  250MPD2    H2 3849   0.988   2.209  13.005 -1.0984 -2.3603  1.8999
  250MPD2    H3 3850   0.858   2.016  13.035  3.8778  0.0188  1.3794
  250MPD2     N 3851   0.875   1.887  12.600  0.7141 -0.7141  0.2208
  250MPD2    H5 3852   0.849   1.792  12.624  1.1547 -1.0358 -0.5714
  250MPD2    N1 3853   1.085   2.303  12.763 -0.6771 -0.0600 -0.1058
  250MPD2    H7 3854   1.116   2.361  12.840  2.3987  0.7428 -1.9729
  251TMC3    C1 3855   1.158   2.496  12.659 -0.2152 -0.3688 -0.0880
  251TMC3    C2 3856   1.100   2.567  12.762  0.4512  0.2261  0.2504
  251TMC3    C3 3857   1.126   2.700  12.757  0.2789 -0.8533 -0.6608
  251TMC3    C4 3858   1.228   2.550  12.555  0.0582 -0.5133  0.2078
  251TMC3    C5 3859   1.263   2.685  12.561 -0.4872 -0.3606  0.1901
  251TMC3    C6 3860   1.208   2.761  12.666  0.3095 -0.6649 -0.1903
  251TMC3     C 3861   1.094   2.365  12.643  0.7578 -0.0386 -0.0571
  251TMC3     O 3862   1.097   2.321  12.528 -0.2329  0.2117  0.3419
  251TMC3     H 3863   1.037   2.517  12.835 -1.5911  1.2312 -0.8400
  251TMC3    H1 3864   1.260   2.491  12.469 -0.7792 -0.5495 -0.0752
  251TMC3    H2 3865   1.225   2.866  12.685  0.3854 -1.0174  1.6485
  251TMC3    C7 3866   1.373   2.725  12.484 -0.3394 -0.5942  0.5939
  251TMC3    C8 3867   1.077   2.782  12.867  0.3557 -0.9500  0.3284
  251TMC3    O1 3868   1.450   2.638  12.434 -0.4303  0.0670 -0.1798
  251TMC3    O2 3869   0.963   2.766  12.899 -0.3770  0.2186  0.6465
  252TMC3    C1 3870   1.086   4.170   9.085 -0.7319  1.2880 -0.1572
  252TMC3    C2 3871   1.219   4.188   9.060 -0.9515  0.3350  0.2251
  252TMC3    C3 3872   1.313   4.117   9.138 -0.5217 -0.0587 -0.0790
  252TMC3    C4 3873   1.044   4.085   9.180  0.5263  0.3693  0.5313
  252TMC3    C5 3874   1.141   4.027   9.261  0.4364 -0.4857  0.1818
  252TMC3    C6 3875   1.272   4.033   9.234 -0.0376 -0.3918 -0.1970
  252TMC3     C 3876   0.986   4.246   9.020  0.3250  0.6327 -0.5311
  252TMC3     O 3877   0.877   4.194   9.000 -0.4772  0.9557  0.7678
  252TMC3     H 3878   1.262   4.263   8.996  1.9076 -2.1545 -0.7877
  252TMC3    H1 3879   0.937   4.072   9.192  0.3794  0.6468 -0.4846
  252TMC3    H2 3880   1.344   3.977   9.293 -0.4710 -0.9936 -0.2446
  252TMC3    C7 3881   1.090   3.936   9.357  0.1890  0.0284  0.1274
  252TMC3    C8 3882   1.453   4.144   9.127  0.0295  0.3471  0.6014
  252TMC3    O1 3883   0.980   3.957   9.410  0.3186 -0.1056 -0.0638
  252TMC3    O2 3884   1.481   4.181   9.013  0.7123  0.2859 -0.2977
  253MPD2     C 3885   2.981   2.310  15.203  0.1259 -0.2614 -0.1546
  253MPD2    C1 3886   2.851   2.263  15.190  0.2425 -0.5786 -0.4104
  253MPD2    C2 3887   2.791   2.196  15.297  0.0847 -0.3002  0.2583
  253MPD2    C3 3888   2.852   2.196  15.427 -0.5478 -0.2509  0.2513
  253MPD2    C4 3889   2.983   2.237  15.435 -0.0904 -0.6002  0.5062
  253MPD2    C5 3890   3.042   2.293  15.324  0.0860 -0.4864 -0.0309
  253MPD2     H 3891   2.690   2.160  15.280 -0.8462  0.5590  3.8274
  253MPD2    H1 3892   3.042   2.226  15.526  0.5844  0.2143  0.1727
  253MPD2    H2 3893   3.025   2.366  15.121  2.1715 -1.0430  0.4055
  253MPD2    H3 3894   3.143   2.333  15.321 -0.0283 -0.1345  0.7070
  253MPD2     N 3895   2.787   2.154  15.542  0.0813  0.0987  0.3700
  253MPD2    H5 3896   2.846   2.128  15.620 -1.7199 -0.7521  1.4734
  253MPD2    N1 3897   2.782   2.268  15.069  0.5953 -0.3608 -0.7252
  253MPD2    H7 3898   2.690   2.227  15.058  0.6886 -0.6523 -0.4113
  254TMC3    C1 3899   2.604   2.069  15.667  0.0649  0.1549  0.4181
  254TMC3    C2 3900   2.488   2.123  15.710  0.3374 -0.0962 -0.1752
  254TMC3    C3 3901   2.445   2.089  15.834  0.1198  0.1805 -0.2762
  254TMC3    C4 3902   2.664   1.969  15.738  0.1336  0.2526  0.0493
  254TMC3    C5 3903   2.621   1.939  15.866  0.4238  0.4979 -0.1367
  254TMC3    C6 3904   2.511   2.003  15.918 -0.6681  0.3478 -0.5444
  254TMC3     C 3905   2.655   2.122  15.543  0.1566 -0.3046 -0.2462
  254TMC3     O 3906   2.568   2.154  15.463  0.8585 -0.0565  0.5976
  254TMC3     H 3907   2.435   2.183  15.637  1.9827  1.1333 -0.3776
  254TMC3    H1 3908   2.760   1.923  15.717  0.6753  1.0901  0.6906
  254TMC3    H2 3909   2.483   1.994  16.022  0.4528 -1.2065 -0.3725
  254TMC3    C7 3910   2.707   1.892  15.975 -0.3387 -0.0767 -0.3962
  254TMC3    C8 3911   2.370   2.186  15.908 -1.0261  0.2388 -0.3786
  254TMC3    O1 3912   2.652   1.852  16.080  0.0319  0.2372 -0.3811
  254TMC3    O2 3913   2.334   2.163  16.022  0.7555  0.5690 -0.4283
  255MPD2     C 3914   1.346   0.945  10.677 -0.3052 -0.0375  0.3147
  255MPD2    C1 3915   1.278   0.911  10.558 -0.0084  0.5021 -0.1340
  255MPD2    C2 3916   1.351   0.887  10.438  0.3817 -0.1301  0.3454
  255MPD2    C3 3917   1.486   0.909  10.433  0.1811  0.0334  0.0771
  255MPD2    C4 3918   1.556   0.931  10.548  0.2297 -0.5625 -0.7252
  255MPD2    C5 3919   1.486   0.955  10.664  0.5200  0.4788  0.0628
  255MPD2     H 3920   1.300   0.857  10.348 -0.5127 -0.5481  0.9891
  255MPD2    H1 3921   1.664   0.928  10.548  0.2055 -1.5592  1.5192
  255MPD2    H2 3922   1.306   0.951  10.778 -0.8913  0.1454  0.0765
  255MPD2    H3 3923   1.546   0.965  10.754  0.2176 -1.0678  0.4342
  255MPD2     N 3924   1.548   0.888  10.308 -0.4337  0.4637  0.8677
  255MPD2    H5 3925   1.484   0.848  10.240  0.0766 -0.3426  0.8595
  255MPD2    N1 3926   1.139   0.884  10.568  0.1256 -0.2229 -0.2877
  255MPD2    H7 3927   1.096   0.909  10.657  0.5665 -0.1543 -0.0932
  256TMC3    C1 3928   0.926   0.811  10.498  0.4932 -0.1543  0.8820
  256TMC3    C2 3929   0.860   0.929  10.515  0.3212 -0.1850 -0.5934
  256TMC3    C3 3930   0.722   0.914  10.523  0.1781  0.4036 -0.3508
  256TMC3    C4 3931   0.865   0.692  10.474  0.4821 -0.6493  0.9076
  256TMC3    C5 3932   0.734   0.678  10.502 -0.5195 -1.1447  0.5901
  256TMC3    C6 3933   0.658   0.794  10.504  0.4325 -0.3814 -1.1705
  256TMC3     C 3934   1.067   0.816  10.475 -0.1151 -0.0683  0.3574
  256TMC3     O 3935   1.111   0.744  10.387  0.2840 -0.4551 -0.2474
  256TMC3     H 3936   0.911   1.018  10.550  1.5439 -0.7396 -0.9500
  256TMC3    H1 3937   0.924   0.607  10.443  0.1124 -1.0048  1.1657
  256TMC3    H2 3938   0.549   0.792  10.508  0.4577  0.6489  0.2082
  256TMC3    C7 3939   0.665   0.577  10.425 -0.5810 -0.3964 -0.7583
  256TMC3    C8 3940   0.642   1.014  10.457  0.1466  0.0560 -0.4850
  256TMC3    O1 3941   0.722   0.536  10.325  0.8670  0.1175 -0.0728
  256TMC3    O2 3942   0.540   1.048  10.518  0.4889  0.0049 -0.5359
  257MPD2     C 3943   4.341   2.218  12.863  0.0839  0.5118 -0.3961
  257MPD2    C1 3944   4.464   2.243  12.804  0.4476 -0.1062 -0.4973
  257MPD2    C2 3945   4.576   2.177  12.845  0.3670  0.2507  0.1973
  257MPD2    C3 3946   4.565   2.098  12.960 -0.2770 -0.1294  0.1347
  257MPD2    C4 3947   4.453   2.098  13.041 -0.4321  0.3203 -0.1563
  257MPD2    C5 3948   4.344   2.159  12.989 -0.4290  0.9603  0.2926
  257MPD2     H 3949   4.672   2.185  12.793  1.0249 -1.3217  1.1574
  257MPD2    H1 3950   4.446   2.053  13.139  1.0573  0.1962 -0.1126
  257MPD2    H2 3951   4.251   2.259  12.817  0.2101  1.2697  0.0358
  257MPD2    H3 3952   4.254   2.154  13.051 -0.7697 -0.9489 -0.3600
  257MPD2     N 3953   4.668   2.015  13.001 -0.4981  0.3972  0.0186
  257MPD2    H5 3954   4.656   1.994  13.099  1.2700 -1.0594 -0.0762
  257MPD2    N1 3955   4.474   2.329  12.686 -0.1350  0.1262  0.3487
  257MPD2    H7 3956   4.385   2.370  12.658  0.0627  0.0130 -0.4512
  258TMC3    C1 3957   0.164   1.952  12.991 -0.5939  0.1758 -0.3693
  258TMC3    C2 3958   0.266   1.893  12.913  0.1888 -0.5090  0.1866
  258TMC3    C3 3959   0.376   1.852  12.978 -0.3781  0.6378 -0.0138
  258TMC3    C4 3960   0.170   1.978  13.125 -0.4560 -0.1836 -0.0467
  258TMC3    C5 3961   0.282   1.923  13.181 -0.5534  0.7826  0.5089
  258TMC3    C6 3962   0.387   1.872  13.108 -0.6132 -0.2569  0.0037
  258TMC3     C 3963   0.045   1.989  12.918  0.5450  0.1124 -0.3546
  258TMC3     O 3964   0.049   1.980  12.792  0.0079 -0.0351 -0.3501
  258TMC3     H 3965   0.260   1.883  12.806  3.7754  0.0643 -0.0867
  258TMC3    H1 3966   0.094   2.031  13.182 -1.3833  0.2461 -1.6871
  258TMC3    H2 3967   0.476   1.835  13.157 -0.6166  1.1392  1.0752
  258TMC3    C7 3968   0.276   1.901  13.326  0.5211  0.0879  0.4422
  258TMC3    C8 3969   0.488   1.797  12.913  0.5293  0.7806  0.9186
  258TMC3    O1 3970   0.164   1.894  13.377 -0.2716  0.1800  0.4878
  258TMC3    O2 3971   0.591   1.773  12.979  0.3054  0.4664 -0.0964
  259MPD2     C 3972   3.839   4.440   0.943  0.0326  0.4293 -0.5064
  259MPD2    C1 3973   3.832   4.304   0.930 -0.0473  0.3487  0.1561
  259MPD2    C2 3974   3.846   4.252   0.802 -0.4973  0.1083  0.2741
  259MPD2    C3 3975   3.877   4.332   0.697 -0.4364  0.4070 -0.9464
  259MPD2    C4 3976   3.857   4.468   0.706  0.1435 -0.2273 -0.1575
  259MPD2    C5 3977   3.842   4.521   0.828  0.3345  0.2634  0.1882
  259MPD2     H 3978   3.852   4.146   0.781 -1.1216  0.2614 -0.6668
  259MPD2    H1 3979   3.860   4.542   0.626  1.5652 -0.9128 -0.7412
  259MPD2    H2 3980   3.823   4.487   1.040  0.9948 -1.5511  0.6230
  259MPD2    H3 3981   3.823   4.628   0.832 -2.4549 -0.2307 -0.0412
  259MPD2     N 3982   3.899   4.269   0.571  0.1416 -0.1213  0.7701
  259MPD2    H5 3983   3.885   4.169   0.565  0.2639 -0.2222  2.0565
  259MPD2    N1 3984   3.833   4.226   1.050  0.3754  0.4536  0.3275
  259MPD2    H7 3985   3.849   4.285   1.132 -2.3975  1.3945  0.1913
  260TMC3    C1 3986   3.968   4.239   0.350  0.4415 -0.0325 -0.3562
  260TMC3    C2 3987   4.034   4.296   0.248 -0.5497 -0.3112 -0.5347
  260TMC3    C3 3988   4.025   4.225   0.131  0.3388 -0.0434 -0.0936
  260TMC3    C4 3989   3.905   4.120   0.345 -0.2256  0.3517  0.2502
  260TMC3    C5 3990   3.912   4.044   0.232 -0.8122  1.0519  0.4955
  260TMC3    C6 3991   3.980   4.092   0.121  0.4476 -0.0883 -0.7337
  260TMC3     C 3992   3.932   4.334   0.458 -0.5729 -0.2660  0.0389
  260TMC3     O 3993   3.971   4.447   0.441  0.2632 -0.5780 -0.2151
  260TMC3     H 3994   4.091   4.387   0.263  1.5213 -1.1734 -3.3247
  260TMC3    H1 3995   3.851   4.079   0.429  0.4723  2.0810  1.5299
  260TMC3    H2 3996   3.967   4.041   0.026  1.6894 -1.5266 -0.1316
  260TMC3    C7 3997   3.885   3.900   0.230 -0.0547  0.2905 -0.1336
  260TMC3    C8 3998   4.123   4.256   0.030  0.0952  0.3798 -0.4517
  260TMC3    O1 3999   3.914   3.831   0.134  0.6421 -0.3177  0.2025
  260TMC3    O2 4000   4.159   4.374   0.020  0.3753 -0.6182  0.4854
  261MPD2     C 4001   0.934   1.657  11.751  0.5576  1.1593 -0.1181
  261MPD2    C1 4002   0.963   1.774  11.826  0.1853  0.3629  1.0858
  261MPD2    C2 4003   0.999   1.889  11.760 -0.6945  0.1217 -0.1431
  261MPD2    C3 4004   0.999   1.901  11.621  0.4179  0.2340  0.5373
  261MPD2    C4 4005   0.975   1.791  11.545 -0.5984 -0.3197  0.3484
  261MPD2    C5 4006   0.941   1.671  11.610 -0.0403  0.3695  0.3428
  261MPD2     H 4007   1.017   1.982  11.812 -0.2284 -0.5101  0.8132
  261MPD2    H1 4008   0.981   1.793  11.437  0.3192  1.6369  0.4324
  261MPD2    H2 4009   0.913   1.564  11.801 -1.1812  0.9794 -1.1629
  261MPD2    H3 4010   0.909   1.591  11.545  1.1127 -0.1610  0.4312
  261MPD2     N 4011   1.026   2.023  11.554 -0.5609  0.3348 -0.3934
  261MPD2    H5 4012   1.023   2.021  11.452 -1.0673  0.7125 -0.3831
  261MPD2    N1 4013   0.962   1.769  11.973 -0.1201 -0.2907  0.3605
  261MPD2    H7 4014   0.973   1.858  12.021  2.2421 -0.7671  0.6796
  262TMC3    C1 4015   1.098   2.244  11.503  0.1081  0.2119  0.0304
  262TMC3    C2 4016   1.113   2.370  11.548  0.5375 -0.0614 -0.4535
  262TMC3    C3 4017   1.177   2.460  11.471  0.0041  0.2993  0.2778
  262TMC3    C4 4018   1.176   2.198  11.395 -0.9719 -0.8731  0.0910
  262TMC3    C5 4019   1.248   2.297  11.327  0.4726  0.0231 -0.4319
  262TMC3    C6 4020   1.251   2.427  11.360 -0.3252  0.7114  0.2932
  262TMC3     C 4021   1.056   2.151  11.602  0.0809 -0.6335  0.5336
  262TMC3     O 4022   1.062   2.180  11.720  0.8115  0.4493  0.1756
  262TMC3     H 4023   1.097   2.390  11.653  1.9948  1.1388 -0.4613
  262TMC3    H1 4024   1.186   2.096  11.361  0.8413 -1.1729  1.5348
  262TMC3    H2 4025   1.315   2.504  11.320  0.3470 -0.0690 -0.1299
  262TMC3    C7 4026   1.337   2.250  11.219  0.3591  0.0787  0.0501
  262TMC3    C8 4027   1.196   2.592  11.522  0.0417 -0.0810  1.1750
  262TMC3    O1 4028   1.334   2.130  11.200  0.5717 -0.2146  0.2462
  262TMC3    O2 4029   1.290   2.659  11.490 -0.3829 -0.2381 -0.4271
  263MPD2     C 4030   2.465   1.442  11.969  0.3852  0.2153  0.0775
  263MPD2    C1 4031   2.548   1.425  11.859  0.3244  0.0811 -0.6973
  263MPD2    C2 4032   2.495   1.440  11.733 -0.4427  0.7156  0.1042
  263MPD2    C3 4033   2.354   1.453  11.718 -0.3198 -0.2886  0.4110
  263MPD2    C4 4034   2.269   1.463  11.831 -0.0049  0.1444  0.3756
  263MPD2    C5 4035   2.330   1.461  11.956  0.0084  0.6739 -0.0220
  263MPD2     H 4036   2.566   1.445  11.651  0.1041  0.7685  0.5743
  263MPD2    H1 4037   2.163   1.488  11.833 -0.1955 -0.3781 -2.7196
  263MPD2    H2 4038   2.498   1.442  12.072  0.5404  1.0331  0.0330
  263MPD2    H3 4039   2.276   1.485  12.047  1.3068  2.1314  0.3578
  263MPD2     N 4040   2.309   1.464  11.584 -0.3700 -0.0133  0.3516
  263MPD2    H5 4041   2.379   1.452  11.512  0.5363  1.1602  1.0440
  263MPD2    N1 4042   2.686   1.403  11.887  0.2717  0.7745  0.1719
  263MPD2    H7 4043   2.716   1.391  11.984  0.9814  1.3523  0.0220
  264TMC3    C1 4044   2.168   1.499  11.396 -0.0478  0.2244  0.0387
  264TMC3    C2 4045   2.048   1.545  11.346  0.3517  0.0397  0.3215
  264TMC3    C3 4046   2.040   1.565  11.211  0.3452 -0.4238 -0.2269
  264TMC3    C4 4047   2.279   1.488  11.313  0.1124 -0.7711  0.3950
  264TMC3    C5 4048   2.271   1.512  11.180 -0.4886 -0.7252 -0.0606
  264TMC3    C6 4049   2.146   1.552  11.134  0.2384 -0.3693  0.5618
  264TMC3     C 4050   2.183   1.489  11.544 -0.6700 -1.3289 -0.3047
  264TMC3     O 4051   2.083   1.497  11.614  0.4618 -0.0552 -0.1934
  264TMC3     H 4052   1.964   1.546  11.415  0.3971  2.7465  0.3120
  264TMC3    H1 4053   2.379   1.479  11.354  0.9628 -0.0891 -1.5578
  264TMC3    H2 4054   2.136   1.569  11.027 -0.8493 -1.2868  0.5190
  264TMC3    C7 4055   2.381   1.588  11.118  0.3731 -0.6862 -0.1626
  264TMC3    C8 4056   1.989   1.693  11.178 -0.7720  0.1153  0.4348
  264TMC3    O1 4057   2.497   1.547  11.119 -1.0761 -0.5022  0.0688
  264TMC3    O2 4058   2.052   1.756  11.095 -0.2257 -0.2522 -0.6135
  265MPD2     C 4059   3.702   1.978  15.478 -0.3044 -0.2640  0.2779
  265MPD2    C1 4060   3.802   2.061  15.488 -0.0212  0.2345 -0.2169
  265MPD2    C2 4061   3.902   2.071  15.388 -0.2641 -0.6679  0.5363
  265MPD2    C3 4062   3.895   1.995  15.274  0.8562 -0.2360 -0.1071
  265MPD2    C4 4063   3.793   1.908  15.266  0.6133 -0.5096  0.2043
  265MPD2    C5 4064   3.695   1.908  15.363  0.1695 -0.2004 -0.6635
  265MPD2     H 4065   3.979   2.146  15.397 -1.1079  0.3984 -1.1218
  265MPD2    H1 4066   3.769   1.846  15.180 -1.2688  0.9926 -0.3642
  265MPD2    H2 4067   3.631   1.963  15.558 -2.1375 -2.9411 -1.8384
  265MPD2    H3 4068   3.612   1.843  15.341  0.4481 -0.9250  0.4639
  265MPD2     N 4069   3.980   1.994  15.165  0.3623  0.1154 -0.3428
  265MPD2    H5 4070   3.950   1.943  15.082 -0.2957 -3.2288  1.9546
  265MPD2    N1 4071   3.809   2.144  15.601 -0.8363  0.2705  0.0478
  265MPD2    H7 4072   3.895   2.198  15.610 -0.4174 -0.2541 -0.8938
  266TMC3    C1 4073   3.727   2.281  15.783  0.0711 -0.7950 -0.2280
  266TMC3    C2 4074   3.840   2.292  15.864  0.4116 -0.1207 -0.0635
  266TMC3    C3 4075   3.849   2.412  15.939 -0.2096  0.8444 -0.6360
  266TMC3    C4 4076   3.619   2.360  15.812 -1.0352  0.2945 -0.6379
  266TMC3    C5 4077   3.632   2.471  15.891 -0.9426  0.7427 -0.2722
  266TMC3    C6 4078   3.750   2.502  15.946 -0.5514 -0.3859 -1.1217
  266TMC3     C 4079   3.709   2.165  15.690 -1.0387 -1.2362 -0.5452
  266TMC3     O 4080   3.598   2.117  15.698  0.2753 -0.3799 -0.3165
  266TMC3     H 4081   3.928   2.231  15.846  0.2325 -0.1555 -0.8561
  266TMC3    H1 4082   3.534   2.353  15.745 -1.1767 -1.1826 -0.2885
  266TMC3    H2 4083   3.749   2.586  16.015 -0.1658  0.9373 -2.7373
  266TMC3    C7 4084   3.526   2.565  15.885  0.8665 -0.3957 -0.2645
  266TMC3    C8 4085   3.983   2.442  15.997 -0.1685 -0.0145  0.8242
  266TMC3    O1 4086   3.408   2.527  15.894  0.6074 -0.1248  0.2567
  266TMC3    O2 4087   4.063   2.346  15.994  0.1952  0.3870 -0.0860
  267MPD2     C 4088   1.620   4.416   0.151 -0.2191 -0.0501  0.2484
  267MPD2    C1 4089   1.578   4.311   0.070  0.6695 -0.3780 -0.3462
  267MPD2    C2 4090   1.505   4.335  17.695 -0.3396  0.6343  0.2949
  267MPD2    C3 4091   1.467   4.468  17.665  0.1779  0.4577 -0.3118
  267MPD2    C4 4092   1.514   4.568   0.006  0.4904 -0.1353 -0.6765
  267MPD2    C5 4093   1.582   4.539   0.121 -0.0376 -0.0834 -0.0641
  267MPD2     H 4094   1.473   4.258  17.626  1.7791  0.2388 -0.2457
  267MPD2    H1 4095   1.493   4.672  17.724  0.6795  0.2135  0.9436
  267MPD2    H2 4096   1.677   4.399   0.241 -1.2305  1.1177  1.1079
  267MPD2    H3 4097   1.608   4.620   0.189  0.2466  0.1210 -0.4135
  267MPD2     N 4098   1.386   4.504  17.552  0.0945 -0.3669  0.0004
  267MPD2    H5 4099   1.396   4.600  17.520 -0.1501  0.0300  1.1300
  267MPD2    N1 4100   1.629   4.185   0.091  0.1674 -0.8972  0.2279
  267MPD2    H7 4101   1.697   4.177   0.166  0.0589  0.0334  0.4148
  268TMC3    C1 4102   1.692   3.972   0.046  0.3599 -0.2411 -0.0177
  268TMC3    C2 4103   1.774   3.946  17.674  0.3777  0.2582  0.0907
  268TMC3    C3 4104   1.888   3.870  17.691  0.5052 -0.1879  0.3495
  268TMC3    C4 4105   1.741   3.948   0.168 -0.4436  0.0560 -0.0640
  268TMC3    C5 4106   1.846   3.865   0.183  0.0329  0.5649 -0.2341
  268TMC3    C6 4107   1.926   3.824   0.083 -0.2308 -0.3225 -0.0845
  268TMC3     C 4108   1.593   4.070   0.024 -0.0331  0.0360 -0.2404
  268TMC3     O 4109   1.524   4.054  17.662 -0.0526  0.6121 -0.1348
  268TMC3     H 4110   1.743   3.984  17.578  1.9682  0.6991 -0.2519
  268TMC3    H1 4111   1.671   3.963   0.249 -0.3494  1.0055 -0.1572
  268TMC3    H2 4112   2.010   3.759   0.103 -1.0949 -2.0031 -1.9594
  268TMC3    C7 4113   1.898   3.835   0.315  0.6878  0.5166  0.5689
  268TMC3    C8 4114   1.977   3.857  17.573 -0.0681  0.1626 -0.6594
  268TMC3    O1 4115   1.938   3.722   0.343  0.5771  0.3801  0.5207
  268TMC3    O2 4116   2.096   3.854  17.595  0.3901 -0.0525 -0.0139
  269MPD2     C 4117   2.073   2.822  15.471  0.0052  0.2281  0.1323
  269MPD2    C1 4118   2.003   2.847  15.579 -0.4101  0.0164  0.4966
  269MPD2    C2 4119   1.957   2.972  15.606  0.1313 -0.0636  0.2636
  269MPD2    C3 4120   1.971   3.075  15.513 -0.6619  0.3217  0.4605
  269MPD2    C4 4121   2.042   3.046  15.392 -0.1852  0.4977 -0.3613
  269MPD2    C5 4122   2.088   2.919  15.375  0.0961  1.3389 -0.0990
  269MPD2     H 4123   1.902   2.991  15.698 -0.6491  0.5743 -0.3324
  269MPD2    H1 4124   2.055   3.116  15.310 -1.8618  0.3953 -0.7204
  269MPD2    H2 4125   2.104   2.722  15.445  2.6165  1.0230  0.1513
  269MPD2    H3 4126   2.135   2.881  15.285 -0.0853  0.5039  0.1620
  269MPD2     N 4127   1.915   3.207  15.542 -0.6014 -0.1473  0.3240
  269MPD2    H5 4128   1.851   3.221  15.620  1.3304  1.5169  1.6036
  269MPD2    N1 4129   1.954   2.736  15.653  0.1531 -0.6144  0.9389
  269MPD2    H7 4130   1.984   2.643  15.623 -0.8371 -0.3640 -0.8518
  270TMC3    C1 4131   1.812   2.600  15.780 -0.8916  0.1291 -0.1592
  270TMC3    C2 4132   1.681   2.595  15.752  0.1571 -0.0837  0.1764
  270TMC3    C3 4133   1.628   2.485  15.677  0.3435 -0.7574  0.0711
  270TMC3    C4 4134   1.890   2.486  15.754 -0.2759  0.6806  0.5188
  270TMC3    C5 4135   1.839   2.385  15.677 -0.7945 -0.4408 -0.2148
  270TMC3    C6 4136   1.710   2.376  15.641 -0.0350  0.1886 -0.8174
  270TMC3     C 4137   1.875   2.734  15.760  0.5506 -0.0521  0.3671
  270TMC3     O 4138   1.798   2.815  15.808  0.7974  0.2470  0.3124
  270TMC3     H 4139   1.620   2.684  15.764  1.3300  0.8875 -0.9997
  270TMC3    H1 4140   1.998   2.492  15.765 -0.1287  0.1043 -0.5791
  270TMC3    H2 4141   1.663   2.296  15.583  1.4667  1.2441 -3.4688
  270TMC3    C7 4142   1.929   2.280  15.626 -0.2108 -0.2490 -0.4675
  270TMC3    C8 4143   1.520   2.516  15.584  0.3591 -0.4665 -0.7403
  270TMC3    O1 4144   2.034   2.271  15.688  0.4854  0.2684  0.5084
  270TMC3    O2 4145   1.402   2.534  15.614 -0.6446 -0.3277 -0.2712
  271MPD2     C 4146   1.043   2.544  13.771  0.0481 -0.5785 -0.2580
  271MPD2    C1 4147   0.994   2.555  13.900 -0.0974  0.1810  0.3436
  271MPD2    C2 4148   0.871   2.607  13.930 -0.0013 -0.0927 -0.0496
  271MPD2    C3 4149   0.785   2.623  13.825  0.2971 -1.0140 -0.2778
  271MPD2    C4 4150   0.828   2.600  13.690  0.7662 -0.3651  0.0566
  271MPD2    C5 4151   0.959   2.562  13.667  0.0343 -0.4651  0.1044
  271MPD2     H 4152   0.834   2.616  14.031 -2.9559  1.2839 -1.2371
  271MPD2    H1 4153   0.771   2.624  13.601  1.1228 -0.7235 -0.2704
  271MPD2    H2 4154   1.143   2.510  13.747  1.4935  3.3511  0.3013
  271MPD2    H3 4155   0.993   2.535  13.568  0.2907 -0.1903  0.1205
  271MPD2     N 4156   0.648   2.656  13.842  1.0451  0.0943 -0.3666
  271MPD2    H5 4157   0.591   2.667  13.760 -0.0440  0.7354  0.4760
  271MPD2    N1 4158   1.067   2.523  14.018 -0.1719 -0.4565  0.2990
  271MPD2    H7 4159   1.023   2.540  14.108 -2.1396 -2.7689 -0.2254
  272TMC3    C1 4160   1.228   2.428  14.153 -0.2076 -0.0694  0.8581
  272TMC3    C2 4161   1.353   2.362  14.167 -0.3012  0.3940  0.3916
  272TMC3    C3 4162   1.395   2.315  14.289 -0.8526  0.5802 -0.3819
  272TMC3    C4 4163   1.152   2.439  14.269  0.3021  0.3553  0.6650
  272TMC3    C5 4164   1.203   2.388  14.387  0.3785  0.3472 -0.4321
  272TMC3    C6 4165   1.327   2.338  14.402 -0.5827  0.7774 -0.3940
  272TMC3     C 4166   1.181   2.455  14.019 -1.0316  0.2012  0.4620
  272TMC3     O 4167   1.255   2.421  13.925  0.0682  0.3363 -0.2143
  272TMC3     H 4168   1.408   2.358  14.074  0.0953  0.1490  0.6390
  272TMC3    H1 4169   1.052   2.481  14.266 -0.4507 -1.5368 -0.7001
  272TMC3    H2 4170   1.366   2.287  14.489 -0.2771 -1.0213 -1.5768
  272TMC3    C7 4171   1.140   2.430  14.503  0.2087 -0.0650  0.0019
  272TMC3    C8 4172   1.503   2.215  14.276 -0.7613 -0.5352 -0.4966
  272TMC3    O1 4173   1.017   2.455  14.497 -0.3202  0.4755 -0.1856
  272TMC3    O2 4174   1.541   2.182  14.164  0.2759  1.0477  0.2272
  273MPD2     C 4175   2.843   4.367  11.488  0.4986 -0.0344 -0.1854
  273MPD2    C1 4176   2.949   4.416  11.565  0.2785 -0.2511 -0.0128
  273MPD2    C2 4177   2.992   4.545  11.555 -0.1006  0.3985 -1.2817
  273MPD2    C3 4178   2.924   4.633  11.467  0.0966  0.4652  0.3894
  273MPD2    C4 4179   2.826   4.579  11.391  0.5217  0.1249 -0.0288
  273MPD2    C5 4180   2.781   4.452  11.400 -0.1564 -0.1634  0.1222
  273MPD2     H 4181   3.076   4.584  11.611  0.3864 -1.1378 -0.9537
  273MPD2    H1 4182   2.780   4.639  11.313  0.4509  0.5557  0.3381
  273MPD2    H2 4183   2.810   4.264  11.480  0.9934  0.0291 -3.1225
  273MPD2    H3 4184   2.704   4.421  11.330 -1.1482  3.1144 -0.2661
  273MPD2     N 4185   2.962   0.033  11.442 -0.5899  0.2468  0.2430
  273MPD2    H5 4186   2.907   0.082  11.372 -0.0386  0.2917 -0.1527
  273MPD2    N1 4187   3.000   4.321  11.660  0.0145  0.1190  0.4187
  273MPD2    H7 4188   2.935   4.243  11.671  0.1037  0.0997  0.8136
  274TMC3    C1 4189   3.071   0.248  11.451  0.4409 -0.0087  0.5926
  274TMC3    C2 4190   2.992   0.294  11.345  0.0688  0.2841 -1.1646
  274TMC3    C3 4191   3.012   0.413  11.292 -0.3003  0.5796 -0.1710
  274TMC3    C4 4192   3.153   0.338  11.513  0.4964 -0.2233  0.2281
  274TMC3    C5 4193   3.141   0.465  11.473 -0.2560 -0.5222  0.7325
  274TMC3    C6 4194   3.076   0.505  11.360  0.4674  0.6553 -0.7102
  274TMC3     C 4195   3.063   0.107  11.504 -0.2095 -0.1947 -0.5099
  274TMC3     O 4196   3.149   0.066  11.581 -0.1608  0.0535  0.0879
  274TMC3     H 4197   2.918   0.230  11.299 -0.1196 -1.8138  2.0422
  274TMC3    H1 4198   3.224   0.303  11.587  0.0360 -0.7729  0.4077
  274TMC3    H2 4199   3.075   0.609  11.331  0.5555  1.3655  1.8438
  274TMC3    C7 4200   3.164   0.578  11.566 -0.0146 -0.1531  0.8540
  274TMC3    C8 4201   2.901   0.460  11.205  0.1883  0.8153 -0.0803
  274TMC3    O1 4202   3.169   0.694  11.524  0.3519 -0.3180 -0.3074
  274TMC3    O2 4203   2.785   0.423  11.234  0.0582 -0.0082 -0.0575
  275MPD2     C 4204   2.648   3.399  14.533 -0.2618  0.3008 -0.0146
  275MPD2    C1 4205   2.564   3.397  14.646 -0.0782 -0.0774  0.2221
  275MPD2    C2 4206   2.425   3.389  14.635  0.2795  0.5824 -0.3244
  275MPD2    C3 4207   2.372   3.387  14.506  0.3936  0.3677  0.1202
  275MPD2    C4 4208   2.454   3.397  14.395  0.1843 -0.5962 -0.3303
  275MPD2    C5 4209   2.593   3.412  14.410 -0.4059 -0.7411  0.4441
  275MPD2     H 4210   2.361   3.379  14.721 -1.9855  0.5196 -2.0236
  275MPD2    H1 4211   2.407   3.390  14.297 -0.4422 -0.4402 -0.0445
  275MPD2    H2 4212   2.756   3.395  14.539 -0.0812  1.6239 -2.0394
  275MPD2    H3 4213   2.659   3.416  14.324 -0.2148 -0.3778  0.6098
  275MPD2     N 4214   2.233   3.383  14.476 -0.5710 -0.0256 -0.1987
  275MPD2    H5 4215   2.203   3.376  14.379  0.0190  1.2114 -0.4658
  275MPD2    N1 4216   2.609   3.384  14.779 -0.6127 -0.9394  0.2796
  275MPD2    H7 4217   2.534   3.358  14.842  0.1594 -2.4117  0.5982
  276TMC3    C1 4218   2.764   3.371  14.961 -0.4287 -0.7762 -0.6728
  276TMC3    C2 4219   2.692   3.277  15.027  0.2766 -0.4931 -0.1198
  276TMC3    C3 4220   2.711   3.261  15.166  0.1535  0.2245  0.8209
  276TMC3    C4 4221   2.867   3.442  15.020  0.3245  0.5239  0.0745
  276TMC3    C5 4222   2.895   3.403  15.151 -0.5780  0.1521 -0.0448
  276TMC3    C6 4223   2.813   3.319  15.232  0.3354  0.1656  0.1619
  276TMC3     C 4224   2.735   3.409  14.823 -0.1518 -1.0418  0.0259
  276TMC3     O 4225   2.838   3.456  14.767  0.3183 -0.5062 -0.2394
  276TMC3     H 4226   2.606   3.241  14.972 -0.6016  2.0558 -0.4330
  276TMC3    H1 4227   2.923   3.519  14.969 -1.2950  0.6756 -1.4711
  276TMC3    H2 4228   2.840   3.302  15.336 -0.9998  0.0547  0.4894
  276TMC3    C7 4229   2.996   3.475  15.226  0.4203  0.3802  0.2236
  276TMC3    C8 4230   2.632   3.165  15.220  0.5700 -0.6560 -0.4530
  276TMC3    O1 4231   2.978   3.483  15.346 -0.0065  0.1034 -0.0419
  276TMC3    O2 4232   2.619   3.151  15.343  0.7966 -0.1690  0.1681
  277MPD2     C 4233   3.990   2.601  12.865  0.5311  0.2015  0.3038
  277MPD2    C1 4234   3.898   2.647  12.958 -0.3592  0.3613  0.4717
  277MPD2    C2 4235   3.864   2.572  13.071  0.1800  0.8283  0.4526
  277MPD2    C3 4236   3.942   2.458  13.099  0.2546 -0.2227 -0.4096
  277MPD2    C4 4237   4.036   2.409  13.010 -0.6986 -0.0966 -0.2956
  277MPD2    C5 4238   4.061   2.483  12.892 -0.3991 -0.5188 -1.0138
  277MPD2     H 4239   3.786   2.609  13.137  1.0569 -0.3951  2.1760
  277MPD2    H1 4240   4.091   2.319  13.036 -0.3876 -0.0658 -0.8296
  277MPD2    H2 4241   4.015   2.655  12.774 -0.9112 -1.0470 -0.8280
  277MPD2    H3 4242   4.133   2.451  12.817  0.3762  0.9754 -0.9176
  277MPD2     N 4243   3.912   2.404  13.221 -0.4668  0.2226 -0.1809
  277MPD2    H5 4244   3.825   2.435  13.262 -0.8418 -1.1717  0.0862
  277MPD2    N1 4245   3.835   2.774  12.932  0.8534 -0.5754  0.1852
  277MPD2    H7 4246   3.862   2.815  12.843 -0.7216 -1.7275 -0.8363
  278TMC3    C1 4247   3.929   2.283  13.423 -0.4109  0.6321  0.1942
  278TMC3    C2 4248   3.935   2.159  13.473  0.2028 -0.8452 -0.3845
  278TMC3    C3 4249   3.881   2.134  13.592 -0.4016 -0.1475 -0.2259
  278TMC3    C4 4250   3.870   2.387  13.494 -0.0615  0.1043 -0.0551
  278TMC3    C5 4251   3.838   2.355  13.627  0.4856 -0.2870  0.0531
  278TMC3    C6 4252   3.835   2.228  13.673  0.2684  0.0467 -0.0356
  278TMC3     C 4253   3.981   2.304  13.291 -0.4373  0.0240  0.4422
  278TMC3     O 4254   4.073   2.231  13.246 -0.7430 -0.1472 -0.4601
  278TMC3     H 4255   3.996   2.092  13.413 -0.1812 -0.2300 -1.4660
  278TMC3    H1 4256   3.876   2.487  13.454 -0.3058  0.8779  1.8183
  278TMC3    H2 4257   3.819   2.209  13.779 -1.4387  0.2409 -0.2660
  278TMC3    C7 4258   3.738   2.438  13.680 -0.4479  0.4248 -0.3132
  278TMC3    C8 4259   3.890   1.994  13.636 -0.2267 -0.2232  0.2584
  278TMC3    O1 4260   3.761   2.555  13.699  0.3712  0.8087 -0.3119
  278TMC3    O2 4261   3.913   1.970  13.754 -0.6313 -0.2518 -0.3298
  279MPD2     C 4262   3.083   2.143   0.391 -0.4698 -0.1712 -0.1050
  279MPD2    C1 4263   3.071   2.257   0.316  0.1280 -0.4976 -0.8458
  279MPD2    C2 4264   3.137   2.260   0.196  1.1214 -0.5028  0.7792
  279MPD2    C3 4265   3.201   2.156   0.142  0.0436 -0.2598  0.9407
  279MPD2    C4 4266   3.195   2.036   0.209 -0.0019  0.2066  0.4397
  279MPD2    C5 4267   3.140   2.032   0.333  0.1458 -0.4425  0.2338
  279MPD2     H 4268   3.138   2.354   0.141  0.1714 -2.2715 -2.2458
  279MPD2    H1 4269   3.246   1.952   0.161  0.3675  1.7527 -1.8663
  279MPD2    H2 4270   3.030   2.130   0.485  2.1187 -0.9599  1.2424
  279MPD2    H3 4271   3.151   1.942   0.392  1.0041 -1.1032 -0.9356
  279MPD2     N 4272   3.261   2.152   0.011 -0.3895  0.1131  0.5803
  279MPD2    H5 4273   3.282   2.062  17.707 -0.0299  0.0631  0.8630
  279MPD2    N1 4274   3.006   2.364   0.370 -0.3157  0.3006 -0.0038
  279MPD2    H7 4275   2.982   2.353   0.468 -2.7879  0.6805 -0.5719
  280TMC3    C1 4276   2.913   2.570   0.412 -0.4242  0.0346 -0.1115
  280TMC3    C2 4277   2.972   2.582   0.533  0.6746  0.5032  0.5355
  280TMC3    C3 4278   2.928   2.672   0.617  0.0293 -0.8602 -1.0655
  280TMC3    C4 4279   2.797   2.641   0.389 -0.4716 -0.1201 -0.0760
  280TMC3    C5 4280   2.755   2.743   0.471  0.4095  0.3941 -0.2458
  280TMC3    C6 4281   2.818   2.755   0.590 -0.3955  0.6036  0.3353
  280TMC3     C 4282   2.967   2.483   0.312  0.2553  0.2153 -0.1179
  280TMC3     O 4283   2.957   2.516   0.194 -0.5149 -0.2590 -0.0361
  280TMC3     H 4284   3.062   2.525   0.554  0.8775  0.3066 -0.8383
  280TMC3    H1 4285   2.751   2.623   0.293 -0.0687  2.5430 -0.7784
  280TMC3    H2 4286   2.789   2.832   0.660 -2.1800  0.7381 -0.5626
  280TMC3    C7 4287   2.676   2.853   0.424 -0.0371 -0.0334 -0.5188
  280TMC3    C8 4288   3.001   2.704   0.733 -0.6351 -0.3804  0.3128
  280TMC3    O1 4289   2.661   2.945   0.502 -0.3932  0.1397  0.4426
  280TMC3    O2 4290   2.938   2.761   0.827  0.0172 -0.2925 -0.1989
  281TMC3    C1 4291   1.894   2.837  12.812 -0.0178 -0.0165 -0.3345
  281TMC3    C2 4292   1.952   2.938  12.741 -1.0147  0.3255 -0.2284
  281TMC3    C3 4293   2.013   2.916  12.622 -0.1072  0.2598 -0.4478
  281TMC3    C4 4294   1.912   2.707  12.776 -0.6560  0.3506 -0.7892
  281TMC3    C5 4295   1.988   2.678  12.662  0.1964  0.4952 -0.4966
  281TMC3    C6 4296   2.031   2.785  12.584  0.2807 -0.3418  0.5390
  281TMC3     C 4297   1.797   2.856  12.916  0.1413  1.1937  0.0316
  281TMC3     O 4298   1.717   2.767  12.942 -0.0768 -0.0166 -0.2434
  281TMC3     H 4299   1.933   3.041  12.766  0.4327  0.1970  1.3670
  281TMC3    H1 4300   1.879   2.625  12.839  1.8678  0.3111  0.4702
  281TMC3    H2 4301   2.094   2.765  12.498 -0.2107 -2.6738  0.7194
  281TMC3    C7 4302   1.996   2.545  12.607  0.4483 -0.3394  1.2612
  281TMC3    C8 4303   1.941   3.005  12.539 -0.0425 -1.2230  0.3544
  281TMC3    O1 4304   2.014   2.540  12.490  0.4281 -0.0644  0.0918
  281TMC3    O2 4305   1.972   3.126  12.526 -0.0536  0.3780  0.0660
  282MPD2     C 4306   4.029   4.028  14.846  0.6917  0.0613  0.4673
  282MPD2    C1 4307   3.904   3.977  14.870  0.1842 -0.7878  0.0432
  282MPD2    C2 4308   3.814   3.943  14.763 -0.3195  0.3399  1.0257
  282MPD2    C3 4309   3.862   3.958  14.635  0.1007 -0.4693  0.2983
  282MPD2    C4 4310   3.985   4.012  14.609 -0.2760 -0.5928 -0.2826
  282MPD2    C5 4311   4.069   4.046  14.714  0.2385 -0.1635 -0.5816
  282MPD2     H 4312   3.719   3.892  14.777 -0.1163 -0.5176 -0.7174
  282MPD2    H1 4313   4.010   4.052  14.512  0.4046  0.4503  0.3179
  282MPD2    H2 4314   4.084   4.070  14.930 -1.0335 -0.7678  2.0002
  282MPD2    H3 4315   4.163   4.096  14.694  0.0312 -0.0107 -1.1615
  282MPD2     N 4316   3.772   3.927  14.528  0.3128 -0.3169  0.4222
  282MPD2    H5 4317   3.680   3.889  14.548 -0.2069  0.1243 -1.1512
  282MPD2    N1 4318   3.868   3.954  15.007  0.1167  0.4451  0.4250
  282MPD2    H7 4319   3.932   3.991  15.077 -0.3605 -1.2214  1.7361
  283TMC3    C1 4320   3.749   3.874  15.195 -0.0878 -0.1357 -0.1107
  283TMC3    C2 4321   3.810   3.967  15.267 -0.1929  0.0968  0.4933
  283TMC3    C3 4322   3.848   3.920  15.391  0.0153 -0.7324  0.2710
  283TMC3    C4 4323   3.716   3.746  15.238  0.0516 -0.2668  0.4812
  283TMC3    C5 4324   3.768   3.701  15.363  0.6874 -0.0487  0.3265
  283TMC3    C6 4325   3.838   3.790  15.431  0.2841  1.3798 -0.6715
  283TMC3     C 4326   3.750   3.895  15.052 -0.0497  0.4551  0.6163
  283TMC3     O 4327   3.663   3.838  14.990 -0.0123 -0.2110  0.4438
  283TMC3     H 4328   3.810   4.068  15.229 -0.8902  0.7748  2.3044
  283TMC3    H1 4329   3.650   3.684  15.178  0.2088 -0.4378  0.4868
  283TMC3    H2 4330   3.883   3.761  15.526 -3.5544 -0.7557  0.5211
  283TMC3    C7 4331   3.694   3.608  15.456 -0.4679 -0.3823  0.2666
  283TMC3    C8 4332   3.903   4.009  15.495 -0.2562  0.3226  0.3270
  283TMC3    O1 4333   3.724   3.600  15.574 -0.2735  0.2895 -0.1557
  283TMC3    O2 4334   3.950   3.966  15.600  0.1233  0.1348  0.0526
  284MPD2     C 4335   1.830   3.252  12.001  0.0796 -0.1403  0.4103
  284MPD2    C1 4336   1.927   3.235  11.911  0.1265  0.4806 -0.3504
  284MPD2    C2 4337   2.036   3.149  11.924  0.2827 -0.3894  0.0022
  284MPD2    C3 4338   2.051   3.087  12.051  0.5180  1.0884 -0.2824
  284MPD2    C4 4339   1.952   3.102  12.142  0.6330 -0.0703 -0.2847
  284MPD2    C5 4340   1.842   3.178  12.115  0.5227  0.2361 -0.1572
  284MPD2     H 4341   2.108   3.149  11.844 -0.5329 -1.8272 -0.7298
  284MPD2    H1 4342   1.951   3.051  12.238 -0.3807 -2.4570 -1.5754
  284MPD2    H2 4343   1.738   3.307  11.987  0.6027  0.3595 -1.0496
  284MPD2    H3 4344   1.761   3.186  12.187 -1.0955  1.2914 -2.1160
  284MPD2     N 4345   2.163   3.006  12.091  0.5345 -1.0133  0.5925
  284MPD2    H5 4346   2.162   2.952  12.177  0.2798 -1.8402  0.0663
  284MPD2    N1 4347   1.928   3.304  11.789  0.3288 -0.0241 -0.1352
  284MPD2    H7 4348   1.998   3.265  11.727 -0.2220 -0.0923 -0.7170
  285TMC3    C1 4349   1.891   3.465  11.633 -0.4491 -0.2639 -0.6871
  285TMC3    C2 4350   1.906   3.368  11.540  0.4717  0.3459 -0.0824
  285TMC3    C3 4351   1.932   3.396  11.409 -0.5156 -0.3343  0.2921
  285TMC3    C4 4352   1.904   3.601  11.598  0.1656 -0.0781 -0.6458
  285TMC3    C5 4353   1.947   3.628  11.467  0.0604 -0.2412  1.2180
  285TMC3    C6 4354   1.955   3.530  11.374 -0.1265 -0.6864 -1.0464
  285TMC3     C 4355   1.860   3.415  11.764  0.1953 -0.3060  0.4711
  285TMC3     O 4356   1.795   3.490  11.835  0.2547 -0.7789 -0.1388
  285TMC3     H 4357   1.895   3.263  11.565 -1.0365  1.1731  2.6953
  285TMC3    H1 4358   1.897   3.679  11.674 -0.5357  0.4345 -1.2355
  285TMC3    H2 4359   1.987   3.565  11.277 -1.0710 -1.2388 -1.5577
  285TMC3    C7 4360   1.996   3.760  11.424  0.0088 -0.1602  0.0936
  285TMC3    C8 4361   1.967   3.287  11.316  0.2079 -0.0794 -0.3510
  285TMC3    O1 4362   2.082   3.753  11.337 -0.1049 -0.0169  0.0165
  285TMC3    O2 4363   1.961   3.178  11.376 -0.1583  0.0977 -0.0229
  286MPD2     C 4364   2.559   1.716   0.708  0.8069 -0.1755 -0.0043
  286MPD2    C1 4365   2.502   1.756   0.830  0.3321 -0.0438  0.1565
  286MPD2    C2 4366   2.526   1.678   0.940  0.2355 -0.0296  0.4736
  286MPD2    C3 4367   2.596   1.554   0.927 -0.4804  0.4001 -0.1174
  286MPD2    C4 4368   2.655   1.519   0.813  0.6098 -0.5845 -0.2827
  286MPD2    C5 4369   2.630   1.596   0.702 -0.7932  0.0492  0.0362
  286MPD2     H 4370   2.485   1.707   1.036  0.5759  0.8444  0.3563
  286MPD2    H1 4371   2.712   1.427   0.802  2.5202  0.7270 -1.2845
  286MPD2    H2 4372   2.540   1.765   0.613  2.4369 -0.3407 -0.4174
  286MPD2    H3 4373   2.664   1.568   0.602  1.3423  1.4660  0.3554
  286MPD2     N 4374   2.603   1.456   1.034 -0.1696  0.3203  0.3015
  286MPD2    H5 4375   2.641   1.365   1.012  0.3652  0.8129 -0.8268
  286MPD2    N1 4376   2.411   1.869   0.835  1.3123  0.4321  0.0327
  286MPD2    H7 4377   2.356   1.888   0.918 -0.7364 -0.2799 -1.1689
  287TMC3    C1 4378   2.620   1.380   1.250 -0.7564  0.2114 -0.3361
  287TMC3    C2 4379   2.599   1.250   1.207 -0.0113  0.3111 -0.2325
  287TMC3    C3 4380   2.691   1.149   1.236  0.2801 -0.2701  0.3065
  287TMC3    C4 4381   2.724   1.408   1.340  0.0629 -0.3327  0.7884
  287TMC3    C5 4382   2.806   1.304   1.367 -0.4157 -0.2118  0.5735
  287TMC3    C6 4383   2.795   1.172   1.328 -0.2085 -0.4057 -0.3138
  287TMC3     C 4384   2.580   1.487   1.165  0.3543 -0.3807 -0.3896
  287TMC3     O 4385   2.579   1.599   1.216 -0.4557  0.0069  0.2742
  287TMC3     H 4386   2.530   1.226   1.127  0.5050 -0.2791 -0.5054
  287TMC3    H1 4387   2.756   1.511   1.352 -0.1190 -0.3615  1.5150
  287TMC3    H2 4388   2.857   1.088   1.360 -0.2601 -0.4952 -0.4489
  287TMC3    C7 4389   2.916   1.348   1.450  0.5602 -0.6354  0.2127
  287TMC3    C8 4390   2.675   1.022   1.172  0.6075  0.1492  0.2591
  287TMC3    O1 4391   2.884   1.444   1.524  0.7917 -0.4138  0.3810
  287TMC3    O2 4392   2.560   1.003   1.137 -0.1673  0.1987 -0.1362
  288TMC3    C1 4393   4.515   1.786  14.436 -0.2480 -0.0254  0.0305
  288TMC3    C2 4394   4.418   1.697  14.412 -1.0634  0.4272 -0.1721
  288TMC3    C3 4395   4.333   1.728  14.314 -0.1112  0.0846 -0.1039
  288TMC3    C4 4396   4.546   1.888  14.347 -0.0286 -0.8545  0.5629
  288TMC3    C5 4397   4.452   1.917  14.246  0.5192 -0.4428 -0.1618
  288TMC3    C6 4398   4.345   1.838  14.229  0.3764  0.3618 -0.6043
  288TMC3     C 4399   4.620   1.746  14.532  0.3479 -0.2464 -0.4300
  288TMC3     O 4400   0.001   1.783  14.513 -0.2082  0.5344 -0.2712
  288TMC3     H 4401   4.412   1.610  14.478  1.1163  1.0397  0.8544
  288TMC3    H1 4402   4.634   1.947  14.370  0.3609 -1.6878  1.2181
  288TMC3    H2 4403   4.272   1.867  14.155 -2.8612  0.3981  2.6096
  288TMC3    C7 4404   4.505   1.997  14.129 -0.4221  0.3247  0.6654
  288TMC3    C8 4405   4.232   1.631  14.266 -0.2338 -0.3905 -0.1585
  288TMC3    O1 4406   4.625   2.014  14.123  0.3317 -0.3166  0.4010
  288TMC3    O2 4407   4.208   1.638  14.152  0.0048  0.4204 -0.3710
  289MPD2     C 4408   4.134   0.814  13.991  0.1035  0.5778  0.7857
  289MPD2    C1 4409   4.122   0.942  13.950 -0.7061 -0.5428 -0.1396
  289MPD2    C2 4410   4.023   0.984  13.864 -0.2570  0.2214  0.5594
  289MPD2    C3 4411   3.935   0.888  13.818  0.0098 -0.5490  0.0035
  289MPD2    C4 4412   3.952   0.752  13.847  0.2488  0.3201  0.2207
  289MPD2    C5 4413   4.049   0.718  13.937  0.3532  0.1639  0.3243
  289MPD2     H 4414   4.006   1.089  13.841 -1.6954  0.3614  2.2853
  289MPD2    H1 4415   3.874   0.681  13.822 -0.3491 -0.0585  3.1826
  289MPD2    H2 4416   4.210   0.785  14.062  0.0233  0.4346  0.8135
  289MPD2    H3 4417   4.061   0.613  13.962 -2.0344 -0.0590  0.5368
  289MPD2     N 4418   3.815   0.921  13.748 -0.0028  0.2662 -0.2068
  289MPD2    H5 4419   3.756   0.842  13.725 -1.5304  1.1448  0.7403
  289MPD2    N1 4420   4.208   1.032  14.017  0.1111  0.4820  0.1773
  289MPD2    H7 4421   4.262   0.991  14.093  0.3110 -0.0325 -0.2437
  290TMC3    C1 4422   3.622   1.040  13.661  0.4719  0.8622 -0.4272
  290TMC3    C2 4423   3.569   1.158  13.627 -0.8689 -0.3684 -0.4024
  290TMC3    C3 4424   3.436   1.178  13.578 -0.0110 -0.2487 -0.8989
  290TMC3    C4 4425   3.543   0.934  13.669 -0.8777 -0.7458  0.0845
  290TMC3    C5 4426   3.410   0.948  13.630  0.6247 -0.0385  0.0427
  290TMC3    C6 4427   3.359   1.064  13.578  0.2327  0.0540 -0.6232
  290TMC3     C 4428   3.755   1.043  13.724  0.3408  0.0044  0.3636
  290TMC3     O 4429   3.795   1.152  13.760 -0.1023 -0.3145 -0.2054
  290TMC3     H 4430   3.640   1.240  13.631 -0.1654 -0.9479 -1.0848
  290TMC3    H1 4431   3.579   0.834  13.688 -2.6527 -0.9501  2.3704
  290TMC3    H2 4432   3.252   1.074  13.560  0.2781  2.5142  0.4324
  290TMC3    C7 4433   3.323   0.838  13.654  0.4158 -0.3675  1.1158
  290TMC3    C8 4434   3.378   1.300  13.542  0.6486 -0.0058 -0.0753
  290TMC3    O1 4435   3.220   0.842  13.589 -0.0084 -0.2196 -0.4302
  290TMC3    O2 4436   3.302   1.311  13.445  0.2049  0.0797  0.4045
  291MPD2     C 4437   2.964   0.929   0.466  0.4200  0.3670 -0.3526
  291MPD2    C1 4438   3.102   0.921   0.448  0.6855 -0.2353 -0.3295
  291MPD2    C2 4439   3.184   1.024   0.491  0.2715 -0.7492 -0.5139
  291MPD2    C3 4440   3.127   1.137   0.546 -0.1487  0.4052  0.5428
  291MPD2    C4 4441   2.992   1.143   0.565  0.0842  0.3634 -0.3199
  291MPD2    C5 4442   2.913   1.042   0.527  0.0317  0.5880  0.6770
  291MPD2     H 4443   3.289   1.010   0.471  0.0958 -0.6299 -1.5168
  291MPD2    H1 4444   2.953   1.234   0.609 -1.3443  0.4814 -1.8240
  291MPD2    H2 4445   2.899   0.845   0.443  1.8763 -0.5705 -1.1168
  291MPD2    H3 4446   2.806   1.053   0.542  0.0864  3.3317 -1.0293
  291MPD2     N 4447   3.205   1.247   0.585 -0.5316 -0.3064  0.4386
  291MPD2    H5 4448   3.157   1.332   0.613 -0.7947 -0.7979  1.4869
  291MPD2    N1 4449   3.176   0.807   0.388  0.8729  0.5067  0.2169
  291MPD2    H7 4450   3.276   0.817   0.371  0.9856 -2.5153 -0.8789
  292TMC3    C1 4451   3.215   0.583   0.365  0.3372  0.1299 -0.3660
  292TMC3    C2 4452   3.305   0.582   0.466 -0.2910 -0.2343  0.1660
  292TMC3    C3 4453   3.379   0.476   0.507  0.4744  0.1846 -0.2129
  292TMC3    C4 4454   3.193   0.473   0.292  0.7145  0.2767 -0.4274
  292TMC3    C5 4455   3.258   0.357   0.340  0.1085  0.5174 -0.4945
  292TMC3    C6 4456   3.352   0.354   0.445 -0.2571 -0.2461 -0.6725
  292TMC3     C 4457   3.119   0.692   0.365 -0.3379 -0.2376  0.5681
  292TMC3     O 4458   3.001   0.662   0.359 -0.1421  0.0481 -0.0947
  292TMC3     H 4459   3.319   0.671   0.525 -1.8220 -0.6707  1.1722
  292TMC3    H1 4460   3.104   0.470   0.230  3.1115  0.6323 -3.8952
  292TMC3    H2 4461   3.406   0.262   0.467  1.2114  0.8445  0.2447
  292TMC3    C7 4462   3.240   0.227   0.285  0.8639  0.6349 -0.3862
  292TMC3    C8 4463   3.435   0.481   0.644  0.0532 -0.9263 -0.6399
  292TMC3    O1 4464   3.327   0.139   0.308 -0.9405  0.1620 -0.0590
  292TMC3    O2 4465   3.476   0.583   0.697  0.1224  0.0549 -0.1550
  293MPD2     C 4466   0.429   2.091  12.555  0.1990  0.3489  0.1983
  293MPD2    C1 4467   0.322   2.172  12.592 -0.3926 -0.2117  0.3696
  293MPD2    C2 4468   0.319   2.224  12.725 -0.3967  0.8380 -0.6355
  293MPD2    C3 4469   0.431   2.214  12.806  0.1707  0.4386 -0.1067
  293MPD2    C4 4470   0.544   2.143  12.761  0.9837  0.3062  0.0549
  293MPD2    C5 4471   0.540   2.088  12.634 -0.2550 -0.4753  0.6714
  293MPD2     H 4472   0.233   2.282  12.758 -1.1270 -0.0454 -0.9981
  293MPD2    H1 4473   0.642   2.143  12.808  0.6678 -0.1641  0.7165
  293MPD2    H2 4474   0.426   2.039  12.460 -1.1877  4.1897 -1.8608
  293MPD2    H3 4475   0.635   2.048  12.601 -0.1425 -1.2117  1.8830
  293MPD2     N 4476   0.428   2.267  12.941  0.2568  0.3606  0.7124
  293MPD2    H5 4477   0.355   2.335  12.960 -1.7804 -1.6055 -0.0877
  293MPD2    N1 4478   0.213   2.194  12.507 -1.1960  0.0615  0.1965
  293MPD2    H7 4479   0.132   2.231  12.555 -2.9291 -1.8235 -1.2446
  294TMC3    C1 4480   0.085   2.197  12.295 -0.3407  1.0407 -0.0862
  294TMC3    C2 4481   4.713   2.132  12.333  0.0439  0.2049  0.6182
  294TMC3    C3 4482   4.631   2.069  12.248  0.2112 -0.2205  0.0120
  294TMC3    C4 4483   0.099   2.220  12.162  0.1943  0.0686  0.4632
  294TMC3    C5 4484   0.016   2.160  12.064 -0.0617  0.0470  0.0526
  294TMC3    C6 4485   4.657   2.077  12.113  0.0480 -0.4627  0.2882
  294TMC3     C 4486   0.207   2.166  12.376 -0.9466  0.2559 -0.1979
  294TMC3     O 4487   0.305   2.136  12.310  0.1901 -0.3530  0.4377
  294TMC3     H 4488   4.705   2.104  12.438 -2.4912  2.3909  1.0195
  294TMC3    H1 4489   0.187   2.276  12.130  0.3584  0.7168  2.0731
  294TMC3    H2 4490   4.599   2.028  12.035 -1.0999 -0.5287  1.1858
  294TMC3    C7 4491   0.080   2.123  11.940 -0.3019  0.6118 -0.1456
  294TMC3    C8 4492   4.539   1.973  12.296  0.4509 -0.6643 -0.5841
  294TMC3    O1 4493   0.200   2.096  11.941  0.3889 -1.1068  0.2365
  294TMC3    O2 4494   4.475   1.998  12.398  0.3423  0.1274 -0.1510
  295MPD2     C 4495   1.497   1.621   0.601 -1.2329 -0.3380 -0.0721
  295MPD2    C1 4496   1.365   1.597   0.658 -0.1997 -0.0014  0.6060
  295MPD2    C2 4497   1.355   1.530   0.776 -0.1294 -1.2430 -0.4154
  295MPD2    C3 4498   1.465   1.483   0.847 -0.6111 -0.0488  0.1490
  295MPD2    C4 4499   1.596   1.501   0.795 -0.0764 -0.1339  0.5261
  295MPD2    C5 4500   1.604   1.574   0.675  0.2632 -0.4572  0.2675
  295MPD2     H 4501   1.251   1.509   0.796 -0.0352 -1.5089 -0.2111
  295MPD2    H1 4502   1.688   1.463   0.838  0.3868  1.8725  1.3377
  295MPD2    H2 4503   1.519   1.686   0.517  1.2422  0.6687  1.3501
  295MPD2    H3 4504   1.704   1.603   0.644 -0.1217 -0.0623 -0.6219
  295MPD2     N 4505   1.448   1.408   0.968  0.1149 -0.5892 -0.6762
  295MPD2    H5 4506   1.526   1.353   1.003 -0.7523 -2.9926 -2.5576
  295MPD2    N1 4507   1.245   1.646   0.602  0.3130 -0.7674  0.2417
  295MPD2    H7 4508   1.158   1.605   0.634  0.2907 -2.1209 -1.5324
  296TMC3    C1 4509   1.333   1.341   1.159 -0.0885  0.8684  0.0753
  296TMC3    C2 4510   1.241   1.376   1.255  0.1642  0.0774  0.2640
  296TMC3    C3 4511   1.214   1.290   1.360 -0.7051 -0.2312 -0.6273
  296TMC3    C4 4512   1.401   1.221   1.177 -0.3158 -0.6091  0.2134
  296TMC3    C5 4513   1.377   1.145   1.287 -0.5685 -0.0987 -0.0228
  296TMC3    C6 4514   1.287   1.174   1.382 -0.6735  0.1084  0.2304
  296TMC3     C 4515   1.338   1.430   1.043 -0.3000 -0.2811  0.2433
  296TMC3     O 4516   1.240   1.500   1.022 -0.3850 -0.2938  0.0862
  296TMC3     H 4517   1.198   1.475   1.250  0.5490  0.3994  3.1262
  296TMC3    H1 4518   1.471   1.184   1.103 -0.8440 -0.0617 -0.5558
  296TMC3    H2 4519   1.256   1.114   1.467  0.6020  1.7849  1.8547
  296TMC3    C7 4520   1.420   1.010   1.281 -0.2791 -0.4551 -0.2885
  296TMC3    C8 4521   1.094   1.316   1.446  0.3555 -0.1326  0.1843
  296TMC3    O1 4522   1.522   0.988   1.216 -0.3798  0.1341  0.1116
  296TMC3    O2 4523   1.092   1.259   1.553  0.1712 -0.6205 -0.0930
  297MPD2     C 4524   3.029   2.382  16.328 -0.1673 -0.1858 -0.0536
  297MPD2    C1 4525   3.063   2.458  16.219 -0.1631  0.7659  0.7892
  297MPD2    C2 4526   3.157   2.556  16.232  0.0991 -0.1586 -0.3436
  297MPD2    C3 4527   3.210   2.588  16.357  0.4577 -0.1549  0.2352
  297MPD2    C4 4528   3.164   2.516  16.466 -0.6495 -0.0023  0.2317
  297MPD2    C5 4529   3.076   2.413  16.453 -0.5470  0.4699  0.6362
  297MPD2     H 4530   3.198   2.605  16.144 -0.0245  0.6785  0.0716
  297MPD2    H1 4531   3.202   2.536  16.566  0.4394  0.0087 -0.1811
  297MPD2    H2 4532   2.958   2.300  16.324 -1.2095  0.6375  1.4069
  297MPD2    H3 4533   3.053   2.348  16.537 -0.0533 -0.1864  0.2645
  297MPD2     N 4534   3.313   2.689  16.362 -0.1499  0.4230  0.5979
  297MPD2    H5 4535   3.319   2.757  16.287 -2.2292 -0.0730 -0.0046
  297MPD2    N1 4536   3.008   2.429  16.090 -0.1864 -0.5560 -0.1482
  297MPD2    H7 4537   3.049   2.481  16.013 -0.6369  1.3841  0.9186
  298TMC3    C1 4538   2.860   2.371  15.922  0.1707  0.7292 -0.8370
  298TMC3    C2 4539   2.960   2.379  15.830  0.0689 -0.0546  0.3674
  298TMC3    C3 4540   2.934   2.454  15.719  0.4169  0.0311  0.1870
  298TMC3    C4 4541   2.735   2.413  15.894  0.1816  0.1850  0.0392
  298TMC3    C5 4542   2.710   2.498  15.792 -0.0712 -0.1348 -0.7360
  298TMC3    C6 4543   2.810   2.515  15.701  0.1507 -0.1927 -0.5784
  298TMC3     C 4544   2.900   2.358  16.057  0.3351  0.0032 -0.3002
  298TMC3     O 4545   2.813   2.319  16.136  0.5471  0.3602 -0.5495
  298TMC3     H 4546   3.058   2.336  15.850 -0.2774 -0.6103  0.8534
  298TMC3    H1 4547   2.660   2.405  15.972  1.0935 -2.0572  0.6660
  298TMC3    H2 4548   2.799   2.591  15.624  0.7222 -0.1378 -0.6073
  298TMC3    C7 4549   2.622   2.606  15.831  0.2813  0.5556  0.9963
  298TMC3    C8 4550   3.038   2.523  15.646 -0.1555  0.3838  0.1359
  298TMC3    O1 4551   2.600   2.623  15.952  0.3596  0.0668  0.1836
  298TMC3    O2 4552   3.020   2.637  15.609 -0.5251  0.1660  0.8078
  299MPD2     C 4553   3.615   2.413  10.843 -0.0048 -0.3723 -0.0839
  299MPD2    C1 4554   3.583   2.540  10.808 -0.1174 -0.1970 -0.3193
  299MPD2    C2 4555   3.464   2.559  10.742 -0.0163 -0.1862 -0.0932
  299MPD2    C3 4556   3.377   2.457  10.725 -0.7309  0.0261  0.0362
  299MPD2    C4 4557   3.403   2.332  10.764  0.3921 -0.1755 -0.8108
  299MPD2    C5 4558   3.522   2.310  10.828 -0.0458  0.8872 -0.1525
  299MPD2     H 4559   3.450   2.654  10.690 -0.5931  0.2970  0.9340
  299MPD2    H1 4560   3.339   2.244  10.756  1.6620 -0.8006 -4.3206
  299MPD2    H2 4561   3.706   2.385  10.895  0.1869 -0.4449 -0.4555
  299MPD2    H3 4562   3.530   2.209  10.866  1.2552  1.6588  1.5878
  299MPD2     N 4563   3.253   2.463  10.657 -0.6093  0.2241  0.4815
  299MPD2    H5 4564   3.218   2.374  10.625 -1.3572  0.1586  1.4951
  299MPD2    N1 4565   3.668   2.637  10.844 -0.3522  0.1438 -0.3102
  299MPD2    H7 4566   3.734   2.606  10.915  1.6907 -2.8326 -3.4770
  300TMC3    C1 4567   3.049   2.564  10.586 -0.7358  0.1171 -0.4447
  300TMC3    C2 4568   2.979   2.684  10.584 -0.5958  0.4425  0.1281
  300TMC3    C3 4569   2.853   2.684  10.536 -0.0868  0.0263 -0.5691
  300TMC3    C4 4570   2.988   2.449  10.554 -0.5061 -0.7477  0.4620
  300TMC3    C5 4571   2.852   2.459  10.531  0.4194 -0.4656 -0.4734
  300TMC3    C6 4572   2.778   2.568  10.527 -0.3361  0.2223  0.5144
  300TMC3     C 4573   3.185   2.578  10.635 -0.3082 -0.3112 -0.3919
  300TMC3     O 4574   3.217   2.693  10.663 -0.0719 -0.0009  0.0784
  300TMC3     H 4575   3.026   2.778  10.609 -0.8642  1.2939 -2.5787
  300TMC3    H1 4576   3.033   2.351  10.564  1.1032  0.1482  1.9491
  300TMC3    H2 4577   2.674   2.574  10.500 -0.8961 -0.4177  2.5502
  300TMC3    C7 4578   2.780   2.337  10.544  0.1588  0.2511  0.2488
  300TMC3    C8 4579   2.795   2.818  10.508  0.0003 -0.5457 -0.6198
  300TMC3    O1 4580   2.825   2.231  10.505 -0.3487 -0.4755  0.2962
  300TMC3    O2 4581   2.843   2.906  10.582  0.9751 -0.6211 -0.2241
  301MPD2     C 4582   1.218   4.066   1.491  0.5188  0.5633 -0.2140
  301MPD2    C1 4583   1.085   4.028   1.480  0.5716 -0.5121 -0.5933
  301MPD2    C2 4584   1.050   3.895   1.468  0.2173 -0.6750 -0.4365
  301MPD2    C3 4585   1.157   3.804   1.466  0.0468  0.0536  0.4028
  301MPD2    C4 4586   1.285   3.838   1.490  0.2029  0.0710 -0.3699
  301MPD2    C5 4587   1.316   3.972   1.505  0.2412 -0.3436  0.5451
  301MPD2     H 4588   0.944   3.875   1.457 -0.0967  2.0647 -2.7473
  301MPD2    H1 4589   1.357   3.758   1.483  1.1400  0.8093  1.0730
  301MPD2    H2 4590   1.244   4.170   1.476  0.0395  0.9080  1.4108
  301MPD2    H3 4591   1.418   4.009   1.513 -0.4402  1.4199  0.9427
  301MPD2     N 4592   1.140   3.666   1.435  0.7406 -0.1700  0.7606
  301MPD2    H5 4593   1.216   3.603   1.458 -0.2708 -1.2629  1.1283
  301MPD2    N1 4594   0.979   4.115   1.465 -0.1458  0.4198  0.3872
  301MPD2    H7 4595   0.888   4.073   1.447  0.3147 -0.5444  0.3158
  302TMC3    C1 4596   1.035   3.491   1.316  0.3313  0.1252 -0.5567
  302TMC3    C2 4597   1.093   3.394   1.391 -0.4905  0.4541 -0.3132
  302TMC3    C3 4598   1.137   3.273   1.342  0.0821  0.2644  0.0170
  302TMC3    C4 4599   1.021   3.477   1.184  0.2309  0.6985  0.3676
  302TMC3    C5 4600   1.061   3.350   1.133 -0.1610  0.0130  1.0681
  302TMC3    C6 4601   1.129   3.251   1.205  0.2899  0.4205  0.4098
  302TMC3     C 4602   1.031   3.628   1.363  0.5519  0.4015 -0.7073
  302TMC3     O 4603   0.940   3.703   1.317 -0.0306  0.7589  0.5163
  302TMC3     H 4604   1.084   3.402   1.499 -0.5375 -1.7701 -0.1471
  302TMC3    H1 4605   0.995   3.570   1.135 -0.3884 -0.6711 -1.9221
  302TMC3    H2 4606   1.141   3.155   1.157  1.3108  0.8974 -0.2998
  302TMC3    C7 4607   0.999   3.321   0.998 -0.2430 -0.0440 -0.3207
  302TMC3    C8 4608   1.135   3.153   1.418  0.0760  0.2879  0.3759
  302TMC3    O1 4609   1.045   3.220   0.945  0.0385  0.3316  0.0009
  302TMC3    O2 4610   1.080   3.154   1.527 -0.1274  0.1725 -0.0067
  303MPD2     C 4611   0.475   2.784  10.124 -0.2919 -0.1520 -0.6581
  303MPD2    C1 4612   0.393   2.866  10.053 -0.1959 -0.1202 -0.2149
  303MPD2    C2 4613   0.394   2.875   9.914 -0.0255  0.3634  0.4629
  303MPD2    C3 4614   0.499   2.821   9.847 -0.0876 -0.1974 -0.3015
  303MPD2    C4 4615   0.599   2.748   9.914  0.5057  0.7524 -0.9266
  303MPD2    C5 4616   0.575   2.723  10.051  0.2192 -0.4571 -0.5397
  303MPD2     H 4617   0.304   2.901   9.859 -0.4809 -0.9419  0.5860
  303MPD2    H1 4618   0.686   2.699   9.871 -0.7873 -2.1031 -0.2850
  303MPD2    H2 4619   0.462   2.764  10.229  0.5960  3.2108  0.0993
  303MPD2    H3 4620   0.640   2.656  10.106 -0.4855  1.2350  2.3033
  303MPD2     N 4621   0.510   2.824   9.707 -0.5530 -0.2757 -0.0939
  303MPD2    H5 4622   0.586   2.773   9.665 -0.1846  0.3727 -0.2072
  303MPD2    N1 4623   0.288   2.923  10.126  0.2653  0.1712  0.0809
  303MPD2    H7 4624   0.279   2.915  10.227  0.8751  0.8330  0.1860
  304TMC3    C1 4625   0.070   3.026  10.154  0.7138 -0.4646  0.6894
  304TMC3    C2 4626   4.710   3.115  10.108 -0.7288  0.0320  0.0515
  304TMC3    C3 4627   4.589   3.102  10.170 -0.2355  0.2607 -0.4074
  304TMC3    C4 4628   0.043   2.926  10.238 -0.5149  0.6646  0.3223
  304TMC3    C5 4629   4.657   2.912  10.296 -0.0178 -0.0565  0.1538
  304TMC3    C6 4630   4.559   3.002  10.260  0.1960  0.2942 -0.3659
  304TMC3     C 4631   0.194   3.012  10.074  0.3638 -0.6667  0.4405
  304TMC3     O 4632   0.190   3.070   9.966  0.1244  0.2729  0.5532
  304TMC3     H 4633   0.014   3.186  10.036  3.3496  0.2994  2.5361
  304TMC3    H1 4634   0.120   2.855  10.267 -1.4894 -1.1425 -1.5226
  304TMC3    H2 4635   4.461   2.994  10.305  0.1495  0.4647 -0.4377
  304TMC3    C7 4636   4.613   2.773  10.278  0.4385 -0.4567  0.3127
  304TMC3    C8 4637   4.470   3.136  10.092 -0.0445 -0.1871 -0.2652
  304TMC3    O1 4638   4.697   2.689  10.303  0.2728  0.2389 -0.4209
  304TMC3    O2 4639   4.360   3.090  10.118  0.3493 -0.7204 -0.0234
  305MPD2     C 4640   3.609   4.301  13.901 -0.1966 -0.0893  0.1520
  305MPD2    C1 4641   3.709   4.212  13.916  0.3329 -0.8184 -0.0885
  305MPD2    C2 4642   3.757   4.144  13.808  0.0053 -0.1902 -0.4780
  305MPD2    C3 4643   3.713   4.177  13.683  1.0104  0.1093 -0.0189
  305MPD2    C4 4644   3.610   4.263  13.674  0.4306 -0.9906 -1.2870
  305MPD2    C5 4645   3.554   4.319  13.779  0.1291  0.1177 -0.0169
  305MPD2     H 4646   3.830   4.064  13.822 -0.7053 -0.9116 -0.8855
  305MPD2    H1 4647   3.561   4.286  13.580 -1.3217  1.1294  0.1531
  305MPD2    H2 4648   3.572   4.352  13.989  0.4572  1.2635 -0.3631
  305MPD2    H3 4649   3.476   4.390  13.753  0.2548  0.5319  0.7576
  305MPD2     N 4650   3.767   4.126  13.567 -0.2498  0.3635  0.5270
  305MPD2    H5 4651   3.735   4.157  13.476 -1.0838 -2.8091 -0.2853
  305MPD2    N1 4652   3.773   4.205  14.043 -0.1269 -0.7271 -0.3914
  305MPD2    H7 4653   3.753   4.280  14.109  2.8824 -0.3341  0.0488
  306TMC3    C1 4654   3.969   4.190  14.166  0.3852 -0.2547  0.2465
  306TMC3    C2 4655   4.075   4.115  14.201 -0.0120 -0.3107 -0.4551
  306TMC3    C3 4656   4.185   4.168  14.269 -0.4318  0.2427  0.1394
  306TMC3    C4 4657   3.983   4.328  14.185 -0.0389 -0.1862 -0.2050
  306TMC3    C5 4658   4.096   4.374  14.245 -0.5061  0.2945 -0.5629
  306TMC3    C6 4659   4.195   4.299  14.297  0.5548 -0.4436 -0.5726
  306TMC3     C 4660   3.880   4.127  14.069 -0.5181  0.0750  0.9000
  306TMC3     O 4661   3.910   4.015  14.026  0.1415 -0.0745 -0.5066
  306TMC3     H 4662   4.071   4.009  14.178  1.6792 -0.5583  0.4120
  306TMC3    H1 4663   3.918   4.391  14.125  0.0339  0.0534 -0.0313
  306TMC3    H2 4664   4.286   4.336  14.344 -0.1704  3.9851 -2.6490
  306TMC3    C7 4665   4.084   4.513  14.286  0.1475 -0.4254  0.0214
  306TMC3    C8 4666   4.262   4.069  14.335 -0.4027 -0.3191 -0.7126
  306TMC3    O1 4667   3.979   4.564  14.256 -0.6214 -0.3945 -0.5993
  306TMC3    O2 4668   4.255   3.951  14.296  0.1957 -0.0154 -0.1608
  307MPD2     C 4669   1.958   2.365   0.382 -0.2316 -0.0373  0.2924
  307MPD2    C1 4670   1.954   2.499   0.343 -0.0063 -0.4819  0.4736
  307MPD2    C2 4671   1.904   2.598   0.432  0.1368  0.3804 -0.8649
  307MPD2    C3 4672   1.855   2.557   0.549  0.5529 -0.5770  0.3377
  307MPD2    C4 4673   1.854   2.424   0.582  0.0033  0.4941  0.5856
  307MPD2    C5 4674   1.917   2.330   0.507 -0.1784  0.7144 -0.0635
  307MPD2     H 4675   1.893   2.701   0.400  1.4984  1.1848  1.2448
  307MPD2    H1 4676   1.813   2.398   0.679  0.2937  0.6719  0.7547
  307MPD2    H2 4677   1.997   2.287   0.317  0.6983  2.4856 -2.1845
  307MPD2    H3 4678   1.917   2.228   0.545  0.4129  1.0871  0.9474
  307MPD2     N 4679   1.800   2.662   0.631  0.1579  0.4810  0.0599
  307MPD2    H5 4680   1.784   2.753   0.590  1.6532  0.4767 -0.5493
  307MPD2    N1 4681   1.976   2.540   0.211 -0.1475 -0.0743  0.9202
  307MPD2    H7 4682   1.965   2.640   0.202 -0.0767 -0.0231  1.4297
  308TMC3    C1 4683   1.492   2.761   0.977  0.3497 -0.4637 -0.3068
  308TMC3    C2 4684   1.512   2.893   0.984  0.3257 -0.2254  0.1710
  308TMC3    C3 4685   1.610   2.946   0.900 -0.1148  0.3468 -0.6266
  308TMC3    C4 4686   1.569   2.679   0.903 -0.1272 -0.6505 -0.1407
  308TMC3    C5 4687   1.654   2.732   0.814 -0.5307  0.1839  0.9226
  308TMC3    C6 4688   1.685   2.870   0.814  0.0474  0.1789 -0.1862
  308TMC3     C 4689   1.373   2.702   1.028  0.4357  1.1143 -0.9382
  308TMC3     O 4690   1.383   2.590   1.069 -0.1632 -0.6842 -0.3193
  308TMC3     H 4691   1.447   2.953   1.047  1.3880  0.7863  0.2886
  308TMC3    H1 4692   1.553   2.572   0.916 -0.8810 -0.7116 -1.6424
  308TMC3    H2 4693   1.765   2.914   0.757  1.1683 -1.7278 -0.0625
  308TMC3    C7 4694   1.753   2.634   0.763  0.4054 -0.6227 -0.0523
  308TMC3    C8 4695   1.627   3.088   0.918  0.8978 -0.5796 -0.1054
  308TMC3    O1 4696   1.783   2.542   0.837 -0.1938  0.1330  0.3463
  308TMC3    O2 4697   1.583   3.137   1.023  0.0821  0.6923  0.3755
  309MPD2     C 4698   1.122   2.851  17.203 -0.1164 -0.7384  0.1396
  309MPD2    C1 4699   1.081   2.945  17.115  0.4079 -0.7565 -0.1659
  309MPD2    C2 4700   0.952   2.991  17.124 -0.4190 -0.3679 -0.2469
  309MPD2    C3 4701   0.875   2.974  17.244  0.1819 -0.0990 -0.1661
  309MPD2    C4 4702   0.924   2.886  17.334  0.1585 -0.4323 -0.2162
  309MPD2    C5 4703   1.042   2.827  17.317  0.2109 -0.7460 -0.4049
  309MPD2     H 4704   0.926   3.065  17.050 -0.6876  0.3923  0.5979
  309MPD2    H1 4705   0.870   2.863  17.426  1.7481  0.9372  1.0654
  309MPD2    H2 4706   1.208   2.787  17.192 -0.0057 -0.3793 -1.0329
  309MPD2    H3 4707   1.072   2.750  17.387  1.1180  0.0308  0.0604
  309MPD2     N 4708   0.758   3.052  17.255  0.1364  0.2545 -0.3915
  309MPD2    H5 4709   0.712   3.028  17.343 -1.1078 -1.7755 -1.5963
  309MPD2    N1 4710   1.159   2.983  17.003  0.1561 -0.3067  0.7507
  309MPD2    H7 4711   1.106   3.010  16.920 -0.2540  0.0629  1.1369
  310TMC3    C1 4712   1.346   3.004  16.860 -0.1176 -0.2253  0.1409
  310TMC3    C2 4713   1.263   3.079  16.782  0.4329  0.3583 -0.6389
  310TMC3    C3 4714   1.296   3.091  16.651  0.8869 -0.2660  0.3166
  310TMC3    C4 4715   1.451   2.936  16.815 -0.9308  0.2807  0.1024
  310TMC3    C5 4716   1.467   2.936  16.682 -0.1510  0.0401 -0.4377
  310TMC3    C6 4717   1.406   3.024  16.597  0.3747 -0.3810 -0.1145
  310TMC3     C 4718   1.296   2.968  16.991 -0.4451 -0.0517 -0.5161
  310TMC3     O 4719   1.376   2.934  17.074 -0.4279  0.7202  0.2963
  310TMC3     H 4720   1.169   3.119  16.817  0.5878 -0.9715  1.3295
  310TMC3    H1 4721   1.513   2.877  16.881 -0.3272  1.8929  0.9751
  310TMC3    H2 4722   1.411   3.001  16.491 -0.1981  1.7599 -0.6106
  310TMC3    C7 4723   1.550   2.829  16.624 -0.4659  0.0993  0.5450
  310TMC3    C8 4724   1.197   3.156  16.554  0.3508 -0.1713  0.3573
  310TMC3    O1 4725   1.580   2.736  16.702 -0.3397 -0.1491  0.0747
  310TMC3    O2 4726   1.079   3.133  16.578  0.3354 -0.0462  0.3416
  311MPD2     C 4727   3.011   3.696  12.624 -0.8259 -0.1723 -0.1963
  311MPD2    C1 4728   2.996   3.792  12.716  1.1646  0.5456 -0.2703
  311MPD2    C2 4729   2.891   3.788  12.798 -0.3359  0.3483 -0.0926
  311MPD2    C3 4730   2.797   3.692  12.781  1.1546  0.4352 -0.2820
  311MPD2    C4 4731   2.807   3.596  12.680  0.8865 -0.1814 -0.5182
  311MPD2    C5 4732   2.918   3.598  12.606 -0.5409  1.1873 -1.3031
  311MPD2     H 4733   2.875   3.863  12.875  1.5388 -0.8090  1.4112
  311MPD2    H1 4734   2.723   3.534  12.650 -0.3088  1.4636 -0.5722
  311MPD2    H2 4735   3.097   3.701  12.559 -0.7105  0.2246 -0.0146
  311MPD2    H3 4736   2.933   3.526  12.527 -1.7590 -0.4343 -0.0673
  311MPD2     N 4737   2.687   3.707  12.872 -0.6078  0.4461  0.6090
  311MPD2    H5 4738   2.694   3.792  12.927 -0.1310  0.8016  0.0057
  311MPD2    N1 4739   3.093   3.894  12.739 -0.1471  0.6905 -0.1344
  311MPD2    H7 4740   3.073   3.959  12.815 -3.2176  0.5966 -0.8788
  312TMC3    C1 4741   2.470   3.706  12.946  0.0709 -1.0170  0.0527
  312TMC3    C2 4742   2.342   3.698  12.906  0.3953 -0.7877 -0.0755
  312TMC3    C3 4743   2.241   3.755  12.984 -0.3495 -0.1044 -0.4013
  312TMC3    C4 4744   2.510   3.788  13.050  0.2925  0.0525 -0.4733
  312TMC3    C5 4745   2.409   3.858  13.117  0.2897  0.9736  0.3517
  312TMC3    C6 4746   2.275   3.831  13.092  0.4726 -0.3724 -0.4188
  312TMC3     C 4747   2.567   3.643  12.865 -0.0534 -0.9313 -0.4369
  312TMC3     O 4748   2.527   3.546  12.799 -0.1505 -0.0918 -0.0445
  312TMC3     H 4749   2.320   3.622  12.832  1.3669 -1.7270  0.6263
  312TMC3    H1 4750   2.613   3.787  13.086 -0.2498  2.4279  1.0882
  312TMC3    H2 4751   2.199   3.878  13.154  1.0829 -1.3120  1.0325
  312TMC3    C7 4752   2.460   3.976  13.185  0.9737 -0.2299 -0.5288
  312TMC3    C8 4753   2.106   3.719  12.952  0.7088 -0.3968  0.2935
  312TMC3    O1 4754   2.569   4.013  13.145  0.9747  0.4179  0.0028
  312TMC3    O2 4755   2.080   3.620  12.879 -0.0913  0.1966 -0.0798
  313MPD2     C 4756   2.400   2.790  10.587 -0.6969  0.6059 -0.9705
  313MPD2    C1 4757   2.313   2.864  10.502  0.0392 -0.1492  0.3634
  313MPD2    C2 4758   2.232   2.797  10.413 -0.1234 -0.0365  0.4231
  313MPD2    C3 4759   2.232   2.656  10.421  0.2982  0.6540  0.0873
  313MPD2    C4 4760   2.317   2.586  10.506 -0.4820 -0.1836  0.4442
  313MPD2    C5 4761   2.396   2.652  10.600 -0.0111 -0.8511  0.5001
  313MPD2     H 4762   2.171   2.846  10.338  0.9313  0.9921  0.2456
  313MPD2    H1 4763   2.323   2.478  10.500 -2.7104 -0.3763  1.5372
  313MPD2    H2 4764   2.447   2.836  10.674  0.9538  0.4225 -1.7620
  313MPD2    H3 4765   2.461   2.596  10.665  1.7092 -1.3860 -1.6891
  313MPD2     N 4766   2.140   2.600  10.340 -0.4111 -0.3193  0.0633
  313MPD2    H5 4767   2.086   2.657  10.275 -0.7763  0.4269  1.0098
  313MPD2    N1 4768   2.316   3.010  10.499  1.0569 -0.0833 -0.2014
  313MPD2    H7 4769   2.255   3.060  10.435  0.8509  1.0551  0.8926
  314TMC3    C1 4770   2.377   3.235  10.549 -0.6569 -0.4699  0.9787
  314TMC3    C2 4771   2.446   3.320  10.631 -0.1415  0.3843  0.7153
  314TMC3    C3 4772   2.417   3.453  10.613 -1.1016 -0.1513  0.2765
  314TMC3    C4 4773   2.279   3.276  10.461 -0.2411  0.5558 -0.1291
  314TMC3    C5 4774   2.261   3.408  10.435 -0.3752 -0.1190  0.1758
  314TMC3    C6 4775   2.324   3.502  10.521  1.0519 -0.1016  0.8238
  314TMC3     C 4776   2.392   3.094  10.577  0.4862  0.2117  0.7168
  314TMC3     O 4777   2.455   3.063  10.675  0.1666 -0.6591 -0.2839
  314TMC3     H 4778   2.526   3.285  10.696 -1.0337  1.0053  2.1363
  314TMC3    H1 4779   2.225   3.209  10.395  2.5947 -0.6507 -1.1978
  314TMC3    H2 4780   2.295   3.606  10.526 -0.8683 -0.4443 -3.3908
  314TMC3    C7 4781   2.135   3.449  10.366  0.1584  0.2212  0.0956
  314TMC3    C8 4782   2.494   3.554  10.690  0.8751 -0.0178 -0.4480
  314TMC3    O1 4783   2.049   3.372  10.328  0.1559 -0.4737 -0.5112
  314TMC3    O2 4784   2.513   3.660  10.639  0.2496 -0.5482 -0.4282
  315MPD2     C 4785   2.328   2.220  17.397 -0.1756  0.1962 -0.6051
  315MPD2    C1 4786   2.389   2.289  17.499 -0.0556 -0.0767  0.4196
  315MPD2    C2 4787   2.409   2.426  17.470  0.5980  0.3109  0.1708
  315MPD2    C3 4788   2.361   2.486  17.352 -0.0920  0.2423  0.1947
  315MPD2    C4 4789   2.302   2.409  17.254  0.1905 -0.7104  0.1789
  315MPD2    C5 4790   2.277   2.277  17.286  1.0086  0.6826 -0.5194
  315MPD2     H 4791   2.471   2.487  17.535  0.4286  0.5998  0.0612
  315MPD2    H1 4792   2.270   2.431  17.152  2.1332  0.0429 -0.2608
  315MPD2    H2 4793   2.305   2.116  17.418 -0.0193  0.2825 -0.0149
  315MPD2    H3 4794   2.227   2.220  17.208 -0.0479  0.2548  0.4682
  315MPD2     N 4795   2.393   2.623  17.333 -0.1135  0.2585 -0.0107
  315MPD2    H5 4796   2.434   2.663  17.417  0.5998 -2.0650  0.7656
  315MPD2    N1 4797   2.448   2.223  17.603  0.2138  0.6291 -0.5242
  315MPD2    H7 4798   2.498   2.287  17.663 -0.3452 -0.9829  1.6614
  316TMC3    C1 4799   2.394   2.838  17.230  0.0716  0.1825  0.3222
  316TMC3    C2 4800   2.413   2.891  17.360 -0.0694  0.0129 -0.7943
  316TMC3    C3 4801   2.496   3.001  17.374 -0.5147  0.6946 -0.2372
  316TMC3    C4 4802   2.444   2.909  17.118  0.5648 -0.2426  0.7206
  316TMC3    C5 4803   2.523   3.024  17.135 -0.2917 -0.0032  0.0009
  316TMC3    C6 4804   2.539   3.073  17.262 -0.2287  0.3633  0.0251
  316TMC3     C 4805   2.354   2.700  17.223  0.5655  0.5005  0.0983
  316TMC3     O 4806   2.312   2.667  17.115 -0.6128 -0.5338  0.7520
  316TMC3     H 4807   2.380   2.842  17.451  1.0747  1.3275  0.3267
  316TMC3    H1 4808   2.412   2.879  17.018  1.4025  2.3876 -0.3374
  316TMC3    H2 4809   2.602   3.159  17.281 -1.3429  0.5759  2.8531
  316TMC3    C7 4810   2.610   3.075  17.029  0.1943  0.1278 -0.7139
  316TMC3    C8 4811   2.501   3.072  17.496 -0.0258  1.0473 -0.0127
  316TMC3    O1 4812   2.712   3.134  17.068 -0.4038  0.2546  0.5012
  316TMC3    O2 4813   2.530   3.190  17.499 -0.2735 -0.0977 -0.2671
  317MPD2     C 4814   4.184   1.280  12.850  0.3592  0.0917 -0.0151
  317MPD2    C1 4815   4.244   1.171  12.799  0.7497  0.1891 -0.5775
  317MPD2    C2 4816   4.340   1.111  12.875  0.0474 -0.9265 -0.1025
  317MPD2    C3 4817   4.364   1.153  13.003  0.4456  0.1169 -0.6945
  317MPD2    C4 4818   4.309   1.274  13.053  0.1567 -0.0479 -0.2781
  317MPD2    C5 4819   4.219   1.334  12.973 -0.3968  0.7888 -0.2570
  317MPD2     H 4820   4.388   1.030  12.822 -1.1507  0.1134 -2.7924
  317MPD2    H1 4821   4.329   1.314  13.152 -0.5585 -0.2255 -0.0689
  317MPD2    H2 4822   4.114   1.337  12.789 -1.3458 -0.3795  1.5103
  317MPD2    H3 4823   4.171   1.427  13.005 -2.6798 -0.5397  0.1586
  317MPD2     N 4824   4.440   1.057  13.073  0.1040 -0.2421 -0.1067
  317MPD2    H5 4825   4.490   0.986  13.020 -1.6651  0.5484 -2.8671
  317MPD2    N1 4826   4.225   1.126  12.668  0.4619  0.3178 -0.0392
  317MPD2    H7 4827   4.288   1.060  12.623 -0.4258 -0.6850  0.1676
  318TMC3    C1 4828   4.545   0.948  13.249 -0.6491  0.7741  0.2578
  318TMC3    C2 4829   4.525   0.829  13.193  0.3792  0.7595 -0.5076
  318TMC3    C3 4830   4.584   0.722  13.252  0.8832  0.3776  0.3178
  318TMC3    C4 4831   4.617   0.956  13.367 -0.7147  0.2967  0.1360
  318TMC3    C5 4832   4.673   0.843  13.423  0.3216 -0.1712  0.0606
  318TMC3    C6 4833   4.651   0.725  13.370  0.0493  0.2383  0.1572
  318TMC3     C 4834   4.476   1.066  13.207  0.2159 -0.1142 -0.2202
  318TMC3     O 4835   4.444   1.154  13.287 -0.6047  0.5339  0.1835
  318TMC3     H 4836   4.463   0.818  13.105 -2.0660  0.0909  1.2915
  318TMC3    H1 4837   4.629   1.051  13.416 -0.4324  0.1033  0.4384
  318TMC3    H2 4838   4.667   0.634  13.428  0.1495  0.0014 -0.2389
  318TMC3    C7 4839   0.006   0.853  13.552 -0.1844 -0.0804 -0.0552
  318TMC3    C8 4840   4.558   0.595  13.203 -0.5484 -0.4327 -0.8588
  318TMC3    O1 4841   0.012   0.964  13.601  0.1789 -0.2904  0.1159
  318TMC3    O2 4842   4.634   0.503  13.229  0.2235 -0.1125 -0.3392
  319MPD2     C 4843   0.388   2.494  16.222  0.1206 -0.1742 -0.0544
  319MPD2    C1 4844   0.277   2.459  16.295 -0.0063 -0.3403  0.4221
  319MPD2    C2 4845   0.225   2.330  16.277  0.4061  0.0865 -0.9255
  319MPD2    C3 4846   0.282   2.246  16.184  0.1597 -0.1979 -0.8066
  319MPD2    C4 4847   0.378   2.288  16.100  0.0245 -0.5992 -0.0402
  319MPD2    C5 4848   0.437   2.407  16.123  0.4075 -0.1901 -0.8444
  319MPD2     H 4849   0.125   2.308  16.312 -1.3949  2.7442 -4.4299
  319MPD2    H1 4850   0.401   2.237  16.007 -1.5751 -0.4049 -0.5460
  319MPD2    H2 4851   0.429   2.594  16.231 -0.5762  0.1491 -0.4023
  319MPD2    H3 4852   0.515   2.446  16.059 -0.7972  3.4193 -0.0727
  319MPD2     N 4853   0.221   2.125  16.147  0.7872 -0.0687 -0.1220
  319MPD2    H5 4854   0.267   2.079  16.069  0.3407 -0.7944  0.0405
  319MPD2    N1 4855   0.207   2.541  16.388  0.2460 -0.5329  0.1561
  319MPD2    H7 4856   0.116   2.503  16.413 -0.1126 -0.7404 -1.4624
  320TMC3    C1 4857   0.057   1.945  16.161 -0.5381  0.2649 -0.1130
  320TMC3    C2 4858   0.058   1.935  16.021  0.9289 -0.2427  0.2693
  320TMC3    C3 4859   4.689   1.865  15.965  0.2691 -0.3821 -0.5080
  320TMC3    C4 4860   4.708   1.868  16.241 -0.6198  0.3449 -0.1070
  320TMC3    C5 4861   4.629   1.774  16.181 -0.7040 -0.0619 -0.5996
  320TMC3    C6 4862   4.615   1.777  16.039  0.0535  0.1689  0.6346
  320TMC3     C 4863   0.129   2.055  16.227 -0.5771 -0.4139  0.0235
  320TMC3     O 4864   0.087   2.073  16.340 -0.1045  0.3276  0.3036
  320TMC3     H 4865   0.119   2.004  15.964  0.0859  0.3353  0.0651
  320TMC3    H1 4866   4.724   1.873  16.348 -0.2702  0.1831 -0.1513
  320TMC3    H2 4867   4.546   1.708  15.993  1.1712  0.3690 -1.3701
  320TMC3    C7 4868   4.630   1.638  16.237  0.0818 -0.1151 -0.6071
  320TMC3    C8 4869   4.620   1.933  15.855 -0.2392 -0.6345 -0.2368
  320TMC3    O1 4870   4.581   1.552  16.166 -0.2770 -0.0091 -0.2025
  320TMC3    O2 4871   4.669   2.029  15.807 -0.7373 -0.5077  0.4872
  321TMC3    C1 4872   0.140   2.719  16.517 -0.2030  0.3549  0.1579
  321TMC3    C2 4873   0.075   2.618  16.593  0.1122 -0.0899 -0.5072
  321TMC3    C3 4874   0.002   2.666  16.702  0.0209 -0.1768 -0.1059
  321TMC3    C4 4875   0.145   2.843  16.562 -0.0460 -0.0867 -0.4415
  321TMC3    C5 4876   0.080   2.885  16.676  0.0414  0.6897  0.1759
  321TMC3    C6 4877   4.723   2.802  16.728  0.3987 -0.4432  0.0253
  321TMC3     C 4878   0.237   2.671  16.417  0.7445  0.3780  0.1096
  321TMC3     O 4879   0.329   2.741  16.379  0.3506  0.3918  0.5482
  321TMC3     H 4880   0.069   2.513  16.565 -0.1702  0.2324 -1.6721
  321TMC3    H1 4881   0.214   2.914  16.518  0.8186 -0.8896 -0.3843
  321TMC3    H2 4882   4.659   2.825  16.813 -0.5767 -0.0432 -0.8024
  321TMC3    C7 4883   0.176   2.925  16.778  0.1206 -0.1529 -0.3596
  321TMC3    C8 4884   0.028   2.600  16.824  0.0033  0.2151  0.3115
  321TMC3    O1 4885   0.291   2.906  16.747 -0.1060 -0.5881  0.0689
  321TMC3    O2 4886   0.029   2.663  16.931 -0.2787  0.4191  0.7942
  322MPD2     C 4887   4.284   3.306  12.861  0.4773 -0.3877 -0.1455
  322MPD2    C1 4888   4.212   3.286  12.985  0.0842  0.5136 -0.0068
  322MPD2    C2 4889   4.189   3.158  13.025  0.4345 -0.4308 -0.0720
  322MPD2    C3 4890   4.227   3.053  12.948  0.7450 -0.1015 -0.4141
  322MPD2    C4 4891   4.298   3.072  12.835  0.1966 -0.3644  0.3772
  322MPD2    C5 4892   4.331   3.194  12.791  0.2079 -0.1728 -0.3171
  322MPD2     H 4893   4.145   3.137  13.121 -0.7049 -3.8920 -1.3611
  322MPD2    H1 4894   4.334   2.994  12.768  0.5653  2.7512 -3.0538
  322MPD2    H2 4895   4.314   3.399  12.812 -0.8547  0.2958  0.3430
  322MPD2    H3 4896   4.388   3.219  12.703  1.0400 -2.1409 -0.3237
  322MPD2     N 4897   4.206   2.921  13.008  0.4913 -0.4187 -0.1626
  322MPD2    H5 4898   4.152   2.925  13.093 -0.2908  1.7035 -0.7586
  322MPD2    N1 4899   4.168   3.399  13.055  0.0978 -0.1117  0.0262
  322MPD2    H7 4900   4.190   3.490  13.016 -0.7382  0.2248  0.3418
  323TMC3    C1 4901   4.050   3.519  13.222  0.0144 -0.0546 -0.0489
  323TMC3    C2 4902   4.153   3.613  13.212 -1.0513 -0.0250  0.1112
  323TMC3    C3 4903   4.140   3.722  13.299  0.3564  0.1339 -0.6468
  323TMC3    C4 4904   3.954   3.518  13.326  0.7203  0.3356  0.2076
  323TMC3    C5 4905   3.950   3.622  13.413  0.1522 -0.7252 -0.0532
  323TMC3    C6 4906   4.035   3.725  13.395  0.2542 -0.1999 -0.1735
  323TMC3     C 4907   4.078   3.392  13.158 -0.1915 -0.0329  0.1049
  323TMC3     O 4908   4.036   3.298  13.218 -0.1810 -0.5662  0.1974
  323TMC3     H 4909   4.232   3.616  13.138  0.3230  0.6749  1.5940
  323TMC3    H1 4910   3.899   3.427  13.345  3.9996 -1.8280 -0.6035
  323TMC3    H2 4911   4.028   3.816  13.454 -1.3639  0.0552 -0.7400
  323TMC3    C7 4912   3.941   3.571  13.552  0.1915 -0.0348  0.5578
  323TMC3    C8 4913   4.259   3.761  13.367  0.1096  0.2854 -0.1861
  323TMC3    O1 4914   3.896   3.458  13.573  0.3707  0.3219  0.3370
  323TMC3    O2 4915   4.257   3.767  13.491 -0.1283 -0.4509  0.5499
  324MPD2     C 4916   1.129   4.276  14.410 -0.2691 -0.3870  0.2658
  324MPD2    C1 4917   1.140   4.408  14.367 -0.1104  0.3254  0.5389
  324MPD2    C2 4918   1.030   4.481  14.332  0.2660  0.6799 -0.6220
  324MPD2    C3 4919   0.901   4.421  14.335 -0.6600 -0.0265 -0.4043
  324MPD2    C4 4920   0.890   4.291  14.377 -0.1980  0.7282 -0.1766
  324MPD2    C5 4921   1.003   4.221  14.417  0.0503  0.2822 -0.2061
  324MPD2     H 4922   1.049   4.582  14.299  0.9864 -0.0779 -2.5441
  324MPD2    H1 4923   0.795   4.240  14.387 -0.4017  1.1423  0.0458
  324MPD2    H2 4924   1.213   4.214  14.437  0.0147  0.8245  2.1723
  324MPD2    H3 4925   0.996   4.119  14.453  0.7386  0.5101  0.5459
  324MPD2     N 4926   0.787   4.494  14.302  0.4427  0.6142 -0.1264
  324MPD2    H5 4927   0.698   4.448  14.315  0.8925 -0.4356 -0.8017
  324MPD2    N1 4928   1.267   4.461  14.356 -0.2265  0.3463 -0.1102
  324MPD2    H7 4929   1.276   4.547  14.302  0.3320 -0.5566 -1.4727
  325TMC3    C1 4930   0.628   4.651  14.205 -0.8543 -0.8478 -0.4093
  325TMC3    C2 4931   0.587   4.572  14.104  0.3182  0.2196 -0.0734
  325TMC3    C3 4932   0.493   4.617  14.019 -0.0601  0.1630 -0.3118
  325TMC3    C4 4933   0.612   0.052  14.197 -1.0055  0.0217 -0.3211
  325TMC3    C5 4934   0.521   0.100  14.110  0.6695  0.5622  0.3018
  325TMC3    C6 4935   0.461   0.017  14.020 -0.5751 -0.7663 -0.2537
  325TMC3     C 4936   0.769   4.623  14.251 -0.2238 -0.0591  0.2303
  325TMC3     O 4937   0.849   4.714  14.247  0.1104  0.3220 -0.0273
  325TMC3     H 4938   0.624   4.470  14.105  0.4394  0.2610 -0.3625
  325TMC3    H1 4939   0.639   0.116  14.281 -2.5752  0.7457 -0.3823
  325TMC3    H2 4940   0.398   0.059  13.942 -0.4366  1.4605  0.8280
  325TMC3    C7 4941   0.456   0.223  14.151  0.5993  0.4478 -0.4157
  325TMC3    C8 4942   0.440   4.524  13.926 -0.1639  0.2991  0.7044
  325TMC3    O1 4943   0.524   0.313  14.196 -0.1325 -0.3942 -0.1043
  325TMC3    O2 4944   0.486   4.412  13.932  0.8467  0.1412 -0.4223
  326MPD2     C 4945   2.492   0.986  11.605  0.7084  0.2065 -1.5186
  326MPD2    C1 4946   2.540   0.937  11.483 -0.2781 -0.1683  0.0939
  326MPD2    C2 4947   2.671   0.896  11.466 -0.2862  0.4861  0.1956
  326MPD2    C3 4948   2.765   0.928  11.556 -0.2612  0.0731  0.2499
  326MPD2    C4 4949   2.714   0.967  11.677  0.6500 -0.1835 -0.6113
  326MPD2    C5 4950   2.585   0.992  11.702  0.3360 -0.4008 -0.0163
  326MPD2     H 4951   2.703   0.854  11.371 -0.1951  0.9680  0.0180
  326MPD2    H1 4952   2.780   0.974  11.763  0.4907 -1.3165 -0.3938
  326MPD2    H2 4953   2.392   1.020  11.630  1.1560  0.3722  0.0568
  326MPD2    H3 4954   2.559   1.026  11.802 -2.5890 -0.2878 -0.8120
  326MPD2     N 4955   2.904   0.918  11.533  0.2953 -0.0137 -0.2953
  326MPD2    H5 4956   2.960   0.949  11.612 -1.0775  1.4669  0.0935
  326MPD2    N1 4957   2.458   0.929  11.368 -0.1547 -0.4482 -0.0252
  326MPD2    H7 4958   2.498   0.900  11.279  0.6864 -0.0805  0.2375
  327TMC3    C1 4959   2.273   0.950  11.221  0.4041  0.3051 -0.5222
  327TMC3    C2 4960   2.190   1.048  11.169 -0.2338 -0.1771  0.0696
  327TMC3    C3 4961   2.177   1.046  11.032  0.4647 -0.6533  0.8924
  327TMC3    C4 4962   2.338   0.851  11.142  0.1489  0.3876  0.7453
  327TMC3    C5 4963   2.322   0.855  11.001 -0.3216  0.0351 -0.0750
  327TMC3    C6 4964   2.249   0.961  10.949 -0.4765  0.3054 -0.4201
  327TMC3     C 4965   2.324   0.976  11.354 -0.1439  0.0365 -0.6121
  327TMC3     O 4966   2.260   1.058  11.418 -0.0299  0.2929  0.0866
  327TMC3     H 4967   2.155   1.126  11.236 -0.9117  1.2189 -1.9199
  327TMC3    H1 4968   2.391   0.771  11.192  0.3615  0.9327  1.3840
  327TMC3    H2 4969   2.241   0.985  10.844  0.7804  2.6814  0.0168
  327TMC3    C7 4970   2.433   0.819  10.917 -0.2206  0.3595  0.4790
  327TMC3    C8 4971   2.103   1.157  10.971  0.1961  0.2351  0.3134
  327TMC3    O1 4972   2.452   0.897  10.825  0.3148 -0.0445  0.2011
  327TMC3    O2 4973   2.121   1.181  10.853  0.8219 -0.2769  0.3177
  328MPD2     C 4974   4.686   1.263  17.348 -0.3510  0.1091  0.7268
  328MPD2    C1 4975   4.599   1.158  17.353 -0.3134  0.3699  0.6905
  328MPD2    C2 4976   4.534   1.114  17.237 -0.4557  0.3157  0.6533
  328MPD2    C3 4977   4.549   1.188  17.120 -0.0124 -0.5306  0.8080
  328MPD2    C4 4978   4.620   1.306  17.124 -0.0295 -0.4161 -0.5455
  328MPD2    C5 4979   4.693   1.339  17.235  0.2009 -0.3309  0.5358
  328MPD2     H 4980   4.461   1.034  17.244  1.1893 -1.1076  1.3919
  328MPD2    H1 4981   4.630   1.378  17.044 -0.4779 -1.5636 -1.6291
  328MPD2    H2 4982   4.734   1.309  17.434  2.7400 -0.1831 -0.8076
  328MPD2    H3 4983   0.017   1.430  17.245 -3.2766  1.7882  1.7361
  328MPD2     N 4984   4.466   1.157  17.006 -0.6003 -0.3300 -0.0990
  328MPD2    H5 4985   4.469   1.228  16.933 -1.2029 -0.0344  0.1667
  328MPD2    N1 4986   4.556   1.112  17.487  0.3093 -0.3858  0.0072
  328MPD2    H7 4987   4.585   1.164  17.569  0.0060  0.1105 -0.1921
  329TMC3    C1 4988   4.399   1.028  17.631  0.4475 -0.1415 -0.3469
  329TMC3    C2 4989   4.346   1.152  17.662  0.1718  0.8943  0.3730
  329TMC3    C3 4990   4.235   1.145   0.005  0.4151 -0.0567  0.4029
  329TMC3    C4 4991   4.344   0.907  17.663 -0.5609 -0.2317  0.0566
  329TMC3    C5 4992   4.229   0.908  17.736  0.6695 -0.5071 -0.6113
  329TMC3    C6 4993   4.169   1.026   0.034 -0.0249  0.5075 -0.0023
  329TMC3     C 4994   4.465   1.011  17.508  0.2870  0.1642  0.3802
  329TMC3     O 4995   4.425   0.922  17.433  0.6135 -0.1872 -0.2311
  329TMC3     H 4996   4.393   1.242  17.625  0.3779  0.8157  0.4458
  329TMC3    H1 4997   4.395   0.818  17.626  0.0174 -0.1284  0.5941
  329TMC3    H2 4998   4.086   1.038   0.103  0.8632 -3.1107  1.7144
  329TMC3    C7 4999   4.166   0.779   0.020  0.1729  0.2425 -0.6413
  329TMC3    C8 5000   4.149   1.261  17.731 -0.3202 -0.2904  0.5219
  329TMC3    O1 5001   4.173   0.688  17.678  0.4609  0.4824 -0.0882
  329TMC3    O2 5002   4.166   1.325  17.627  0.3387  0.0794 -0.5741
  330TMC3    C1 5003   2.194   0.885   9.587 -0.0165  0.5585  0.3456
  330TMC3    C2 5004   2.157   0.759   9.570  0.1206 -1.0400  0.0560
  330TMC3    C3 5005   2.251   0.662   9.526 -0.2555 -0.0016  0.3186
  330TMC3    C4 5006   2.319   0.927   9.560  0.4214 -0.0754  0.1425
  330TMC3    C5 5007   2.417   0.833   9.513  0.1812  0.0899 -0.3527
  330TMC3    C6 5008   2.377   0.702   9.494  0.2137 -0.0211  0.1457
  330TMC3     C 5009   2.096   0.976   9.645  0.4028 -0.7480 -0.2812
  330TMC3     O 5010   2.148   1.079   9.690 -0.0984  0.3958  0.4260
  330TMC3     H 5011   2.066   0.721   9.616  0.4297 -3.1014 -1.0355
  330TMC3    H1 5012   2.351   1.031   9.570  1.0713 -0.2907  0.3274
  330TMC3    H2 5013   2.455   0.627   9.483 -3.1725 -2.9753 -3.4919
  330TMC3    C7 5014   2.553   0.879   9.500  0.8457 -0.6294 -0.5751
  330TMC3    C8 5015   2.209   0.528   9.513  0.4484  0.0670  0.2046
  330TMC3    O1 5016   2.587   0.983   9.552 -0.0456 -0.0110  0.0144
  330TMC3    O2 5017   2.092   0.506   9.542 -0.5775  0.1247 -0.4772
  331MPD2     C 5018   0.383   4.339  12.958 -0.6223 -0.4447  0.0663
  331MPD2    C1 5019   0.426   4.321  12.825  0.4648  0.5552  0.5389
  331MPD2    C2 5020   0.402   4.196  12.761  0.1310  0.1691  0.1993
  331MPD2    C3 5021   0.340   4.093  12.823 -0.0669 -0.4962 -0.6510
  331MPD2    C4 5022   0.281   4.117  12.950 -0.0340 -0.1501 -0.2735
  331MPD2    C5 5023   0.304   4.237  13.010  0.1209 -0.1035  0.2643
  331MPD2     H 5024   0.440   4.182  12.661 -0.8257  0.3511 -0.1933
  331MPD2    H1 5025   0.225   4.047  13.010 -0.7858  0.9708  0.3307
  331MPD2    H2 5026   0.412   4.432  13.004  0.2858 -0.2126 -0.9592
  331MPD2    H3 5027   0.259   4.258  13.106  0.2846 -1.4493  0.6385
  331MPD2     N 5028   0.337   3.971  12.754  0.4917 -0.1706  0.1957
  331MPD2    H5 5029   0.395   3.963  12.672 -0.9721  0.0895 -0.8596
  331MPD2    N1 5030   0.486   4.431  12.761  0.6895  0.1473 -0.1059
  331MPD2    H7 5031   0.482   4.516  12.816 -0.4087 -0.4351  0.7194
  332TMC3    C1 5032   0.322   3.746  12.730 -0.7075  0.0950  0.1818
  332TMC3    C2 5033   0.306   3.756  12.593  0.0248  0.4010  0.3070
  332TMC3    C3 5034   0.330   3.647  12.517  0.2927  0.6264 -0.1802
  332TMC3    C4 5035   0.370   3.635  12.791 -0.9279 -0.3017  0.3010
  332TMC3    C5 5036   0.373   3.521  12.713  0.0441  0.7948  0.2195
  332TMC3    C6 5037   0.357   3.526  12.582 -0.0699 -0.0957  0.9228
  332TMC3     C 5038   0.281   3.853  12.813  0.1509  0.4809  0.0039
  332TMC3     O 5039   0.220   3.841  12.918  0.0639 -0.4218 -0.1659
  332TMC3     H 5040   0.276   3.848  12.543  0.6178 -0.2036 -1.1611
  332TMC3    H1 5041   0.395   3.623  12.896  1.2082  3.5777  0.2233
  332TMC3    H2 5042   0.357   3.427  12.536  1.8853  0.2288  0.2035
  332TMC3    C7 5043   0.433   3.398  12.763 -0.8143 -0.7608 -0.5143
  332TMC3    C8 5044   0.370   3.661  12.372 -0.1939 -0.3070 -0.5973
  332TMC3    O1 5045   0.376   3.292  12.745  0.0116 -0.1691  0.1660
  332TMC3    O2 5046   0.321   3.755  12.306  0.0672 -0.2757  0.3296
  333MPD2     C 5047   0.750   4.517  10.936 -0.6749 -0.5910 -0.4766
  333MPD2    C1 5048   0.870   4.484  10.879  0.1445  0.0247  0.5416
  333MPD2    C2 5049   0.905   4.350  10.890 -0.1288 -0.1074  0.2410
  333MPD2    C3 5050   0.829   4.254  10.949  0.6590  0.3915  0.5064
  333MPD2    C4 5051   0.697   4.285  10.999 -0.1068 -0.2941 -0.0413
  333MPD2    C5 5052   0.668   4.422  10.987  0.0991 -0.1906  0.2804
  333MPD2     H 5053   1.006   4.330  10.857  0.0194  0.2979  0.4446
  333MPD2    H1 5054   0.623   4.218  11.040 -0.3942 -0.6829 -1.1736
  333MPD2    H2 5055   0.716   4.620  10.944  0.9660 -0.0995  0.2160
  333MPD2    H3 5056   0.570   4.454  11.021  0.6232  1.1082  0.5527
  333MPD2     N 5057   0.886   4.122  10.953 -0.3130  0.0539 -0.1820
  333MPD2    H5 5058   0.986   4.133  10.936 -0.0681  1.4547  2.1251
  333MPD2    N1 5059   0.936   4.588  10.808 -0.1773  0.0711  0.2496
  333MPD2    H7 5060   0.889   4.678  10.809 -2.3312 -1.0579  0.9608
  334TMC3    C1 5061   1.106   4.705  10.687 -0.1723 -0.2470 -0.3168
  334TMC3    C2 5062   1.206   4.693  10.597 -0.2044  0.2000  0.3050
  334TMC3    C3 5063   1.305   0.049  10.586 -0.4829  0.7301  0.2415
  334TMC3    C4 5064   1.097   0.080  10.768 -0.3737 -0.1801  0.2283
  334TMC3    C5 5065   1.205   0.171  10.752 -0.3913 -0.3761  0.8765
  334TMC3    C6 5066   1.308   0.161  10.658 -0.8312  0.7318  0.0432
  334TMC3     C 5067   1.048   4.577  10.735 -0.0400  0.2717 -0.0717
  334TMC3     O 5068   1.117   4.482  10.714 -0.7741 -0.2279  0.2042
  334TMC3     H 5069   1.218   4.596  10.549 -1.4236 -0.0240  0.4566
  334TMC3    H1 5070   1.039   0.081  10.860 -1.8327 -1.6575 -0.6866
  334TMC3    H2 5071   1.381   0.241  10.647 -1.6888  1.5654  0.3395
  334TMC3    C7 5072   1.225   0.268  10.857  0.2338  0.4596  0.2782
  334TMC3    C8 5073   1.412   0.031  10.482 -0.3929  0.4047  0.4864
  334TMC3    O1 5074   1.337   0.307  10.890 -0.3023 -0.7148  0.4257
  334TMC3    O2 5075   1.383   4.702  10.384  0.1569 -0.5712  0.7453
  335TMC3    C1 5076   0.961   1.080  17.631  0.0604 -0.0799  0.4786
  335TMC3    C2 5077   0.857   1.075  17.548 -0.0109 -0.7916  0.2701
  335TMC3    C3 5078   0.838   1.180  17.463 -0.3439  0.3485  0.2638
  335TMC3    C4 5079   1.045   1.192  17.641 -0.0317 -0.1576  0.2702
  335TMC3    C5 5080   1.033   1.299  17.562 -0.3832 -0.5045 -0.4793
  335TMC3    C6 5081   0.919   1.298  17.481 -0.5280 -0.2950 -0.4958
  335TMC3     C 5082   0.973   0.967  17.726  0.1102 -0.3641  0.1436
  335TMC3     O 5083   0.930   0.855  17.692  0.0282  0.7337 -0.2237
  335TMC3     H 5084   0.806   0.980  17.553 -0.8385 -0.3461  0.4765
  335TMC3    H1 5085   1.127   1.188  17.713  0.6239  2.0124 -0.3686
  335TMC3    H2 5086   0.896   1.379  17.414  0.2149  0.6804  0.4382
  335TMC3    C7 5087   1.156   1.311  17.487 -0.0770  0.1505  0.0316
  335TMC3    C8 5088   0.717   1.194  17.387 -0.1654  0.4896  0.3495
  335TMC3    O1 5089   1.158   1.269  17.374 -0.5122 -0.2215 -0.2432
  335TMC3    O2 5090   0.719   1.292  17.309  0.3781 -0.0520 -0.0560
  336MPD2     C 5091   0.196   3.366  16.229 -0.3761  0.3371 -0.6690
  336MPD2    C1 5092   0.152   3.344  16.102 -0.0242 -0.0163 -0.5103
  336MPD2    C2 5093   0.180   3.224  16.037  0.1525 -0.2177 -0.1332
  336MPD2    C3 5094   0.266   3.129  16.104 -0.1525  0.1957 -0.2477
  336MPD2    C4 5095   0.307   3.151  16.235  0.4177 -0.4578 -0.3805
  336MPD2    C5 5096   0.268   3.267  16.293  0.2919  0.5959 -0.0749
  336MPD2     H 5097   0.137   3.203  15.941  0.7636 -3.4022  0.2985
  336MPD2    H1 5098   0.356   3.073  16.292  1.1646  0.5291  0.3261
  336MPD2    H2 5099   0.171   3.462  16.273 -1.0616  0.3569 -1.0915
  336MPD2    H3 5100   0.301   3.280  16.396  3.3928 -2.7934 -0.6233
  336MPD2     N 5101   0.321   3.017  16.035 -0.0095 -0.0069 -0.2750
  336MPD2    H5 5102   0.373   2.953  16.095  0.6347  2.4406  1.7680
  336MPD2    N1 5103   0.095   3.438  16.015 -0.5854  0.3217  0.2360
  336MPD2    H7 5104   0.076   3.421  15.916  2.3969 -1.9497  0.0660
  337TMC3    C1 5105   0.007   3.644  15.929 -0.5943  0.0232  0.4121
  337TMC3    C2 5106   4.632   3.591  15.875 -0.3791  0.0723  0.1130
  337TMC3    C3 5107   4.556   3.692  15.819  0.9850  0.2622 -0.7280
  337TMC3    C4 5108   0.047   3.775  15.924  0.3503 -0.0494 -1.1364
  337TMC3    C5 5109   4.710   3.862  15.848 -0.3129 -0.5979  0.0712
  337TMC3    C6 5110   4.595   3.819  15.788  0.5715  0.3500 -0.4199
  337TMC3     C 5111   0.068   3.569  16.041  0.0479 -0.2334  0.5260
  337TMC3     O 5112   0.068   3.633  16.149  0.9103 -0.1752  0.4495
  337TMC3     H 5113   4.590   3.491  15.885 -1.7469  0.6366 -0.0968
  337TMC3    H1 5114   0.147   3.801  15.957  0.4285  2.7488 -3.6573
  337TMC3    H2 5115   4.530   3.886  15.734 -1.4915  0.1106  1.7700
  337TMC3    C7 5116   4.724   4.007  15.852  0.5648 -0.1200  0.1554
  337TMC3    C8 5117   4.415   3.656  15.781  0.0558 -0.0893  0.5861
  337TMC3    O1 5118   4.685   4.079  15.761  0.8780 -0.3758  0.2045
  337TMC3    O2 5119   4.353   3.616  15.879 -0.0993 -0.5744  0.0398
  338MPD2     C 5120   0.204   3.356   0.953  0.8055  0.4523 -0.1661
  338MPD2    C1 5121   0.176   3.270   0.851 -0.2120 -0.2864 -1.4559
  338MPD2    C2 5122   0.041   3.257   0.817 -0.6009 -0.4250  0.0710
  338MPD2    C3 5123   4.672   3.305   0.896 -0.4114  0.5252  0.1261
  338MPD2    C4 5124   4.710   3.381   1.006 -1.4392  0.3027 -0.0273
  338MPD2    C5 5125   0.106   3.410   1.023 -0.1641 -0.5915  0.5931
  338MPD2     H 5126   0.014   3.194   0.732  0.4878 -1.0032  0.1642
  338MPD2    H1 5127   4.633   3.434   1.062 -0.4672 -0.2718  1.8651
  338MPD2    H2 5128   0.301   3.378   0.996  0.2427 -1.6579  2.1698
  338MPD2    H3 5129   0.135   3.476   1.105  1.0232  0.9983 -1.1182
  338MPD2     N 5130   4.535   3.291   0.855  0.0774 -0.2211  0.1110
  338MPD2    H5 5131   4.508   3.235   0.774 -2.0808  2.5049 -1.0579
  338MPD2    N1 5132   0.281   3.191   0.787  0.0165  0.1386  0.5102
  338MPD2    H7 5133   0.244   3.134   0.711  0.6537 -0.7787  0.9018
  339TMC3    C1 5134   4.300   3.291   0.871 -0.3471  0.3036  0.2910
  339TMC3    C2 5135   4.266   3.173   0.932 -0.4362  0.1023 -0.7179
  339TMC3    C3 5136   4.183   3.079   0.870 -0.1086  0.1761 -0.2334
  339TMC3    C4 5137   4.285   3.317   0.741 -0.5666 -0.1779 -0.2838
  339TMC3    C5 5138   4.209   3.222   0.672 -0.7158 -0.5024  0.2816
  339TMC3    C6 5139   4.162   3.102   0.735  0.8836 -0.0645 -0.5919
  339TMC3     C 5140   4.428   3.341   0.925 -0.3147 -0.1097 -0.6820
  339TMC3     O 5141   4.421   3.392   1.037 -0.1262 -0.5669  0.0815
  339TMC3     H 5142   4.305   3.149   1.030 -1.1629  0.8217 -0.2520
  339TMC3    H1 5143   4.314   3.411   0.696 -0.0004 -1.4816 -2.6601
  339TMC3    H2 5144   4.115   3.026   0.673 -0.0161 -2.1744  2.6350
  339TMC3    C7 5145   4.213   3.234   0.527  0.1521 -0.0004 -0.6195
  339TMC3    C8 5146   4.196   2.947   0.923  0.6979 -0.0381 -0.4773
  339TMC3    O1 5147   4.239   3.347   0.494  0.2978 -0.3065 -0.1786
  339TMC3    O2 5148   4.224   2.852   0.849 -0.1332  0.4146 -0.1595
  340MPD2     C 5149   0.299   0.207  10.395 -0.2119 -0.8551 -0.4391
  340MPD2    C1 5150   0.412   0.227  10.316 -0.8966 -0.0408  0.3986
  340MPD2    C2 5151   0.494   0.342  10.343 -0.5025 -0.2363 -0.6034
  340MPD2    C3 5152   0.471   0.416  10.460  0.1001  0.7601  0.2747
  340MPD2    C4 5153   0.361   0.390  10.538  0.2122 -0.3493  0.4045
  340MPD2    C5 5154   0.279   0.291  10.498 -0.1278 -0.1896  0.4110
  340MPD2     H 5155   0.566   0.374  10.268 -0.0141  0.8720  0.3421
  340MPD2    H1 5156   0.331   0.451  10.622 -0.2218  0.5060 -0.3606
  340MPD2    H2 5157   0.225   0.130  10.379 -1.1866  0.3544 -1.6508
  340MPD2    H3 5158   0.195   0.275  10.564 -0.1144 -2.6600 -0.1518
  340MPD2     N 5159   0.549   0.527  10.492  0.2807 -0.7005 -0.6617
  340MPD2    H5 5160   0.516   0.587  10.567 -1.8454  0.1896 -2.3020
  340MPD2    N1 5161   0.418   0.143  10.198 -0.0736 -0.1857  0.2729
  340MPD2    H7 5162   0.352   0.066  10.190  0.4962 -0.5510 -0.9652
  341TMC3    C1 5163   0.487   0.058   9.988 -0.1518 -0.1501  0.9438
  341TMC3    C2 5164   0.370   0.007   9.960  0.9817 -0.2916  1.0334
  341TMC3    C3 5165   0.358   4.658   9.852 -0.0153  0.2113  0.3358
  341TMC3    C4 5166   0.592   0.029   9.908 -0.0782  0.4144 -0.3963
  341TMC3    C5 5167   0.580   4.676   9.801  0.3407  0.9705  0.6418
  341TMC3    C6 5168   0.463   4.615   9.771  0.2827 -0.1562 -0.1844
  341TMC3     C 5169   0.510   0.152  10.094  0.4334  0.3982 -0.1235
  341TMC3     O 5170   0.612   0.220  10.081 -1.0211  0.0292 -0.0835
  341TMC3     H 5171   0.282   0.043  10.011  0.6458 -0.3049  0.4685
  341TMC3    H1 5172   0.687   0.064   9.948 -1.6943  0.0026  3.8954
  341TMC3    H2 5173   0.450   4.551   9.684  1.9259 -0.4360 -0.2243
  341TMC3    C7 5174   0.699   4.664   9.712  0.3477  0.0804 -0.3560
  341TMC3    C8 5175   0.234   4.588   9.846 -0.3538  0.1872 -0.1091
  341TMC3    O1 5176   0.804   4.715   9.748  0.1467  0.4384  0.4579
  341TMC3    O2 5177   0.159   4.589   9.945 -0.4329  0.0318 -0.0999
  342MPD2     C 5178   3.261   3.524  17.728 -0.1168 -0.3225  0.1991
  342MPD2    C1 5179   3.339   3.549  17.625  0.0646 -0.1583  0.1890
  342MPD2    C2 5180   3.359   3.680  17.579  0.3047 -0.0662  0.1380
  342MPD2    C3 5181   3.303   3.781  17.654 -0.0951  0.0928 -0.2013
  342MPD2    C4 5182   3.232   3.755   0.030  0.3445  0.1036 -0.3503
  342MPD2    C5 5183   3.204   3.629   0.055 -0.5135  0.0508  0.4849
  342MPD2     H 5184   3.415   3.701  17.489 -2.1053  3.8875 -0.3997
  342MPD2    H1 5185   3.187   3.835   0.087 -0.3164  0.5320 -1.4771
  342MPD2    H2 5186   3.252   3.426   0.035  2.0050 -0.1709  0.9285
  342MPD2    H3 5187   3.135   3.604   0.135  1.0343  1.0553  2.1458
  342MPD2     N 5188   3.318   3.917  17.623  0.2039 -0.2118 -0.4090
  342MPD2    H5 5189   3.266   3.982  17.682 -1.0639 -1.0752 -0.5618
  342MPD2    N1 5190   3.384   3.451  17.537 -0.3200  0.5938  0.0475
  342MPD2    H7 5191   3.446   3.466  17.458 -0.1237 -1.1449 -0.1401
  343TMC3    C1 5192   3.405   3.247  17.428 -0.1034  0.0204 -0.2927
  343TMC3    C2 5193   3.528   3.284  17.391 -0.2079 -0.6594 -0.0120
  343TMC3    C3 5194   3.596   3.211  17.301  0.2415 -1.3564 -0.2235
  343TMC3    C4 5195   3.358   3.118  17.391 -1.1142 -0.1232 -0.5632
  343TMC3    C5 5196   3.431   3.047  17.300 -0.0272  0.6832  0.2113
  343TMC3    C6 5197   3.561   3.084  17.257  0.2451 -0.1626  0.2006
  343TMC3     C 5198   3.342   3.325  17.537  0.3110  0.9000  0.3502
  343TMC3     O 5199   3.257   3.266  17.604 -0.6258 -0.6031 -0.4408
  343TMC3     H 5200   3.574   3.369  17.441  0.0148  0.1513 -1.5936
  343TMC3    H1 5201   3.259   3.090  17.424 -0.8670  0.1954  0.4572
  343TMC3    H2 5202   3.618   3.011  17.202  0.0128  1.0713 -1.7120
  343TMC3    C7 5203   3.391   2.908  17.276 -0.4433 -0.1305  0.0156
  343TMC3    C8 5204   3.723   3.263  17.261 -0.0712 -0.9375 -0.2889
  343TMC3    O1 5205   3.419   2.841  17.177  0.8263 -0.3496  0.0488
  343TMC3    O2 5206   3.753   3.367  17.322 -0.4056 -0.3525 -0.5486
  344MPD2     C 5207   3.817   3.483  10.964 -0.4998 -0.4335  0.0987
  344MPD2    C1 5208   3.806   3.388  10.863  0.5994  0.8752  0.3637
  344MPD2    C2 5209   3.834   3.430  10.733 -0.7443  0.3095 -0.3726
  344MPD2    C3 5210   3.862   3.556  10.702  0.2200  0.7720  0.0845
  344MPD2    C4 5211   3.862   3.652  10.802  0.4457  0.3235  0.3062
  344MPD2    C5 5212   3.841   3.614  10.933  0.0801  0.6681  0.0134
  344MPD2     H 5213   3.828   3.363  10.648  0.1319  1.4917 -1.3563
  344MPD2    H1 5214   3.892   3.755  10.785  0.3142  0.2390 -0.4444
  344MPD2    H2 5215   3.780   3.469  11.064 -1.6628 -0.6060 -0.3615
  344MPD2    H3 5216   3.837   3.696  11.003 -1.3639 -0.7709  1.6311
  344MPD2     N 5217   3.912   3.596  10.573  0.1452 -0.4699  0.3673
  344MPD2    H5 5218   3.957   3.687  10.568 -0.4123 -0.2029  0.2404
  344MPD2    N1 5219   3.778   3.251  10.890  0.6688 -0.2793 -0.2250
  344MPD2    H7 5220   3.764   3.185  10.815  1.4677 -2.1871  1.2901
  345TMC3    C1 5221   3.986   3.587  10.350 -0.1264 -0.2951  1.2205
  345TMC3    C2 5222   4.112   3.624  10.381 -0.0081  0.3362 -0.2535
  345TMC3    C3 5223   4.192   3.649  10.281  0.2576 -0.5190 -0.4320
  345TMC3    C4 5224   3.933   3.586  10.223  0.0713  0.3756 -0.3422
  345TMC3    C5 5225   4.015   3.624  10.123 -0.8370  0.2166 -0.1023
  345TMC3    C6 5226   4.143   3.654  10.153 -0.0448 -0.1475 -0.0898
  345TMC3     C 5227   3.900   3.530  10.454 -0.6510  0.5928  0.8182
  345TMC3     O 5228   3.843   3.429  10.421  0.3818  0.2854  0.0740
  345TMC3     H 5229   4.151   3.643  10.481 -2.3925  0.6811  0.6277
  345TMC3    H1 5230   3.828   3.570  10.198  0.2893  0.3714 -1.2703
  345TMC3    H2 5231   4.211   3.678  10.072  0.2830 -2.1653 -0.4156
  345TMC3    C7 5232   3.963   3.724  10.034 -1.0250  0.2639  0.0941
  345TMC3    C8 5233   4.309   3.740  10.298 -0.1887 -0.0437 -0.3324
  345TMC3    O1 5234   4.043   3.812  10.005 -0.2469  0.5329 -0.2479
  345TMC3    O2 5235   4.316   3.819  10.210  0.3457 -0.2292 -0.3713
  346MPD2     C 5236   4.013   4.441  13.716  0.1788  0.4871  0.7813
  346MPD2    C1 5237   4.120   4.517  13.680  0.5369  0.7764 -0.3897
  346MPD2    C2 5238   4.165   4.617  13.766  0.2024  0.1976 -0.2574
  346MPD2    C3 5239   4.090   4.647  13.881 -0.9225  0.7211  0.2396
  346MPD2    C4 5240   3.969   4.580  13.902 -0.3808 -0.4725 -0.1439
  346MPD2    C5 5241   3.934   4.476  13.827  0.1233  0.4316 -0.0642
  346MPD2     H 5242   4.253   4.675  13.741 -1.9666  2.4283 -2.7594
  346MPD2    H1 5243   3.902   4.608  13.983 -0.9588 -0.0914 -0.7489
  346MPD2    H2 5244   3.974   4.356  13.661 -0.3058  2.2399 -1.5629
  346MPD2    H3 5245   3.837   4.429  13.840  0.2929  0.6449  1.9490
  346MPD2     N 5246   4.136   0.020  13.962  0.3890  0.1530 -0.5300
  346MPD2    H5 5247   4.235   0.037  13.958 -0.1186  3.6630  1.9789
  346MPD2    N1 5248   4.197   4.509  13.565  0.5449 -0.1819  0.1039
  346MPD2    H7 5249   4.282   4.564  13.558 -0.3880  0.9940 -2.1534
  347TMC3    C1 5250   4.158   0.168  14.137 -0.1896 -0.0489 -0.2675
  347TMC3    C2 5251   4.290   0.148  14.126 -0.3513  0.2583  0.2472
  347TMC3    C3 5252   4.374   0.248  14.172  0.3915 -0.1858  0.2481
  347TMC3    C4 5253   4.104   0.290  14.171 -0.0488 -0.4304 -0.9380
  347TMC3    C5 5254   4.188   0.389  14.216 -0.9117 -0.6786  0.0905
  347TMC3    C6 5255   4.325   0.371  14.225 -0.7639  0.0252 -0.4838
  347TMC3     C 5256   4.069   0.085  14.060 -0.1798  0.0450  0.8634
  347TMC3     O 5257   3.949   0.081  14.086 -0.1097  0.8498 -0.0573
  347TMC3     H 5258   4.327   0.047  14.112 -4.4841 -0.7602 -3.2913
  347TMC3    H1 5259   3.998   0.312  14.163  0.2299  0.6108 -1.9388
  347TMC3    H2 5260   4.387   0.450  14.265 -0.8476  0.7848 -1.8715
  347TMC3    C7 5261   4.134   0.508  14.263  0.0085  0.1335 -0.8288
  347TMC3    C8 5262   4.525   0.228  14.167 -0.2230  0.1994 -0.4975
  347TMC3    O1 5263   4.026   0.550  14.220  0.5038 -0.0084  0.3662
  347TMC3    O2 5264   4.572   0.115  14.161  0.1044 -0.3243  0.2426
  348MPD2     C 5265   3.492   4.689  11.747  0.4286 -0.4249 -0.1192
  348MPD2    C1 5266   3.514   4.661  11.615 -0.2814 -0.5884 -0.1498
  348MPD2    C2 5267   3.520   0.031  11.519  0.4581  0.1503  0.7034
  348MPD2    C3 5268   3.506   0.163  11.554  0.3615 -0.4458 -0.2899
  348MPD2    C4 5269   3.483   0.194  11.690  0.4394  0.2946 -0.0864
  348MPD2    C5 5270   3.475   0.092  11.787  0.6255  0.9058  0.5641
  348MPD2     H 5271   3.549   0.009  11.417 -0.4121 -3.2647  1.1777
  348MPD2    H1 5272   3.465   0.291  11.736  2.8624  1.6889 -2.1174
  348MPD2    H2 5273   3.466   4.611  11.817  1.3092 -1.5676 -1.0574
  348MPD2    H3 5274   3.450   0.114  11.890 -2.1980  0.4700 -0.0405
  348MPD2     N 5275   3.499   0.267  11.455  0.1227  0.3077  0.6952
  348MPD2    H5 5276   3.492   0.235  11.359 -2.6471 -0.0778  1.0330
  348MPD2    N1 5277   3.530   4.528  11.569  0.4743  0.3159  0.2106
  348MPD2    H7 5278   3.521   4.520  11.468  0.2892 -1.2510  0.3604
  349TMC3    C1 5279   3.507   4.291  11.579 -0.1676  0.4360  0.1280
  349TMC3    C2 5280   3.521   4.169  11.645 -0.3003  0.4676 -0.0741
  349TMC3    C3 5281   3.442   4.061  11.608  0.4689  0.3328  0.6491
  349TMC3    C4 5282   3.405   4.306  11.494  0.2399 -0.2830  0.0025
  349TMC3    C5 5283   3.331   4.197  11.451  0.4503  0.4364 -0.0975
  349TMC3    C6 5284   3.352   4.069  11.503 -0.3800 -0.1222  0.4819
  349TMC3     C 5285   3.547   4.413  11.645 -0.0413 -0.3593 -0.7085
  349TMC3     O 5286   3.583   4.398  11.759 -0.3103  0.9399  0.1645
  349TMC3     H 5287   3.598   4.172  11.722 -1.8240  2.5327  1.3561
  349TMC3    H1 5288   3.377   4.403  11.455  0.5896 -0.4199 -0.5952
  349TMC3    H2 5289   3.283   3.990  11.475  0.2956 -0.8412  0.8223
  349TMC3    C7 5290   3.202   4.216  11.383  0.4183  0.7676 -0.1330
  349TMC3    C8 5291   3.438   3.951  11.708  0.0214  0.0989 -0.1259
  349TMC3    O1 5292   3.109   4.143  11.403 -0.4140  0.2999  0.5746
  349TMC3    O2 5293   3.512   3.967  11.803  0.7625 -0.5504  0.0660
  350MPD2     C 5294   1.390   2.827   9.763  1.2934  0.1906  1.1150
  350MPD2    C1 5295   1.399   2.692   9.746 -0.4250  0.4349 -0.7557
  350MPD2    C2 5296   1.511   2.625   9.779 -0.0127 -0.4013  0.1066
  350MPD2    C3 5297   1.612   2.691   9.846  0.6002 -0.1590  0.7448
  350MPD2    C4 5298   1.599   2.827   9.868 -0.2587  0.1808  0.4449
  350MPD2    C5 5299   1.482   2.892   9.838 -1.1223  0.2642  0.5397
  350MPD2     H 5300   1.519   2.521   9.750 -2.0294 -1.0090  1.7962
  350MPD2    H1 5301   1.673   2.891   9.915  0.9227 -2.5272  2.2520
  350MPD2    H2 5302   1.306   2.888   9.731  1.5094  1.5261  3.1073
  350MPD2    H3 5303   1.463   2.998   9.848  0.0801  0.1883  3.6424
  350MPD2     N 5304   1.705   2.610   9.911  0.8416  0.0624 -0.6886
  350MPD2    H5 5305   1.701   2.509   9.898  1.4758  0.0102 -0.5129
  350MPD2    N1 5306   1.295   2.614   9.685  0.0811 -0.3322  0.0412
  350MPD2    H7 5307   1.299   2.513   9.685  0.1592 -0.3266  0.4769
  351TMC3    C1 5308   1.086   2.553   9.605  0.5801  0.9613  0.5085
  351TMC3    C2 5309   1.129   2.444   9.550  0.2486 -0.6732 -0.5968
  351TMC3    C3 5310   1.046   2.343   9.508  0.2231  0.7998  0.0380
  351TMC3    C4 5311   0.948   2.577   9.602  0.3397 -0.3631  0.1123
  351TMC3    C5 5312   0.865   2.473   9.558  0.1935  0.4748  0.1969
  351TMC3    C6 5313   0.907   2.353   9.520 -0.3173  0.4432 -0.0307
  351TMC3     C 5314   1.167   2.662   9.648 -0.3246 -0.2787 -0.3717
  351TMC3     O 5315   1.117   2.772   9.660  0.0940  0.3524 -0.0257
  351TMC3     H 5316   1.237   2.430   9.543  0.0842 -0.6356 -3.1616
  351TMC3    H1 5317   0.905   2.671   9.634  1.1634  0.5121 -1.3631
  351TMC3    H2 5318   0.844   2.278   9.475 -2.9477  1.6205  1.7052
  351TMC3    C7 5319   0.729   2.495   9.596 -0.1791  0.1546  0.0086
  351TMC3    C8 5320   1.106   2.224   9.446  0.5746  0.1742 -0.9462
  351TMC3    O1 5321   0.699   2.602   9.642 -0.0716 -0.1659 -0.3425
  351TMC3    O2 5322   1.229   2.208   9.456 -0.7714 -0.2400 -0.3086
  352MPD2     C 5323   1.030   0.333   1.099 -0.1744 -0.2170 -0.8243
  352MPD2    C1 5324   0.894   0.309   1.103  0.5762  0.7730  0.8440
  352MPD2    C2 5325   0.859   0.175   1.129  0.1075 -0.2938 -0.4032
  352MPD2    C3 5326   0.951   0.079   1.162  0.0660 -0.1386  0.2283
  352MPD2    C4 5327   1.087   0.110   1.155 -0.1536 -0.4129  0.6402
  352MPD2    C5 5328   1.124   0.241   1.131  0.5678 -0.0556 -0.7733
  352MPD2     H 5329   0.754   0.151   1.139  0.1220 -0.6324 -1.0618
  352MPD2    H1 5330   1.163   0.037   1.181  2.6071  1.8353 -1.0299
  352MPD2    H2 5331   1.064   0.434   1.079  0.9532 -0.0311  2.0015
  352MPD2    H3 5332   1.219   0.283   1.159 -0.2904  2.3877 -1.5233
  352MPD2     N 5333   0.918   4.685   1.213  0.0613  0.0650 -0.2843
  352MPD2    H5 5334   0.987   4.621   1.250  2.7188  2.3824 -1.2830
  352MPD2    N1 5335   0.802   0.409   1.071 -0.3491  0.3769 -0.5576
  352MPD2    H7 5336   0.849   0.496   1.049  3.3921 -1.9939 -2.1349
  353TMC3    C1 5337   0.788   4.492   1.257 -0.2253  0.2546  0.7491
  353TMC3    C2 5338   0.886   4.440   1.338 -0.5288 -0.0218  0.5128
  353TMC3    C3 5339   0.881   4.305   1.357 -0.3075  0.1880 -0.1781
  353TMC3    C4 5340   0.686   4.412   1.206  0.2371 -0.1480 -0.2058
  353TMC3    C5 5341   0.690   4.280   1.220 -0.6817  0.1720 -0.1894
  353TMC3    C6 5342   0.787   4.223   1.296 -0.3284 -0.1357 -0.2428
  353TMC3     C 5343   0.793   4.630   1.195  0.6796 -0.4800 -0.0924
  353TMC3     O 5344   0.694   4.676   1.145  0.2536 -0.6038  0.3053
  353TMC3     H 5345   0.965   4.498   1.384  0.6890  0.6943 -2.4518
  353TMC3    H1 5346   0.602   4.458   1.155 -0.9324 -0.7137  1.2087
  353TMC3    H2 5347   0.781   4.119   1.323 -1.5746 -0.4781 -1.8586
  353TMC3    C7 5348   0.581   4.190   1.182  0.5211 -0.1875  0.0748
  353TMC3    C8 5349   0.985   4.250   1.445  0.2253  0.2778 -0.5838
  353TMC3    O1 5350   0.610   4.073   1.163  0.1042  0.3268 -0.0049
  353TMC3    O2 5351   1.086   4.316   1.466 -0.1676 -0.6063  0.3169
  354TMC3    C1 5352   1.864   1.311  13.780 -0.8603 -0.3913  0.2876
  354TMC3    C2 5353   1.927   1.430  13.742  0.1836  0.4398 -0.0374
  354TMC3    C3 5354   1.923   1.471  13.614  0.4740 -0.2959 -0.3367
  354TMC3    C4 5355   1.804   1.236  13.685 -0.1420 -0.1191  0.0384
  354TMC3    C5 5356   1.779   1.294  13.565  0.3583  0.4381 -0.2587
  354TMC3    C6 5357   1.847   1.402  13.525  0.4202 -0.2285  0.1349
  354TMC3     C 5358   1.807   1.308  13.912  0.0869 -0.4389  0.3765
  354TMC3     O 5359   1.780   1.415  13.956 -0.3545  0.0662  0.0803
  354TMC3     H 5360   1.982   1.487  13.816 -1.6137  0.2824  1.4218
  354TMC3    H1 5361   1.752   1.145  13.709 -0.2807 -0.3195 -1.0291
  354TMC3    H2 5362   1.814   1.439  13.428  0.3964 -0.3580  0.0925
  354TMC3    C7 5363   1.773   1.204  13.448 -0.0641  0.4980  0.4486
  354TMC3    C8 5364   2.052   1.515  13.563 -0.8142 -0.7984  0.1877
  354TMC3    O1 5365   1.669   1.210  13.386  0.4432 -0.0518  0.1342
  354TMC3    O2 5366   2.134   1.558  13.641 -0.1227  1.0636 -0.3328
  355MPD2     C 5367   2.284   1.819  11.716  0.0746  0.0407  0.5161
  355MPD2    C1 5368   2.398   1.794  11.643  0.6322 -0.5532 -0.2434
  355MPD2    C2 5369   2.513   1.773  11.707  0.6949 -0.7008  0.3122
  355MPD2    C3 5370   2.520   1.758  11.844  0.3768 -1.3527 -0.0924
  355MPD2    C4 5371   2.399   1.776  11.914  0.0145  0.5764  0.0766
  355MPD2    C5 5372   2.287   1.816  11.853  0.2951  0.5103  0.2297
  355MPD2     H 5373   2.605   1.767  11.652 -0.2882 -0.0437 -1.3931
  355MPD2    H1 5374   2.393   1.765  12.022 -0.5765 -2.7037 -0.2967
  355MPD2    H2 5375   2.189   1.836  11.666 -0.3438  2.0103  1.9836
  355MPD2    H3 5376   2.200   1.837  11.913 -0.9188 -1.1864 -0.9343
  355MPD2     N 5377   2.638   1.754  11.920  0.0664 -0.5087 -0.0104
  355MPD2    H5 5378   2.631   1.736  12.020  2.1457 -0.9615  0.0481
  355MPD2    N1 5379   2.406   1.807  11.504 -0.1639 -0.5810  0.0226
  355MPD2    H7 5380   2.330   1.855  11.457 -1.0344 -1.6594  0.3342
  356TMC3    C1 5381   2.867   1.790  11.961 -0.0253  0.6208  0.3529
  356TMC3    C2 5382   2.979   1.786  11.885 -0.5063  0.3522 -0.4279
  356TMC3    C3 5383   3.068   1.891  11.895  0.0408 -0.0122  0.4316
  356TMC3    C4 5384   2.852   1.885  12.062  0.3278 -0.3559  0.1471
  356TMC3    C5 5385   2.949   1.984  12.074  0.1050 -0.5020 -0.0038
  356TMC3    C6 5386   3.056   1.990  11.991 -0.4613  0.1410  0.6187
  356TMC3     C 5387   2.761   1.782  11.866 -1.2530 -0.3034 -0.0526
  356TMC3     O 5388   2.791   1.818  11.756 -0.0902 -0.4877 -0.7703
  356TMC3     H 5389   2.988   1.715  11.803  1.2922  0.2866 -0.1649
  356TMC3    H1 5390   2.760   1.887  12.121  1.0646  1.3691  1.2439
  356TMC3    H2 5391   3.127   2.072  11.999 -0.3946  0.0938  0.5004
  356TMC3    C7 5392   2.952   2.060  12.200 -0.7342  0.0904  0.4085
  356TMC3    C8 5393   3.140   1.912  11.775  0.2892 -0.0109  0.7690
  356TMC3    O1 5394   2.893   2.003  12.294  0.4914  0.2521 -0.2174
  356TMC3    O2 5395   3.158   1.822  11.693 -0.2441 -0.4952 -0.4038
  357MPD2     C 5396   1.977   1.933   0.439 -1.0359 -0.8384  0.0231
  357MPD2    C1 5397   1.981   1.844   0.548 -0.5457 -0.3864  0.3411
  357MPD2    C2 5398   1.868   1.842   0.628  0.1363  0.4246 -0.0773
  357MPD2    C3 5399   1.759   1.918   0.600  0.5876  0.1700 -0.0153
  357MPD2    C4 5400   1.749   1.991   0.482  0.2477  0.2146 -0.1575
  357MPD2    C5 5401   1.861   1.997   0.404 -0.6446  0.2159 -0.0379
  357MPD2     H 5402   1.862   1.763   0.702  1.0401  1.4776  1.0957
  357MPD2    H1 5403   1.665   2.051   0.448  0.7748 -0.1908 -2.1641
  357MPD2    H2 5404   2.065   1.943   0.376 -1.9703 -2.2590 -1.5173
  357MPD2    H3 5405   1.853   2.055   0.313 -0.6298 -0.5321 -0.5195
  357MPD2     N 5406   1.651   1.926   0.690 -0.2513 -0.3308  0.0379
  357MPD2    H5 5407   1.576   1.988   0.659  1.0585 -0.1660 -2.8378
  357MPD2    N1 5408   2.095   1.761   0.570 -0.6720 -0.0062 -0.6250
  357MPD2    H7 5409   2.159   1.760   0.491 -1.2665 -0.7651 -1.1025
  358TMC3    C1 5410   2.229   1.606   0.679  0.3833  0.1402 -0.0020
  358TMC3    C2 5411   2.240   1.535   0.565  0.0338 -1.0440 -0.4501
  358TMC3    C3 5412   2.265   1.399   0.570 -0.2425 -0.5446 -0.4397
  358TMC3    C4 5413   2.249   1.547   0.795 -0.0791 -0.0574 -0.1617
  358TMC3    C5 5414   2.284   1.417   0.801  0.4152  0.3413 -0.1596
  358TMC3    C6 5415   2.281   1.334   0.690 -0.2604 -0.3817 -0.7667
  358TMC3     C 5416   2.112   1.696   0.689 -0.2125 -0.3076 -0.0840
  358TMC3     O 5417   2.066   1.716   0.798  0.1583 -0.0497  0.1378
  358TMC3     H 5418   2.216   1.574   0.467 -1.0928 -3.6481 -1.2060
  358TMC3    H1 5419   2.240   1.605   0.886  2.8721 -1.6350  1.1162
  358TMC3    H2 5420   2.312   1.231   0.692  1.2752  0.1278  2.3840
  358TMC3    C7 5421   2.301   1.344   0.929  0.0871 -0.2479 -0.2350
  358TMC3    C8 5422   2.194   1.321   0.469 -0.4258 -0.1287  0.7662
  358TMC3    O1 5423   2.356   1.232   0.927  0.5830 -0.3803  0.2311
  358TMC3    O2 5424   2.095   1.378   0.419  0.3481  0.0962 -0.2372
  359MPD2     C 5425   2.539   4.150  12.221  0.0898  0.3372 -0.1965
  359MPD2    C1 5426   2.642   4.223  12.276  0.7253  0.4985  0.1911
  359MPD2    C2 5427   2.623   4.290  12.395 -0.6297 -0.6518 -0.4079
  359MPD2    C3 5428   2.501   4.295  12.458 -0.7097 -0.2024  0.6321
  359MPD2    C4 5429   2.398   4.219  12.404  0.1477  0.6635 -0.1564
  359MPD2    C5 5430   2.421   4.146  12.289 -0.0923 -0.1474  0.5250
  359MPD2     H 5431   2.711   4.329  12.443 -1.8131 -1.6781  2.6136
  359MPD2    H1 5432   2.303   4.214  12.457  0.5342  0.2852  0.4935
  359MPD2    H2 5433   2.558   4.074  12.146 -0.0221 -0.7934  0.9297
  359MPD2    H3 5434   2.337   4.091  12.247 -0.0454 -1.5201  2.2650
  359MPD2     N 5435   2.469   4.371  12.571 -0.2232 -0.6634 -0.5809
  359MPD2    H5 5436   2.377   4.364  12.613 -0.2377 -2.0166 -0.8291
  359MPD2    N1 5437   2.773   4.225  12.218 -0.3435  0.3211 -0.0018
  359MPD2    H7 5438   2.836   4.292  12.261  2.9405 -1.8175 -1.5032
  360TMC3    C1 5439   2.930   4.234  12.056 -0.4259 -0.5398  0.2930
  360TMC3    C2 5440   3.018   4.277  12.151 -0.4409 -0.5455  0.1958
  360TMC3    C3 5441   3.140   4.316  12.103 -0.0815 -0.2699  0.3019
  360TMC3    C4 5442   2.962   4.239  11.919  0.8300  0.2378 -0.8584
  360TMC3    C5 5443   3.091   4.280  11.882  0.6700  0.0723  0.0800
  360TMC3    C6 5444   3.182   4.320  11.973 -0.1291 -0.2171  0.3761
  360TMC3     C 5445   2.807   4.168  12.093 -0.5219 -0.2928 -0.3769
  360TMC3     O 5446   2.744   4.099  12.015  0.2732 -0.7045  0.4621
  360TMC3     H 5447   3.007   4.264  12.258  0.2273  3.1174  0.7098
  360TMC3    H1 5448   2.893   4.198  11.846  0.5419  0.1507 -0.5434
  360TMC3    H2 5449   3.280   4.342  11.933 -0.4796  1.3161  0.3777
  360TMC3    C7 5450   3.105   4.341  11.747 -0.0688 -0.1866 -0.1949
  360TMC3    C8 5451   3.229   4.370  12.205 -0.0469 -0.5949 -0.2204
  360TMC3    O1 5452   3.191   4.428  11.738 -0.1104 -0.2673 -0.0134
  360TMC3    O2 5453   3.180   4.410  12.309 -0.4231  0.1527 -0.3308
  361MPD2     C 5454   4.134   4.436  16.506  0.6355 -0.2703 -0.1783
  361MPD2    C1 5455   4.132   4.486  16.636 -0.2268 -0.8707 -0.8213
  361MPD2    C2 5456   4.243   4.472  16.721 -0.1581 -0.0084 -0.3587
  361MPD2    C3 5457   4.363   4.424  16.674  0.3195 -0.9801  0.0311
  361MPD2    C4 5458   4.370   4.380  16.548 -0.0488  0.2775 -0.2918
  361MPD2    C5 5459   4.255   4.383  16.470  0.2615 -1.1451 -0.3485
  361MPD2     H 5460   4.242   4.494  16.827 -5.1712  1.4290 -0.6955
  361MPD2    H1 5461   4.459   4.341  16.501 -1.1018 -2.0974 -0.2878
  361MPD2    H2 5462   4.041   4.419  16.453 -0.7908  1.2744  1.8123
  361MPD2    H3 5463   4.256   4.331  16.375 -0.6959 -1.8053 -0.0031
  361MPD2     N 5464   4.478   4.396  16.760 -0.0257  0.1340 -0.4707
  361MPD2    H5 5465   4.556   4.358  16.708  1.1278 -0.1197  1.4490
  361MPD2    N1 5466   4.011   4.544  16.677  0.1049 -0.0058 -0.2103
  361MPD2    H7 5467   3.938   4.540  16.606 -0.3998  0.9751  0.2556
  362TMC3    C1 5468   3.847   4.624  16.810  0.5133  0.5892  0.9836
  362TMC3    C2 5469   3.776   4.568  16.908  0.1593  0.0602  0.4163
  362TMC3    C3 5470   3.648   4.613  16.926 -0.1586 -0.1023 -0.4448
  362TMC3    C4 5471   3.790   4.706  16.714  0.1828  0.2437 -0.3251
  362TMC3    C5 5472   3.661   0.006  16.734  0.0719  0.9587 -0.2665
  362TMC3    C6 5473   3.592   4.697  16.838 -0.4966  0.3583 -0.3939
  362TMC3     C 5474   3.980   4.581  16.801 -0.1331  0.5535  0.6727
  362TMC3     O 5475   4.050   4.585  16.901  0.3934  0.3285 -0.0705
  362TMC3     H 5476   3.818   4.499  16.980  2.5342  0.8388 -0.2215
  362TMC3    H1 5477   3.846   0.016  16.633 -2.5023 -1.8475 -3.3082
  362TMC3    H2 5478   3.490   4.732  16.850  0.1075  1.4008  1.5723
  362TMC3    C7 5479   3.591   0.090  16.641  0.8616  0.4591  0.2399
  362TMC3    C8 5480   3.555   4.533  17.002  0.3406  0.1504  0.0053
  362TMC3    O1 5481   3.520   0.181  16.683  0.4382 -0.1035  0.8051
  362TMC3    O2 5482   3.571   4.414  16.971  0.2182 -0.9558 -0.6345
  363TMC3    C1 5483   3.071   2.096  10.203  0.5652 -0.3494 -0.1014
  363TMC3    C2 5484   3.205   2.081  10.175 -0.0078 -1.2895  0.9602
  363TMC3    C3 5485   3.285   2.190  10.173 -0.5328  0.5351 -0.1995
  363TMC3    C4 5486   3.018   2.214  10.238  0.1703 -0.3861  0.0862
  363TMC3    C5 5487   3.101   2.323  10.231 -0.1054 -0.2345  0.9536
  363TMC3    C6 5488   3.233   2.311  10.200 -0.0028  0.4565 -0.4284
  363TMC3     C 5489   2.992   1.978  10.241  0.2576  0.3321 -0.4061
  363TMC3     O 5490   3.038   1.875  10.208  0.1550 -0.4752 -0.2309
  363TMC3     H 5491   3.235   1.985  10.135  4.0170  0.4872 -0.3280
  363TMC3    H1 5492   2.913   2.226  10.264 -0.1051 -1.1287 -0.6993
  363TMC3    H2 5493   3.290   2.401  10.179  0.3215  0.2015 -0.6410
  363TMC3    C7 5494   3.038   2.456  10.213 -0.2327  0.2442  0.6198
  363TMC3    C8 5495   3.400   2.195  10.093  0.4154 -0.1648 -0.0106
  363TMC3    O1 5496   2.921   2.462  10.175 -0.0507 -0.3377  0.4249
  363TMC3    O2 5497   3.407   2.293  10.021  0.1525 -0.0746 -0.1481
  364MPD2     C 5498   1.693   1.476  10.969 -0.5116  0.0865  0.3902
  364MPD2    C1 5499   1.800   1.463  10.882  0.6954  0.0140  0.1568
  364MPD2    C2 5500   1.899   1.375  10.908  0.0016  0.8503 -0.1484
  364MPD2    C3 5501   1.903   1.305  11.027 -0.3420 -0.3409 -0.2161
  364MPD2    C4 5502   1.805   1.327  11.117  0.3588 -0.4343 -0.3536
  364MPD2    C5 5503   1.697   1.401  11.089 -0.4388  0.0427  0.3590
  364MPD2     H 5504   1.975   1.367  10.831  0.2350 -2.4587  0.4357
  364MPD2    H1 5505   1.789   1.266  11.205 -3.8265 -1.2304 -1.6563
  364MPD2    H2 5506   1.606   1.539  10.960 -0.4616  0.0417 -0.3864
  364MPD2    H3 5507   1.628   1.421  11.170  0.1643 -0.9481  1.1201
  364MPD2     N 5508   2.001   1.203  11.056 -0.0731  0.1800 -0.6044
  364MPD2    H5 5509   1.997   1.145  11.139 -0.7032  0.1416 -0.6591
  364MPD2    N1 5510   1.790   1.548  10.767  0.1342  0.5831 -0.0942
  364MPD2    H7 5511   1.705   1.603  10.762  0.7258  1.5541  0.5349
  365TMC3    C1 5512   1.820   1.660  10.570 -0.3592  0.0171  0.3037
  365TMC3    C2 5513   1.847   1.640  10.437  0.7976 -0.0871  0.0261
  365TMC3    C3 5514   1.765   1.691  10.335  0.5538 -0.2782 -0.0768
  365TMC3    C4 5515   1.711   1.742  10.598 -0.0693  0.3134 -0.9514
  365TMC3    C5 5516   1.623   1.786  10.500  0.9700 -0.6016  0.7436
  365TMC3    C6 5517   1.651   1.760  10.365  0.8568  0.3078 -0.2198
  365TMC3     C 5518   1.881   1.570  10.671 -0.4023 -0.1151  0.2413
  365TMC3     O 5519   1.988   1.513  10.645  0.4100  0.1567  0.5443
  365TMC3     H 5520   1.932   1.580  10.405 -0.3433 -1.5221 -0.3017
  365TMC3    H1 5521   1.711   1.784  10.698  1.3993  1.6214 -1.4974
  365TMC3    H2 5522   1.586   1.807  10.292  1.3733 -0.6411 -1.2719
  365TMC3    C7 5523   1.513   1.871  10.533 -0.6298 -0.3827  0.4222
  365TMC3    C8 5524   1.775   1.649  10.195 -0.0309 -0.2000  0.7625
  365TMC3    O1 5525   1.471   1.948  10.451  0.4938  0.5445  0.9111
  365TMC3    O2 5526   1.666   1.646  10.137 -0.4466  0.3853 -0.5519
  366MPD2     C 5527   3.945   3.065  15.402 -0.2390  0.8777  0.5840
  366MPD2    C1 5528   4.078   3.037  15.396  0.2067 -1.0779  0.2967
  366MPD2    C2 5529   4.121   2.913  15.377 -0.0285  0.5652  0.4805
  366MPD2    C3 5530   4.030   2.816  15.354 -0.5815  0.6497 -1.0153
  366MPD2    C4 5531   3.896   2.833  15.366 -0.3173  0.1394  0.5407
  366MPD2    C5 5532   3.852   2.963  15.398 -0.3187 -0.3125  0.2836
  366MPD2     H 5533   4.226   2.890  15.372  0.0410  0.4242  2.6357
  366MPD2    H1 5534   3.827   2.748  15.363 -2.1001  1.6180 -0.2794
  366MPD2    H2 5535   3.899   3.161  15.422  1.3070  1.7965 -0.2822
  366MPD2    H3 5536   3.747   2.975  15.421 -0.4445 -1.5989  0.3587
  366MPD2     N 5537   4.081   2.697  15.299  0.3282 -0.1980 -0.6379
  366MPD2    H5 5538   4.181   2.687  15.281 -0.2046 -3.1391 -1.9291
  366MPD2    N1 5539   4.161   3.149  15.435  0.4885  0.5712  0.3590
  366MPD2    H7 5540   4.123   3.243  15.431 -0.3404  0.2630  1.1004
  367TMC3    C1 5541   4.372   3.252  15.462  0.0883  0.8027  0.0153
  367TMC3    C2 5542   4.470   3.282  15.553  0.3716 -0.5723 -0.3250
  367TMC3    C3 5543   4.562   3.376  15.520  1.1605  0.4166 -0.1624
  367TMC3    C4 5544   4.363   3.312  15.340  0.6440 -0.0975  0.2708
  367TMC3    C5 5545   4.466   3.392  15.308 -0.6671 -0.2670 -0.5231
  367TMC3    C6 5546   4.560   3.434  15.397  0.1431  0.9420  0.6480
  367TMC3     C 5547   4.286   3.135  15.484 -0.5275 -0.2112  0.1998
  367TMC3     O 5548   4.345   3.033  15.523 -0.4983  0.4332  0.1555
  367TMC3     H 5549   4.490   3.225  15.643 -0.5407  1.9504  1.4600
  367TMC3    H1 5550   4.294   3.279  15.263 -0.0049 -1.1156  1.3035
  367TMC3    H2 5551   4.630   3.506  15.357 -0.9508  1.9565  0.5870
  367TMC3    C7 5552   4.452   3.464  15.184  0.6891  0.3106 -0.2182
  367TMC3    C8 5553   4.679   3.380  15.605  0.2634 -0.3231  0.4168
  367TMC3    O1 5554   4.472   3.584  15.185 -0.1634  0.3844 -0.2163
  367TMC3    O2 5555   4.678   3.305  15.702  0.0327  0.1323  0.1019
  368MPD2     C 5556   1.689   0.477  13.170  0.0025 -0.2245 -0.1586
  368MPD2    C1 5557   1.599   0.392  13.227 -0.6044 -0.6790  0.5045
  368MPD2    C2 5558   1.632   0.321  13.344  0.0544 -0.1201 -0.0985
  368MPD2    C3 5559   1.756   0.344  13.398  0.2847  0.2560  0.0836
  368MPD2    C4 5560   1.847   0.425  13.334 -0.4821 -0.1546  0.1641
  368MPD2    C5 5561   1.810   0.489  13.222  0.6382 -0.3777  0.2953
  368MPD2     H 5562   1.557   0.262  13.395  0.1243 -0.8590 -0.8582
  368MPD2    H1 5563   1.950   0.438  13.368 -0.6370 -1.6540  1.2180
  368MPD2    H2 5564   1.667   0.541  13.085 -0.7035  0.9897  0.9370
  368MPD2    H3 5565   1.876   0.549  13.160  2.4259 -2.1447  0.4771
  368MPD2     N 5566   1.802   0.285  13.514 -0.1619 -0.0164 -0.4553
  368MPD2    H5 5567   1.893   0.320  13.545 -0.5236 -0.2528  0.8909
  368MPD2    N1 5568   1.484   0.367  13.156  0.0082  0.4161  0.3514
  368MPD2    H7 5569   1.471   0.416  13.068 -0.7518 -0.0918  0.1764
  369TMC3    C1 5570   1.311   0.240  13.059 -0.8384 -0.1147  0.7233
  369TMC3    C2 5571   1.356   0.256  12.928  0.6239 -0.3256 -0.6614
  369TMC3    C3 5572   1.288   0.209  12.824 -0.3801  0.4980  0.0819
  369TMC3    C4 5573   1.199   0.170  13.082 -0.2456  0.0033  0.2584
  369TMC3    C5 5574   1.140   0.108  12.972 -0.3733 -0.7833  0.4001
  369TMC3    C6 5575   1.172   0.139  12.841 -1.1127 -0.1473  0.0206
  369TMC3     C 5576   1.385   0.270  13.175  0.0308 -0.0169  0.4842
  369TMC3     O 5577   1.363   0.193  13.267 -0.6605 -0.1873 -0.3315
  369TMC3     H 5578   1.433   0.330  12.909 -0.0634  1.2637  2.7787
  369TMC3    H1 5579   1.162   0.149  13.182 -0.9044  2.8322  0.5844
  369TMC3    H2 5580   1.139   0.090  12.750 -2.0890 -0.9584  0.8019
  369TMC3    C7 5581   1.071   4.712  13.003 -1.1577 -0.4226  0.5032
  369TMC3    C8 5582   1.341   0.215  12.690 -0.3148  0.2853 -0.2659
  369TMC3    O1 5583   1.044   4.691  13.122  0.0118  0.0989 -0.2324
  369TMC3    O2 5584   1.260   0.253  12.606  0.0945  0.5600  0.1860
  370TMC3    C1 5585   0.818   0.747  16.223 -0.3509  0.2247  0.2335
  370TMC3    C2 5586   0.719   0.696  16.308 -0.4728  0.1365 -0.3287
  370TMC3    C3 5587   0.642   0.588  16.266  0.1791 -0.0267  0.0258
  370TMC3    C4 5588   0.852   0.677  16.108 -0.1769  0.5788 -0.0480
  370TMC3    C5 5589   0.784   0.566  16.070  0.1561  0.5944  0.3898
  370TMC3    C6 5590   0.679   0.520  16.149  0.2808 -0.3149  0.1286
  370TMC3     C 5591   0.904   0.851  16.278 -0.3349 -0.9931 -0.2520
  370TMC3     O 5592   0.919   0.850  16.397  0.5146 -0.5140 -0.2057
  370TMC3     H 5593   0.699   0.757  16.395 -3.4768  0.1590 -1.0372
  370TMC3    H1 5594   0.928   0.720  16.045  2.8257  0.0679  3.2280
  370TMC3    H2 5595   0.631   0.424  16.132 -0.7126  0.3371 -0.7803
  370TMC3    C7 5596   0.799   0.512  15.933  0.7246 -0.1855  0.5308
  370TMC3    C8 5597   0.551   0.516  16.353 -0.8402 -0.7679  0.2747
  370TMC3    O1 5598   0.834   0.594  15.846 -0.1865 -0.1116  0.0864
  370TMC3    O2 5599   0.527   0.399  16.334  0.1188  0.4169 -0.6522
  371TMC3    C1 5600   1.906   3.449  15.543 -0.0199  0.2330 -0.2368
  371TMC3    C2 5601   1.781   3.447  15.598  0.0225  0.0177  0.1032
  371TMC3    C3 5602   1.722   3.566  15.625 -0.4209  0.1647  0.4704
  371TMC3    C4 5603   1.964   3.563  15.509  0.1439  0.7501 -0.0434
  371TMC3    C5 5604   1.895   3.681  15.524 -0.8691  0.5704 -1.1224
  371TMC3    C6 5605   1.771   3.686  15.578 -0.3422 -0.1350  0.6656
  371TMC3     C 5606   1.964   3.327  15.491  1.1925 -0.3634 -0.0967
  371TMC3     O 5607   2.056   3.336  15.411 -0.1550 -0.0262 -0.3082
  371TMC3     H 5608   1.732   3.356  15.632 -3.7879  2.9917  2.5856
  371TMC3    H1 5609   2.067   3.558  15.477  0.2000  0.4040  0.1849
  371TMC3    H2 5610   1.723   3.783  15.584  0.6592  0.4319 -0.4871
  371TMC3    C7 5611   1.950   3.808  15.491  0.3685 -0.5708 -0.5675
  371TMC3    C8 5612   1.586   3.560  15.680  0.2682 -0.0882 -0.3024
  371TMC3    O1 5613   1.885   3.910  15.515 -0.4557  0.1491 -0.4382
  371TMC3    O2 5614   1.527   3.453  15.648 -0.3761  0.1420 -0.0138
  372MPD2     C 5615   1.316   0.421  13.558 -0.2424  0.0463 -0.0205
  372MPD2    C1 5616   1.400   0.356  13.649 -0.8406 -0.2209 -0.8272
  372MPD2    C2 5617   1.374   0.226  13.686 -0.3467  0.4615  0.3331
  372MPD2    C3 5618   1.261   0.163  13.640 -0.1580 -0.1934  0.2458
  372MPD2    C4 5619   1.188   0.219  13.540 -1.2417 -0.3957  0.1340
  372MPD2    C5 5620   1.211   0.354  13.503  0.1887  0.2297  0.0946
  372MPD2     H 5621   1.426   0.170  13.763  0.6055 -0.1021 -0.7227
  372MPD2    H1 5622   1.116   0.166  13.479 -1.7164  0.4593 -0.0522
  372MPD2    H2 5623   1.327   0.521  13.516  1.0987  0.0249  0.3006
  372MPD2    H3 5624   1.148   0.408  13.433  1.9442  3.0700  0.6915
  372MPD2     N 5625   1.247   0.023  13.678 -0.2714  0.0119  0.3654
  372MPD2    H5 5626   1.313   4.716  13.743  1.5642 -0.4061 -1.7706
  372MPD2    N1 5627   1.522   0.408  13.688  0.4538 -0.0883  0.4385
  372MPD2    H7 5628   1.573   0.349  13.753 -1.5777 -0.5741  1.5866
  373TMC3    C1 5629   1.153   4.542  13.699  0.4821 -0.3147  0.0369
  373TMC3    C2 5630   1.231   4.535  13.813 -0.0133 -0.2892  0.3650
  373TMC3    C3 5631   1.277   4.412  13.844  0.3194  0.5111 -1.1590
  373TMC3    C4 5632   1.126   4.431  13.622 -0.2476 -0.0171  0.1595
  373TMC3    C5 5633   1.172   4.305  13.661 -0.6072  0.4047 -0.7566
  373TMC3    C6 5634   1.255   4.299  13.779  0.2522 -0.0869 -0.1938
  373TMC3     C 5635   1.139   4.679  13.644 -0.3352  0.5285  0.4177
  373TMC3     O 5636   1.049   4.705  13.566 -0.0117 -0.6449 -0.1352
  373TMC3     H 5637   1.256   4.618  13.878  1.1664  0.0820 -0.5581
  373TMC3    H1 5638   1.057   4.438  13.539  1.9236  1.0620 -1.5534
  373TMC3    H2 5639   1.305   4.207  13.806 -0.3250  0.3812  2.4731
  373TMC3    C7 5640   1.184   4.210  13.553  0.4968  0.0833 -0.5051
  373TMC3    C8 5641   1.358   4.402  13.966  0.6046  0.4185  0.1448
  373TMC3    O1 5642   1.087   4.204  13.478  0.5265  0.1202 -0.0829
  373TMC3    O2 5643   1.399   4.504  14.017  0.0209 -0.0036  0.0443
  374TMC3    C1 5644   1.571   0.585  10.561  0.0161  0.4266  0.3158
  374TMC3    C2 5645   1.686   0.563  10.484  0.7001  0.3672  0.2938
  374TMC3    C3 5646   1.670   0.491  10.374 -0.5940 -0.1556 -0.0700
  374TMC3    C4 5647   1.451   0.532  10.528  0.7518 -0.3782 -0.4411
  374TMC3    C5 5648   1.431   0.478  10.403  0.0205 -0.5116 -0.0710
  374TMC3    C6 5649   1.548   0.458  10.322 -0.0871 -0.5922  0.1726
  374TMC3     C 5650   1.597   0.606  10.702  0.3873  0.1082 -0.2538
  374TMC3     O 5651   1.704   0.584  10.754  0.4414 -0.2705  0.3563
  374TMC3     H 5652   1.776   0.614  10.515  0.7881  0.1371  0.4149
  374TMC3    H1 5653   1.360   0.547  10.586  1.5117 -0.0488  0.6643
  374TMC3    H2 5654   1.546   0.403  10.229  2.6155 -3.1482  1.6494
  374TMC3    C7 5655   1.306   0.417  10.381 -0.1444 -0.4107 -0.5130
  374TMC3    C8 5656   1.786   0.442  10.305 -0.1522  0.2594  0.4269
  374TMC3    O1 5657   1.215   0.448  10.457  0.0779 -0.5822 -0.1151
  374TMC3    O2 5658   1.765   0.378  10.202 -1.1464  0.1554 -0.0473
  375MPD2     C 5659   2.347   0.637  17.119  0.1995 -0.3731 -1.0033
  375MPD2    C1 5660   2.249   0.672  17.024  0.4820 -1.0192 -0.0070
  375MPD2    C2 5661   2.259   0.617  16.900 -0.4712 -0.2742 -0.1298
  375MPD2    C3 5662   2.364   0.528  16.863 -0.5547 -0.3400 -0.4142
  375MPD2    C4 5663   2.466   0.500  16.953  0.0562 -0.1407  0.3779
  375MPD2    C5 5664   2.460   0.559  17.083 -1.0526  0.3871  0.7907
  375MPD2     H 5665   2.186   0.642  16.823 -0.2631 -0.1110 -0.2722
  375MPD2    H1 5666   2.552   0.435  16.937 -0.4228 -0.9696  1.1341
  375MPD2    H2 5667   2.332   0.668  17.221  2.1009  0.8095 -1.0759
  375MPD2    H3 5668   2.537   0.537  17.157  0.5355 -0.9108 -1.2279
  375MPD2     N 5669   2.368   0.477  16.726 -0.6870 -0.0998  0.1392
  375MPD2    H5 5670   2.445   0.415  16.703  1.5326  2.7884 -0.1533
  375MPD2    N1 5671   2.138   0.750  17.050 -0.6833 -0.2433  0.4549
  375MPD2    H7 5672   2.074   0.759  16.971  0.6014  1.3123 -0.4162
  376TMC3    C1 5673   2.392   0.505  16.494  0.3417  0.5488  0.4250
  376TMC3    C2 5674   2.525   0.492  16.498 -0.3531 -0.0064 -0.5639
  376TMC3    C3 5675   2.586   0.449  16.387  0.1723  0.1310  0.2881
  376TMC3    C4 5676   2.323   0.506  16.376  0.0862 -0.0946  1.0712
  376TMC3    C5 5677   2.385   0.456  16.263 -0.0673  0.5599  0.8805
  376TMC3    C6 5678   2.519   0.424  16.268 -0.2849 -0.2967 -0.1971
  376TMC3     C 5679   2.313   0.537  16.611  0.0631  0.2906  0.1565
  376TMC3     O 5680   2.208   0.596  16.594 -0.2026  0.0134 -0.2447
  376TMC3     H 5681   2.579   0.506  16.591 -1.4425  1.5288 -0.1647
  376TMC3    H1 5682   2.215   0.509  16.388  0.0499  1.0670  0.4641
  376TMC3    H2 5683   2.571   0.379  16.184 -0.8536 -0.6368 -0.3658
  376TMC3    C7 5684   2.313   0.411  16.145 -0.1287 -0.1120  0.5072
  376TMC3    C8 5685   2.723   0.487  16.367  0.1523 -0.0582  0.8049
  376TMC3    O1 5686   2.363   0.314  16.087  0.0582  0.2303 -0.1023
  376TMC3    O2 5687   2.787   0.452  16.272 -0.2289  0.1794 -0.4155
  377MPD2     C 5688   0.668   0.044  12.812 -0.2617 -0.0893  0.2085
  377MPD2    C1 5689   0.609   0.139  12.731 -0.6398 -0.0173 -0.2065
  377MPD2    C2 5690   0.468   0.160  12.731 -0.9902  0.9557  0.2817
  377MPD2    C3 5691   0.396   0.090  12.829 -0.1152  0.9245 -0.8146
  377MPD2    C4 5692   0.457   0.013  12.924 -0.0315 -0.2531  0.3148
  377MPD2    C5 5693   0.596   4.721  12.908 -0.2961 -0.4996  0.0763
  377MPD2     H 5694   0.426   0.229  12.659  2.2842  2.4397 -0.2125
  377MPD2    H1 5695   0.402   4.706  13.007 -2.0991  3.1053  0.6412
  377MPD2    H2 5696   0.773   0.018  12.804 -0.2831  0.3844 -1.7514
  377MPD2    H3 5697   0.650   4.664  12.983  0.6196 -0.1568 -0.3239
  377MPD2     N 5698   0.255   0.088  12.834 -0.3945 -0.1185 -0.5765
  377MPD2    H5 5699   0.217   0.045  12.918 -1.1059  0.9747 -0.3381
  377MPD2    N1 5700   0.684   0.211  12.631  0.2436 -0.1357 -0.3023
  377MPD2    H7 5701   0.629   0.273  12.572 -1.0917 -0.6673  0.3858
  378TMC3    C1 5702   0.776   0.223  12.235  0.3908 -1.1842  0.0631
  378TMC3    C2 5703   0.739   0.209  12.365  0.0480  0.9097  0.3249
  378TMC3    C3 5704   0.846   0.204  12.454 -0.1102  0.4745 -0.0050
  378TMC3    C4 5705   0.904   0.222  12.194  0.1356 -0.5519 -0.3204
  378TMC3    C5 5706   1.003   0.188  12.285  0.3714 -0.2399  0.7624
  378TMC3    C6 5707   0.975   0.192  12.417  0.0077  0.4248  0.1072
  378TMC3     C 5708   0.671   0.248  12.136 -0.2081 -0.0060 -0.5094
  378TMC3     O 5709   0.565   0.202  12.171  0.1075  0.1094  0.0059
  378TMC3     H 5710   0.634   0.207  12.390 -0.1015 -0.1080 -0.3815
  378TMC3    H1 5711   0.915   0.196  12.090  0.2664 -2.5361  0.1919
  378TMC3    H2 5712   1.054   0.165  12.486 -1.8794 -0.7751  1.8241
  378TMC3    C7 5713   1.120   0.104  12.251  0.1293  0.2380  0.1753
  378TMC3    C8 5714   0.817   0.186  12.597 -0.1811  0.4973  0.5712
  378TMC3    O1 5715   1.195   0.067  12.340  0.1133 -0.7674  0.9224
  378TMC3    O2 5716   0.901   0.139  12.671  0.4558  0.1511 -0.7465
  379MPD2     C 5717   1.124   3.328  16.073  0.9861 -0.6424 -0.1979
  379MPD2    C1 5718   1.038   3.260  16.161  0.3582  0.1260 -0.0792
  379MPD2    C2 5719   1.080   3.222  16.288 -0.0027 -0.0830  0.1268
  379MPD2    C3 5720   1.211   3.239  16.324  0.0351  0.2559  0.1296
  379MPD2    C4 5721   1.298   3.302  16.231 -0.6952 -0.0344 -0.6800
  379MPD2    C5 5722   1.253   3.354  16.109  0.0118 -0.2130  0.6714
  379MPD2     H 5723   1.009   3.178  16.357  0.9419 -2.9574 -0.7127
  379MPD2    H1 5724   1.401   3.328  16.252 -0.9378 -0.7081  1.4068
  379MPD2    H2 5725   1.099   3.358  15.971  0.3426  1.9545  0.7253
  379MPD2    H3 5726   1.314   3.417  16.045 -0.1286 -0.2499  0.5024
  379MPD2     N 5727   1.269   3.212  16.450 -0.1617  0.1484  0.4575
  379MPD2    H5 5728   1.366   3.238  16.469  0.7146 -2.3652 -0.6132
  379MPD2    N1 5729   0.910   3.224  16.114  0.1379 -0.1060  0.1587
  379MPD2    H7 5730   0.873   3.258  16.026  1.6369  0.5405 -0.2211
  380TMC3    C1 5731   0.710   3.124  16.094  0.2322 -0.4079 -0.3792
  380TMC3    C2 5732   0.758   3.026  16.011 -0.2608  0.0646  0.6930
  380TMC3    C3 5733   0.735   3.042  15.881 -0.3183  0.1851  0.1446
  380TMC3    C4 5734   0.644   3.228  16.048 -0.4516 -0.0149 -0.0438
  380TMC3    C5 5735   0.593   3.227  15.919  0.3858  0.7175  0.2010
  380TMC3    C6 5736   0.636   3.129  15.832  0.2283 -0.6743  0.5859
  380TMC3     C 5737   0.816   3.153  16.185 -0.2692  0.3671 -0.6304
  380TMC3     O 5738   0.832   3.069  16.272  0.0946 -0.1125  0.0581
  380TMC3     H 5739   0.831   2.956  16.050  3.4168  3.3134 -0.4977
  380TMC3    H1 5740   0.625   3.317  16.107 -0.8930  0.4762 -0.9283
  380TMC3    H2 5741   0.606   3.129  15.728  2.0491  0.8645  0.0565
  380TMC3    C7 5742   0.551   3.352  15.859  0.3775  0.0912  0.4318
  380TMC3    C8 5743   0.857   3.039  15.796  0.8276  0.1837  0.2616
  380TMC3    O1 5744   0.606   3.456  15.888  0.0886  0.1128  0.5182
  380TMC3    O2 5745   0.843   3.038  15.673  0.0367 -0.4290  0.1632
  381TMC3    C1 5746   0.459   4.534  16.394 -0.0365 -0.7481  0.0569
  381TMC3    C2 5747   0.539   4.589  16.300  0.6035  0.3675 -0.2728
  381TMC3    C3 5748   0.555   4.729  16.294  0.4002 -0.7048  0.4146
  381TMC3    C4 5749   0.385   4.614  16.472 -0.0905 -0.5231  0.9899
  381TMC3    C5 5750   0.381   0.010  16.448  0.2896  0.7872 -0.5174
  381TMC3    C6 5751   0.470   0.071  16.367  0.5107  0.9335 -0.0218
  381TMC3     C 5752   0.476   4.394  16.437  0.3070  0.3743  0.3797
  381TMC3     O 5753   0.438   4.368  16.553 -0.1120  0.3780  0.0807
  381TMC3     H 5754   0.604   4.527  16.241 -0.1025 -0.6441  0.0028
  381TMC3    H1 5755   0.319   4.570  16.545  0.1517 -0.9073  0.9773
  381TMC3    H2 5756   0.469   0.177  16.347  1.7342  1.1540  1.0711
  381TMC3    C7 5757   0.285   0.089  16.525 -0.3611 -0.3790 -0.2773
  381TMC3    C8 5758   0.681   0.055  16.241  0.0996  0.7962 -0.4763
  381TMC3    O1 5759   0.238   0.040  16.624  0.0188 -0.3382 -0.2133
  381TMC3    O2 5760   0.733   4.731  16.151 -0.3929 -0.2981  0.4653
  382MPD2     C 5761   4.372   2.114  16.729  0.2553 -0.2193 -0.2621
  382MPD2    C1 5762   4.418   2.138  16.860  0.2538  0.4557 -0.7620
  382MPD2    C2 5763   4.437   2.025  16.938  0.8447  0.1128  0.3198
  382MPD2    C3 5764   4.404   1.898  16.903 -0.7433  0.7673  1.2077
  382MPD2    C4 5765   4.370   1.879  16.772  0.6647  0.0663 -0.2646
  382MPD2    C5 5766   4.354   1.986  16.686  0.1685 -0.2026  0.1009
  382MPD2     H 5767   4.471   2.043  17.040 -0.6458 -1.2482  1.0551
  382MPD2    H1 5768   4.342   1.781  16.736  2.0325 -1.0990  1.8637
  382MPD2    H2 5769   4.357   2.194  16.657 -0.2381 -0.5568 -0.5364
  382MPD2    H3 5770   4.327   1.969  16.582 -0.5775 -1.3938  0.4845
  382MPD2     N 5771   4.415   1.786  16.987  0.4711 -0.0342 -0.4726
  382MPD2    H5 5772   4.407   1.700  16.934 -0.9798  0.3164 -0.8215
  382MPD2    N1 5773   4.426   2.267  16.924 -0.3742  0.2841  0.8339
  382MPD2    H7 5774   4.436   2.271  17.024  0.3290 -0.7071  0.8121
  383TMC3    C1 5775   4.424   1.655  17.181  0.7590  0.3912 -0.1195
  383TMC3    C2 5776   4.334   1.559  17.147  0.2608  0.1405  0.1331
  383TMC3    C3 5777   4.319   1.445  17.226  0.5715  0.4946  0.4392
  383TMC3    C4 5778   4.483   1.649  17.305 -1.3008 -0.2242 -0.8765
  383TMC3    C5 5779   4.448   1.548  17.391  0.3982  0.0228  0.2824
  383TMC3    C6 5780   4.376   1.443  17.351 -0.0023 -0.0217 -0.1549
  383TMC3     C 5781   4.418   1.790  17.120  0.1947 -0.4758  0.5179
  383TMC3     O 5782   4.397   1.880  17.199 -0.2416  0.1946 -0.6814
  383TMC3     H 5783   4.290   1.571  17.048 -3.0061 -3.9600  1.1107
  383TMC3    H1 5784   4.568   1.713  17.328 -1.7113  0.3420 -0.9521
  383TMC3    H2 5785   4.346   1.369  17.423  1.5268 -0.8177 -0.3316
  383TMC3    C7 5786   4.506   1.548  17.528  0.1206  0.3090  0.2161
  383TMC3    C8 5787   4.204   1.358  17.192 -0.0359  0.1205  0.4360
  383TMC3    O1 5788   4.554   1.443  17.570 -0.0103  0.2128  0.2457
  383TMC3    O2 5789   4.147   1.368  17.083 -0.7579 -0.3850 -0.0361
  384MPD2     C 5790   0.445   2.699  12.020  0.1842 -0.4205 -0.1320
  384MPD2    C1 5791   0.541   2.778  12.076  0.9447 -0.1324  0.0179
  384MPD2    C2 5792   0.673   2.754  12.048  0.1128 -0.7490  1.4706
  384MPD2    C3 5793   0.710   2.645  11.979 -0.1353  0.1195  0.3650
  384MPD2    C4 5794   0.613   2.563  11.928 -0.1358  0.4493  0.0562
  384MPD2    C5 5795   0.483   2.596  11.941 -0.6512  0.0336  0.0098
  384MPD2     H 5796   0.751   2.820  12.085 -1.5006  1.6080  0.7087
  384MPD2    H1 5797   0.643   2.477  11.868  0.3795  0.2157  0.6473
  384MPD2    H2 5798   0.339   2.721  12.031 -0.2105 -1.0461 -2.8090
  384MPD2    H3 5799   0.400   2.537  11.904  1.4601 -3.3601  0.6351
  384MPD2     N 5800   0.850   2.637  11.961  0.8438 -0.3684  0.5669
  384MPD2    H5 5801   0.914   2.708  11.996  1.4541 -0.6520  0.0142
  384MPD2    N1 5802   0.508   2.892  12.156  0.7158  0.2290 -0.0078
  384MPD2    H7 5803   0.412   2.896  12.190  0.6133  0.4362 -0.3167
  385TMC3    C1 5804   1.058   2.558  11.958 -0.3491  1.2542  0.6415
  385TMC3    C2 5805   1.116   2.435  11.966 -0.2534 -0.1888  0.4352
  385TMC3    C3 5806   1.187   2.403  12.074 -0.3426  0.1978  0.3940
  385TMC3    C4 5807   1.089   2.654  12.050  0.0196  0.8982  0.2062
  385TMC3    C5 5808   1.153   2.618  12.171  0.1753  0.9050 -0.3062
  385TMC3    C6 5809   1.201   2.489  12.181 -0.0106 -0.1007  0.8235
  385TMC3     C 5810   0.915   2.532  11.920  0.4002 -0.3213 -0.1831
  385TMC3     O 5811   0.874   2.415  11.898 -0.5807  0.2189  0.1371
  385TMC3     H 5812   1.093   2.358  11.894 -1.7029  1.0079 -0.4023
  385TMC3    H1 5813   1.053   2.755  12.030  1.4798  1.1418 -1.1621
  385TMC3    H2 5814   1.267   2.466  12.264  1.8541  3.2613  0.2563
  385TMC3    C7 5815   1.086   2.677  12.277  0.1641 -0.3044 -0.3509
  385TMC3    C8 5816   1.262   2.277  12.078 -0.7817  0.5956 -0.2982
  385TMC3    O1 5817   1.069   2.797  12.257  0.3654 -0.0836 -0.0249
  385TMC3    O2 5818   1.328   2.256  12.182 -0.5148 -0.0855 -0.3040
  386TMC3    C1 5819   2.155   4.256  11.698  0.0244 -0.6926  0.6077
  386TMC3    C2 5820   2.236   4.365  11.693  0.5842 -0.0535 -0.2234
  386TMC3    C3 5821   2.196   4.475  11.758 -0.2075  0.1973 -0.1960
  386TMC3    C4 5822   2.025   4.255  11.749 -0.1686  0.0984 -0.5876
  386TMC3    C5 5823   1.994   4.367  11.822  0.2159  0.0771  0.0986
  386TMC3    C6 5824   2.088   4.463  11.840 -0.2615  0.1549  0.5709
  386TMC3     C 5825   2.212   4.125  11.664  0.2747  0.0769 -1.1865
  386TMC3     O 5826   2.319   4.125  11.601 -0.2151 -0.1027  0.0014
  386TMC3     H 5827   2.331   4.351  11.641  1.0856 -1.0790  0.9658
  386TMC3    H1 5828   1.948   4.182  11.730 -0.9299  1.0241 -1.0821
  386TMC3    H2 5829   2.073   4.542  11.912  1.7587  0.8423  0.2401
  386TMC3    C7 5830   1.862   4.430  11.815  0.3811  0.2177 -0.8727
  386TMC3    C8 5831   2.212   4.603  11.692 -0.0979  0.1612 -0.5356
  386TMC3    O1 5832   1.842   4.546  11.839  0.0582 -0.3948 -0.0132
  386TMC3    O2 5833   2.291   4.612  11.597 -0.4342  0.1517  0.3977
  387MPD2     C 5834   3.785   0.299   9.955 -0.3008 -0.5581  0.0465
  387MPD2    C1 5835   3.890   0.293   9.866  0.0191 -0.0465  0.6161
  387MPD2    C2 5836   3.887   0.193   9.769  0.1971  0.2571 -0.0607
  387MPD2    C3 5837   3.772   0.110   9.753  0.4053 -1.7312 -0.3824
  387MPD2    C4 5838   3.658   0.128   9.829  0.3230 -0.0528 -0.0616
  387MPD2    C5 5839   3.673   0.225   9.936  0.0575  0.1807  0.9156
  387MPD2     H 5840   3.973   0.183   9.704  0.3239  0.9575 -0.0012
  387MPD2    H1 5841   3.569   0.066   9.818 -1.6492  2.1824  3.0285
  387MPD2    H2 5842   3.785   0.358  10.046  2.0585 -1.0510  0.3780
  387MPD2    H3 5843   3.597   0.224  10.012  0.3235  1.0041  1.1970
  387MPD2     N 5844   3.785   0.015   9.646  0.1025 -0.2260 -0.3452
  387MPD2    H5 5845   3.878   0.016   9.606 -0.6094 -2.2945 -2.0431
  387MPD2    N1 5846   4.006   0.363   9.869 -0.0899  0.2003 -0.0298
  387MPD2    H7 5847   4.067   0.349   9.789  1.1427 -0.3506  1.0003
  388TMC3    C1 5848   4.176   0.483   9.974 -0.0376 -0.8265 -0.1351
  388TMC3    C2 5849   4.220   0.534  10.091  0.3989 -0.3935  0.8838
  388TMC3    C3 5850   4.347   0.527  10.121 -0.3878  0.4250 -0.6400
  388TMC3    C4 5851   4.267   0.426   9.884  0.7611 -0.2141  0.3678
  388TMC3    C5 5852   4.396   0.412   9.929 -0.1506  0.1120  0.1690
  388TMC3    C6 5853   4.444   0.461  10.044  0.0439 -0.5409 -0.1292
  388TMC3     C 5854   4.035   0.461   9.965 -0.6048 -0.3870 -0.2480
  388TMC3     O 5855   3.961   0.521  10.041 -0.3923 -0.2858  0.4306
  388TMC3     H 5856   4.146   0.568  10.163  0.2238 -1.9326  1.4186
  388TMC3    H1 5857   4.251   0.421   9.777 -1.0155  0.4082  0.6128
  388TMC3    H2 5858   4.547   0.445  10.075 -0.6863 -2.2693  1.3971
  388TMC3    C7 5859   4.461   0.293   9.869 -0.2623 -0.4944  0.9566
  388TMC3    C8 5860   4.404   0.636  10.195  0.4016 -0.4403 -0.4321
  388TMC3    O1 5861   4.578   0.279   9.897  0.2174  0.1082  0.3115
  388TMC3    O2 5862   4.518   0.670  10.163 -0.1687 -0.4775  0.0634
  389MPD2     C 5863   3.110   3.707  10.909  0.1503 -0.2179 -0.9296
  389MPD2    C1 5864   3.049   3.604  10.851  0.2771  0.2052  0.2397
  389MPD2    C2 5865   3.045   3.481  10.910  0.5555  0.1375 -0.2462
  389MPD2    C3 5866   3.095   3.467  11.041 -0.3038 -0.7488 -0.4069
  389MPD2    C4 5867   3.146   3.574  11.107 -0.1543 -0.6726 -0.5654
  389MPD2    C5 5868   3.151   3.693  11.039  0.1454  0.0788  0.1382
  389MPD2     H 5869   3.006   3.393  10.860 -0.6540  0.9101 -0.6745
  389MPD2    H1 5870   3.180   3.567  11.209  1.5865 -1.7638 -1.2110
  389MPD2    H2 5871   3.117   3.805  10.863 -2.7336  0.2507 -0.3803
  389MPD2    H3 5872   3.199   3.778  11.086  0.2446  0.9377 -1.5315
  389MPD2     N 5873   3.093   3.344  11.110 -0.5272  0.8125 -0.1505
  389MPD2    H5 5874   3.134   3.345  11.203  0.8553  0.7495 -0.7515
  389MPD2    N1 5875   2.999   3.636  10.723  0.0324 -0.5889 -0.9259
  389MPD2    H7 5876   3.034   3.718  10.674 -1.0165  1.5080  1.8816
  390TMC3    C1 5877   3.065   3.124  11.182 -0.0265 -0.6743  0.2385
  390TMC3    C2 5878   3.016   2.995  11.162  0.1938  0.0818  0.1781
  390TMC3    C3 5879   3.038   2.892  11.256  0.1029 -0.4274 -0.1374
  390TMC3    C4 5880   3.137   3.149  11.300 -0.7127  0.1859 -0.5256
  390TMC3    C5 5881   3.155   3.044  11.389 -0.3893  0.3307  0.1474
  390TMC3    C6 5882   3.112   2.913  11.372  0.2562 -0.6433  0.1574
  390TMC3     C 5883   3.048   3.221  11.076  0.1707  0.2268 -0.0183
  390TMC3     O 5884   3.005   3.185  10.968 -0.3566 -0.9259  0.5247
  390TMC3     H 5885   2.960   2.980  11.071  1.5723  1.6436 -0.9415
  390TMC3    H1 5886   3.164   3.250  11.329  1.9636 -1.0906  1.4340
  390TMC3    H2 5887   3.143   2.839  11.444 -1.7489 -2.0279 -0.4012
  390TMC3    C7 5888   3.174   3.075  11.523  0.9374  0.3115 -0.0207
  390TMC3    C8 5889   2.960   2.778  11.264  1.0960  0.5942  0.1794
  390TMC3    O1 5890   3.243   3.169  11.553  0.8115  0.3384 -0.6213
  390TMC3    O2 5891   2.996   2.687  11.339 -0.1772  0.3684  0.4412
  391MPD2     C 5892   3.064   0.071  11.097 -0.4316 -0.3401  0.2184
  391MPD2    C1 5893   3.118   0.177  11.032 -0.2218  0.1396 -0.0284
  391MPD2    C2 5894   3.044   0.241  10.936  0.2577  0.3590  0.7101
  391MPD2    C3 5895   2.916   0.206  10.906  0.0353  0.6921  0.3727
  391MPD2    C4 5896   2.864   0.095  10.969 -0.4821 -0.4223  0.1296
  391MPD2    C5 5897   2.939   0.032  11.064  0.0592 -0.0528 -0.4893
  391MPD2     H 5898   3.084   0.328  10.886 -0.1628 -0.1815 -0.5744
  391MPD2    H1 5899   2.763   0.071  10.936 -0.7366 -0.8482  1.2367
  391MPD2    H2 5900   3.120   0.017  11.173 -1.3728 -0.8677  0.5336
  391MPD2    H3 5901   2.891   4.679  11.107 -0.6322  0.3306 -0.4777
  391MPD2     N 5902   2.846   0.273  10.802  0.4464 -0.8337  0.4962
  391MPD2    H5 5903   2.898   0.341  10.747 -0.6315 -0.2335  0.2228
  391MPD2    N1 5904   3.246   0.230  11.069  0.4319  0.0213  0.3884
  391MPD2    H7 5905   3.317   0.174  11.115  0.0881  1.2668  2.4204
  392TMC3    C1 5906   2.675   0.358  10.663 -0.3301  0.0294  0.4833
  392TMC3    C2 5907   2.567   0.434  10.663 -0.1370  0.1832 -0.2791
  392TMC3    C3 5908   2.541   0.517  10.557  0.2936  0.3693  0.4338
  392TMC3    C4 5909   2.777   0.377  10.572  0.6605  0.0612 -0.2843
  392TMC3    C5 5910   2.761   0.480  10.484  0.1431 -0.1174 -0.3019
  392TMC3    C6 5911   2.638   0.541  10.461 -0.4689  0.1486 -0.0625
  392TMC3     C 5912   2.712   0.277  10.784  0.2352 -0.1146 -0.4197
  392TMC3     O 5913   2.627   0.243  10.867 -0.1211 -0.2055 -0.0913
  392TMC3     H 5914   2.495   0.421  10.743  0.8648  1.3596  0.8194
  392TMC3    H1 5915   2.873   0.327  10.573  0.7241  0.1776 -0.8703
  392TMC3    H2 5916   2.618   0.617  10.386  0.4332  1.2450  0.8122
  392TMC3    C7 5917   2.888   0.544  10.437 -0.7011  0.1586  0.0009
  392TMC3    C8 5918   2.404   0.528  10.519  0.0580 -0.3211  0.1741
  392TMC3    O1 5919   2.991   0.495  10.470  0.2242  0.5965 -0.7811
  392TMC3    O2 5920   2.315   0.541  10.604  0.0359 -0.0653 -0.0996
  393TMC3    C1 5921   1.319   3.209  10.670 -1.2329 -0.4285 -0.7913
  393TMC3    C2 5922   1.308   3.285  10.780 -0.7190 -0.4081  0.3178
  393TMC3    C3 5923   1.316   3.217  10.900  0.1311  0.5388 -1.1719
  393TMC3    C4 5924   1.350   3.078  10.664 -0.4883 -0.4065  0.0377
  393TMC3    C5 5925   1.344   3.007  10.783  0.0904  0.0719  0.3789
  393TMC3    C6 5926   1.326   3.079  10.899 -0.0993  0.3003 -0.6237
  393TMC3     C 5927   1.344   3.291  10.553 -0.8791 -0.3282 -0.1304
  393TMC3     O 5928   1.260   3.372  10.519 -0.2690  0.0629 -0.2827
  393TMC3     H 5929   1.280   3.389  10.766 -1.6400 -0.3011  2.8358
  393TMC3    H1 5930   1.345   3.036  10.564 -0.4210  2.8288 -1.3432
  393TMC3    H2 5931   1.328   3.027  10.994  1.8198  1.6411  0.0554
  393TMC3    C7 5932   1.365   2.863  10.795  0.6644 -0.5497 -0.1656
  393TMC3    C8 5933   1.318   3.282  11.030 -0.1822  0.6248 -0.1627
  393TMC3    O1 5934   1.324   2.807  10.898 -0.4294 -0.3205 -0.1173
  393TMC3    O2 5935   1.295   3.210  11.129 -0.4720 -0.7273  0.2116
  394TMC3    C1 5936   2.896   3.582  10.514  0.7449 -0.7125  0.0063
  394TMC3    C2 5937   2.796   3.522  10.446 -0.5114 -0.0048 -0.8016
  394TMC3    C3 5938   2.808   3.519  10.309  0.2643  0.8850 -0.0924
  394TMC3    C4 5939   2.999   3.638  10.450  0.1048  0.1020 -0.0431
  394TMC3    C5 5940   3.002   3.636  10.314 -0.8063  0.9066 -0.4457
  394TMC3    C6 5941   2.913   3.570  10.240 -0.1771 -0.1342  0.1901
  394TMC3     C 5942   2.906   3.556  10.653 -0.2460  0.1360 -0.8562
  394TMC3     O 5943   2.846   3.459  10.695 -0.0776  0.0507 -0.3994
  394TMC3     H 5944   2.709   3.482  10.496  0.1708 -0.5436 -0.0668
  394TMC3    H1 5945   3.068   3.702  10.503 -0.3869 -0.0532  0.7769
  394TMC3    H2 5946   2.915   3.578  10.132 -0.0283  0.0897  0.2101
  394TMC3    C7 5947   3.123   3.685  10.251 -0.0615 -0.9231 -1.0581
  394TMC3    C8 5948   2.739   3.409  10.249  0.4881  0.3042 -0.1991
  394TMC3    O1 5949   3.111   3.752  10.150 -0.3924  0.4270  0.0267
  394TMC3    O2 5950   2.701   3.428  10.130  0.6765 -0.3205 -0.1237
  395TMC3    C1 5951   2.675   0.584  15.201 -0.5054 -0.1444  0.6662
  395TMC3    C2 5952   2.600   0.506  15.117  0.1685  0.5919 -0.5741
  395TMC3    C3 5953   2.651   0.468  14.994  0.6331 -0.2122 -0.0071
  395TMC3    C4 5954   2.794   0.627  15.153 -0.0689 -0.5931  0.3175
  395TMC3    C5 5955   2.844   0.593  15.038 -0.2356  0.0741 -0.0800
  395TMC3    C6 5956   2.779   0.498  14.954 -0.7858  0.3430 -0.4763
  395TMC3     C 5957   2.605   0.685  15.281 -0.0599 -0.6542  0.8411
  395TMC3     O 5958   2.674   0.785  15.299 -0.0867  0.1067 -0.2033
  395TMC3     H 5959   2.502   0.468  15.145  1.2770 -0.1135  2.4118
  395TMC3    H1 5960   2.862   0.681  15.218  1.0319 -0.5189 -0.8813
  395TMC3    H2 5961   2.814   0.472  14.855  1.1446 -0.9136  0.5465
  395TMC3    C7 5962   2.974   0.630  15.009  0.2821 -0.4607  0.4828
  395TMC3    C8 5963   2.582   0.358  14.919 -0.2776 -0.1388  0.9640
  395TMC3    O1 5964   3.019   0.734  15.060 -0.0216  0.8093  0.0223
  395TMC3    O2 5965   2.510   0.287  14.989  0.5115  0.2463  0.1962
  396MPD2     C 5966   2.563   1.386  17.322  0.0894 -0.3500 -0.0058
  396MPD2    C1 5967   2.628   1.284  17.262 -0.3319  0.4095 -0.1648
  396MPD2    C2 5968   2.659   1.295  17.128  0.0740 -0.2653  0.2130
  396MPD2    C3 5969   2.627   1.411  17.057 -0.2158 -0.1666 -0.1012
  396MPD2    C4 5970   2.539   1.502  17.115  0.1031  0.6234  0.2468
  396MPD2    C5 5971   2.512   1.490  17.250  0.1724 -0.0930  0.0955
  396MPD2     H 5972   2.720   1.226  17.070  0.1563  0.4091 -0.4945
  396MPD2    H1 5973   2.516   1.595  17.065 -3.1331  0.1410  0.8397
  396MPD2    H2 5974   2.540   1.389  17.428 -1.6709 -2.7127 -0.3068
  396MPD2    H3 5975   2.460   1.570  17.300  2.0489 -0.1481  2.1111
  396MPD2     N 5976   2.672   1.427  16.920  0.6342  1.0554 -1.0311
  396MPD2    H5 5977   2.736   1.358  16.880 -1.2789 -1.5260  0.4252
  396MPD2    N1 5978   2.685   1.169  17.331  0.3323  0.1524  0.0162
  396MPD2    H7 5979   2.736   1.100  17.277 -0.2051  0.4669 -0.8876
  397TMC3    C1 5980   2.744   1.033  17.505  0.2772 -0.1038 -0.0737
  397TMC3    C2 5981   2.858   1.004  17.432 -0.0544 -0.3493  0.2967
  397TMC3    C3 5982   2.870   0.892  17.354 -0.0273  0.2793 -0.8158
  397TMC3    C4 5983   2.663   0.927  17.528  0.0437  0.1079 -0.2962
  397TMC3    C5 5984   2.687   0.807  17.462 -0.0493  0.0845 -0.0300
  397TMC3    C6 5985   2.791   0.786  17.373  0.1129 -0.6921  0.8361
  397TMC3     C 5986   2.668   1.140  17.465  0.0901 -0.2900 -0.0453
  397TMC3     O 5987   2.595   1.193  17.545 -0.3270  0.7050 -0.0278
  397TMC3     H 5988   2.916   1.093  17.410 -0.0786 -0.2214  0.7548
  397TMC3    H1 5989   2.565   0.933  17.575  1.1065 -1.4379  2.1215
  397TMC3    H2 5990   2.808   0.697  17.313  0.2694 -0.7005  0.8937
  397TMC3    C7 5991   2.620   0.680  17.504 -0.0412  0.1299  0.2199
  397TMC3    C8 5992   2.917   0.906  17.218  0.1023  0.3946  0.0506
  397TMC3    O1 5993   2.641   0.576  17.444  0.0607 -0.8099 -0.1806
  397TMC3    O2 5994   2.839   0.877  17.129 -0.7603 -0.1811 -0.8730
  398MPD2     C 5995   0.920   3.395  17.718 -0.4219  0.5440  0.0526
  398MPD2    C1 5996   1.002   3.293   0.034  0.5261 -0.4833  0.0517
  398MPD2    C2 5997   1.131   3.328   0.070  0.3230  0.9569  0.0426
  398MPD2    C3 5998   1.181   3.456   0.050  0.9879  0.1877  0.0255
  398MPD2    C4 5999   1.097   3.552  17.730 -0.0667  0.5072  0.3295
  398MPD2    C5 6000   0.970   3.525  17.698 -0.3588 -0.7669  0.6111
  398MPD2     H 6001   1.189   3.256   0.126 -2.3139 -0.1944  1.3037
  398MPD2    H1 6002   1.123   3.653  17.698 -0.2709  0.8505  1.2540
  398MPD2    H2 6003   0.816   3.378  17.693  0.7119  0.4567 -4.5670
  398MPD2    H3 6004   0.907   3.605  17.662  0.1556 -0.5960  0.1025
  398MPD2     N 6005   1.308   3.493   0.097 -0.8993 -0.1551 -0.5161
  398MPD2    H5 6006   1.350   3.417   0.150  0.9713  0.1362 -1.5696
  398MPD2    N1 6007   0.970   3.155   0.050 -0.2215 -0.4339  0.1155
  398MPD2    H7 6008   1.045   3.108   0.099 -0.3617  1.6814  2.3500
  399TMC3    C1 6009   0.842   2.957   0.019  0.1141  0.8376 -0.0572
  399TMC3    C2 6010   0.954   2.876   0.008  0.6227  0.0567 -0.4816
  399TMC3    C3 6011   0.927   2.744   0.016 -0.2914  0.4070  0.0711
  399TMC3    C4 6012   0.721   2.898   0.018 -0.2853  0.1285 -0.0105
  399TMC3    C5 6013   0.703   2.765   0.028 -0.0434  0.4057 -0.5798
  399TMC3    C6 6014   0.806   2.680   0.022  0.0311 -0.0112 -0.3966
  399TMC3     C 6015   0.857   3.100   0.001 -0.3233  0.8538  0.2833
  399TMC3     O 6016   0.752   3.159  17.703 -0.1387  0.5902 -0.0381
  399TMC3     H 6017   1.051   2.922  17.732  2.1400 -3.6652 -2.1472
  399TMC3    H1 6018   0.642   2.970   0.037  0.3536  0.7300  0.3630
  399TMC3    H2 6019   0.786   2.573   0.018 -0.9892  0.1700 -0.3068
  399TMC3    C7 6020   0.575   2.705   0.018 -0.3550  0.4162 -0.3572
  399TMC3    C8 6021   1.034   2.681   0.098  0.2756  0.9686 -0.1325
  399TMC3    O1 6022   0.566   2.589   0.057  0.4057  0.0390  0.1265
  399TMC3    O2 6023   1.137   2.746   0.109 -0.1871 -0.0091  0.4161
  400TMC3    C1 6024   4.299   1.061  16.875  0.1499 -0.4688  0.7029
  400TMC3    C2 6025   4.220   0.948  16.859  0.2968 -0.7927 -0.5989
  400TMC3    C3 6026   4.101   0.959  16.790 -1.0210  0.1108 -0.0582
  400TMC3    C4 6027   4.256   1.186  16.831  0.0130  0.0599 -0.1123
  400TMC3    C5 6028   4.135   1.194  16.759 -0.0596  0.1231  0.3887
  400TMC3    C6 6029   4.064   1.076  16.732  0.1187  0.0496  0.7199
  400TMC3     C 6030   4.395   1.049  16.983 -0.1007 -1.0171 -0.1224
  400TMC3     O 6031   4.400   0.945  17.043 -0.3291  0.1587 -0.0546
  400TMC3     H 6032   4.249   0.856  16.909  0.0695 -1.5694 -1.8865
  400TMC3    H1 6033   4.301   1.276  16.870 -0.8093  0.1068  0.7316
  400TMC3    H2 6034   3.972   1.095  16.677  0.9234  1.5784 -0.1051
  400TMC3    C7 6035   4.073   1.316  16.725  0.8125 -0.0617 -0.8757
  400TMC3    C8 6036   4.000   0.860  16.819  0.4560 -0.5954 -0.2950
  400TMC3    O1 6037   3.988   1.305  16.640 -0.7803 -0.7279  0.0682
  400TMC3    O2 6038   4.031   0.772  16.899  0.4261  1.0091 -0.3000
  401MPD2     C 6039   2.420   4.644   0.899 -0.5020  0.6447 -0.6182
  401MPD2    C1 6040   2.498   4.533   0.938 -0.0561 -0.2540  0.1047
  401MPD2    C2 6041   2.440   4.410   0.916  0.2254 -0.5442 -0.2383
  401MPD2    C3 6042   2.322   4.395   0.847  0.1715  0.7184 -0.3189
  401MPD2    C4 6043   2.257   4.505   0.799  1.1589 -0.3146 -0.0763
  401MPD2    C5 6044   2.304   4.634   0.824  0.4914  0.6782 -0.0629
  401MPD2     H 6045   2.483   4.325   0.968  2.6757  0.1300 -1.1355
  401MPD2    H1 6046   2.159   4.491   0.754  0.9157  0.3933  0.2319
  401MPD2    H2 6047   2.447   0.012   0.921 -3.3787  1.5708 -1.4115
  401MPD2    H3 6048   2.253   4.724   0.793 -0.3938  0.3386  0.4040
  401MPD2     N 6049   2.276   4.255   0.823  0.3478  0.0282 -0.2246
  401MPD2    H5 6050   2.330   4.189   0.878 -1.9354 -2.0860 -0.5352
  401MPD2    N1 6051   2.624   4.539   1.008 -0.3609  0.4970 -0.2521
  401MPD2    H7 6052   2.660   4.447   1.035 -0.6395 -0.4398 -3.1326
  402TMC3    C1 6053   2.150   4.068   0.750 -0.3906 -0.5515 -1.0657
  402TMC3    C2 6054   2.176   4.008   0.868  0.4657  0.3122 -0.2587
  402TMC3    C3 6055   2.238   3.883   0.868 -0.3263 -0.7633  0.8490
  402TMC3    C4 6056   2.175   4.013   0.634 -0.2103  0.2489 -0.0602
  402TMC3    C5 6057   2.226   3.888   0.637  0.2061 -0.0279  0.4341
  402TMC3    C6 6058   2.265   3.821   0.753 -0.1483 -0.4367 -0.1439
  402TMC3     C 6059   2.174   4.216   0.740  0.4431 -0.6937 -0.1643
  402TMC3     O 6060   2.133   4.275   0.641 -0.6260 -0.2686 -0.4340
  402TMC3     H 6061   2.153   4.051   0.964  0.1070  0.7504 -0.5419
  402TMC3    H1 6062   2.160   4.066   0.541 -3.7756 -2.1252 -0.8561
  402TMC3    H2 6063   2.310   3.723   0.761 -0.2654 -0.4847 -0.0809
  402TMC3    C7 6064   2.279   3.837   0.513 -0.3309  1.5391  0.2169
  402TMC3    C8 6065   2.277   3.804   0.991  0.2359  0.5156  0.2681
  402TMC3    O1 6066   2.241   3.896   0.411 -0.5738  0.1890 -0.5811
  402TMC3    O2 6067   2.352   3.707   0.982  0.3421  0.1480 -0.0623
  403MPD2     C 6068   0.331   2.871  13.516  0.1559 -0.2038 -0.1185
  403MPD2    C1 6069   0.425   2.787  13.465  0.8465 -0.0331  0.4036
  403MPD2    C2 6070   0.557   2.811  13.489 -0.5957 -0.0467  0.6750
  403MPD2    C3 6071   0.590   2.919  13.561  0.2362 -1.2186  0.1222
  403MPD2    C4 6072   0.495   2.992  13.627  0.2213 -0.0319 -0.2384
  403MPD2    C5 6073   0.365   2.967  13.600  0.1300  0.1793 -0.0854
  403MPD2     H 6074   0.639   2.753  13.450  0.0648  2.4692 -1.6352
  403MPD2    H1 6075   0.521   3.080  13.686  1.0740 -0.4984  0.0737
  403MPD2    H2 6076   0.226   2.850  13.497 -0.6881  2.1985  1.8613
  403MPD2    H3 6077   0.284   3.029  13.636 -0.0138 -1.1444  1.8749
  403MPD2     N 6078   0.729   2.959  13.571 -0.1050 -0.2373 -0.3197
  403MPD2    H5 6079   0.794   2.907  13.513  2.3181  2.1949  0.2324
  403MPD2    N1 6080   0.373   2.671  13.392  0.9040 -0.7139 -0.1811
  403MPD2    H7 6081   0.273   2.663  13.399  1.1551 -1.9839  2.0514
  404TMC3    C1 6082   0.399   2.463  13.299  0.1836 -0.0712  0.0686
  404TMC3    C2 6083   0.445   2.399  13.411 -0.0169  0.3019 -0.2538
  404TMC3    C3 6084   0.520   2.285  13.401  0.4540  0.4166  0.0013
  404TMC3    C4 6085   0.412   2.406  13.179  0.0902 -0.1528  0.2729
  404TMC3    C5 6086   0.480   2.290  13.167  0.8083 -0.3318  0.2876
  404TMC3    C6 6087   0.540   2.226  13.278  0.2178  0.6083  0.6148
  404TMC3     C 6088   0.453   2.594  13.310 -0.5676 -0.3731  0.4444
  404TMC3     O 6089   0.570   2.600  13.284  0.2609  0.4086  0.5222
  404TMC3     H 6090   0.449   2.457  13.502 -0.1177  1.5883 -1.0740
  404TMC3    H1 6091   0.388   2.463  13.090  0.8679 -0.6988 -0.2933
  404TMC3    H2 6092   0.603   2.141  13.256 -1.9368 -0.8556  0.0945
  404TMC3    C7 6093   0.501   2.216  13.043 -0.0719 -0.5244 -0.0473
  404TMC3    C8 6094   0.615   2.244  13.507 -0.2292  0.4454  0.3395
  404TMC3    O1 6095   0.578   2.121  13.043 -0.2840  0.2592 -0.5884
  404TMC3    O2 6096   0.722   2.193  13.472  0.4377 -0.5397  0.6323
  405MPD2     C 6097   1.359   3.327  14.721  0.3591 -0.0446 -0.4476
  405MPD2    C1 6098   1.333   3.251  14.609  0.4654 -0.7427 -0.0222
  405MPD2    C2 6099   1.330   3.309  14.482  1.5376  0.2378  0.7567
  405MPD2    C3 6100   1.342   3.449  14.467  0.0081  0.2543  0.1426
  405MPD2    C4 6101   1.369   3.519  14.582  0.7704 -0.4014  0.2046
  405MPD2    C5 6102   1.390   3.457  14.702  0.9981 -0.9005 -0.5848
  405MPD2     H 6103   1.319   3.251  14.391  0.0257 -0.9093  1.6609
  405MPD2    H1 6104   1.378   3.627  14.575  2.3791 -0.5372  0.1149
  405MPD2    H2 6105   1.350   3.284  14.820 -2.0982  0.0669 -0.6176
  405MPD2    H3 6106   1.423   3.506  14.793  0.1612 -2.1330  0.3813
  405MPD2     N 6107   1.315   3.492  14.334  0.1267  0.4623  0.2408
  405MPD2    H5 6108   1.293   3.421  14.265  1.3625  2.3096 -2.0492
  405MPD2    N1 6109   1.296   3.114  14.637  0.4199 -0.1983 -0.4149
  405MPD2    H7 6110   1.285   3.077  14.730 -0.0911  0.8874 -0.0487
  406TMC3    C1 6111   1.044   3.758  14.095  0.2581 -0.0851  0.1163
  406TMC3    C2 6112   1.002   3.638  14.038 -0.2473 -0.2160 -0.4589
  406TMC3    C3 6113   1.089   3.529  14.035  0.1914 -0.5264  0.7411
  406TMC3    C4 6114   1.164   3.760  14.165  0.1269 -0.1543 -0.7606
  406TMC3    C5 6115   1.235   3.647  14.174 -0.3803 -1.1673 -0.5514
  406TMC3    C6 6116   1.208   3.526  14.112  0.1998 -0.9032  0.0145
  406TMC3     C 6117   0.943   3.851  14.135  0.1233 -0.6711  1.3045
  406TMC3     O 6118   0.978   3.966  14.145 -0.3258 -0.4347 -0.6745
  406TMC3     H 6119   0.910   3.634  13.980 -1.2312  2.9215  0.8997
  406TMC3    H1 6120   1.186   3.845  14.229  0.8058 -1.1271  0.2985
  406TMC3    H2 6121   1.278   3.444  14.097  0.1683 -0.8396 -0.4879
  406TMC3    C7 6122   1.300   3.626  14.303 -0.4051  0.2506 -0.6972
  406TMC3    C8 6123   1.026   3.402  13.996  0.2223  0.2018 -0.3645
  406TMC3    O1 6124   1.323   3.726  14.367 -0.0956 -0.0255 -0.5547
  406TMC3    O2 6125   0.917   3.400  13.942 -0.2676 -0.5955 -0.1552
  407MPD2     C 6126   3.246   0.445   9.964  0.1245  0.4301 -0.1638
  407MPD2    C1 6127   3.382   0.441   9.970  0.1238  0.1037 -0.1163
  407MPD2    C2 6128   3.449   0.457  10.091  0.1134  0.2110  0.2365
  407MPD2    C3 6129   3.382   0.485  10.204  0.3686  0.0717  0.3595
  407MPD2    C4 6130   3.248   0.490  10.199 -0.0166  0.1063  0.7652
  407MPD2    C5 6131   3.175   0.469  10.081  0.7566  0.4082 -0.1362
  407MPD2     H 6132   3.557   0.457  10.092  0.1267  0.2898 -1.1165
  407MPD2    H1 6133   3.192   0.511  10.290 -1.1841 -2.9196  0.7265
  407MPD2    H2 6134   3.189   0.444   9.872 -1.4344 -0.0848  0.8199
  407MPD2    H3 6135   3.068   0.480  10.074  0.5928 -0.1536  1.5668
  407MPD2     N 6136   3.456   0.511  10.326  0.0337  0.2333  0.1163
  407MPD2    H5 6137   3.410   0.564  10.400 -1.7419 -0.3222 -0.5702
  407MPD2    N1 6138   3.460   0.436   9.849 -0.0166 -0.2634 -0.0709
  407MPD2    H7 6139   3.561   0.439   9.853 -0.0336 -0.8781  0.9141
  408TMC3    C1 6140   3.513   0.413   9.622  0.0877  0.2229 -0.0525
  408TMC3    C2 6141   3.520   0.308   9.539  0.1909  0.1405  0.3700
  408TMC3    C3 6142   3.612   0.313   9.443  0.0064  0.3319 -0.0568
  408TMC3    C4 6143   3.607   0.511   9.631 -0.3723  0.1664  0.1919
  408TMC3    C5 6144   3.707   0.510   9.539  0.4726  0.6223  0.3274
  408TMC3    C6 6145   3.700   0.420   9.438 -0.7860  0.1026 -0.3820
  408TMC3     C 6146   3.412   0.394   9.723  0.2427 -0.1809 -0.2583
  408TMC3     O 6147   3.305   0.343   9.694 -0.8272  0.7080 -0.3463
  408TMC3     H 6148   3.455   0.221   9.544 -0.5250  0.6177 -0.5866
  408TMC3    H1 6149   3.596   0.595   9.699 -1.0223 -0.6662  1.1128
  408TMC3    H2 6150   3.771   0.433   9.358  0.5182 -1.4284  0.5286
  408TMC3    C7 6151   3.823   0.595   9.544  0.2746 -0.0394 -0.6160
  408TMC3    C8 6152   3.671   0.190   9.391  0.3075  0.5499 -0.2376
  408TMC3    O1 6153   3.915   0.556   9.476 -0.3578  0.1234 -0.4127
  408TMC3    O2 6154   3.586   0.102   9.381  0.2685  0.2002 -0.1448
  409MPD2     C 6155   2.927   0.531  17.036 -0.1464  0.0410 -0.0844
  409MPD2    C1 6156   3.020   0.543  17.131 -0.1179  0.2237  0.5183
  409MPD2    C2 6157   3.128   0.630  17.116 -0.2330 -0.1961 -0.3434
  409MPD2    C3 6158   3.141   0.699  16.996 -0.5811  0.4265  0.2285
  409MPD2    C4 6159   3.053   0.681  16.892  0.4664 -0.0939  0.0582
  409MPD2    C5 6160   2.938   0.600  16.914  0.3341 -0.0571 -0.3350
  409MPD2     H 6161   3.207   0.642  17.189 -0.8022  1.1375  0.0502
  409MPD2    H1 6162   3.056   0.738  16.800 -0.3765 -0.0552  0.0574
  409MPD2    H2 6163   2.840   0.467  17.038 -0.6147  0.6650 -0.5387
  409MPD2    H3 6164   2.858   0.587  16.842 -0.5671 -0.0673  0.6693
  409MPD2     N 6165   3.255   0.767  16.949 -0.3598 -0.3199  0.6180
  409MPD2    H5 6166   3.250   0.796  16.852  3.5287  0.0109  0.4920
  409MPD2    N1 6167   3.017   0.482  17.256 -0.0522  0.0520  0.3876
  409MPD2    H7 6168   3.073   0.519  17.332  1.4523 -2.3536  0.4649
  410TMC3    C1 6169   3.457   0.887  16.944  1.0294 -0.6247 -0.3205
  410TMC3    C2 6170   3.573   0.939  17.000  0.5165  0.1959 -0.0887
  410TMC3    C3 6171   3.645   1.036  16.935  0.5031 -0.1557  0.4286
  410TMC3    C4 6172   3.409   0.941  16.823 -0.3117 -0.1696 -0.2607
  410TMC3    C5 6173   3.485   1.039  16.759  0.0142  0.5991 -0.1413
  410TMC3    C6 6174   3.607   1.079  16.805  0.1191  0.2926  0.5357
  410TMC3     C 6175   3.371   0.801  17.021 -0.6507 -0.3795 -1.0517
  410TMC3     O 6176   3.402   0.769  17.135 -0.3610  0.0438  0.0077
  410TMC3     H 6177   3.585   0.921  17.106 -0.1408 -0.3681 -0.1080
  410TMC3    H1 6178   3.315   0.917  16.774 -0.7141  1.8647 -0.5173
  410TMC3    H2 6179   3.665   1.157  16.758  1.0879 -2.3717 -2.6362
  410TMC3    C7 6180   3.420   1.099  16.637  0.5202  0.5163 -0.3065
  410TMC3    C8 6181   3.780   1.070  16.980 -0.6675 -0.1080  0.1758
  410TMC3    O1 6182   3.312   1.060  16.594 -0.2489  0.1437  0.2813
  410TMC3    O2 6183   3.833   1.178  16.942 -0.1046  0.3365 -0.6803
  411MPD2     C 6184   3.515   1.113  14.040 -0.3988 -0.5027  0.9384
  411MPD2    C1 6185   3.466   1.189  14.145  0.4069  0.0181 -0.0974
  411MPD2    C2 6186   3.433   1.121  14.265 -0.7082 -0.1583 -0.5686
  411MPD2    C3 6187   3.448   0.986  14.287 -0.5606 -0.5173  0.3911
  411MPD2    C4 6188   3.483   0.913  14.179  0.1353  0.5289 -0.0964
  411MPD2    C5 6189   3.519   0.976  14.060  0.6231 -0.0028  1.2310
  411MPD2     H 6190   3.395   1.190  14.340 -1.0563 -0.1828 -0.7212
  411MPD2    H1 6191   3.519   0.811  14.194  1.6465  1.2937  1.4770
  411MPD2    H2 6192   3.557   1.146  13.946 -5.1531  0.4853 -0.8119
  411MPD2    H3 6193   3.570   0.915  13.985 -0.8697 -1.1645  1.1734
  411MPD2     N 6194   3.411   0.925  14.407 -0.1592 -0.1960 -0.1565
  411MPD2    H5 6195   3.417   0.824  14.417  0.7324 -0.1585 -0.2960
  411MPD2    N1 6196   3.450   1.328  14.126 -0.4239  0.2375 -0.2393
  411MPD2    H7 6197   3.409   1.382  14.202  1.2653  2.7735 -1.1185
  412TMC3    C1 6198   3.293   0.906  14.611 -0.8865  0.4035  0.5291
  412TMC3    C2 6199   3.227   0.983  14.706 -0.1985 -0.7885  0.2381
  412TMC3    C3 6200   3.094   0.975  14.721  0.4133  0.2022  0.2642
  412TMC3    C4 6201   3.228   0.805  14.538 -0.0230  0.0401 -0.0565
  412TMC3    C5 6202   3.090   0.805  14.562 -0.5542  0.2097  0.1256
  412TMC3    C6 6203   3.024   0.882  14.657 -0.1577 -0.1189  0.0311
  412TMC3     C 6204   3.376   0.987  14.526 -0.0519 -0.3916  0.2884
  412TMC3     O 6205   3.399   1.101  14.563 -0.4527  0.4109  0.4166
  412TMC3     H 6206   3.276   1.057  14.769 -0.7872  2.0752 -2.6206
  412TMC3    H1 6207   3.267   0.750  14.453 -1.1927  0.1544 -0.6683
  412TMC3    H2 6208   2.923   0.850  14.682  0.3228 -2.1866 -0.7025
  412TMC3    C7 6209   3.025   0.678  14.540  0.1137 -0.5629  0.5596
  412TMC3    C8 6210   3.027   1.043  14.833  0.3737  0.3408 -0.0602
  412TMC3    O1 6211   2.975   0.625  14.640  0.1286  0.2670 -0.7843
  412TMC3    O2 6212   3.109   1.085  14.915 -0.1157  0.3424  0.7035
  413MPD2     C 6213   0.564   0.145  14.996 -0.2065 -0.3463  0.6383
  413MPD2    C1 6214   0.480   0.065  14.922 -0.3609  0.5989  0.4822
  413MPD2    C2 6215   0.530   4.669  14.888  0.4417 -0.6350 -0.0180
  413MPD2    C3 6216   0.647   4.617  14.942  0.0742 -0.9227  0.7107
  413MPD2    C4 6217   0.712   4.693  15.038 -0.0328 -0.4052 -0.4947
  413MPD2    C5 6218   0.680   0.092  15.054  0.6949 -0.2918 -0.4944
  413MPD2     H 6219   0.474   4.606  14.819 -1.1533  0.4646  0.2610
  413MPD2    H1 6220   0.797   4.658  15.096  1.8066  2.2381 -1.5887
  413MPD2    H2 6221   0.538   0.249  15.008 -3.5873 -0.8156 -2.4317
  413MPD2    H3 6222   0.746   0.153  15.115 -2.4686  1.7359  0.9126
  413MPD2     N 6223   0.667   4.482  14.925  0.8789  0.1473  0.2336
  413MPD2    H5 6224   0.618   4.436  14.849 -0.9501  3.5643 -0.6588
  413MPD2    N1 6225   0.355   0.111  14.877  0.2043 -0.1393  0.2479
  413MPD2    H7 6226   0.337   0.209  14.899 -2.0164 -0.1582 -1.4485
  414TMC3    C1 6227   0.768   4.269  14.964  0.2102  0.4424  0.0734
  414TMC3    C2 6228   0.780   4.170  15.064  0.6714  0.0555 -0.2818
  414TMC3    C3 6229   0.786   4.041  15.012  0.3778 -0.4637  0.3657
  414TMC3    C4 6230   0.765   4.246  14.829  0.0866  0.1813  0.6865
  414TMC3    C5 6231   0.790   4.119  14.788  0.0530 -0.2971 -0.1749
  414TMC3    C6 6232   0.788   4.016  14.877  0.3171 -0.5360  0.1029
  414TMC3     C 6233   0.752   4.409  15.005  0.0468  0.2029 -0.4235
  414TMC3     O 6234   0.789   4.427  15.119 -0.0947 -0.1388  0.0974
  414TMC3     H 6235   0.755   4.181  15.169  1.5150  1.3761 -0.2274
  414TMC3    H1 6236   0.752   4.331  14.762  0.6330  1.3572  2.0642
  414TMC3    H2 6237   0.809   3.914  14.847  0.3700 -1.0879  2.0344
  414TMC3    C7 6238   0.768   4.090  14.647  0.3929  0.0062  0.3141
  414TMC3    C8 6239   0.878   3.956  15.083 -0.0577  0.6851 -0.4510
  414TMC3    O1 6240   0.686   4.159  14.586  0.3055  0.1597 -0.1598
  414TMC3    O2 6241   0.886   3.837  15.049  0.3556  0.1535 -0.0785
  415TMC3    C1 6242   0.434   2.833   9.481 -0.0460  0.6901  0.5747
  415TMC3    C2 6243   0.564   2.794   9.436 -0.0463  0.0446 -0.1293
  415TMC3    C3 6244   0.571   2.727   9.317  0.1615  0.3811 -0.2048
  415TMC3    C4 6245   0.322   2.788   9.422 -0.7410 -0.3566  0.1982
  415TMC3    C5 6246   0.333   2.708   9.315  0.3201 -0.3563 -0.0195
  415TMC3    C6 6247   0.453   2.676   9.261 -0.7331  0.7564  0.1644
  415TMC3     C 6248   0.416   2.879   9.620 -0.1811 -0.1686  0.5488
  415TMC3     O 6249   0.316   2.946   9.648 -0.3495 -0.0903 -0.0876
  415TMC3     H 6250   0.656   2.827   9.483 -0.3137  0.8090 -0.1407
  415TMC3    H1 6251   0.227   2.809   9.469 -1.0066  0.8617 -0.8730
  415TMC3    H2 6252   0.467   2.606   9.180 -0.1385  0.8879  0.1505
  415TMC3    C7 6253   0.222   2.629   9.258  0.1262  0.3993  0.6931
  415TMC3    C8 6254   0.690   2.663   9.281 -0.6901 -0.4455  0.8864
  415TMC3    O1 6255   0.251   2.537   9.187  0.5054  0.2179  0.1902
  415TMC3    O2 6256   0.682   2.560   9.219 -0.7550  0.2437  0.5724
  416MPD2     C 6257   3.235   0.766  12.042 -0.1232 -0.2385 -0.2803
  416MPD2    C1 6258   3.170   0.827  11.937  0.9230  0.0920  0.0440
  416MPD2    C2 6259   3.158   0.759  11.817  0.7074  0.0909 -0.5869
  416MPD2    C3 6260   3.185   0.628  11.811 -0.5817  0.6411 -0.6556
  416MPD2    C4 6261   3.232   0.565  11.923  0.1208  0.2391  0.0711
  416MPD2    C5 6262   3.264   0.635  12.040  0.0694 -0.4799  0.0664
  416MPD2     H 6263   3.121   0.808  11.727  1.5108  0.5179 -0.6825
  416MPD2    H1 6264   3.265   0.462  11.914 -0.5553 -0.2541  3.0732
  416MPD2    H2 6265   3.262   0.824  12.129 -0.2187 -1.6733  0.7091
  416MPD2    H3 6266   3.303   0.579  12.124 -0.4979 -1.4492 -0.3160
  416MPD2     N 6267   3.179   0.538  11.696 -0.3424 -0.2406  0.1964
  416MPD2    H5 6268   3.176   0.438  11.715  0.1869 -0.1849  0.5808
  416MPD2    N1 6269   3.136   0.964  11.947 -0.6761  1.0165 -0.5505
  416MPD2    H7 6270   3.149   1.004  12.040  1.0950 -0.8697 -0.0010
  417TMC3    C1 6271   3.011   1.165  11.906 -0.1877 -0.4238  0.6908
  417TMC3    C2 6272   3.003   1.192  12.038  0.3072 -0.2606 -0.2695
  417TMC3    C3 6273   2.971   1.318  12.078  0.2815  0.6935  0.0944
  417TMC3    C4 6274   2.970   1.252  11.807 -0.0780 -0.2268 -0.0756
  417TMC3    C5 6275   2.917   1.368  11.851 -0.5572  0.3256  0.0006
  417TMC3    C6 6276   2.923   1.403  11.983  0.0214 -0.0779 -0.3452
  417TMC3     C 6277   3.058   1.035  11.856 -0.2806 -0.3373 -0.2741
  417TMC3     O 6278   3.053   1.017  11.737 -0.3986  0.1263 -0.2053
  417TMC3     H 6279   3.004   1.106  12.104  1.6638 -0.7907 -0.9894
  417TMC3    H1 6280   2.948   1.216  11.707  1.1635  2.2350 -1.2264
  417TMC3    H2 6281   2.894   1.504  12.010  0.3900 -0.6053  2.0526
  417TMC3    C7 6282   2.784   1.389  11.793 -0.1055 -0.2701  0.1274
  417TMC3    C8 6283   2.898   1.333  12.201 -0.1770 -0.3123  0.5049
  417TMC3    O1 6284   2.778   1.370  11.671 -0.1708 -0.1799 -0.2058
  417TMC3    O2 6285   2.807   1.408  12.203  0.2372 -0.4379  0.2128
  418TMC3    C1 6286   1.717   3.513   0.029 -0.4095  0.4655 -0.9145
  418TMC3    C2 6287   1.600   3.580   0.000 -0.1723 -0.0040 -0.0043
  418TMC3    C3 6288   1.515   3.596   0.109  0.3605  0.0226  0.3222
  418TMC3    C4 6289   1.763   3.477   0.152  0.5362  0.8876 -0.5535
  418TMC3    C5 6290   1.676   3.509   0.255  0.5965  0.0525 -0.0409
  418TMC3    C6 6291   1.542   3.554   0.239  0.8633 -0.5343  0.0902
  418TMC3     C 6292   1.793   3.477  17.646  0.7623 -0.1140 -0.1626
  418TMC3     O 6293   1.776   3.534  17.541 -0.4357 -0.5817 -0.2328
  418TMC3     H 6294   1.574   3.603  17.636  2.5424 -1.7653 -1.0954
  418TMC3    H1 6295   1.866   3.446   0.167  0.4477  0.5235 -0.7011
  418TMC3    H2 6296   1.485   3.581   0.327  3.1664 -0.8938  1.6769
  418TMC3    C7 6297   1.706   3.450   0.384 -0.0877  0.3717 -0.0907
  418TMC3    C8 6298   1.382   3.606   0.078 -0.4195  0.1557 -0.5438
  418TMC3    O1 6299   1.769   3.350   0.371 -0.0311  0.5042 -0.1290
  418TMC3    O2 6300   1.354   3.708   0.013  0.3295  0.1972 -0.0845
  419MPD2     C 6301   0.434   1.299  12.635  0.3771 -0.6909  0.7170
  419MPD2    C1 6302   0.298   1.297  12.605  0.3305  0.1640  1.0825
  419MPD2    C2 6303   0.211   1.349  12.698 -0.2135  0.1160 -0.3636
  419MPD2    C3 6304   0.261   1.422  12.807 -0.0420 -0.0934 -0.1093
  419MPD2    C4 6305   0.392   1.423  12.834  0.4177  1.2523 -0.0858
  419MPD2    C5 6306   0.479   1.354  12.754  0.0687  0.2143 -0.1877
  419MPD2     H 6307   0.103   1.339  12.691 -0.3933  0.9881  1.0246
  419MPD2    H1 6308   0.431   1.475  12.921 -2.3026  1.0469  1.2619
  419MPD2    H2 6309   0.501   1.246  12.569  0.0658  0.7170 -0.7272
  419MPD2    H3 6310   0.581   1.340  12.788 -0.8471 -2.3939  1.4851
  419MPD2     N 6311   0.160   1.490  12.880 -0.0258 -0.4375  0.3639
  419MPD2    H5 6312   0.063   1.480  12.851  0.0840 -2.8670  0.8290
  419MPD2    N1 6313   0.240   1.238  12.497  0.2867  0.2166 -0.2191
  419MPD2    H7 6314   0.140   1.228  12.508 -0.0226 -1.0108 -4.1853
  420TMC3    C1 6315   0.057   1.638  13.027 -0.6935  0.4337  0.2341
  420TMC3    C2 6316   4.693   1.651  12.926  0.5664  0.1044 -0.0535
  420TMC3    C3 6317   4.561   1.656  12.966  0.1859  0.0377  0.6892
  420TMC3    C4 6318   0.020   1.648  13.153  0.6648  0.0464 -0.7529
  420TMC3    C5 6319   4.621   1.662  13.188  0.5138 -0.8605 -0.0954
  420TMC3    C6 6320   4.523   1.666  13.092 -0.1121  0.4926  0.8936
  420TMC3     C 6321   0.177   1.570  12.991 -0.5929 -0.3311 -0.5353
  420TMC3     O 6322   0.279   1.585  13.055  0.0067  0.2306 -0.0529
  420TMC3     H 6323   4.711   1.635  12.820 -0.1058 -0.7459 -0.0402
  420TMC3    H1 6324   0.098   1.629  13.226  0.0060 -0.9748 -0.3149
  420TMC3    H2 6325   4.421   1.639  13.117 -0.4344  0.2506 -0.6473
  420TMC3    C7 6326   4.575   1.590  13.308 -1.3864 -0.2606 -0.0250
  420TMC3    C8 6327   4.453   1.624  12.867  0.5407 -0.0290 -0.2108
  420TMC3    O1 6328   4.651   1.507  13.351  0.2171 -0.1596 -0.3877
  420TMC3    O2 6329   4.487   1.543  12.780 -1.0903  0.7054  0.1224
  421TMC3    C1 6330   0.930   3.092  13.631 -0.6134 -0.2462 -0.5618
  421TMC3    C2 6331   0.971   3.222  13.659  0.7193  0.5172  0.2785
  421TMC3    C3 6332   1.108   3.239  13.666  0.1075 -0.4076 -0.2445
  421TMC3    C4 6333   1.006   2.988  13.613  0.5432 -0.6441  0.0761
  421TMC3    C5 6334   1.143   3.016  13.607 -0.4680 -0.2563 -0.4124
  421TMC3    C6 6335   1.190   3.139  13.626 -0.4629 -0.1344 -0.7055
  421TMC3     C 6336   0.782   3.071  13.642 -0.7596 -0.8138  0.0058
  421TMC3     O 6337   0.717   3.169  13.679  0.1328 -0.1621 -0.4918
  421TMC3     H 6338   0.911   3.300  13.706 -0.8396 -1.7752  2.1095
  421TMC3    H1 6339   0.985   2.882  13.604  3.1987 -1.0781 -1.1896
  421TMC3    H2 6340   1.296   3.153  13.609 -0.5706  1.5106 -0.0081
  421TMC3    C7 6341   1.238   2.908  13.603  0.5644  0.2273  0.3253
  421TMC3    C8 6342   1.181   3.364  13.692 -0.2740 -0.5698 -0.6112
  421TMC3    O1 6343   1.346   2.932  13.646 -0.2251  0.0133  0.1682
  421TMC3    O2 6344   1.307   3.350  13.703 -0.2911 -0.2547 -0.5935
  422TMC3    C1 6345   3.378   4.223  12.562  0.0207  0.2105 -0.8330
  422TMC3    C2 6346   3.322   4.319  12.632 -0.5691 -0.2464  0.0167
  422TMC3    C3 6347   3.222   4.279  12.723 -0.2102  0.3557  0.0121
  422TMC3    C4 6348   3.348   4.091  12.582 -0.4865 -0.3508  0.1534
  422TMC3    C5 6349   3.255   4.058  12.678  0.0327 -0.1395  0.5510
  422TMC3    C6 6350   3.186   4.151  12.747  0.2621  0.3058  0.4306
  422TMC3     C 6351   3.504   4.257  12.499  0.0957 -0.1551  0.2382
  422TMC3     O 6352   3.551   4.361  12.547  0.0870  0.7675  0.0784
  422TMC3     H 6353   3.331   4.422  12.598 -0.5707 -0.6614 -1.2356
  422TMC3    H1 6354   3.403   4.015  12.528  0.8710  0.2862  0.6445
  422TMC3    H2 6355   3.107   4.126  12.816 -0.1223 -1.5604 -0.6783
  422TMC3    C7 6356   3.201   3.921  12.661 -0.8410 -0.1371  0.0795
  422TMC3    C8 6357   3.192   4.373  12.825 -0.0293  0.4567 -0.5074
  422TMC3    O1 6358   3.246   3.856  12.567  0.3489 -0.1122 -0.1424
  422TMC3    O2 6359   3.081   4.358  12.885 -0.1378 -0.1936 -0.0553
  423MPD2     C 6360   0.323   0.806   0.563  0.8291 -0.2035 -0.0922
  423MPD2    C1 6361   0.352   0.669   0.591  0.8258  1.2546 -0.0122
  423MPD2    C2 6362   0.365   0.579   0.488  0.4202 -0.8051  0.7243
  423MPD2    C3 6363   0.346   0.613   0.356 -0.5890 -0.4590  0.3865
  423MPD2    C4 6364   0.324   0.752   0.332  0.4180 -0.5164  0.2145
  423MPD2    C5 6365   0.316   0.841   0.431 -0.1975  0.1804  0.5193
  423MPD2     H 6366   0.405   0.482   0.515  0.1819 -0.6157  1.7830
  423MPD2    H1 6367   0.305   0.782   0.230  3.5582 -0.7030 -0.4269
  423MPD2    H2 6368   0.301   0.883   0.636  0.7092  0.8891 -1.2806
  423MPD2    H3 6369   0.306   0.946   0.407 -1.8247  0.0499  0.5981
  423MPD2     N 6370   0.354   0.523   0.249  1.1002 -0.6263 -0.0982
  423MPD2    H5 6371   0.335   0.565   0.159  1.4052  0.5119  0.3594
  423MPD2    N1 6372   0.380   0.628   0.723 -0.8672  0.3623 -0.4676
  423MPD2    H7 6373   0.408   0.531   0.732 -2.0777  0.0125 -0.3880
  424TMC3    C1 6374   0.423   0.638   0.948  0.0808  0.2805 -0.5241
  424TMC3    C2 6375   0.492   0.525   0.935 -0.3126 -0.8800 -0.2543
  424TMC3    C3 6376   0.600   0.518   1.023 -0.0667  0.1174 -0.2171
  424TMC3    C4 6377   0.435   0.732   1.046  0.2561  0.0208 -0.0279
  424TMC3    C5 6378   0.545   0.720   1.126 -0.2839 -0.2660 -0.4039
  424TMC3    C6 6379   0.636   0.623   1.103 -0.5488 -0.4019 -0.2443
  424TMC3     C 6380   0.378   0.706   0.832 -0.4806 -0.2931  0.2470
  424TMC3     O 6381   0.354   0.824   0.848  0.2838  0.3754  0.0189
  424TMC3     H 6382   0.463   0.446   0.867  3.0696 -0.6708 -1.9596
  424TMC3    H1 6383   0.356   0.804   1.061 -1.6197 -2.0266 -0.1056
  424TMC3    H2 6384   0.726   0.619   1.163 -0.3214  0.1902 -0.5486
  424TMC3    C7 6385   0.573   0.835   1.204 -0.4123 -0.7353  0.3445
  424TMC3    C8 6386   0.669   0.395   1.046 -0.0388  0.1518 -0.2709
  424TMC3    O1 6387   0.685   0.874   1.220 -0.4767 -0.0746  0.2522
  424TMC3    O2 6388   0.610   0.287   1.010 -0.1607  0.2006 -0.0152
  425MPD2     C 6389   4.078   4.472  17.271  0.1439 -0.4838 -0.5408
  425MPD2    C1 6390   4.018   4.378  17.193  0.0724 -0.2497  0.0002
  425MPD2    C2 6391   3.891   4.330  17.226  0.3741  0.4850 -0.2111
  425MPD2    C3 6392   3.830   4.379  17.338  0.3628 -0.6833 -0.1847
  425MPD2    C4 6393   3.892   4.473  17.417 -0.0661  0.2756  1.0703
  425MPD2    C5 6394   4.017   4.515  17.386  0.0074 -0.3978 -0.4225
  425MPD2     H 6395   3.850   4.249  17.167  0.0994  0.1015  0.5030
  425MPD2    H1 6396   3.844   4.508  17.507  1.0738 -0.5776  2.0082
  425MPD2    H2 6397   4.179   4.509  17.253  0.1970 -1.0165 -1.3008
  425MPD2    H3 6398   4.064   4.595  17.442 -0.1264  1.4530 -2.9632
  425MPD2     N 6399   3.695   4.328  17.362  0.2069 -0.0646  0.1425
  425MPD2    H5 6400   3.652   4.276  17.287  1.6767 -0.7548 -0.2132
  425MPD2    N1 6401   4.099   4.337  17.083 -0.1987  0.2832  0.3610
  425MPD2    H7 6402   4.192   4.376  17.077 -0.0385  0.3354  3.2668
  426TMC3    C1 6403   4.153   4.184  16.918  0.4805 -0.0110  0.0678
  426TMC3    C2 6404   4.147   4.133  16.791 -0.0329 -0.0303  0.5424
  426TMC3    C3 6405   4.243   4.042  16.759  0.4238  0.6428  0.1944
  426TMC3    C4 6406   4.253   4.152  17.008 -0.2680  0.7049  0.6139
  426TMC3    C5 6407   4.350   4.067  16.963 -0.4137 -0.3785  0.2477
  426TMC3    C6 6408   4.346   4.012  16.837 -0.2115  0.0956 -0.1383
  426TMC3     C 6409   4.052   4.272  16.970  0.7469  0.4083  0.9152
  426TMC3     O 6410   3.936   4.251  16.932  0.1325 -0.2161  0.2200
  426TMC3     H 6411   4.069   4.149  16.717  1.0825  1.5074 -0.2892
  426TMC3    H1 6412   4.239   4.156  17.115 -2.8953 -1.7500  0.3546
  426TMC3    H2 6413   4.435   3.958  16.808  0.1014  1.1660 -1.2057
  426TMC3    C7 6414   4.379   3.967  17.067 -0.2430 -0.2200  0.3477
  426TMC3    C8 6415   4.211   3.944  16.658  0.3615  0.2107 -0.3479
  426TMC3    O1 6416   4.492   3.929  17.071 -0.7894  0.0841 -0.1640
  426TMC3    O2 6417   4.301   3.888  16.594  0.5836  1.2863 -0.0220
  427MPD2     C 6418   2.710   1.765  14.538 -0.4553  0.5276 -0.6679
  427MPD2    C1 6419   2.687   1.706  14.667 -0.0815  0.0978  0.0389
  427MPD2    C2 6420   2.574   1.730  14.736  0.2880 -0.1344  0.2802
  427MPD2    C3 6421   2.477   1.819  14.685  0.0569 -0.0822 -0.5063
  427MPD2    C4 6422   2.499   1.880  14.566  0.3442 -0.1357 -0.8510
  427MPD2    C5 6423   2.607   1.842  14.488 -0.2638  0.1807  0.2496
  427MPD2     H 6424   2.556   1.686  14.833 -1.7744  0.3471  0.1213
  427MPD2    H1 6425   2.422   1.948  14.533  0.0326  1.3993  3.1239
  427MPD2    H2 6426   2.798   1.734  14.483 -0.8158 -0.7041 -0.5461
  427MPD2    H3 6427   2.615   1.888  14.390  0.3086  0.0858  0.2563
  427MPD2     N 6428   2.358   1.839  14.762 -0.3381 -0.0976  0.1761
  427MPD2    H5 6429   2.292   1.896  14.710 -0.8292 -1.3419 -0.5624
  427MPD2    N1 6430   2.780   1.624  14.735  0.6911 -0.3925  0.2079
  427MPD2    H7 6431   2.767   1.612  14.835 -0.7757 -0.5112  0.0024
  428TMC3    C1 6432   2.969   1.488  14.776 -0.1968 -0.8893  0.2110
  428TMC3    C2 6433   2.908   1.448  14.885 -0.8928 -0.4827  0.4157
  428TMC3    C3 6434   2.987   1.393  14.985  0.2797 -0.3149  0.0861
  428TMC3    C4 6435   3.106   1.478  14.764  0.1422  0.4019  0.0153
  428TMC3    C5 6436   3.183   1.421  14.865  0.0363 -0.3037 -0.1286
  428TMC3    C6 6437   3.123   1.375  14.976  0.5271  0.7379  0.3302
  428TMC3     C 6438   2.894   1.571  14.681  0.1883  0.6371  0.2653
  428TMC3     O 6439   2.945   1.589  14.573 -0.1696 -0.6189 -0.4126
  428TMC3     H 6440   2.800   1.447  14.890 -0.9473  1.7644 -0.5721
  428TMC3    H1 6441   3.148   1.514  14.670 -1.3040 -0.3384 -0.9183
  428TMC3    H2 6442   3.185   1.328  15.052  0.9718  0.5475 -0.1536
  428TMC3    C7 6443   3.332   1.426  14.862 -0.2437 -0.4268  0.6378
  428TMC3    C8 6444   2.915   1.326  15.091  0.7594  1.0330  0.1038
  428TMC3    O1 6445   3.387   1.418  14.971 -0.4866 -0.3330 -0.2573
  428TMC3    O2 6446   2.805   1.371  15.119 -0.0101  0.6539  0.1552
  429MPD2     C 6447   3.458   1.692  17.688 -0.1065 -0.1529  0.2352
  429MPD2    C1 6448   3.516   1.609  17.593  0.7006  0.5657  0.2326
  429MPD2    C2 6449   3.598   1.661  17.490  0.1371  0.1052  0.3650
  429MPD2    C3 6450   3.622   1.798  17.485  0.1679  0.0552 -0.9251
  429MPD2    C4 6451   3.554   1.873  17.583  0.5391  0.3636 -0.3011
  429MPD2    C5 6452   3.478   1.827  17.684  0.8051 -0.0592  0.0892
  429MPD2     H 6453   3.644   1.602  17.411 -0.4828 -1.5074  1.1929
  429MPD2    H1 6454   3.561   1.981  17.588  0.6564  0.2838  1.2978
  429MPD2    H2 6455   3.415   1.657   0.043 -2.7474  2.3990 -0.0128
  429MPD2    H3 6456   3.432   1.890   0.021 -3.2751 -1.6335 -1.0785
  429MPD2     N 6457   3.710   1.858  17.390 -0.2914  0.2034  0.4720
  429MPD2    H5 6458   3.767   1.801  17.329  1.2852  1.9862  0.2782
  429MPD2    N1 6459   3.513   1.476  17.606 -0.1537 -0.4156  0.4420
  429MPD2    H7 6460   3.571   1.423  17.542  0.2114 -0.8329  1.1175
  430TMC3    C1 6461   3.849   2.038  17.313  0.5475  0.1170 -0.0918
  430TMC3    C2 6462   3.851   2.152  17.246  0.3069  0.1589 -0.1678
  430TMC3    C3 6463   3.943   2.177  17.143  0.0592  0.0777 -0.4825
  430TMC3    C4 6464   3.944   1.941  17.302  0.9491  0.5403  0.1104
  430TMC3    C5 6465   4.042   1.970  17.205  0.3355  0.4399 -0.3031
  430TMC3    C6 6466   4.047   2.086  17.130  0.4332 -0.2864  0.7006
  430TMC3     C 6467   3.724   1.996  17.381  0.2800 -0.0537  0.6329
  430TMC3     O 6468   3.660   2.087  17.434  0.1124  0.1789  0.3711
  430TMC3     H 6469   3.768   2.220  17.263  0.3164  0.2380 -0.4322
  430TMC3    H1 6470   3.955   1.851  17.360 -1.2237  0.6399  0.6548
  430TMC3    H2 6471   4.133   2.102  17.065 -2.7219 -0.5910 -3.5432
  430TMC3    C7 6472   4.054   1.855  17.127 -0.5771 -1.3543 -0.2617
  430TMC3    C8 6473   3.879   2.185  17.017  0.5818  0.5942 -0.2899
  430TMC3    O1 6474   4.091   1.757  17.188  0.7397 -0.5370  0.0356
  430TMC3    O2 6475   3.940   2.119  16.931  0.4062  0.6428  0.4110
  431MPD2     C 6476   4.412   1.726  12.373  0.2804 -0.1098  0.4106
  431MPD2    C1 6477   4.508   1.730  12.277  0.0325  0.8450 -0.7627
  431MPD2    C2 6478   4.572   1.617  12.232  0.1399 -0.8213 -0.3558
  431MPD2    C3 6479   4.538   1.490  12.277 -0.1806 -0.0826  0.5703
  431MPD2    C4 6480   4.441   1.481  12.369  0.0575 -0.3273  0.4516
  431MPD2    C5 6481   4.372   1.593  12.407 -0.3147 -0.2259 -0.0849
  431MPD2     H 6482   4.660   1.630  12.171  0.5987  0.4726  0.5833
  431MPD2    H1 6483   4.403   1.387  12.409 -1.2700  0.7122  1.6744
  431MPD2    H2 6484   4.353   1.813  12.396  1.0911  0.4082  0.5478
  431MPD2    H3 6485   4.292   1.580  12.478 -0.6578 -3.4449 -1.0416
  431MPD2     N 6486   4.599   1.366  12.239  0.1515  0.5912 -0.0856
  431MPD2    H5 6487   4.584   1.298  12.313 -0.9604 -1.1725 -1.9144
  431MPD2    N1 6488   4.563   1.850  12.237  0.0626 -0.3242  0.4909
  431MPD2    H7 6489   4.647   1.843  12.180 -0.8486 -2.0253 -0.6312
  432TMC3    C1 6490   0.023   1.222  12.147 -1.1696  0.3382 -0.6493
  432TMC3    C2 6491   0.082   1.172  12.034  0.2623  0.4860 -0.9511
  432TMC3    C3 6492   0.208   1.120  12.042  0.2406  0.1780 -0.1625
  432TMC3    C4 6493   0.088   1.212  12.267 -0.2680 -0.3599  0.8308
  432TMC3    C5 6494   0.210   1.155  12.269  0.0149  0.0645 -0.0341
  432TMC3    C6 6495   0.278   1.112  12.157 -0.3153 -0.1950  0.1489
  432TMC3     C 6496   4.684   1.348  12.136 -0.7339  0.0994 -0.3719
  432TMC3     O 6497   4.703   1.425  12.040 -0.2812 -0.9777  0.6418
  432TMC3     H 6498   0.047   1.193  11.934 -0.9054  1.5748 -0.3069
  432TMC3    H1 6499   0.049   1.263  12.355 -1.8879  2.6685 -1.6681
  432TMC3    H2 6500   0.371   1.058  12.174 -0.3318  0.3817  2.0766
  432TMC3    C7 6501   0.303   1.197  12.376  0.3177 -0.1988  0.0752
  432TMC3    C8 6502   0.255   1.034  11.936 -0.1310 -0.0844  0.5735
  432TMC3    O1 6503   0.422   1.214  12.345  0.1981 -0.0977  0.2259
  432TMC3    O2 6504   0.172   0.978  11.866  0.2781  0.0672 -0.3892
  433MPD2     C 6505   3.746   0.402  11.126  0.1194 -0.3027 -0.0895
  433MPD2    C1 6506   3.775   0.266  11.109  0.1510 -0.4785  0.5217
  433MPD2    C2 6507   3.831   0.201  11.216 -0.6143  0.9308  0.4129
  433MPD2    C3 6508   3.877   0.269  11.330  0.1501  0.3394 -0.0401
  433MPD2    C4 6509   3.858   0.407  11.339  0.1063 -0.8439 -0.2287
  433MPD2    C5 6510   3.788   0.468  11.236 -0.0697 -0.3756  0.4395
  433MPD2     H 6511   3.845   0.093  11.216  1.8753  1.2512 -0.7459
  433MPD2    H1 6512   3.891   0.468  11.422 -2.9736  0.3165  0.1369
  433MPD2    H2 6513   3.687   0.452  11.050 -0.0328  1.5831  1.2732
  433MPD2    H3 6514   3.771   0.574  11.251 -3.1274 -0.6084 -1.4142
  433MPD2     N 6515   3.920   0.190  11.440  0.2554 -0.0226 -0.3067
  433MPD2    H5 6516   3.930   0.092  11.418 -1.4408 -0.1106 -0.6575
  433MPD2    N1 6517   3.736   0.197  10.991  0.2641  0.0376  0.2874
  433MPD2    H7 6518   3.714   0.244  10.904  1.1161  0.1364  0.1227
  434TMC3    C1 6519   3.714   0.018  10.849 -0.5506  0.0353  0.6245
  434TMC3    C2 6520   3.753   4.627  10.827 -0.8726 -0.2310 -0.0852
  434TMC3    C3 6521   3.765   4.581  10.699 -0.1839  0.2630  0.5690
  434TMC3    C4 6522   3.682   0.102  10.745  0.4673  0.2907  0.0400
  434TMC3    C5 6523   3.691   0.048  10.617 -0.5059 -0.0235  0.9420
  434TMC3    C6 6524   3.736   4.654  10.589 -0.3157  0.4785  0.1292
  434TMC3     C 6525   3.729   0.059  10.982 -0.7644 -0.1579 -0.0028
  434TMC3     O 6526   3.726   4.712  11.074  0.1911  0.1562 -0.7023
  434TMC3     H 6527   3.777   4.564  10.913 -0.2582  2.0129  1.3862
  434TMC3    H1 6528   3.672   0.209  10.759 -0.9840 -0.1015  2.0508
  434TMC3    H2 6529   3.750   4.605  10.494  2.6540  1.8194 -0.1314
  434TMC3    C7 6530   3.584   0.099  10.536 -0.0499 -0.0287  0.0252
  434TMC3    C8 6531   3.828   4.451  10.692  0.5900 -0.4229 -0.2332
  434TMC3    O1 6532   3.530   0.206  10.560  0.0992  0.5199  0.5410
  434TMC3    O2 6533   3.797   4.382  10.786  0.1585  0.2772 -0.9028
  435MPD2     C 6534   1.025   0.643  15.397 -0.3166 -0.9625 -0.4352
  435MPD2    C1 6535   1.014   0.661  15.532 -0.8846 -0.3510 -0.2076
  435MPD2    C2 6536   1.096   0.595  15.618 -0.4006  0.8197 -0.3631
  435MPD2    C3 6537   1.194   0.506  15.570  0.4936 -0.0399 -0.3567
  435MPD2    C4 6538   1.205   0.491  15.438 -0.4900  0.5882  0.1668
  435MPD2    C5 6539   1.126   0.568  15.351 -0.4922 -0.1347 -0.4047
  435MPD2     H 6540   1.077   0.615  15.723 -0.3940  0.7606 -0.3503
  435MPD2    H1 6541   1.277   0.427  15.388 -1.0041 -0.0581  0.2647
  435MPD2    H2 6542   0.960   0.703  15.334 -1.2191 -0.2777  1.1663
  435MPD2    H3 6543   1.139   0.560  15.244  0.8324 -0.0434 -0.2543
  435MPD2     N 6544   1.252   0.421  15.662  0.4336  0.4843 -0.3593
  435MPD2    H5 6545   1.251   0.446  15.760  2.1495  0.1468 -0.2541
  435MPD2    N1 6546   0.902   0.721  15.585  0.7269  0.3727 -0.2362
  435MPD2    H7 6547   0.890   0.698  15.683  2.6188  0.2774 -0.0326
  436TMC3    C1 6548   0.608   0.874  15.818 -0.3559  0.1667 -0.2144
  436TMC3    C2 6549   0.717   0.848  15.737 -0.3884 -0.3829 -0.5978
  436TMC3    C3 6550   0.685   0.820  15.607 -0.6969 -0.4592 -0.0384
  436TMC3    C4 6551   0.475   0.867  15.776  0.2307  0.2397  0.4361
  436TMC3    C5 6552   0.452   0.830  15.648  0.3456  0.0881  0.2636
  436TMC3    C6 6553   0.555   0.798  15.566 -0.6679  0.7375 -0.2677
  436TMC3     C 6554   0.630   0.922  15.952  0.5112 -0.1203  0.3713
  436TMC3     O 6555   0.747   0.955  15.978 -0.2990 -0.4094  0.3453
  436TMC3     H 6556   0.818   0.858  15.775 -0.0691 -0.2911 -1.4811
  436TMC3    H1 6557   0.398   0.902  15.844  0.0654 -0.4468  0.6007
  436TMC3    H2 6558   0.535   0.798  15.460  1.5467  0.0812 -0.7016
  436TMC3    C7 6559   0.321   0.828  15.591 -0.1429  1.1268  0.0632
  436TMC3    C8 6560   0.792   0.784  15.521 -0.1387 -0.1956  0.2399
  436TMC3    O1 6561   0.326   0.878  15.478  0.0629  0.2050  0.0673
  436TMC3    O2 6562   0.772   0.808  15.403  0.6548 -0.8352 -0.1172
  437TMC3    C1 6563   4.274   2.802  11.347 -0.0234 -1.0732 -0.2925
  437TMC3    C2 6564   4.178   2.708  11.373 -0.7198 -0.1536  0.6491
  437TMC3    C3 6565   4.206   2.606  11.469 -0.2620 -0.3762  0.0457
  437TMC3    C4 6566   4.398   2.793  11.397  0.9109  0.0404  1.1727
  437TMC3    C5 6567   4.420   2.700  11.496 -0.1366 -0.4549 -0.1348
  437TMC3    C6 6568   4.331   2.604  11.532 -0.5770  0.1378 -1.0638
  437TMC3     C 6569   4.235   2.926  11.289  0.0839  0.6067 -0.4216
  437TMC3     O 6570   4.130   2.914  11.226  0.6502  0.3766  0.7239
  437TMC3     H 6571   4.080   2.720  11.327 -0.5469  2.0115  0.8341
  437TMC3    H1 6572   4.474   2.862  11.360 -1.2731  1.7489 -0.1168
  437TMC3    H2 6573   4.349   2.521  11.599 -0.2764 -0.3568 -1.7588
  437TMC3    C7 6574   4.536   2.714  11.571 -0.3346  0.0882 -0.3921
  437TMC3    C8 6575   4.114   2.501  11.497 -0.8585  0.2310  0.4158
  437TMC3    O1 6576   4.632   2.764  11.518  0.3015 -0.2193  0.5579
  437TMC3    O2 6577   4.118   2.451  11.609 -0.6588  0.4636 -0.2575
  438MPD2     C 6578   1.827   3.101  16.628  0.2800 -0.0336  0.7116
  438MPD2    C1 6579   1.858   2.982  16.696 -0.4650 -0.1998 -0.4312
  438MPD2    C2 6580   1.814   2.978  16.828 -0.2205  0.4382 -0.1525
  438MPD2    C3 6581   1.757   3.082  16.901 -0.3632 -0.1280  0.4882
  438MPD2    C4 6582   1.732   3.194  16.824 -0.1499 -0.2040  0.4039
  438MPD2    C5 6583   1.756   3.203  16.688 -0.0211  0.0456 -0.3415
  438MPD2     H 6584   1.840   2.887  16.881  0.8345  0.1683 -1.1185
  438MPD2    H1 6585   1.685   3.276  16.877  1.1397  0.2505  0.8368
  438MPD2    H2 6586   1.840   3.100  16.521  2.4622  2.2663  0.9598
  438MPD2    H3 6587   1.732   3.293  16.632  1.5391  0.6626 -0.0019
  438MPD2     N 6588   1.728   3.085  17.042 -0.0337  0.1548 -0.7142
  438MPD2    H5 6589   1.674   3.165  17.072 -0.8587 -1.2082  1.4971
  438MPD2    N1 6590   1.923   2.870  16.646  0.3430 -0.0669  0.2145
  438MPD2    H7 6591   1.932   2.786  16.702 -1.3586 -0.6583 -0.4024
  439TMC3    C1 6592   2.026   2.723  16.504 -0.3646  0.1318  0.1492
  439TMC3    C2 6593   1.984   2.645  16.402 -0.0329  0.6171  0.1104
  439TMC3    C3 6594   2.031   2.515  16.393 -0.2797 -0.1225  0.4827
  439TMC3    C4 6595   2.099   2.670  16.604 -0.0617 -0.1686  0.4086
  439TMC3    C5 6596   2.126   2.541  16.600  0.0154 -0.0131  0.1495
  439TMC3    C6 6597   2.100   2.460  16.494  0.0498 -0.3958 -0.2074
  439TMC3     C 6598   1.973   2.857  16.520  0.0593  0.4987  0.1804
  439TMC3     O 6599   1.958   2.930  16.427 -0.1442 -0.2233  0.3110
  439TMC3     H 6600   1.923   2.691  16.325  0.4148 -0.2505 -0.7727
  439TMC3    H1 6601   2.142   2.725  16.686  1.9392 -0.7620 -0.2355
  439TMC3    H2 6602   2.142   2.360  16.495 -0.1016 -0.4548  0.2637
  439TMC3    C7 6603   2.235   2.493  16.681 -0.2842 -0.1609 -0.3341
  439TMC3    C8 6604   2.086   2.475  16.264 -0.0117 -0.2365 -1.1294
  439TMC3    O1 6605   2.335   2.556  16.709  0.6419 -0.7095 -0.7138
  439TMC3    O2 6606   2.137   2.364  16.259 -0.1752 -0.9712 -0.3568
  440MPD2     C 6607   0.752   3.338  14.816  0.4689 -0.0359 -0.5959
  440MPD2    C1 6608   0.793   3.461  14.872 -0.8913  0.0172 -0.0886
  440MPD2    C2 6609   0.915   3.464  14.936 -0.3199 -0.0667  0.9127
  440MPD2    C3 6610   0.992   3.350  14.936 -0.4648 -0.5073  0.5319
  440MPD2    C4 6611   0.948   3.229  14.883 -0.1806 -0.5364  0.7913
  440MPD2    C5 6612   0.825   3.221  14.824 -0.7445  0.6556 -0.1322
  440MPD2     H 6613   0.947   3.551  14.991 -1.1753  1.7921 -1.5573
  440MPD2    H1 6614   1.023   3.151  14.890  1.5393  0.8790 -1.7164
  440MPD2    H2 6615   0.650   3.328  14.780 -0.1748  0.2226  1.1279
  440MPD2    H3 6616   0.789   3.132  14.775 -0.9248 -0.5001  2.0977
  440MPD2     N 6617   1.124   3.341  15.000 -0.1504 -0.7695  0.5011
  440MPD2    H5 6618   1.167   3.250  14.984 -1.2078 -1.1023 -0.4513
  440MPD2    N1 6619   0.716   3.582  14.876 -0.2479  0.2058 -0.3368
  440MPD2    H7 6620   0.755   3.660  14.927 -1.1939  1.0190 -0.8482
  441TMC3    C1 6621   1.315   3.398  15.111  0.2258 -1.2719  0.0723
  441TMC3    C2 6622   1.395   3.504  15.146  0.6201 -0.7530 -0.7461
  441TMC3    C3 6623   1.429   3.519  15.277 -0.4166 -0.6433  0.0732
  441TMC3    C4 6624   1.279   3.300  15.201  0.5545  0.3384 -0.6558
  441TMC3    C5 6625   1.315   3.322  15.331  0.0140 -0.5164 -0.1563
  441TMC3    C6 6626   1.392   3.429  15.373  0.6534 -0.1337 -0.2572
  441TMC3     C 6627   1.195   3.448  15.048 -0.8805 -0.1830  0.5017
  441TMC3     O 6628   1.190   3.572  15.029  0.3157  0.2739 -0.3135
  441TMC3     H 6629   1.425   3.582  15.077  1.5759 -3.2765 -3.1524
  441TMC3    H1 6630   1.222   3.212  15.173 -0.2646  1.3582 -2.1852
  441TMC3    H2 6631   1.394   3.459  15.477  2.7170  3.1589 -1.2461
  441TMC3    C7 6632   1.236   3.264  15.433 -0.2592 -0.2980 -0.4955
  441TMC3    C8 6633   1.415   3.660  15.325 -0.2113 -0.2684  0.2561
  441TMC3    O1 6634   1.124   3.228  15.417 -0.1638  0.1045 -0.1965
  441TMC3    O2 6635   1.472   3.701  15.423 -0.6644 -0.6050  0.6144
  442MPD2     C 6636   3.977   3.440  16.813  0.1029  0.8701 -0.1576
  442MPD2    C1 6637   3.841   3.415  16.833  0.4813 -0.1436  0.7336
  442MPD2    C2 6638   3.790   3.312  16.760 -0.8452 -0.1762 -0.2059
  442MPD2    C3 6639   3.861   3.237  16.668  0.3914  0.8071 -0.0788
  442MPD2    C4 6640   3.983   3.276  16.637  0.6145  0.3877  0.4733
  442MPD2    C5 6641   4.040   3.376  16.713  0.0880 -0.7672  0.6773
  442MPD2     H 6642   3.683   3.296  16.768 -1.0471  1.2165 -0.0445
  442MPD2    H1 6643   4.055   3.222  16.576  2.3578  0.4780  2.4667
  442MPD2    H2 6644   4.044   3.499  16.875 -1.0064  0.3974  1.5038
  442MPD2    H3 6645   4.146   3.392  16.699  0.0661 -1.3264 -0.1661
  442MPD2     N 6646   3.807   3.134  16.594 -0.5567  0.3961 -0.7659
  442MPD2    H5 6647   3.865   3.087  16.525  0.6444 -0.1653  0.6184
  442MPD2    N1 6648   3.770   3.473  16.941 -0.3790  0.5469  0.1163
  442MPD2    H7 6649   3.674   3.442  16.947 -0.6253  1.1210 -0.6982
  443TMC3    C1 6650   3.692   3.662  17.043  0.0828  0.4700  0.5164
  443TMC3    C2 6651   3.659   3.769  16.978  0.2068  0.3817  0.0885
  443TMC3    C3 6652   3.533   3.813  16.982 -0.1692 -0.1097 -0.3139
  443TMC3    C4 6653   3.606   3.600  17.123  0.1385  0.0396  0.4457
  443TMC3    C5 6654   3.479   3.649  17.140  0.1024 -0.4617  0.0703
  443TMC3    C6 6655   3.445   3.753  17.067  0.0279 -0.5451 -1.0705
  443TMC3     C 6656   3.807   3.590  16.999 -0.4323  0.0932 -0.1864
  443TMC3     O 6657   3.903   3.660  16.978 -0.1218 -0.2098 -0.1742
  443TMC3     H 6658   3.731   3.808  16.908 -0.3193  0.5548 -0.3554
  443TMC3    H1 6659   3.633   3.505  17.168  0.1648  0.1507  0.6629
  443TMC3    H2 6660   3.340   3.779  17.060  0.0313 -0.4878 -0.9043
  443TMC3    C7 6661   3.389   3.540  17.159  0.3016 -0.4171 -0.2059
  443TMC3    C8 6662   3.474   3.830  16.854  0.5846  0.3641 -0.5666
  443TMC3    O1 6663   3.437   3.429  17.139  0.4356 -0.0981 -0.0197
  443TMC3    O2 6664   3.384   3.755  16.827  0.3544 -0.5954 -0.3671
  444MPD2     C 6665   3.995   3.305  17.167  0.4793  0.3304  0.5749
  444MPD2    C1 6666   3.912   3.207  17.112 -0.0237  0.2051  0.2151
  444MPD2    C2 6667   3.956   3.120  17.017  1.6001  0.2451  0.8845
  444MPD2    C3 6668   4.082   3.133  16.967  0.4594  0.2842 -0.2600
  444MPD2    C4 6669   4.173   3.217  17.029 -0.1670  0.1565  0.0145
  444MPD2    C5 6670   4.123   3.310  17.119  0.4425 -0.0472 -0.4633
  444MPD2     H 6671   3.882   3.050  16.980 -0.3585  4.1529 -2.6090
  444MPD2    H1 6672   4.278   3.221  17.002 -0.2267 -0.0742 -0.2563
  444MPD2    H2 6673   3.972   3.374  17.247 -2.9881 -1.1477  0.8639
  444MPD2    H3 6674   4.178   3.390  17.166 -1.5405  1.0471 -0.0327
  444MPD2     N 6675   4.112   3.045  16.855  0.3081  0.6618 -0.4895
  444MPD2    H5 6676   4.048   2.969  16.832 -1.8827  1.5818  2.4877
  444MPD2    N1 6677   3.783   3.191  17.165  0.5157  0.2290 -0.3939
  444MPD2    H7 6678   3.737   3.111  17.124  0.3956 -0.9125  2.0052
  445TMC3    C1 6679   4.225   2.952  16.679  0.0085 -0.4514 -0.1216
  445TMC3    C2 6680   4.110   2.907  16.626  0.2427 -0.3191 -0.3300
  445TMC3    C3 6681   4.109   2.811  16.527  0.7306 -0.1208  0.5877
  445TMC3    C4 6682   4.346   2.914  16.625 -0.0121 -0.4150  0.6436
  445TMC3    C5 6683   4.339   2.814  16.533 -0.0654  0.6068 -0.5917
  445TMC3    C6 6684   4.223   2.764  16.479 -0.3826 -0.0773 -0.9990
  445TMC3     C 6685   4.226   3.056  16.783 -0.0326 -0.2141  0.4252
  445TMC3     O 6686   4.322   3.128  16.788  0.5817 -0.3095  0.2725
  445TMC3     H 6687   4.018   2.928  16.679  0.6707  1.7768 -0.4160
  445TMC3    H1 6688   4.440   2.945  16.669  1.0188 -0.3130 -1.6065
  445TMC3    H2 6689   4.224   2.712  16.384 -0.8297 -0.0307 -1.0334
  445TMC3    C7 6690   4.468   2.749  16.486 -0.3639 -0.2318  0.2811
  445TMC3    C8 6691   3.985   2.743  16.508  0.1080 -0.5369  0.4129
  445TMC3    O1 6692   4.562   2.826  16.466  0.3077 -0.2999 -0.1808
  445TMC3    O2 6693   3.881   2.799  16.546  0.0193 -0.5689  0.1247
  446MPD2     C 6694   3.527   4.106  11.189  0.6594  0.0909 -0.0729
  446MPD2    C1 6695   3.519   4.170  11.064 -0.3076  0.1247  0.1349
  446MPD2    C2 6696   3.631   4.242  11.022  0.2252 -0.2169 -0.2351
  446MPD2    C3 6697   3.749   4.245  11.094  0.4055  0.1468  0.5724
  446MPD2    C4 6698   3.748   4.194  11.220 -0.1061 -0.3055  0.0011
  446MPD2    C5 6699   3.644   4.114  11.269  0.2348 -0.0317  0.2353
  446MPD2     H 6700   3.627   4.290  10.925 -0.4379 -1.2682 -0.7415
  446MPD2    H1 6701   3.836   4.205  11.282  0.8739 -0.6035 -1.3512
  446MPD2    H2 6702   3.445   4.055  11.238 -1.7988  1.3453 -2.8803
  446MPD2    H3 6703   3.648   4.070  11.369  0.5011 -0.0789  0.2052
  446MPD2     N 6704   3.859   4.315  11.041  0.2285  0.1432  0.1284
  446MPD2    H5 6705   3.837   4.366  10.955 -2.1053  1.2872  1.4065
  446MPD2    N1 6706   3.409   4.152  10.975  0.2601 -0.5244  0.3912
  446MPD2    H7 6707   3.416   4.209  10.892  0.2195  0.6062  1.1722
  447TMC3    C1 6708   4.086   4.394  11.026  0.8820 -0.3030  0.2139
  447TMC3    C2 6709   4.053   4.514  10.966  0.2813  0.4224 -0.4326
  447TMC3    C3 6710   4.154   4.566  10.890 -0.2376 -0.0567  0.7683
  447TMC3    C4 6711   4.216   4.337  11.019  0.0097 -0.4075 -0.5707
  447TMC3    C5 6712   4.306   4.400  10.942 -0.6022 -0.5044 -0.2697
  447TMC3    C6 6713   4.279   4.512  10.871  0.5135  0.4315  0.8170
  447TMC3     C 6714   3.987   4.316  11.095 -0.1174  0.8541  0.2224
  447TMC3     O 6715   4.034   4.240  11.176 -0.0894  0.0773  0.1456
  447TMC3     H 6716   3.961   4.566  10.990  0.2215  0.0817  0.0737
  447TMC3    H1 6717   4.243   4.239  11.057 -1.0226 -0.8539 -0.9862
  447TMC3    H2 6718   4.350   4.556  10.801  0.8730 -0.7442  0.4472
  447TMC3    C7 6719   4.431   4.344  10.910 -0.0035  0.7337  0.0665
  447TMC3    C8 6720   4.109   4.690  10.826  0.3434  0.2876  0.1982
  447TMC3    O1 6721   4.501   4.409  10.833 -0.3873 -0.1837  0.3240
  447TMC3    O2 6722   4.031   0.032  10.882 -0.4128 -0.3144  0.1023
  448TMC3    C1 6723   1.568   4.056  16.666  0.1666 -0.4252 -0.6730
  448TMC3    C2 6724   1.592   3.956  16.572  0.3515  0.7425  0.7463
  448TMC3    C3 6725   1.649   3.840  16.619  0.5469  0.3212  0.8113
  448TMC3    C4 6726   1.592   4.039  16.799  0.4831  0.4618  0.7497
  448TMC3    C5 6727   1.654   3.929  16.839  0.0212 -0.0029  0.5300
  448TMC3    C6 6728   1.680   3.829  16.750  0.8021  0.0755  0.3612
  448TMC3     C 6729   1.558   4.184  16.607  0.2109 -0.1244  0.0563
  448TMC3     O 6730   1.603   4.187  16.492 -0.5023 -0.1397  0.3544
  448TMC3     H 6731   1.561   3.968  16.468  2.5905  0.6444  0.0831
  448TMC3    H1 6732   1.572   4.115  16.874  0.2801 -1.8116  3.0120
  448TMC3    H2 6733   1.727   3.736  16.781 -1.1565 -1.2556 -0.6626
  448TMC3    C7 6734   1.717   3.944  16.973  0.1774  0.0541 -0.1355
  448TMC3    C8 6735   1.703   3.745  16.532  0.3982 -0.1878  0.2076
  448TMC3    O1 6736   1.670   4.023  17.054 -0.2014 -0.4626  0.2432
  448TMC3    O2 6737   1.782   3.666  16.578  0.8094  0.5546  0.2063
  449MPD2     C 6738   3.116   3.009  13.925  0.1576  0.5874 -1.0672
  449MPD2    C1 6739   2.989   3.027  13.880 -0.1116 -0.6808 -0.9491
  449MPD2    C2 6740   2.901   2.923  13.882 -0.5557 -0.2888 -0.1288
  449MPD2    C3 6741   2.928   2.805  13.946  0.4298  1.2605 -0.8212
  449MPD2    C4 6742   3.056   2.792  14.003  0.5595  0.6585  0.3796
  449MPD2    C5 6743   3.151   2.890  13.989  0.1733 -0.3507  0.4461
  449MPD2     H 6744   2.803   2.937  13.839  0.1820 -1.1815 -2.0848
  449MPD2    H1 6745   3.091   2.705  14.056  1.0685  1.1801  0.9060
  449MPD2    H2 6746   3.197   3.081  13.920 -0.1279  0.8919 -1.2622
  449MPD2    H3 6747   3.249   2.864  14.027 -0.5741  1.7853  3.7995
  449MPD2     N 6748   2.825   2.703  13.946 -0.7560  0.0911  0.0940
  449MPD2    H5 6749   2.734   2.728  13.909 -0.7384 -1.3017 -0.9333
  449MPD2    N1 6750   2.948   3.150  13.821 -1.0158 -0.2934 -0.1550
  449MPD2    H7 6751   2.854   3.146  13.784 -0.7604  0.1276 -0.8633
  450TMC3    C1 6752   2.949   3.358  13.737  0.8238  0.3282  0.3541
  450TMC3    C2 6753   2.988   3.357  13.602 -0.3913  0.3893 -0.2720
  450TMC3    C3 6754   2.883   3.366  13.512  0.1358  0.3378 -0.4430
  450TMC3    C4 6755   2.813   3.350  13.773  0.0731  0.0665 -0.7330
  450TMC3    C5 6756   2.717   3.326  13.675 -0.4082 -0.5542 -0.3756
  450TMC3    C6 6757   2.749   3.344  13.543  0.1203  0.2465  0.3277
  450TMC3     C 6758   3.019   3.269  13.812  0.7203  0.3213 -0.1539
  450TMC3     O 6759   3.137   3.292  13.840 -0.1773  0.4817  0.7141
  450TMC3     H 6760   3.091   3.385  13.583  0.3502 -0.8217  1.9056
  450TMC3    H1 6761   2.787   3.323  13.874 -0.0199  0.3379 -0.6837
  450TMC3    H2 6762   2.682   3.315  13.462  0.3631 -3.6902  1.5279
  450TMC3    C7 6763   2.628   3.213  13.711 -0.6856  0.0977 -0.5176
  450TMC3    C8 6764   2.917   3.409  13.378 -0.4679  0.0785  0.2327
  450TMC3    O1 6765   2.665   3.154  13.809 -0.1137  0.3382  0.8167
  450TMC3    O2 6766   2.831   3.452  13.302  0.5694  0.0752  0.0682
  451MPD2     C 6767   0.313   1.450   1.180  0.8406 -0.3377 -0.1418
  451MPD2    C1 6768   0.262   1.484   1.061  0.1541  0.0053 -0.2504
  451MPD2    C2 6769   0.349   1.489   0.954  0.6736  0.3963 -0.1866
  451MPD2    C3 6770   0.486   1.475   0.971 -0.4079  0.4599 -0.1447
  451MPD2    C4 6771   0.537   1.450   1.093 -0.2723 -0.1341  0.8743
  451MPD2    C5 6772   0.450   1.432   1.195  0.2861  0.5087 -0.3178
  451MPD2     H 6773   0.306   1.515   0.858  0.9424 -0.4830 -0.5548
  451MPD2    H1 6774   0.642   1.437   1.117 -0.2221 -1.5338 -0.1411
  451MPD2    H2 6775   0.246   1.444   1.265  2.3956 -1.0890  1.0411
  451MPD2    H3 6776   0.484   1.392   1.289  1.2365  1.4725 -0.2487
  451MPD2     N 6777   0.572   1.455   0.858 -0.0272  0.0930  0.5238
  451MPD2    H5 6778   0.661   1.415   0.886  0.7634  1.2177 -0.4016
  451MPD2    N1 6779   0.116   1.495   1.048  0.2805 -0.7267 -0.1095
  451MPD2    H7 6780   0.053   1.481   1.127  0.3733  1.0115  0.2683
  452TMC3    C1 6781   0.583   1.416   0.626  0.9142  0.4129  0.0802
  452TMC3    C2 6782   0.553   1.286   0.646  0.4960  0.1825  0.2773
  452TMC3    C3 6783   0.480   1.224   0.556  0.5541 -0.3926 -0.1401
  452TMC3    C4 6784   0.553   1.481   0.503  0.1447 -0.3208 -0.1929
  452TMC3    C5 6785   0.499   1.407   0.410 -0.1629  0.0446 -1.1689
  452TMC3    C6 6786   0.469   1.279   0.429  0.4855  0.1244  0.1032
  452TMC3     C 6787   0.536   1.497   0.733  0.3756  0.5121 -0.0345
  452TMC3     O 6788   0.446   1.577   0.701  0.3380 -1.1095 -0.3186
  452TMC3     H 6789   0.584   1.244   0.741 -0.8325 -0.0986  0.5806
  452TMC3    H1 6790   0.578   1.585   0.485 -0.3068 -0.6147 -2.6189
  452TMC3    H2 6791   0.411   1.224   0.356  1.0124  0.3748 -0.5012
  452TMC3    C7 6792   0.441   1.473   0.298  0.6672 -0.2190 -0.2915
  452TMC3    C8 6793   0.353   1.173   0.606  0.5570  0.3078 -0.4129
  452TMC3    O1 6794   0.433   1.596   0.305  0.5613  0.1072 -0.9390
  452TMC3    O2 6795   0.260   1.200   0.531 -0.0197 -0.2948 -0.2226
  453TMC3    C1 6796   1.363   3.430  11.987  0.2936 -0.0666 -0.6149
  453TMC3    C2 6797   1.264   3.339  11.967 -0.0227 -0.5144 -0.0507
  453TMC3    C3 6798   1.268   3.272  11.848 -0.5086  0.1699 -0.5218
  453TMC3    C4 6799   1.450   3.459  11.883  0.4413  0.8076  0.7605
  453TMC3    C5 6800   1.453   3.393  11.762  0.0053  0.5592 -0.5620
  453TMC3    C6 6801   1.360   3.290  11.756  0.2101 -0.4436  0.1796
  453TMC3     C 6802   1.401   3.469  12.119  0.5598 -0.1508 -0.8396
  453TMC3     O 6803   1.477   3.565  12.134 -0.1142 -0.5105 -0.7364
  453TMC3     H 6804   1.196   3.317  12.049  1.0673  0.3410  1.0876
  453TMC3    H1 6805   1.525   3.536  11.899  0.4678 -0.1421  5.3116
  453TMC3    H2 6806   1.350   3.233  11.665  3.4104 -1.1187  0.2742
  453TMC3    C7 6807   1.486   3.472  11.644 -0.2667 -0.2979 -0.3683
  453TMC3    C8 6808   1.154   3.187  11.830  0.5596 -0.3834  0.4075
  453TMC3    O1 6809   1.470   3.593  11.640  0.1341 -0.3401  0.3153
  453TMC3    O2 6810   1.052   3.226  11.889  0.1605  0.3961  0.0666
  454MPD2     C 6811   4.619   2.871  15.862 -0.4548  0.4687 -0.5054
  454MPD2    C1 6812   4.516   2.922  15.788  0.1303  0.2575  0.4408
  454MPD2    C2 6813   4.466   3.046  15.825 -0.2773 -0.8898 -0.4989
  454MPD2    C3 6814   4.513   3.119  15.933  0.2213  0.0122  0.0064
  454MPD2    C4 6815   4.627   3.070  15.999 -0.7560 -0.2482 -0.3316
  454MPD2    C5 6816   4.675   2.950  15.963 -0.2461  0.1717  0.1043
  454MPD2     H 6817   4.383   3.082  15.764  0.6952  1.2320 -0.5766
  454MPD2    H1 6818   4.675   3.133  16.072  0.3289 -0.9897 -0.3984
  454MPD2    H2 6819   4.654   2.769  15.849 -2.3798 -0.0874 -1.4382
  454MPD2    H3 6820   0.020   2.922  16.031  2.4724  2.2196 -2.2824
  454MPD2     N 6821   4.449   3.241  15.982  1.3894  0.3545 -0.2039
  454MPD2    H5 6822   4.461   3.268  16.079 -1.7647 -1.5302  0.6831
  454MPD2    N1 6823   4.443   2.846  15.692 -0.0863  0.1585 -0.0229
  454MPD2    H7 6824   4.381   2.905  15.636  0.6419 -0.3848 -1.4057
  455TMC3    C1 6825   4.242   3.326  16.019 -0.7132  0.1850 -0.2159
  455TMC3    C2 6826   4.257   3.424  16.119 -0.2760 -0.2749  0.7055
  455TMC3    C3 6827   4.198   3.406  16.240  0.4293 -0.3652  0.7544
  455TMC3    C4 6828   4.182   3.210  16.052  0.5455  0.2038  0.7030
  455TMC3    C5 6829   4.128   3.200  16.178  0.9956  0.3251 -0.6624
  455TMC3    C6 6830   4.130   3.294  16.273 -0.9097  0.8661  0.0526
  455TMC3     C 6831   4.340   3.299  15.919  0.1949  0.3332  0.7267
  455TMC3     O 6832   4.289   3.274  15.812 -0.1405 -0.5584  0.5685
  455TMC3     H 6833   4.313   3.515  16.106  0.7868 -0.7601  1.8626
  455TMC3    H1 6834   4.148   3.146  15.971  0.1112  0.1681  0.9098
  455TMC3    H2 6835   4.080   3.280  16.368 -1.8294 -1.2556 -0.7510
  455TMC3    C7 6836   4.109   3.061  16.217 -0.2107  0.4804 -0.0128
  455TMC3    C8 6837   4.184   3.527  16.324 -0.3635 -0.1667 -0.1480
  455TMC3    O1 6838   4.024   3.037  16.303  0.4022 -0.1118  0.3229
  455TMC3    O2 6839   4.262   3.623  16.326  0.1287  0.2727  0.0571
  456MPD2     C 6840   2.502   2.874  15.621 -0.3241 -0.0995  0.3302
  456MPD2    C1 6841   2.517   2.811  15.742 -0.3066  0.0199 -0.2984
  456MPD2    C2 6842   2.459   2.856  15.858 -0.2287  0.4833  0.0704
  456MPD2    C3 6843   2.379   2.967  15.856  1.3916  0.5445 -0.2322
  456MPD2    C4 6844   2.356   3.030  15.732 -1.0288  0.2613  0.8350
  456MPD2    C5 6845   2.406   2.970  15.619 -0.6102 -0.4460 -0.0146
  456MPD2     H 6846   2.464   2.802  15.952  0.1225  0.3246 -0.0397
  456MPD2    H1 6847   2.303   3.124  15.721 -1.0389  0.1318 -0.2238
  456MPD2    H2 6848   2.555   2.846  15.530  0.3557  0.6970  0.4805
  456MPD2    H3 6849   2.378   3.014  15.525 -2.5064 -1.2653  0.1678
  456MPD2     N 6850   2.334   3.018  15.983  0.4284 -0.1497  0.3655
  456MPD2    H5 6851   2.359   2.965  16.066 -0.6167  0.8287  1.3160
  456MPD2    N1 6852   2.594   2.691  15.728 -0.0935 -0.0998  0.1184
  456MPD2    H7 6853   2.624   2.669  15.634 -1.2129 -0.7813 -0.0723
  457TMC3    C1 6854   2.225   3.150  16.144 -0.5271 -0.3813  0.5362
  457TMC3    C2 6855   2.121   3.236  16.165 -0.4464 -0.5647 -0.2174
  457TMC3    C3 6856   2.076   3.253  16.290  0.1499 -0.5336 -0.3897
  457TMC3    C4 6857   2.290   3.092  16.250  0.6660 -0.7229  0.8133
  457TMC3    C5 6858   2.240   3.111  16.373 -0.7224 -0.2733 -0.3167
  457TMC3    C6 6859   2.128   3.189  16.397 -0.2870 -0.4407  0.0638
  457TMC3     C 6860   2.258   3.127  16.001 -0.3460 -0.6044 -0.0746
  457TMC3     O 6861   2.221   3.209  15.918 -0.3743  0.4774 -0.1394
  457TMC3     H 6862   2.071   3.272  16.075  1.6354 -1.0773 -1.5567
  457TMC3    H1 6863   2.373   3.028  16.225  0.9048 -0.7949  1.8004
  457TMC3    H2 6864   2.101   3.218  16.498 -1.3129 -2.0040  0.2314
  457TMC3    C7 6865   2.321   3.088  16.487  0.0989 -0.1116 -0.4183
  457TMC3    C8 6866   1.964   3.347  16.319 -0.5008 -0.8358 -0.1067
  457TMC3    O1 6867   2.260   3.095  16.594  0.3037 -0.1932 -0.4542
  457TMC3    O2 6868   1.959   3.388  16.432  0.8238 -0.0838 -0.0275
  458MPD2     C 6869   0.083   2.559  11.969 -0.2381  0.2379 -0.3172
  458MPD2    C1 6870   4.684   2.568  12.012  0.2500 -0.3850 -0.0926
  458MPD2    C2 6871   4.590   2.609  11.916  0.4265  0.0704 -0.9226
  458MPD2    C3 6872   4.624   2.641  11.785 -0.1394  0.0852  0.4998
  458MPD2    C4 6873   0.019   2.635  11.747 -0.1951  0.1682  0.1008
  458MPD2    C5 6874   0.112   2.593  11.842  0.0836  0.5220  0.3041
  458MPD2     H 6875   4.484   2.593  11.931 -0.1916  3.0444 -2.0346
  458MPD2    H1 6876   0.054   2.656  11.647 -0.7413 -1.0975 -0.3532
  458MPD2    H2 6877   0.161   2.523  12.035 -0.8437 -1.9196 -0.7686
  458MPD2    H3 6878   0.213   2.574  11.808  0.7437  3.0118  0.9010
  458MPD2     N 6879   4.519   2.663  11.696  0.3372  0.1561 -0.4505
  458MPD2    H5 6880   4.424   2.654  11.730  0.6712 -0.6635  0.2576
  458MPD2    N1 6881   4.649   2.559  12.152  0.4086 -0.3865 -0.1251
  458MPD2    H7 6882   4.713   2.532  12.226  0.1777 -1.2969 -0.2671
  459TMC3    C1 6883   4.509   2.585  12.346 -0.0672 -0.7673 -0.0948
  459TMC3    C2 6884   4.445   2.683  12.403  0.7590  0.2190 -0.4563
  459TMC3    C3 6885   4.453   2.686  12.540  0.7574  0.4726 -0.3610
  459TMC3    C4 6886   4.569   2.479  12.407 -0.8799  0.3117 -0.2807
  459TMC3    C5 6887   4.564   2.484  12.544  0.0720 -0.7972  0.0176
  459TMC3    C6 6888   4.500   2.581  12.612  0.7625 -0.0540  0.6796
  459TMC3     C 6889   4.520   2.588  12.195  0.1782  0.2177 -0.1208
  459TMC3     O 6890   4.447   2.665  12.144  0.2743  0.2386  0.0603
  459TMC3     H 6891   4.428   2.776  12.350 -0.2553  0.9341  1.1117
  459TMC3    H1 6892   4.617   2.395  12.359 -1.3094 -0.4549  0.6249
  459TMC3    H2 6893   4.504   2.585  12.720  2.8856 -0.0635  0.5940
  459TMC3    C7 6894   4.594   2.372  12.629  0.1256 -0.5048 -0.7696
  459TMC3    C8 6895   4.518   2.809  12.579 -0.1608  0.0129 -0.2593
  459TMC3    O1 6896   4.712   2.327  12.624 -0.0819  0.6265  0.1513
  459TMC3    O2 6897   4.560   2.881  12.489 -0.0448  0.4464 -0.4856
  460MPD2     C 6898   4.288   0.062  10.527  0.7849  0.0952  0.3140
  460MPD2    C1 6899   4.193   0.074  10.624 -0.6097  0.5523  0.3178
  460MPD2    C2 6900   4.102   0.182  10.627  0.1071  0.1148 -0.3087
  460MPD2    C3 6901   4.124   0.287  10.545 -0.2653  0.1162  0.5627
  460MPD2    C4 6902   4.221   0.278  10.450 -0.5531 -0.2770  0.5724
  460MPD2    C5 6903   4.302   0.171  10.441 -0.6813 -0.7137 -0.1592
  460MPD2     H 6904   4.017   0.186  10.695 -0.0231  0.2016 -0.4761
  460MPD2    H1 6905   4.236   0.353  10.373 -0.3483 -0.2375  0.6504
  460MPD2    H2 6906   4.359   4.716  10.512  1.7014  0.6949  1.4009
  460MPD2    H3 6907   4.355   0.158  10.348  0.5296  1.2363  0.2612
  460MPD2     N 6908   4.027   0.387  10.554  1.0010  0.1273  0.3823
  460MPD2    H5 6909   3.955   0.377  10.626 -0.1366  0.1475 -0.7557
  460MPD2    N1 6910   4.189   4.699  10.717  0.2794  0.0778  0.5604
  460MPD2    H7 6911   4.264   4.631  10.707 -1.2437 -1.3554 -1.0820
  461TMC3    C1 6912   3.893   0.565  10.496  0.3281  0.5131  1.2564
  461TMC3    C2 6913   3.776   0.490  10.479  0.3389 -0.2138  0.3714
  461TMC3    C3 6914   3.659   0.550  10.437  0.0583  0.7335  0.0258
  461TMC3    C4 6915   3.882   0.701  10.472  0.5192 -0.7457  0.1027
  461TMC3    C5 6916   3.766   0.767  10.442  0.3549  0.1550  0.0549
  461TMC3    C6 6917   3.659   0.688  10.414  1.1977  0.0508 -1.0814
  461TMC3     C 6918   4.015   0.495  10.471  0.7950 -0.2568  0.1219
  461TMC3     O 6919   4.100   0.544  10.396  0.1248 -0.5802 -0.4867
  461TMC3     H 6920   3.795   0.384  10.490  1.1860 -0.0581  0.4482
  461TMC3    H1 6921   3.972   0.761  10.461 -0.2664  0.2514 -0.9289
  461TMC3    H2 6922   3.569   0.738  10.377 -0.5849 -1.2805  1.4880
  461TMC3    C7 6923   3.760   0.903  10.387 -0.0791  0.3220 -0.3433
  461TMC3    C8 6924   3.587   0.465  10.345  0.1642 -0.0906  0.0468
  461TMC3    O1 6925   3.685   0.939  10.297  0.0533 -1.0020  0.3086
  461TMC3    O2 6926   3.650   0.376  10.293  0.4362 -0.1472 -0.0625
  462TMC3    C1 6927   3.378   1.618   0.639 -0.3720 -0.3011  0.9158
  462TMC3    C2 6928   3.512   1.637   0.592 -0.1679 -0.3558 -0.5658
  462TMC3    C3 6929   3.579   1.540   0.533  0.0002 -0.2518 -0.3346
  462TMC3    C4 6930   3.319   1.496   0.639  0.5622  0.3709  0.2095
  462TMC3    C5 6931   3.394   1.391   0.581 -0.7160 -0.7739 -0.2411
  462TMC3    C6 6932   3.524   1.409   0.543  0.0144 -0.5608  0.8333
  462TMC3     C 6933   3.297   1.736   0.665  0.5642  0.0870 -0.1844
  462TMC3     O 6934   3.175   1.720   0.655 -0.3736 -0.0240  0.0312
  462TMC3     H 6935   3.548   1.738   0.586 -0.6701 -0.0619  1.5095
  462TMC3    H1 6936   3.216   1.483   0.670  0.6838 -3.0479 -0.8189
  462TMC3    H2 6937   3.579   1.321   0.512 -0.8257 -0.1584 -1.7928
  462TMC3    C7 6938   3.347   1.252   0.586 -0.1269 -0.3246  0.2493
  462TMC3    C8 6939   3.646   1.572   0.405 -0.4501 -0.6643 -0.6027
  462TMC3    O1 6940   3.425   1.159   0.565  0.0481  0.3045  0.0203
  462TMC3    O2 6941   3.622   1.674   0.345  0.6894  0.1432  0.4791
  463MPD2     C 6942   0.688   4.345   1.710 -0.4718  0.5343  0.7156
  463MPD2    C1 6943   0.615   4.401   1.614  0.4972  0.3620 -0.5773
  463MPD2    C2 6944   0.643   4.530   1.578  0.0913  0.3338  0.1946
  463MPD2    C3 6945   0.747   4.610   1.624  0.0251  0.1221 -0.6255
  463MPD2    C4 6946   0.826   4.538   1.716 -0.0438 -0.4876 -0.0675
  463MPD2    C5 6947   0.799   4.406   1.753  0.7051  0.2487 -0.4130
  463MPD2     H 6948   0.576   4.565   1.501  0.2182  3.2666  1.3963
  463MPD2    H1 6949   0.906   4.585   1.771 -0.1531 -0.9131  0.4655
  463MPD2    H2 6950   0.672   4.246   1.751 -2.3256  0.2191 -0.7741
  463MPD2    H3 6951   0.851   4.360   1.837  3.5005  0.2628 -2.1189
  463MPD2     N 6952   0.768   0.007   1.598  0.0793  0.1073  0.4188
  463MPD2    H5 6953   0.849   0.056   1.636 -0.9881  1.1656  1.3059
  463MPD2    N1 6954   0.501   4.341   1.545 -0.5797 -0.0355 -0.7611
  463MPD2    H7 6955   0.462   4.397   1.470 -1.4553  1.6114  0.9433
  464TMC3    C1 6956   0.309   4.227   1.508 -0.6183 -0.1989  0.3583
  464TMC3    C2 6957   0.242   4.343   1.525 -0.2005  0.4501  0.5387
  464TMC3    C3 6958   0.107   4.337   1.525 -0.3555 -0.5552 -0.0019
  464TMC3    C4 6959   0.241   4.100   1.509 -0.0991  0.2564 -0.2628
  464TMC3    C5 6960   0.109   4.096   1.495 -0.0459 -0.2001  0.0768
  464TMC3    C6 6961   0.034   4.214   1.499  0.1232 -0.1631 -0.5012
  464TMC3     C 6962   0.449   4.218   1.545 -0.1026  0.3326  0.0650
  464TMC3     O 6963   0.489   4.110   1.583 -0.0616  0.0462  0.5536
  464TMC3     H 6964   0.294   4.436   1.547  0.0115 -0.1350  2.5358
  464TMC3    H1 6965   0.291   4.006   1.489  1.5762  0.7336  1.7718
  464TMC3    H2 6966   4.668   4.227   1.462 -0.4130  2.5487  1.9028
  464TMC3    C7 6967   0.035   3.968   1.468 -0.4030  0.8357 -0.0875
  464TMC3    C8 6968   0.042   4.456   1.487 -0.1254 -0.0316 -1.0791
  464TMC3    O1 6969   0.104   3.865   1.457  0.1067  0.4156  0.3657
  464TMC3    O2 6970   0.110   4.536   1.420  0.5402  0.3185  0.2080
  465MPD2     C 6971   1.459   3.448  16.847 -0.3161 -0.7997 -0.4371
  465MPD2    C1 6972   1.329   3.420  16.858  0.0292  0.1547 -0.2768
  465MPD2    C2 6973   1.237   3.461  16.761 -0.8095  0.3635 -0.3740
  465MPD2    C3 6974   1.291   3.527  16.650 -0.5316 -0.1531 -0.3729
  465MPD2    C4 6975   1.428   3.546  16.631 -0.2996  0.0292 -0.5076
  465MPD2    C5 6976   1.512   3.499  16.728  0.1146  0.8227  0.3162
  465MPD2     H 6977   1.133   3.447  16.786 -0.8799  2.4682  0.4886
  465MPD2    H1 6978   1.461   3.588  16.538  0.2713  2.2903  0.7307
  465MPD2    H2 6979   1.531   3.422  16.924 -0.5140 -2.2769 -0.7567
  465MPD2    H3 6980   1.618   3.500  16.706  0.2192  0.4323  0.8115
  465MPD2     N 6981   1.192   3.574  16.564  0.3755  0.6257 -0.0046
  465MPD2    H5 6982   1.101   3.530  16.568  0.5779  0.2551  0.6969
  465MPD2    N1 6983   1.274   3.350  16.965  0.1682 -0.1524  0.1346
  465MPD2    H7 6984   1.174   3.349  16.980  0.0884  2.4577 -0.1684
  466TMC3    C1 6985   0.951   3.609  16.241  0.4809 -0.4584  0.3938
  466TMC3    C2 6986   0.914   3.739  16.207  0.7849  1.5449 -0.7347
  466TMC3    C3 6987   0.970   3.847  16.274 -0.5221 -0.3187 -0.1765
  466TMC3    C4 6988   1.048   3.594  16.334 -0.2247  0.0052  0.5028
  466TMC3    C5 6989   1.101   3.699  16.400  0.6009 -0.4679  0.4313
  466TMC3    C6 6990   1.061   3.833  16.377 -0.3305 -0.2606  0.7425
  466TMC3     C 6991   0.837   3.513  16.262  0.4457 -0.1082 -0.7781
  466TMC3     O 6992   0.858   3.429  16.349  0.2559 -0.4401  0.2780
  466TMC3     H 6993   0.860   3.758  16.114  0.3815  2.4450 -0.3107
  466TMC3    H1 6994   1.083   3.496  16.366  0.2133  0.1328  0.4184
  466TMC3    H2 6995   1.122   3.914  16.414  1.1739 -0.9977 -0.1089
  466TMC3    C7 6996   1.224   3.671  16.471  0.2329  0.0313  0.5231
  466TMC3    C8 6997   0.943   3.982  16.222  0.1796  0.4277  0.2570
  466TMC3    O1 6998   1.324   3.743  16.450  0.2804 -0.0240 -0.4491
  466TMC3    O2 6999   0.917   3.985  16.104  0.2293 -0.6933 -0.3864
  467TMC3    C1 7000   2.170   1.850  13.224 -0.0170  0.6164  0.8769
  467TMC3    C2 7001   2.175   1.885  13.089  0.2419 -0.3859  0.1906
  467TMC3    C3 7002   2.058   1.883  13.015 -0.0699  0.0507  0.1606
  467TMC3    C4 7003   2.048   1.828  13.281  0.1057 -0.3886 -0.5377
  467TMC3    C5 7004   1.934   1.830  13.213  0.4070  0.4603 -0.9343
  467TMC3    C6 7005   1.938   1.849  13.078 -0.3045  0.3022 -0.8383
  467TMC3     C 7006   2.287   1.841  13.308 -0.4891 -0.6207  0.2573
  467TMC3     O 7007   2.269   1.839  13.430 -0.0003  0.8874  0.1980
  467TMC3     H 7008   2.270   1.911  13.042  1.0099 -0.0421  1.9249
  467TMC3    H1 7009   2.035   1.788  13.381  1.8564 -0.6546 -0.4164
  467TMC3    H2 7010   1.848   1.869  13.021  0.4725  0.6141 -1.9596
  467TMC3    C7 7011   1.840   1.725  13.240  0.1829 -0.1459  0.0813
  467TMC3    C8 7012   2.043   2.002  12.936  0.3569 -0.0440  0.3233
  467TMC3    O1 7013   1.819   1.651  13.142  0.5319  0.3801  0.5393
  467TMC3    O2 7014   2.116   2.093  12.976 -0.2563 -0.0681  1.1315
  468MPD2     C 7015   1.014   0.484  11.271 -0.6939  0.0354 -0.1846
  468MPD2    C1 7016   1.145   0.439  11.253  0.8872 -0.8560 -0.0097
  468MPD2    C2 7017   1.175   0.383  11.134  0.4863 -0.0065  0.3829
  468MPD2    C3 7018   1.077   0.372  11.039  0.1023  0.7869  0.0312
  468MPD2    C4 7019   0.946   0.407  11.057  0.5107 -0.0707  0.0213
  468MPD2    C5 7020   0.918   0.456  11.179 -0.5494  0.0686  0.3419
  468MPD2     H 7021   1.272   0.337  11.116  0.6807 -0.1304  1.7666
  468MPD2    H1 7022   0.871   0.385  10.981  1.4435  0.1098 -0.9466
  468MPD2    H2 7023   0.982   0.543  11.356 -0.8046  0.2389 -0.3660
  468MPD2    H3 7024   0.817   0.495  11.183 -0.9731 -0.8421 -1.5361
  468MPD2     N 7025   1.107   0.306  10.920 -0.1149  0.3729 -0.2562
  468MPD2    H5 7026   1.017   0.284  10.880  0.5358 -2.2584 -0.2353
  468MPD2    N1 7027   1.249   0.464  11.347  0.0767 -0.8128  0.3963
  468MPD2    H7 7028   1.338   0.438  11.307  0.9470  0.9139  1.2088
  469TMC3    C1 7029   1.361   0.504  11.558 -0.2709  0.3175 -0.2340
  469TMC3    C2 7030   1.466   0.427  11.515 -0.0953 -0.0666  0.2021
  469TMC3    C3 7031   1.558   0.384  11.610 -0.7570  0.0486 -0.1266
  469TMC3    C4 7032   1.346   0.535  11.687 -0.3660 -0.3310  0.7790
  469TMC3    C5 7033   1.452   0.504  11.774 -0.4649  0.5684  0.3197
  469TMC3    C6 7034   1.555   0.433  11.737 -0.1649  0.8234 -0.0339
  469TMC3     C 7035   1.240   0.507  11.476  0.5376 -0.2326  0.4222
  469TMC3     O 7036   1.140   0.527  11.541 -0.3795 -0.5931 -0.1419
  469TMC3     H 7037   1.471   0.376  11.419 -0.9842  2.6245 -1.2589
  469TMC3    H1 7038   1.260   0.592  11.720 -0.1966 -0.0846  0.7941
  469TMC3    H2 7039   1.637   0.410  11.803  1.4455  1.1023 -1.9156
  469TMC3    C7 7040   1.458   0.581  11.894 -0.5365 -0.2345  0.1088
  469TMC3    C8 7041   1.688   0.355  11.553  0.5350 -0.3229 -0.4908
  469TMC3    O1 7042   1.359   0.647  11.915  0.1873 -0.1451  0.3659
  469TMC3    O2 7043   1.711   0.390  11.436 -0.1009  0.1190  0.0240
  470TMC3    C1 7044   3.113   0.501   0.912  0.4377 -0.0933  0.0051
  470TMC3    C2 7045   3.215   0.591   0.925 -0.3274  1.6450 -0.6128
  470TMC3    C3 7046   3.221   0.659   1.042  0.0053  0.7295  0.3795
  470TMC3    C4 7047   3.037   0.461   1.019  0.1835  0.0406 -0.1339
  470TMC3    C5 7048   3.042   0.535   1.130 -0.8826 -0.3435 -0.0721
  470TMC3    C6 7049   3.138   0.630   1.148  0.5256  0.3381  0.0971
  470TMC3     C 7050   3.074   0.456   0.773 -0.3285  0.1001  0.0613
  470TMC3     O 7051   3.085   0.539   0.684 -0.0450 -0.1651 -0.0208
  470TMC3     H 7052   3.277   0.614   0.839  0.6596 -3.1817 -1.2111
  470TMC3    H1 7053   2.948   0.401   1.006  1.0159 -1.3993  0.8912
  470TMC3    H2 7054   3.152   0.674   1.246 -2.8743 -1.8419  1.5661
  470TMC3    C7 7055   2.919   0.542   1.208  0.7546  0.4437 -0.0369
  470TMC3    C8 7056   3.283   0.790   1.046  0.0253  0.5989 -0.3952
  470TMC3    O1 7057   2.835   0.453   1.191 -0.6600  0.7123 -0.2418
  470TMC3    O2 7058   3.244   0.865   1.138  0.9477 -0.0915  0.3253
  471MPD2     C 7059   3.491   2.282  16.698 -0.3605 -0.6431 -0.2959
  471MPD2    C1 7060   3.603   2.198  16.680 -0.7597  0.3437  0.0205
  471MPD2    C2 7061   3.695   2.204  16.779 -0.1870  1.0180  0.7157
  471MPD2    C3 7062   3.675   2.273  16.901 -0.2134 -0.0969  0.6771
  471MPD2    C4 7063   3.558   2.347  16.921  0.4180  0.2499 -0.3780
  471MPD2    C5 7064   3.473   2.354  16.812 -0.5614 -0.5725 -0.3169
  471MPD2     H 7065   3.790   2.153  16.762  0.4468  1.6333  2.4223
  471MPD2    H1 7066   3.526   2.404  17.008 -0.1387 -0.5146 -0.0878
  471MPD2    H2 7067   3.424   2.298  16.614  3.4493  0.3650 -3.1349
  471MPD2    H3 7068   3.386   2.419  16.816 -0.9175 -1.2302  3.0758
  471MPD2     N 7069   3.765   2.264  17.010  0.0209  0.5197  0.3687
  471MPD2    H5 7070   3.734   2.309  17.095  0.1663  0.1595  0.6094
  471MPD2    N1 7071   3.628   2.114  16.568 -0.2200 -0.0562 -0.3386
  471MPD2    H7 7072   3.718   2.065  16.567 -1.3386 -2.0964 -1.2905
  472TMC3    C1 7073   3.584   1.994  16.372  0.0329  0.4165  0.4301
  472TMC3    C2 7074   3.545   1.997  16.244 -0.2861 -0.8557  0.9670
  472TMC3    C3 7075   3.586   1.899  16.159  0.2967 -0.5442 -0.2075
  472TMC3    C4 7076   3.670   1.895  16.418  0.2225 -0.4671 -0.3123
  472TMC3    C5 7077   3.698   1.793  16.334 -0.1289  0.0952  0.4776
  472TMC3    C6 7078   3.666   1.794  16.202  0.3080 -0.0513 -0.0773
  472TMC3     C 7079   3.538   2.098  16.461  1.0428  0.1180 -0.7585
  472TMC3     O 7080   3.438   2.161  16.428  0.2046  0.3807  0.2340
  472TMC3     H 7081   3.462   2.059  16.211 -0.3677 -1.1043  0.7038
  472TMC3    H1 7082   3.696   1.876  16.522  3.0738  1.0688 -0.7450
  472TMC3    H2 7083   3.708   1.720  16.134 -1.6703  1.0425 -2.4784
  472TMC3    C7 7084   3.690   1.657  16.393  0.0503  0.0331  0.0530
  472TMC3    C8 7085   3.489   1.847  16.068  0.0890  1.2137  0.5105
  472TMC3    O1 7086   3.733   1.642  16.504 -0.7238 -0.2003 -0.3001
  472TMC3    O2 7087   3.538   1.812  15.965  0.1905 -0.1814  0.5823
  473MPD2     C 7088   3.245   4.109  14.142 -0.3672  0.6784  0.7346
  473MPD2    C1 7089   3.278   4.180  14.028 -0.4117  0.2858 -0.0777
  473MPD2    C2 7090   3.295   4.319  14.038  0.1627  0.6271  0.7682
  473MPD2    C3 7091   3.306   4.377  14.167  0.4090  0.2217 -0.3444
  473MPD2    C4 7092   3.294   4.299  14.280  0.2785 -0.4499  0.3619
  473MPD2    C5 7093   3.261   4.169  14.267  0.7910 -0.1756  0.4069
  473MPD2     H 7094   3.306   4.381  13.951 -0.5861  1.8644  1.5609
  473MPD2    H1 7095   3.290   4.341  14.380 -0.1777 -0.0320  0.1689
  473MPD2    H2 7096   3.211   4.006  14.141  2.4203 -0.2430  0.3257
  473MPD2    H3 7097   3.259   4.112  14.359  1.1059 -0.9738 -0.0825
  473MPD2     N 7098   3.331   4.517  14.178  0.3362  0.6930  0.4314
  473MPD2    H5 7099   3.330   4.570  14.092 -0.6622 -0.0393 -0.0063
  473MPD2    N1 7100   3.290   4.113  13.905  0.3462  0.2367  0.2158
  473MPD2    H7 7101   3.313   4.170  13.825 -3.0222  1.1514 -0.1076
  474TMC3    C1 7102   3.337   4.722  14.288  0.3212 -0.0304 -0.5589
  474TMC3    C2 7103   3.265   0.040  14.182  0.4361 -0.0116 -0.1753
  474TMC3    C3 7104   3.268   0.177  14.158  0.4205  0.7590  0.6817
  474TMC3    C4 7105   3.405   0.064  14.377 -0.3745 -0.2489  0.8656
  474TMC3    C5 7106   3.401   0.199  14.352 -0.7485  0.1153  0.0558
  474TMC3    C6 7107   3.331   0.256  14.246  0.2758  0.0465 -0.8084
  474TMC3     C 7108   3.354   4.578  14.295  1.3789 -0.0747  0.6393
  474TMC3     O 7109   3.408   4.534  14.395  0.2978 -0.7219 -0.7672
  474TMC3     H 7110   3.188   4.713  14.138 -0.4298 -1.4664  3.3630
  474TMC3    H1 7111   3.463   0.016  14.455  0.3497 -0.6688  0.0684
  474TMC3    H2 7112   3.339   0.361  14.221  0.8801  0.8392  2.6982
  474TMC3    C7 7113   3.508   0.286  14.397  0.1810  0.3994 -0.4084
  474TMC3    C8 7114   3.248   0.222  14.024 -0.3477 -1.0721  0.0162
  474TMC3    O1 7115   3.511   0.401  14.350  0.1542  0.0917 -0.0543
  474TMC3    O2 7116   3.173   0.144  13.963  0.7029 -0.2443 -0.8518
  475MPD2     C 7117   1.444   2.402  10.553 -0.1414 -0.0395 -0.4213
  475MPD2    C1 7118   1.500   2.506  10.487 -0.1909 -0.3764  0.1675
  475MPD2    C2 7119   1.494   2.639  10.532 -0.1940  0.5281 -0.1297
  475MPD2    C3 7120   1.433   2.675  10.648  0.0931  0.8479 -0.8761
  475MPD2    C4 7121   1.378   2.565  10.714 -0.4071  0.0308 -0.1923
  475MPD2    C5 7122   1.381   2.438  10.667 -0.4992  0.4990  0.7646
  475MPD2     H 7123   1.540   2.723  10.482 -1.7381  1.7082  0.4357
  475MPD2    H1 7124   1.314   2.575  10.801 -1.0828 -1.6420 -0.4962
  475MPD2    H2 7125   1.454   2.297  10.529 -0.6632  0.3080 -2.1163
  475MPD2    H3 7126   1.351   2.361  10.738  0.6189 -1.1857 -0.6004
  475MPD2     N 7127   1.423   2.813  10.679 -0.0742  0.2922  0.8667
  475MPD2    H5 7128   1.453   2.883  10.613  0.6644  0.1160  1.0123
  475MPD2    N1 7129   1.584   2.483  10.377  0.3282  0.0248  0.1189
  475MPD2    H7 7130   1.615   2.563  10.324  1.5518  0.4422  1.4867
  476TMC3    C1 7131   1.760   2.397  10.264 -0.0881  0.9034  0.1933
  476TMC3    C2 7132   1.724   2.488  10.165  0.3893 -0.1357  0.7880
  476TMC3    C3 7133   1.828   2.559  10.105  0.5098 -0.1856  0.1968
  476TMC3    C4 7134   1.887   2.377  10.302 -0.5415 -0.5574 -0.1021
  476TMC3    C5 7135   1.988   2.448  10.246 -0.2852 -0.0595  0.2119
  476TMC3    C6 7136   1.955   2.553  10.157  0.2344 -0.5856  0.4745
  476TMC3     C 7137   1.665   2.372  10.364  0.2880 -0.7509  0.2029
  476TMC3     O 7138   1.682   2.264  10.428  0.2198  0.2521 -0.1303
  476TMC3     H 7139   1.623   2.513  10.136  0.9145  0.1449 -0.7467
  476TMC3    H1 7140   1.911   2.320  10.391  1.1305  2.1302  1.1505
  476TMC3    H2 7141   2.034   2.610  10.110  0.0731 -1.0672 -0.3746
  476TMC3    C7 7142   2.100   2.473  10.342 -0.1677  0.1272  0.5728
  476TMC3    C8 7143   1.798   2.657  10.007  0.4633  0.0833 -0.5245
  476TMC3    O1 7144   2.133   2.383  10.422  0.0013 -0.3073  0.0493
  476TMC3    O2 7145   1.838   2.774  10.035 -0.7763 -0.0705  0.1092
  477MPD2     C 7146   4.644   4.004  11.473  0.2710  0.3365 -0.0348
  477MPD2    C1 7147   4.620   3.882  11.399 -0.0763  0.2689 -0.3731
  477MPD2    C2 7148   4.682   3.768  11.445 -0.1012 -0.3238 -0.1624
  477MPD2    C3 7149   0.036   3.776  11.556 -0.9918 -0.4039  0.4452
  477MPD2    C4 7150   0.059   3.898  11.622  0.2956 -0.0101 -0.0167
  477MPD2    C5 7151   0.002   4.014  11.576 -0.2427 -0.2713 -0.1149
  477MPD2     H 7152   4.658   3.673  11.398 -0.0257 -0.3843 -0.0791
  477MPD2    H1 7153   0.116   3.896  11.714  0.9175 -0.1387 -0.4074
  477MPD2    H2 7154   4.601   4.102  11.454  0.5157  0.5377  0.4520
  477MPD2    H3 7155   0.015   4.105  11.634  0.5906 -0.1891 -0.4437
  477MPD2     N 7156   0.088   3.657  11.609 -0.0779 -0.0689  0.0087
  477MPD2    H5 7157   0.091   3.588  11.535  0.8104 -0.6955  0.6336
  477MPD2    N1 7158   4.531   3.892  11.295  0.6193 -0.1306  0.2018
  477MPD2    H7 7159   4.460   3.963  11.308  2.1151  1.4108  0.0427
  478TMC3    C1 7160   4.388   3.810  11.139 -0.2354 -0.2086  0.5711
  478TMC3    C2 7161   4.292   3.832  11.229 -0.1572 -0.1773 -0.2619
  478TMC3    C3 7162   4.172   3.882  11.202  0.3674  0.4828 -0.7882
  478TMC3    C4 7163   4.363   3.849  11.009 -0.1883  1.1813  0.7163
  478TMC3    C5 7164   4.241   3.906  10.982  0.8133  0.2367 -0.1289
  478TMC3    C6 7165   4.146   3.935  11.082 -0.1626 -0.1721 -0.1000
  478TMC3     C 7166   4.523   3.804  11.188  0.7857 -0.1179  0.2302
  478TMC3     O 7167   4.587   3.703  11.160  0.1674  1.0334  0.2912
  478TMC3     H 7168   4.318   3.802  11.330  0.9720 -1.3122 -0.8809
  478TMC3    H1 7169   4.442   3.821  10.939 -1.7557 -1.1815 -0.1085
  478TMC3    H2 7170   4.049   3.979  11.060  0.5907  1.4438 -0.2174
  478TMC3    C7 7171   4.228   3.963  10.846  0.0677 -0.0179  0.3706
  478TMC3    C8 7172   4.074   3.876  11.305  0.4420  0.0333  0.1214
  478TMC3    O1 7173   4.286   3.902  10.757  0.3662  0.4275  0.6807
  478TMC3    O2 7174   4.051   3.760  11.340 -0.3396  0.6190  0.3369
  479MPD2     C 7175   3.538   1.471  14.569 -0.2446  0.0336  0.0836
  479MPD2    C1 7176   3.513   1.454  14.699 -0.2133 -0.6229  0.3338
  479MPD2    C2 7177   3.615   1.469  14.788  1.2891  0.2391 -0.7910
  479MPD2    C3 7178   3.728   1.535  14.751  0.2736  1.2520 -0.4413
  479MPD2    C4 7179   3.754   1.551  14.619 -0.2737 -0.0270 -0.7680
  479MPD2    C5 7180   3.660   1.523  14.526  0.3594  0.0518 -0.1506
  479MPD2     H 7181   3.604   1.431  14.889  3.9053  1.5309 -0.0306
  479MPD2    H1 7182   3.852   1.588  14.590  0.1097 -0.8992 -0.5555
  479MPD2    H2 7183   3.455   1.460  14.501 -0.6171  1.1529  0.3582
  479MPD2    H3 7184   3.678   1.535  14.420  0.7571 -2.0057 -0.3223
  479MPD2     N 7185   3.833   1.579  14.832  0.4204 -0.3847  0.6959
  479MPD2    H5 7186   3.918   1.614  14.789 -0.3710 -0.1349 -0.6750
  479MPD2    N1 7187   3.379   1.430  14.734  0.7973 -0.2393  0.0162
  479MPD2    H7 7188   3.317   1.410  14.657  1.0558 -1.7071  0.1861
  480TMC3    C1 7189   3.548   1.633  15.193  0.1674 -0.4800  0.7672
  480TMC3    C2 7190   3.476   1.733  15.133 -0.0086  0.3603  0.2069
  480TMC3    C3 7191   3.512   1.782  15.011 -0.2683  0.1348 -0.0140
  480TMC3    C4 7192   3.668   1.588  15.143 -0.2606  0.4912 -0.0251
  480TMC3    C5 7193   3.690   1.634  15.015  0.1262  0.3092  0.5902
  480TMC3    C6 7194   3.621   1.729  14.947 -0.7469  0.3079 -0.6089
  480TMC3     C 7195   3.483   1.542  15.277  0.2575  0.1189  0.0766
  480TMC3     O 7196   3.541   1.458  15.343 -0.4342  0.2211  0.0317
  480TMC3     H 7197   3.402   1.791  15.185 -0.8823 -1.2211  0.7278
  480TMC3    H1 7198   3.719   1.501  15.183  0.4680  0.1288 -1.7744
  480TMC3    H2 7199   3.640   1.757  14.844  0.7264  0.9680 -0.1592
  480TMC3    C7 7200   3.818   1.598  14.964  0.2455  0.4469 -0.7722
  480TMC3    C8 7201   3.387   1.794  14.938 -0.8733  0.0423  0.2437
  480TMC3    O1 7202   3.903   1.653  15.032 -0.6962  0.3246 -0.1456
  480TMC3    O2 7203   3.278   1.770  14.998  0.2951 -0.5160  0.2332
  481MPD2     C 7204   4.730   1.167  14.053 -0.1645  0.6561 -0.6827
  481MPD2    C1 7205   4.674   1.048  14.047  0.1573  0.2007 -0.4643
  481MPD2    C2 7206   4.672   0.966  14.161 -0.0823 -0.2118  0.0317
  481MPD2    C3 7207   0.007   1.002  14.280 -0.3090  0.4620  0.3969
  481MPD2    C4 7208   0.059   1.125  14.276 -0.1283  0.5555 -0.2663
  481MPD2    C5 7209   0.060   1.207  14.166  0.4140 -0.7931 -0.6613
  481MPD2     H 7210   4.619   0.872  14.153 -1.8206  0.7823 -0.1575
  481MPD2    H1 7211   0.109   1.162  14.365 -1.3991  0.7373  0.3664
  481MPD2    H2 7212   4.715   1.238  13.972 -2.1620  0.2643 -0.6627
  481MPD2    H3 7213   0.118   1.299  14.165  3.1276 -2.5021  1.0588
  481MPD2     N 7214   0.024   0.932  14.397  0.4954  0.5711 -0.1336
  481MPD2    H5 7215   0.084   0.961  14.474 -3.8280  2.8670  2.3338
  481MPD2    N1 7216   4.603   1.020  13.927 -0.2229  0.5752 -0.0624
  481MPD2    H7 7217   4.618   1.083  13.848 -0.6957  0.6480 -0.0906
  482TMC3    C1 7218   4.460   0.903  13.775  0.0353  0.6978 -0.1315
  482TMC3    C2 7219   4.417   0.784  13.736 -0.3952 -0.3306 -0.3973
  482TMC3    C3 7220   4.315   0.773  13.649 -0.5142  0.0633  0.3056
  482TMC3    C4 7221   4.402   1.013  13.731  0.2560 -0.7911 -0.2863
  482TMC3    C5 7222   4.301   0.998  13.631  0.5632  0.1119  0.3389
  482TMC3    C6 7223   4.254   0.881  13.595 -0.8743  1.0056 -0.2240
  482TMC3     C 7224   4.535   0.905  13.901  0.6867 -0.0711  0.1482
  482TMC3     O 7225   4.490   0.824  13.984  0.1364 -0.1794  0.2905
  482TMC3     H 7226   4.456   0.698  13.789 -0.7091 -0.9211 -1.1162
  482TMC3    H1 7227   4.426   1.109  13.776  2.3415 -0.8716 -1.2166
  482TMC3    H2 7228   4.179   0.880  13.517 -0.6156 -1.2879 -0.4264
  482TMC3    C7 7229   4.231   1.117  13.577 -0.1154 -0.8413  0.0271
  482TMC3    C8 7230   4.279   0.643  13.600 -0.6429 -0.6079 -0.7568
  482TMC3    O1 7231   4.120   1.102  13.525  0.1355  0.4478  0.3089
  482TMC3    O2 7232   4.364   0.555  13.613  0.7159  0.0734 -0.0412
  483TMC3    C1 7233   2.835   4.631   1.084  0.5862 -0.1487 -0.5812
  483TMC3    C2 7234   2.919   0.005   1.100 -0.4708 -0.1362 -0.3702
  483TMC3    C3 7235   3.051   0.001   1.134 -0.1692  0.4661 -0.3104
  483TMC3    C4 7236   2.893   4.505   1.104  0.5397 -1.2071 -0.4216
  483TMC3    C5 7237   3.024   4.505   1.139  0.1048 -0.5986 -0.0503
  483TMC3    C6 7238   3.108   4.616   1.159  0.3699  0.2801  0.2913
  483TMC3     C 7239   2.703   4.654   1.029 -0.1388  0.5711 -0.1668
  483TMC3     O 7240   2.674   0.036   0.990  0.1922 -0.0773 -0.0687
  483TMC3     H 7241   2.867   0.100   1.089  1.0691  0.6398 -1.0674
  483TMC3    H1 7242   2.834   4.415   1.108  0.4965 -1.2612 -2.3840
  483TMC3    H2 7243   3.215   4.613   1.181  0.9283  2.3022 -2.1439
  483TMC3    C7 7244   3.070   4.368   1.156  0.5632  0.6302  0.1833
  483TMC3    C8 7245   3.127   0.104   1.053 -0.2051  0.1455 -0.0077
  483TMC3    O1 7246   3.029   4.277   1.084  0.3632 -0.8198  0.2831
  483TMC3    O2 7247   3.062   0.137   0.955 -0.1960  0.5866 -0.5545
  484MPD2     C 7248   4.638   2.977  12.876  0.3306 -0.3789  0.6884
  484MPD2    C1 7249   4.654   2.906  12.757 -0.4892  0.3551 -0.2729
  484MPD2    C2 7250   0.038   2.927  12.687 -0.7851 -0.3165 -0.1366
  484MPD2    C3 7251   0.140   3.010  12.727  0.2618  0.3648  0.5035
  484MPD2    C4 7252   0.121   3.077  12.844  0.8874  0.6005  0.2468
  484MPD2    C5 7253   0.006   3.054  12.918  0.2722 -0.8069  0.1349
  484MPD2     H 7254   0.044   2.878  12.590  0.4123 -0.6936  0.1257
  484MPD2    H1 7255   0.184   3.157  12.884 -0.1496  1.6663 -0.2561
  484MPD2    H2 7256   4.545   2.965  12.931 -0.5509 -0.8222 -0.9079
  484MPD2    H3 7257   0.006   3.107  13.013  0.9963  1.6493 -1.2143
  484MPD2     N 7258   0.260   3.032  12.658 -0.5756  0.5410  0.0013
  484MPD2    H5 7259   0.326   3.102  12.691 -0.8502  1.6761 -1.8391
  484MPD2    N1 7260   4.551   2.824  12.711  0.0809 -0.0098 -0.5379
  484MPD2    H7 7261   4.481   2.804  12.783 -0.2069  0.3157 -0.7258
  485TMC3    C1 7262   0.411   3.036  12.484 -0.4355 -0.3012  0.9802
  485TMC3    C2 7263   0.524   3.046  12.564  0.6069  0.6508  0.1570
  485TMC3    C3 7264   0.645   3.081  12.506 -0.7240 -0.4509 -0.2077
  485TMC3    C4 7265   0.428   3.031  12.349  0.7160 -0.4447  0.0325
  485TMC3    C5 7266   0.554   3.068  12.296  0.5443  0.3903 -0.1578
  485TMC3    C6 7267   0.659   3.107  12.374 -0.7474 -0.0625 -0.0377
  485TMC3     C 7268   0.296   2.969  12.543  0.1888 -0.4591  0.0424
  485TMC3     O 7269   0.248   2.874  12.482 -1.0817  0.2862  0.7631
  485TMC3     H 7270   0.518   3.031  12.671 -2.0424 -0.5909 -0.1393
  485TMC3    H1 7271   0.343   3.018  12.284  0.0644 -1.0933  1.0187
  485TMC3    H2 7272   0.759   3.116  12.333 -1.7723 -2.1021 -3.0162
  485TMC3    C7 7273   0.595   2.994  12.175 -0.0820 -0.0651 -0.1652
  485TMC3    C8 7274   0.763   3.001  12.551 -0.1475 -0.0005  0.5336
  485TMC3    O1 7275   0.692   3.038  12.116  0.3718  0.1685 -0.1295
  485TMC3    O2 7276   0.879   3.022  12.526 -0.2286 -0.4108  0.3669
  486MPD2     C 7277   2.962   1.455  12.838 -0.6608 -0.0831  0.5463
  486MPD2    C1 7278   2.832   1.445  12.877  0.0574  0.5254 -0.1812
  486MPD2    C2 7279   2.746   1.553  12.858 -0.4125 -0.3955 -0.6743
  486MPD2    C3 7280   2.785   1.656  12.770  0.1216 -0.3871 -0.0051
  486MPD2    C4 7281   2.911   1.653  12.713  0.4314  0.1923 -0.1753
  486MPD2    C5 7282   3.000   1.557  12.754  0.2057 -0.5138 -0.0794
  486MPD2     H 7283   2.644   1.568  12.893 -0.0361  1.5298 -0.4334
  486MPD2    H1 7284   2.944   1.717  12.632  1.4153  2.2357  1.8579
  486MPD2    H2 7285   3.039   1.379  12.848 -1.7242 -1.3413 -0.9397
  486MPD2    H3 7286   3.097   1.553  12.706  1.7278 -0.4549  2.9555
  486MPD2     N 7287   2.695   1.757  12.718  0.2425 -0.2023 -0.9096
  486MPD2    H5 7288   2.729   1.812  12.640 -1.5498  1.9967 -0.1394
  486MPD2    N1 7289   2.790   1.322  12.936 -0.8424  0.4190 -0.0949
  486MPD2    H7 7290   2.858   1.249  12.952  1.1470  2.2445 -0.3078
  487TMC3    C1 7291   2.637   1.161  13.003 -0.2586  0.7088 -0.1215
  487TMC3    C2 7292   2.512   1.108  12.978  0.0022 -0.2845 -0.6088
  487TMC3    C3 7293   2.465   1.017  13.070  0.4339  0.7525  0.2165
  487TMC3    C4 7294   2.715   1.115  13.099  0.4213 -0.3760 -0.0731
  487TMC3    C5 7295   2.669   1.005  13.182  0.3773  1.2800 -0.5120
  487TMC3    C6 7296   2.548   0.957  13.159 -0.4535  0.1774  0.0255
  487TMC3     C 7297   2.658   1.295  12.957 -0.5430 -0.1650 -0.4046
  487TMC3     O 7298   2.558   1.362  12.938  0.5808 -0.5352  0.3975
  487TMC3     H 7299   2.450   1.156  12.903  1.9858  1.3375 -1.2049
  487TMC3    H1 7300   2.810   1.158  13.127 -0.2574 -0.5171  2.4723
  487TMC3    H2 7301   2.504   0.884  13.226 -2.0849 -0.2416 -1.5026
  487TMC3    C7 7302   2.703   1.048  13.319  0.1957 -0.1566  0.2526
  487TMC3    C8 7303   2.338   1.048  13.132 -0.0466  0.2947  0.5722
  487TMC3    O1 7304   2.819   1.073  13.350 -0.4218 -0.2999  0.1871
  487TMC3    O2 7305   2.328   1.009  13.247  0.0601  0.7042 -0.1264
  488MPD2     C 7306   3.062   2.940  16.338  0.2581  0.0522  0.5761
  488MPD2    C1 7307   3.126   3.034  16.413 -0.1941  0.2420 -0.4450
  488MPD2    C2 7308   3.126   3.019  16.554  0.1745  0.1171 -0.3682
  488MPD2    C3 7309   3.064   2.902  16.602  0.1313  0.5918  0.2353
  488MPD2    C4 7310   3.006   2.812  16.522  0.9902 -0.2179  0.6478
  488MPD2    C5 7311   3.004   2.832  16.394 -0.3093  0.3241 -1.1831
  488MPD2     H 7312   3.164   3.086  16.630 -1.3316  0.9314 -0.3361
  488MPD2    H1 7313   2.947   2.727  16.556 -0.0079  0.6435  1.0681
  488MPD2    H2 7314   3.069   2.954  16.231 -1.2990  0.6372  0.5530
  488MPD2    H3 7315   2.972   2.762  16.319 -1.2266 -0.8872  0.3570
  488MPD2     N 7316   3.048   2.900  16.748 -0.2597 -0.0160  0.2381
  488MPD2    H5 7317   3.098   2.970  16.803  0.8904 -1.2280  0.7411
  488MPD2    N1 7318   3.192   3.146  16.355 -0.2654 -0.0074 -0.4223
  488MPD2    H7 7319   3.202   3.217  16.426 -0.2704  1.5033 -1.9269
  489TMC3    C1 7320   2.958   2.858  16.958 -0.5103  0.5246 -0.0245
  489TMC3    C2 7321   3.049   2.942  17.007  0.4712 -0.3431  0.0754
  489TMC3    C3 7322   3.029   2.978  17.137  0.1556  0.0179  0.3017
  489TMC3    C4 7323   2.864   2.797  17.034  0.6552 -0.0789 -0.1573
  489TMC3    C5 7324   2.844   2.833  17.165 -0.0128  0.2270 -0.2508
  489TMC3    C6 7325   2.931   2.923  17.218  0.4403 -0.0196 -0.0293
  489TMC3     C 7326   2.957   2.824  16.815 -0.2749  0.2048  0.6173
  489TMC3     O 7327   2.865   2.754  16.767 -0.3363  0.2487 -0.1037
  489TMC3     H 7328   3.130   2.988  16.953  1.4043 -0.9042  0.9986
  489TMC3    H1 7329   2.794   2.733  16.981 -0.8206  2.0048 -0.7739
  489TMC3    H2 7330   2.920   2.943  17.324  2.1592 -0.3295  0.2083
  489TMC3    C7 7331   2.790   2.739  17.254  0.4910  0.0441 -0.0984
  489TMC3    C8 7332   3.086   3.110  17.173  0.2938 -0.0558 -0.2370
  489TMC3    O1 7333   2.780   2.776  17.373  0.5831 -0.2327  0.8618
  489TMC3    O2 7334   3.183   3.140  17.101 -0.1922  0.3822 -0.0100
  490MPD2     C 7335   3.729   2.696  17.292 -0.1803  0.3177  0.3296
  490MPD2    C1 7336   3.655   2.681  17.405 -0.1648  0.3159  0.4588
  490MPD2    C2 7337   3.674   2.762  17.509  0.2543 -0.7060  0.5103
  490MPD2    C3 7338   3.759   2.873  17.495  0.3052 -0.2406 -0.2345
  490MPD2    C4 7339   3.838   2.890  17.385  0.4905  0.3840  0.3317
  490MPD2    C5 7340   3.825   2.796  17.287  0.4458  0.1538 -0.2866
  490MPD2     H 7341   3.617   2.738  17.598 -0.6297  0.0319  0.1536
  490MPD2    H1 7342   3.905   2.975  17.376  0.4232  0.7181  2.9015
  490MPD2    H2 7343   3.706   2.646  17.198  2.3977  2.3079 -1.3727
  490MPD2    H3 7344   3.880   2.813  17.194 -1.1663  0.2222 -1.2267
  490MPD2     N 7345   3.782   2.967  17.594  0.5632  0.4166 -0.3871
  490MPD2    H5 7346   3.846   3.037  17.561  0.4262  0.9124  0.4115
  490MPD2    N1 7347   3.571   2.565  17.406  0.4622 -0.3766  0.0473
  490MPD2    H7 7348   3.510   2.555  17.486 -0.5384  2.2460 -0.3821
  491TMC3    C1 7349   3.499   2.346  17.379 -1.2759 -0.3480 -0.3340
  491TMC3    C2 7350   3.467   2.341  17.514 -0.1124  0.0204 -0.3054
  491TMC3    C3 7351   3.371   2.251  17.554 -0.6197  0.2133 -0.7312
  491TMC3    C4 7352   3.456   2.252  17.287 -0.5892 -0.0549  0.7444
  491TMC3    C5 7353   3.364   2.156  17.335 -0.3024 -0.3269  0.2431
  491TMC3    C6 7354   3.325   2.152  17.464 -0.6002 -0.0034  0.3879
  491TMC3     C 7355   3.585   2.449  17.334 -0.2600  0.4118  0.0292
  491TMC3     O 7356   3.652   2.423  17.233  0.2571  0.4150 -0.2770
  491TMC3     H 7357   3.500   2.418  17.583 -1.7905 -0.1962  0.7644
  491TMC3    H1 7358   3.461   2.258  17.179 -1.4622 -0.3172  0.6874
  491TMC3    H2 7359   3.252   2.079  17.498 -0.4751  0.4198  1.5905
  491TMC3    C7 7360   3.333   2.046  17.253  0.1281 -0.0668 -0.2679
  491TMC3    C8 7361   3.308   2.263  17.688  0.1484 -0.4161  0.0948
  491TMC3    O1 7362   3.347   2.051  17.132  0.3545 -0.6431 -0.0713
  491TMC3    O2 7363   3.313   2.374  17.737 -0.4102 -0.2989  0.2103
  492MPD2     C 7364   3.937   2.982  11.586  0.8665 -0.6679  1.3142
  492MPD2    C1 7365   3.881   2.876  11.507  0.1285  0.2105 -0.6432
  492MPD2    C2 7366   3.831   2.762  11.565 -0.0656 -0.1581 -0.4844
  492MPD2    C3 7367   3.837   2.749  11.704 -0.5342 -0.3222 -0.3258
  492MPD2    C4 7368   3.901   2.845  11.777 -0.4562  0.5522  0.8916
  492MPD2    C5 7369   3.939   2.966  11.721  0.6036  0.8746  0.2896
  492MPD2     H 7370   3.797   2.677  11.507  0.5835  0.6922 -2.1261
  492MPD2    H1 7371   3.914   2.819  11.882 -2.5841 -1.4478  0.6651
  492MPD2    H2 7372   3.964   3.081  11.550 -2.0340 -0.3682 -0.0399
  492MPD2    H3 7373   3.975   3.045  11.785  0.9626  1.8237 -1.0742
  492MPD2     N 7374   3.783   2.641  11.776 -0.3091 -0.1386  0.4141
  492MPD2    H5 7375   3.792   2.634  11.877  1.7834  2.0078  0.3730
  492MPD2    N1 7376   3.867   2.894  11.369  0.5850  0.4653  0.0772
  492MPD2    H7 7377   3.902   2.979  11.325  1.6342 -0.2724 -0.5104
  493TMC3    C1 7378   3.811   2.869  11.145  0.3102 -0.2462  0.0425
  493TMC3    C2 7379   3.807   3.008  11.135  0.8679 -0.0945  0.0782
  493TMC3    C3 7380   3.762   3.062  11.018 -0.3724  0.1699  0.8819
  493TMC3    C4 7381   3.752   2.792  11.048  0.6665  0.2270 -0.4362
  493TMC3    C5 7382   3.721   2.852  10.927 -0.1895 -0.2472  0.2859
  493TMC3    C6 7383   3.725   2.993  10.906 -0.4450 -0.2823  0.5633
  493TMC3     C 7384   3.820   2.809  11.280  0.6289  0.4295  0.1779
  493TMC3     O 7385   3.781   2.695  11.291  0.1362 -0.0589  0.2615
  493TMC3     H 7386   3.846   3.067  11.217 -0.1532  1.0557 -0.2560
  493TMC3    H1 7387   3.726   2.690  11.073 -1.9448  0.4570 -2.2122
  493TMC3    H2 7388   3.694   3.033  10.811  0.3060  0.3472  0.5851
  493TMC3    C7 7389   3.647   2.774  10.829  0.2274 -0.4661 -0.2255
  493TMC3    C8 7390   3.768   3.202  11.017 -1.0038  0.1615  0.6905
  493TMC3    O1 7391   3.563   2.824  10.756 -0.2348  0.2627 -0.4569
  493TMC3    O2 7392   3.800   3.250  11.127 -0.7150 -0.7374 -0.1941
  494TMC3    C1 7393   4.678   0.081   0.347 -0.5791 -0.1374 -0.5928
  494TMC3    C2 7394   4.711   4.690   0.380 -1.2693  0.3585 -0.2378
  494TMC3    C3 7395   4.700   4.593   0.282 -0.3204  0.0764  0.0765
  494TMC3    C4 7396   4.648   0.124   0.222 -0.1444  0.2572 -0.0294
  494TMC3    C5 7397   4.643   0.027   0.122  0.4367  0.0279 -0.3359
  494TMC3    C6 7398   4.664   4.629   0.153 -0.2727 -0.1070  0.5697
  494TMC3     C 7399   4.686   0.179   0.459 -0.0709  0.5631 -0.1037
  494TMC3     O 7400   4.665   0.128   0.570  0.1052 -0.2686  0.5628
  494TMC3     H 7401   4.723   4.658   0.483 -0.1038 -0.9331 -0.7748
  494TMC3    H1 7402   4.623   0.224   0.189  0.1931  0.0575 -0.8917
  494TMC3    H2 7403   4.670   4.556   0.073 -1.0821  0.2872  0.1561
  494TMC3    C7 7404   4.650   0.071  17.724  0.3758  0.1447  0.1187
  494TMC3    C8 7405   4.708   4.455   0.318  0.1106 -0.8320 -0.4166
  494TMC3    O1 7406   4.698   0.182  17.711  0.0802 -0.1392 -0.0689
  494TMC3    O2 7407   0.001   4.433   0.434 -0.2788 -0.3742  0.8562
  495TMC3    C1 7408   3.424   1.525  14.014  0.0940  0.6375 -0.6906
  495TMC3    C2 7409   3.306   1.555  13.958 -0.0660  1.0309  0.0408
  495TMC3    C3 7410   3.244   1.677  13.978 -0.6105  0.1056 -0.6889
  495TMC3    C4 7411   3.475   1.604  14.118  0.3316 -0.1043 -0.3742
  495TMC3    C5 7412   3.396   1.711  14.156 -0.2239 -0.3354 -0.0629
  495TMC3    C6 7413   3.293   1.751  14.085  0.1394  0.1335 -0.1251
  495TMC3     C 7414   3.469   1.391  14.007  0.3673 -0.5399  0.0085
  495TMC3     O 7415   3.462   1.348  13.891  0.3509 -0.5171 -0.4329
  495TMC3     H 7416   3.273   1.497  13.872  1.5866 -1.6248  1.1803
  495TMC3    H1 7417   3.556   1.564  14.178 -0.6545 -0.8707  0.4541
  495TMC3    H2 7418   3.242   1.847  14.090 -1.2106 -0.5751 -0.3343
  495TMC3    C7 7419   3.424   1.778  14.283  0.0469 -0.1537  0.1310
  495TMC3    C8 7420   3.107   1.694  13.945  0.2717  0.9120 -0.4729
  495TMC3    O1 7421   3.530   1.757  14.340  0.1955  0.1272  0.0220
  495TMC3    O2 7422   3.040   1.769  14.012  0.3445  0.2276  0.5288
  496MPD2     C 7423   0.303   2.351  14.859  0.2347 -0.2557  0.3901
  496MPD2    C1 7424   0.393   2.269  14.923 -0.1851  0.0362  0.2575
  496MPD2    C2 7425   0.338   2.161  14.991  0.3055 -0.2608  0.3803
  496MPD2    C3 7426   0.198   2.137  14.996  0.6027 -0.3694  0.6705
  496MPD2    C4 7427   0.111   2.219  14.924  0.2258  0.1079  0.6351
  496MPD2    C5 7428   0.167   2.319  14.853  0.0035 -0.9624 -0.2946
  496MPD2     H 7429   0.407   2.095  15.043 -0.4075 -2.3741 -1.3256
  496MPD2    H1 7430   0.006   2.199  14.908  0.0283  1.0285  0.7482
  496MPD2    H2 7431   0.344   2.438  14.809 -0.2517 -0.6956 -0.7811
  496MPD2    H3 7432   0.105   2.384  14.792  2.1229 -1.0035 -2.5026
  496MPD2     N 7433   0.138   2.039  15.075  0.3776  0.3760 -0.3877
  496MPD2    H5 7434   0.036   2.040  15.073  0.3730 -1.1325 -0.4902
  496MPD2    N1 7435   0.530   2.301  14.909 -0.4507 -0.1061  0.4836
  496MPD2    H7 7436   0.549   2.383  14.852  1.5744  1.4400  3.3745
  497TMC3    C1 7437   0.114   1.832  15.208  0.3420 -0.8990  0.4288
  497TMC3    C2 7438   4.723   1.813  15.169 -0.0847 -0.5664  0.2276
  497TMC3    C3 7439   4.635   1.733  15.240 -0.6018  0.5550 -0.1003
  497TMC3    C4 7440   0.153   1.777  15.328 -0.4604  0.2289  0.5927
  497TMC3    C5 7441   0.071   1.690  15.389 -0.9722  0.0952  0.5658
  497TMC3    C6 7442   4.675   1.670  15.348  0.7886  0.2085 -0.5029
  497TMC3     C 7443   0.198   1.936  15.147 -0.4772 -0.2884  0.2796
  497TMC3     O 7444   0.314   1.929  15.180 -0.2510  0.3024  0.0696
  497TMC3     H 7445   4.693   1.846  15.070  0.2722 -3.3444 -0.8073
  497TMC3    H1 7446   0.254   1.807  15.353 -0.7146  2.8731 -1.5420
  497TMC3    H2 7447   4.612   1.614  15.415  0.8359 -0.7117 -1.2261
  497TMC3    C7 7448   0.127   1.612  15.501  0.5869  0.0276  0.2330
  497TMC3    C8 7449   4.494   1.733  15.200  0.3195 -0.6122  0.3320
  497TMC3    O1 7450   0.091   1.495  15.503  0.0269 -0.0159 -0.2606
  497TMC3    O2 7451   4.445   1.838  15.155 -0.2546  0.4996  0.2532
  498MPD2     C 7452   1.204   2.663   9.249 -0.2726 -0.1180  0.1211
  498MPD2    C1 7453   1.167   2.778   9.316  0.8772 -0.8721  0.0219
  498MPD2    C2 7454   1.034   2.799   9.335 -0.0659  0.0377 -1.0052
  498MPD2    C3 7455   0.936   2.714   9.284  0.1248  0.2251 -0.8335
  498MPD2    C4 7456   0.980   2.599   9.214  0.0587  0.0487  0.3177
  498MPD2    C5 7457   1.109   2.573   9.215 -0.2573  0.5302 -0.0393
  498MPD2     H 7458   1.005   2.880   9.400 -2.0923 -0.4903 -1.2234
  498MPD2    H1 7459   0.911   2.528   9.171  1.0505 -1.3320  1.0013
  498MPD2    H2 7460   1.304   2.628   9.228 -0.5579  0.0588 -1.5156
  498MPD2    H3 7461   1.149   2.483   9.170  0.2132  0.3844  0.6763
  498MPD2     N 7462   0.800   2.739   9.313  0.0356 -0.0791 -0.2631
  498MPD2    H5 7463   0.781   2.829   9.357  2.3377  0.1073  0.3684
  498MPD2    N1 7464   1.257   2.870   9.369  0.2218 -0.1789 -0.2068
  498MPD2    H7 7465   1.219   2.945   9.425 -1.2450 -0.1872 -1.1682
  499TMC3    C1 7466   1.447   2.997   9.407 -0.6294  0.5240 -0.3614
  499TMC3    C2 7467   1.580   2.976   9.443  1.0573 -0.0198  0.2619
  499TMC3    C3 7468   1.654   3.092   9.465 -0.3577  0.1304 -0.4205
  499TMC3    C4 7469   1.384   3.113   9.415 -0.5678  0.0822  0.4038
  499TMC3    C5 7470   1.466   3.224   9.423  0.2449 -0.1744  0.1472
  499TMC3    C6 7471   1.601   3.217   9.454  0.4440 -0.2239  0.2421
  499TMC3     C 7472   1.391   2.878   9.342  0.3382  0.5427  0.0166
  499TMC3     O 7473   1.464   2.791   9.297 -0.2440  0.0834  0.3928
  499TMC3     H 7474   1.625   2.878   9.432  1.4185 -0.0635  2.1077
  499TMC3    H1 7475   1.278   3.115   9.391 -0.6141  0.8246  0.6632
  499TMC3    H2 7476   1.663   3.305   9.443  0.7505 -0.4093  0.4822
  499TMC3    C7 7477   1.414   3.357   9.442  0.1706  0.3855  0.4695
  499TMC3    C8 7478   1.797   3.075   9.445  0.1060 -0.5857  0.0103
  499TMC3    O1 7479   1.491   3.449   9.426  0.1455  0.5852  0.0871
  499TMC3    O2 7480   1.843   2.969   9.413 -0.0514 -0.1957  0.2969
  500MPD2     C 7481   2.530   4.384  10.401 -0.2150  0.2098 -0.0620
  500MPD2    C1 7482   2.569   4.332  10.286 -0.6836 -0.3173 -1.1966
  500MPD2    C2 7483   2.482   4.345  10.171  0.0045 -0.8462  0.0445
  500MPD2    C3 7484   2.346   4.376  10.204  0.1742 -0.0330 -0.2072
  500MPD2    C4 7485   2.309   4.414  10.330 -0.1837 -0.7672 -0.3935
  500MPD2    C5 7486   2.401   4.430  10.424 -0.5484  0.0252  0.5063
  500MPD2     H 7487   2.522   4.316  10.075  1.7559  3.4316 -0.5384
  500MPD2    H1 7488   2.203   4.439  10.339 -0.5131 -2.3167  0.0669
  500MPD2    H2 7489   2.598   4.388  10.486 -1.0482 -1.1063  0.6711
  500MPD2    H3 7490   2.364   4.474  10.516  2.7769  3.3175  0.2548
  500MPD2     N 7491   2.234   4.360  10.113  0.2132 -0.3283  0.0018
  500MPD2    H5 7492   2.140   4.378  10.146  0.4721 -0.5391  0.8532
  500MPD2    N1 7493   2.698   4.292  10.269  0.2848 -0.5418  0.0530
  500MPD2    H7 7494   2.727   4.293  10.171 -0.4104 -1.7117 -0.1636
  501TMC3    C1 7495   2.914   4.221  10.334 -0.9845  0.0600  0.0925
  501TMC3    C2 7496   2.984   4.302  10.254 -0.3050 -0.3065  0.4134
  501TMC3    C3 7497   3.113   4.272  10.216  0.2544  0.4767 -0.0626
  501TMC3    C4 7498   2.970   4.115  10.392  0.1648 -0.0143  0.0392
  501TMC3    C5 7499   3.088   4.085  10.350  0.2675  0.0748  0.6236
  501TMC3    C6 7500   3.156   4.148  10.253  0.3105  0.2152  0.7481
  501TMC3     C 7501   2.781   4.248  10.371  0.2031  0.1496 -0.1314
  501TMC3     O 7502   2.742   4.200  10.476 -0.2879  0.3683  0.2006
  501TMC3     H 7503   2.949   4.401  10.229 -1.7556 -0.3012  2.4359
  501TMC3    H1 7504   2.916   4.067  10.473 -1.7021  1.0122 -0.5891
  501TMC3    H2 7505   3.251   4.111  10.216  0.6856 -0.4861  2.4262
  501TMC3    C7 7506   3.164   4.038  10.462  0.3585  0.7629 -0.7289
  501TMC3    C8 7507   3.216   4.367  10.237  0.0627 -0.2805 -0.3565
  501TMC3    O1 7508   3.118   3.945  10.525  0.6678  0.3009 -0.5491
  501TMC3    O2 7509   3.314   4.324  10.294 -0.0729 -0.4499  0.5539
  502TMC3    C1 7510   2.714   2.317  14.854  0.5190  0.1015  0.4410
  502TMC3    C2 7511   2.689   2.444  14.810 -0.0178  0.2779  0.2803
  502TMC3    C3 7512   2.563   2.486  14.802 -0.5156 -0.2086  0.2212
  502TMC3    C4 7513   2.611   2.226  14.874  0.0315 -0.8849 -0.8747
  502TMC3    C5 7514   2.482   2.276  14.862 -0.2068 -0.1088  0.1706
  502TMC3    C6 7515   2.453   2.406  14.830  0.1823  0.4412  0.2861
  502TMC3     C 7516   2.827   2.323  14.950 -0.6169  0.4917 -0.0883
  502TMC3     O 7517   2.919   2.399  14.939  0.1390 -0.5014 -0.4631
  502TMC3     H 7518   2.772   2.510  14.789 -0.4425  0.5122 -0.6829
  502TMC3    H1 7519   2.632   2.123  14.897 -0.2111 -1.1943 -2.0272
  502TMC3    H2 7520   2.354   2.449  14.818  0.9006  1.2088 -2.8597
  502TMC3    C7 7521   2.424   2.264  14.996  0.8388 -0.2589 -0.0980
  502TMC3    C8 7522   2.556   2.624  14.847  0.0082  0.6015 -0.7561
  502TMC3    O1 7523   2.504   2.233  15.084  0.5861  0.6606  0.3339
  502TMC3    O2 7524   2.640   2.704  14.809  0.9036 -0.2519 -0.0029
  503MPD2     C 7525   0.035   3.700  16.807  0.7660  0.1804  0.6586
  503MPD2    C1 7526   0.092   3.768  16.915  0.3564 -0.4166 -0.5219
  503MPD2    C2 7527   0.161   3.697  17.011  0.6093 -0.6037 -0.0844
  503MPD2    C3 7528   0.196   3.566  16.994  0.1827  0.6411 -0.6301
  503MPD2    C4 7529   0.157   3.503  16.880  0.1466  0.0694  0.0207
  503MPD2    C5 7530   0.078   3.569  16.789  0.2497  0.7939  0.1916
  503MPD2     H 7531   0.197   3.753  17.097 -2.7521  4.0182 -1.7300
  503MPD2    H1 7532   0.192   3.404  16.855 -1.5105 -0.0881 -1.6594
  503MPD2    H2 7533   4.707   3.742  16.730  1.7311 -0.4868 -0.4981
  503MPD2    H3 7534   0.059   3.505  16.704  4.2961 -2.1469  1.4437
  503MPD2     N 7535   0.278   3.507  17.090  0.0686 -0.5506 -0.2158
  503MPD2    H5 7536   0.308   3.568  17.166  0.5303  0.2310 -1.0295
  503MPD2    N1 7537   0.058   3.908  16.938  0.3149 -0.1496 -0.0553
  503MPD2    H7 7538   0.088   3.942  17.029 -1.5768 -1.4200  1.0578
  504TMC3    C1 7539   0.437   3.376  17.179 -0.1081  0.3917 -0.1061
  504TMC3    C2 7540   0.394   3.373  17.309  0.0263  0.2175  0.4139
  504TMC3    C3 7541   0.470   3.304  17.406 -0.3450  1.1760  0.1906
  504TMC3    C4 7542   0.543   3.306  17.143  0.3187  0.8391 -0.0091
  504TMC3    C5 7543   0.596   3.222  17.231 -0.2177  0.3977  0.0806
  504TMC3    C6 7544   0.565   3.220  17.363 -0.7745  0.2516  0.0525
  504TMC3     C 7545   0.335   3.384  17.081  0.6761  0.4883 -0.2346
  504TMC3     O 7546   0.336   3.307  16.987  0.1659 -0.1480  0.4780
  504TMC3     H 7547   0.308   3.433  17.337  0.0191  0.5120 -0.2298
  504TMC3    H1 7548   0.556   3.292  17.036 -0.6187 -1.6284  0.1972
  504TMC3    H2 7549   0.624   3.159  17.431  0.3681 -0.0138 -1.1796
  504TMC3    C7 7550   0.717   3.160  17.181 -0.3900  0.0896 -0.4013
  504TMC3    C8 7551   0.392   3.268  17.525 -0.2687  0.4039  0.1081
  504TMC3    O1 7552   0.768   3.211  17.082  0.0333  0.4889  0.2630
  504TMC3    O2 7553   0.277   3.304  17.516  0.0034  0.2965 -0.0700
  505MPD2     C 7554   4.295   3.238   9.626 -0.3570 -0.0997  0.5227
  505MPD2    C1 7555   4.280   3.128   9.703  0.1195  0.4030 -0.5269
  505MPD2    C2 7556   4.353   3.115   9.822 -0.2752 -0.4095  0.8573
  505MPD2    C3 7557   4.434   3.221   9.868  0.0276 -0.0654  0.2505
  505MPD2    C4 7558   4.455   3.330   9.781  0.1142 -0.3878  0.1741
  505MPD2    C5 7559   4.386   3.334   9.663 -0.0257 -0.3219 -0.0978
  505MPD2     H 7560   4.339   3.023   9.878  0.5131 -0.0032  1.7221
  505MPD2    H1 7561   4.520   3.410   9.815 -0.7328  0.1027  0.6269
  505MPD2    H2 7562   4.251   3.247   9.528  0.7840 -0.4007 -0.0201
  505MPD2    H3 7563   4.393   3.421   9.599  0.5284  0.5370  1.1333
  505MPD2     N 7564   4.504   3.220   9.992 -0.3208 -0.2301  0.1052
  505MPD2    H5 7565   4.576   3.289  10.009 -0.6291  0.2472 -0.5031
  505MPD2    N1 7566   4.191   3.033   9.653  0.1625  0.0678 -0.5430
  505MPD2    H7 7567   4.156   3.045   9.558  1.2910  0.2991 -0.9389
  506TMC3    C1 7568   4.097   2.801   9.636 -0.1293  0.3080 -0.1047
  506TMC3    C2 7569   4.157   2.767   9.518 -0.2347  0.2109  0.1528
  506TMC3    C3 7570   4.142   2.634   9.476  0.7746  0.0048  0.4978
  506TMC3    C4 7571   4.046   2.708   9.714 -0.2339  0.6488  0.1025
  506TMC3    C5 7572   4.056   2.574   9.687  0.4490 -0.6512  0.0558
  506TMC3    C6 7573   4.088   2.537   9.558 -0.0547 -0.2883  0.1917
  506TMC3     C 7574   4.164   2.910   9.711  0.2307  1.0220 -0.0775
  506TMC3     O 7575   4.193   2.872   9.821  0.1160 -0.1088  0.1953
  506TMC3     H 7576   4.201   2.839   9.450 -1.0596  0.6391  0.0642
  506TMC3    H1 7577   4.003   2.741   9.808 -1.9758  0.0779 -0.4939
  506TMC3    H2 7578   4.100   2.433   9.528 -0.6740 -0.0453 -0.8528
  506TMC3    C7 7579   4.132   2.503   9.788  0.4399 -0.0282 -0.0385
  506TMC3    C8 7580   4.236   2.576   9.388 -0.2062 -0.2278 -0.2733
  506TMC3    O1 7581   4.152   2.380   9.778 -0.1252  0.0906 -0.2865
  506TMC3    O2 7582   4.206   2.465   9.349 -0.4655  0.4054 -0.2634
  507TMC3    C1 7583   1.001   2.857  14.658  0.1305  0.3667 -0.4454
  507TMC3    C2 7584   0.977   2.776  14.552 -0.1070 -0.3461  0.0473
  507TMC3    C3 7585   1.081   2.754  14.465  0.1118  0.2410  0.1699
  507TMC3    C4 7586   1.124   2.917  14.685 -1.2378  0.3600  0.2052
  507TMC3    C5 7587   1.215   2.898  14.587  0.8220  0.4839 -0.2789
  507TMC3    C6 7588   1.200   2.818  14.482  0.0363  0.0534 -0.0433
  507TMC3     C 7589   0.901   2.862  14.768 -0.1813  0.0904  0.4293
  507TMC3     O 7590   0.943   2.888  14.880  0.1792  0.6887  0.5963
  507TMC3     H 7591   0.884   2.724  14.533 -1.0315  0.8425  1.3279
  507TMC3    H1 7592   1.144   2.978  14.772 -2.0341 -0.6271  1.0902
  507TMC3    H2 7593   1.282   2.813  14.411  1.6150 -1.1617  1.8277
  507TMC3    C7 7594   1.279   3.022  14.539 -0.0634  0.0734 -0.4790
  507TMC3    C8 7595   1.030   2.774  14.329 -0.2152  0.3511  0.3020
  507TMC3    O1 7596   1.274   3.036  14.422 -0.4482 -0.5738  0.3605
  507TMC3    O2 7597   0.948   2.691  14.285 -0.1268  0.3639 -0.0936
  508MPD2     C 7598   2.137   0.392  15.907 -0.1971  0.1034 -0.3465
  508MPD2    C1 7599   2.127   0.493  16.006 -0.0846 -0.2429 -0.2152
  508MPD2    C2 7600   2.038   0.596  15.978  0.3849  0.4393 -0.3532
  508MPD2    C3 7601   1.963   0.599  15.858 -0.2978 -0.4601  0.1478
  508MPD2    C4 7602   1.979   0.501  15.767 -0.1730 -0.7854 -0.3559
  508MPD2    C5 7603   2.068   0.401  15.788  0.2742 -0.4850 -0.1489
  508MPD2     H 7604   2.031   0.688  16.035 -0.8377 -1.1516  2.0664
  508MPD2    H1 7605   1.920   0.488  15.677  3.5205 -1.3002 -2.6858
  508MPD2    H2 7606   2.200   0.305  15.923 -0.0993  0.3604  0.6495
  508MPD2    H3 7607   2.078   0.323  15.713  0.4768 -1.4811  0.9057
  508MPD2     N 7608   1.882   0.715  15.837 -0.1948 -0.2790  0.0454
  508MPD2    H5 7609   1.861   0.778  15.914  0.1069  2.5113 -2.1855
  508MPD2    N1 7610   2.206   0.497  16.124 -0.6132 -0.5669  0.4553
  508MPD2    H7 7611   2.189   0.572  16.191  2.6437  0.0240  0.6362
  509TMC3    C1 7612   1.734   1.086  15.594 -0.3275 -0.9756  0.0404
  509TMC3    C2 7613   1.789   1.171  15.685  0.0118  0.3052 -0.7918
  509TMC3    C3 7614   1.838   1.112  15.798  0.5027  0.3750  0.2343
  509TMC3    C4 7615   1.745   0.953  15.609 -0.6583 -0.4592  0.2550
  509TMC3    C5 7616   1.818   0.900  15.714 -0.6073  0.0384 -0.8519
  509TMC3    C6 7617   1.864   0.981  15.808 -0.4022  0.6209 -0.1964
  509TMC3     C 7618   1.671   1.135  15.471 -0.1716  0.9490  0.0939
  509TMC3     O 7619   1.569   1.070  15.441 -0.0386  0.3232 -0.1181
  509TMC3     H 7620   1.783   1.279  15.686  0.4506  0.3411 -2.0200
  509TMC3    H1 7621   1.685   0.887  15.548 -2.7405  1.9834 -0.3691
  509TMC3    H2 7622   1.940   0.954  15.880 -0.2104  0.2741 -0.5292
  509TMC3    C7 7623   1.824   0.756  15.722 -0.5015 -0.2090 -0.7538
  509TMC3    C8 7624   1.932   1.187  15.873 -0.1070 -0.2505  0.4873
  509TMC3    O1 7625   1.813   0.697  15.618  0.5111  0.0877  0.3412
  509TMC3    O2 7626   1.958   1.151  15.987 -0.0640 -0.3095 -0.2463
  510MPD2     C 7627   4.381   2.249  14.409  0.3399 -0.5888  0.2767
  510MPD2    C1 7628   4.439   2.218  14.533  1.1042  0.9456 -0.1540
  510MPD2    C2 7629   4.579   2.230  14.550  0.2494  0.2705 -0.5165
  510MPD2    C3 7630   4.651   2.275  14.446 -0.5533 -0.6917 -0.0966
  510MPD2    C4 7631   4.598   2.311  14.324  0.1636  0.7428  0.2887
  510MPD2    C5 7632   4.460   2.303  14.313 -0.4166 -0.3599 -0.1848
  510MPD2     H 7633   4.629   2.210  14.644 -0.0467  0.3929 -0.3358
  510MPD2    H1 7634   4.653   2.367  14.250 -0.6746  3.3964  1.6840
  510MPD2    H2 7635   4.276   2.239  14.385  0.5336  0.5301 -1.0550
  510MPD2    H3 7636   4.418   2.351  14.225  0.0433  0.1414 -0.1263
  510MPD2     N 7637   0.053   2.275  14.472  0.4354 -0.3495  0.3341
  510MPD2    H5 7638   0.083   2.228  14.557  0.1439 -3.4780 -1.2640
  510MPD2    N1 7639   4.357   2.169  14.633  0.2298 -0.0835  0.0347
  510MPD2    H7 7640   4.262   2.141  14.612 -0.1096  4.7378 -4.7895
  511TMC3    C1 7641   4.302   2.073  14.841 -0.1526  1.0587 -0.4797
  511TMC3    C2 7642   4.239   2.120  14.952 -0.0708  0.8647 -1.0840
  511TMC3    C3 7643   4.151   2.027  15.013  0.0749  0.7869  0.3804
  511TMC3    C4 7644   4.288   1.946  14.791  0.2996  0.2003 -0.9792
  511TMC3    C5 7645   4.222   1.855  14.872 -0.1788  0.4060 -0.4917
  511TMC3    C6 7646   4.140   1.892  14.975  0.5753  0.0765 -0.1289
  511TMC3     C 7647   4.392   2.159  14.768 -0.2781  0.8602  0.5512
  511TMC3     O 7648   4.465   2.235  14.835  0.0791 -0.0655  0.8425
  511TMC3     H 7649   4.257   2.221  14.989 -1.6719  1.2869 -1.4421
  511TMC3    H1 7650   4.368   1.914  14.725  1.1863 -0.3066  0.3432
  511TMC3    H2 7651   4.068   1.828  15.024  1.6821 -0.6698  0.5408
  511TMC3    C7 7652   4.210   1.723  14.811 -0.2299 -0.5292  0.2079
  511TMC3    C8 7653   4.096   2.062  15.138  0.3865 -0.3007 -0.5370
  511TMC3    O1 7654   4.265   1.709  14.701  0.0293  0.4622  0.3805
  511TMC3    O2 7655   4.159   2.136  15.204 -0.3917  0.2409 -0.0222
  512TMC3    C1 7656   3.431   1.565  13.000 -0.0402 -0.6497 -1.2026
  512TMC3    C2 7657   3.543   1.561  13.071 -0.3217 -0.0347 -0.1300
  512TMC3    C3 7658   3.586   1.437  13.120  0.1423 -0.6567  0.1804
  512TMC3    C4 7659   3.362   1.455  12.968 -0.1995  0.6801 -0.3223
  512TMC3    C5 7660   3.415   1.333  13.004 -0.1725 -0.4689 -0.9134
  512TMC3    C6 7661   3.520   1.323  13.085  0.5720  0.4813  1.0055
  512TMC3     C 7662   3.380   1.696  12.968  0.0995  0.6069  0.2140
  512TMC3     O 7663   3.264   1.700  12.929 -0.2430  0.1222  0.0911
  512TMC3     H 7664   3.590   1.654  13.104  1.1614 -0.6913 -0.3827
  512TMC3    H1 7665   3.275   1.459  12.903 -0.3370 -1.4526 -0.2814
  512TMC3    H2 7666   3.541   1.225  13.128 -0.2080 -0.3341 -0.4619
  512TMC3    C7 7667   3.346   1.221  12.954 -0.0108 -0.2595 -0.0027
  512TMC3    C8 7668   3.657   1.425  13.243 -0.3970  0.3852 -0.9805
  512TMC3    O1 7669   3.244   1.240  12.890  0.1201  0.0718  0.3088
  512TMC3    O2 7670   3.633   1.329  13.316  0.0232  0.0842  1.0495
  513MPD2     C 7671   0.113   1.129  13.057  0.1835 -0.5994 -0.3662
  513MPD2    C1 7672   0.248   1.114  13.036 -0.0682 -0.0805  0.0190
  513MPD2    C2 7673   0.328   1.214  13.090 -0.2559 -0.0436  0.0107
  513MPD2    C3 7674   0.277   1.309  13.185 -0.2912  0.1737 -0.8862
  513MPD2    C4 7675   0.141   1.312  13.210 -0.2692 -0.3942 -0.5652
  513MPD2    C5 7676   0.068   1.228  13.139 -0.7946  0.3264  0.1318
  513MPD2     H 7677   0.433   1.212  13.064  0.2672  2.2556  2.0324
  513MPD2    H1 7678   0.090   1.388  13.268  1.7985  0.3916  0.1806
  513MPD2    H2 7679   0.046   1.058  13.009  0.8727 -0.4357 -1.5567
  513MPD2    H3 7680   4.696   1.245  13.148 -1.1326  0.3271 -4.0642
  513MPD2     N 7681   0.366   1.388  13.259 -0.4394 -0.3176  1.2195
  513MPD2    H5 7682   0.462   1.374  13.228 -0.9924 -0.1853 -0.4868
  513MPD2    N1 7683   0.311   1.015  12.956  0.7671 -0.1128  0.1698
  513MPD2    H7 7684   0.412   1.018  12.951  0.6725 -1.1231 -2.1350
  514TMC3    C1 7685   0.372   0.857  12.801 -0.4975 -0.7638  0.3014
  514TMC3    C2 7686   0.370   0.882  12.671  0.7226  0.4200 -0.9113
  514TMC3    C3 7687   0.487   0.892  12.599  0.3315  0.1747 -0.2285
  514TMC3    C4 7688   0.492   0.864  12.864  0.8431  0.5663  0.1680
  514TMC3    C5 7689   0.603   0.905  12.791  0.6288 -0.5473 -0.3362
  514TMC3    C6 7690   0.607   0.906  12.660  0.7991 -0.0125  0.2493
  514TMC3     C 7691   0.258   0.924  12.871 -0.3920  0.1886 -0.6063
  514TMC3     O 7692   0.144   0.909  12.839 -0.3457  0.0488 -0.0492
  514TMC3     H 7693   0.272   0.902  12.627 -0.8568 -3.4893  0.8276
  514TMC3    H1 7694   0.500   0.838  12.969 -0.1137 -1.1091 -0.1629
  514TMC3    H2 7695   0.703   0.909  12.609  1.8745  2.1836  2.3938
  514TMC3    C7 7696   0.661   1.018  12.855 -1.1867 -0.1029 -0.3534
  514TMC3    C8 7697   0.467   0.876  12.459 -0.3008  0.1835  0.7939
  514TMC3    O1 7698   0.607   1.044  12.963 -0.2488 -0.0542  0.1863
  514TMC3    O2 7699   0.359   0.819  12.439  0.4576 -0.3339  1.1974
  515MPD2     C 7700   3.665   3.477  14.257  0.4781  0.1306 -0.2115
  515MPD2    C1 7701   3.615   3.429  14.376 -0.2210 -0.2673  1.0772
  515MPD2    C2 7702   3.681   3.461  14.490  1.1334 -0.1966 -0.0133
  515MPD2    C3 7703   3.807   3.531  14.488  0.6595  0.4984 -0.1047
  515MPD2    C4 7704   3.862   3.561  14.359 -0.4412 -0.0979  0.0802
  515MPD2    C5 7705   3.791   3.536  14.249  0.0021 -0.0017  0.4783
  515MPD2     H 7706   3.638   3.420  14.581 -0.3854  2.3738  0.4302
  515MPD2    H1 7707   3.959   3.608  14.348 -0.4038 -0.5256 -1.4613
  515MPD2    H2 7708   3.616   3.450  14.164  2.8598 -0.1634 -1.3870
  515MPD2    H3 7709   3.824   3.572  14.152 -0.2476 -0.9604  0.0379
  515MPD2     N 7710   3.884   3.567  14.600  0.0830 -0.1516  0.2334
  515MPD2    H5 7711   3.976   3.606  14.581 -0.7587  1.8137  0.1602
  515MPD2    N1 7712   3.488   3.371  14.395 -0.1732 -0.4172 -0.5346
  515MPD2    H7 7713   3.463   3.343  14.489  2.7301  0.7740  0.5751
  516TMC3    C1 7714   3.276   3.301  14.344  0.0785  0.3407  0.8034
  516TMC3    C2 7715   3.169   3.370  14.285  0.3386 -0.0478 -0.4196
  516TMC3    C3 7716   3.066   3.301  14.246  0.3809 -0.0798  0.0879
  516TMC3    C4 7717   3.268   3.171  14.383 -0.0815  0.1238  0.0604
  516TMC3    C5 7718   3.158   3.096  14.339  0.2277 -0.9497  0.1667
  516TMC3    C6 7719   3.055   3.162  14.277 -0.4323  0.2081 -0.0845
  516TMC3     C 7720   3.404   3.342  14.294 -0.2143 -0.1321 -0.0506
  516TMC3     O 7721   3.400   3.365  14.176  0.0123  0.0923  0.4841
  516TMC3     H 7722   3.184   3.474  14.257 -0.3697 -0.4615 -2.3144
  516TMC3    H1 7723   3.356   3.126  14.428 -0.9309  0.5389  2.1307
  516TMC3    H2 7724   2.973   3.107  14.232 -0.9609  0.0302  1.0864
  516TMC3    C7 7725   3.157   2.953  14.366 -0.5776 -0.1333  0.3884
  516TMC3    C8 7726   2.952   3.357  14.165  0.2149  0.0474 -0.0749
  516TMC3    O1 7727   3.263   2.898  14.391 -0.1581  0.7579 -0.1855
  516TMC3    O2 7728   2.843   3.299  14.156  0.2811  0.7056 -0.6510
  517MPD2     C 7729   2.996   4.606   0.014  0.1019 -0.3757  0.0141
  517MPD2    C1 7730   3.132   4.619   0.037 -0.7552  0.1084 -0.0981
  517MPD2    C2 7731   3.176   4.725   0.115  0.7268 -0.0537 -0.2399
  517MPD2    C3 7732   3.087   0.088   0.147  0.0042  1.0930  0.2536
  517MPD2    C4 7733   2.962   0.087   0.098  0.2971 -0.0097  1.0448
  517MPD2    C5 7734   2.913   4.711   0.039  0.0243 -0.0630 -0.1657
  517MPD2     H 7735   3.282   4.730   0.138  0.4903  1.9450  0.3953
  517MPD2    H1 7736   2.897   0.172   0.112  1.8576  0.9645  2.3159
  517MPD2    H2 7737   2.947   4.518  17.711  2.2249 -1.0403 -1.0981
  517MPD2    H3 7738   2.807   4.706   0.016  0.0751 -0.9759 -0.1697
  517MPD2     N 7739   3.121   0.207   0.222  0.4708  0.1042  0.2914
  517MPD2    H5 7740   3.042   0.269   0.238  1.0558  0.8532  0.2490
  517MPD2    N1 7741   3.222   4.510  17.734  0.5822  0.3347 -0.0051
  517MPD2    H7 7742   3.320   4.515   0.020  0.6246 -1.5581  0.2047
  518TMC3    C1 7743   3.291   4.311  17.608 -0.1362  0.6463 -0.7463
  518TMC3    C2 7744   3.258   4.182  17.571 -0.8301 -0.4679  0.2074
  518TMC3    C3 7745   3.351   4.114  17.498  0.0015  0.3078 -0.6185
  518TMC3    C4 7746   3.396   4.375  17.563 -0.1568  0.5382 -0.1456
  518TMC3    C5 7747   3.473   4.312  17.467  0.2820  0.2223 -0.3186
  518TMC3    C6 7748   3.450   4.185  17.438  0.4211 -0.6531 -0.2259
  518TMC3     C 7749   3.182   4.396  17.657  0.5227 -0.6407  0.7890
  518TMC3     O 7750   3.070   4.356  17.623  0.1460 -0.4064  0.2775
  518TMC3     H 7751   3.163   4.133  17.589 -1.2183  0.2537  0.1377
  518TMC3    H1 7752   3.429   4.476  17.584  0.9377  0.0960  0.2754
  518TMC3    H2 7753   3.525   4.124  17.390  1.2083  1.5659 -1.8327
  518TMC3    C7 7754   3.613   4.353  17.472 -0.0712  0.6513 -0.2472
  518TMC3    C8 7755   3.369   3.973  17.507 -0.0433  0.1933 -0.6264
  518TMC3    O1 7756   3.642   4.429  17.565 -0.2824  0.6079  0.0793
  518TMC3    O2 7757   3.420   3.922  17.405  0.0268  0.3345  0.0897
  519MPD2     C 7758   4.715   3.374  14.080  0.9121 -0.2122 -0.3868
  519MPD2    C1 7759   4.648   3.262  14.023  0.8663  0.0836 -0.1830
  519MPD2    C2 7760   4.720   3.148  13.985  0.3933  0.8343  0.1740
  519MPD2    C3 7761   0.123   3.138  14.024  0.0565 -0.1331  0.0648
  519MPD2    C4 7762   0.184   3.249  14.079  0.1123 -0.1498 -0.2213
  519MPD2    C5 7763   0.115   3.362  14.104  0.0373 -0.1076 -0.3227
  519MPD2     H 7764   4.671   3.067  13.931  0.9236  0.9969 -0.5560
  519MPD2    H1 7765   0.290   3.255  14.100  0.0354 -1.0559  0.4422
  519MPD2    H2 7766   4.667   3.471  14.092  0.1189 -0.4712 -1.4596
  519MPD2    H3 7767   0.171   3.447  14.143 -0.1202 -1.2025  2.3153
  519MPD2     N 7768   0.203   3.033  13.987 -0.4226 -0.6071  0.5405
  519MPD2    H5 7769   0.301   3.059  13.982 -0.6333  0.3821  1.6943
  519MPD2    N1 7770   4.512   3.283  13.983  0.3698  0.5524 -0.4479
  519MPD2    H7 7771   4.476   3.378  13.985 -0.3424  0.2868 -1.0840
  520TMC3    C1 7772   0.256   2.825  13.889  0.2474  0.3463  0.3949
  520TMC3    C2 7773   0.209   2.716  13.820 -0.2860  0.7050 -0.2575
  520TMC3    C3 7774   0.277   2.599  13.814  0.7680  0.1337  0.5921
  520TMC3    C4 7775   0.376   2.821  13.952 -0.1927  0.4494 -0.3514
  520TMC3    C5 7776   0.445   2.699  13.948  0.4820 -0.0540 -0.3040
  520TMC3    C6 7777   0.400   2.590  13.882 -0.0996 -0.2657 -0.2529
  520TMC3     C 7778   0.151   2.910  13.942  0.4266  0.1064 -0.4069
  520TMC3     O 7779   0.041   2.868  13.907 -0.4439  0.4779  0.3416
  520TMC3     H 7780   0.121   2.729  13.758 -0.0607  3.4393 -0.0194
  520TMC3    H1 7781   0.424   2.900  14.009  1.7671 -1.2696  0.3998
  520TMC3    H2 7782   0.463   2.502  13.872  1.2687  0.7452 -0.6018
  520TMC3    C7 7783   0.588   2.693  13.965  0.3947  0.2829  0.4687
  520TMC3    C8 7784   0.233   2.490  13.719 -0.0024 -0.6121 -0.2924
  520TMC3    O1 7785   0.631   2.736  14.070  0.1792  0.4221  0.3195
  520TMC3    O2 7786   0.328   2.410  13.699  0.0610 -0.3565 -0.1997
  521MPD2     C 7787   1.487   1.410  17.634  1.2165 -0.0914  0.3686
  521MPD2    C1 7788   1.399   1.340  17.551  0.0673 -0.5687  0.0058
  521MPD2    C2 7789   1.443   1.229  17.473 -0.3920  0.5100 -0.5429
  521MPD2    C3 7790   1.576   1.190  17.472 -0.0511 -0.1953 -0.1483
  521MPD2    C4 7791   1.657   1.260  17.559 -0.5215 -0.5400 -0.8496
  521MPD2    C5 7792   1.621   1.365  17.642 -0.4891 -0.1483 -0.3559
  521MPD2     H 7793   1.379   1.181  17.400  0.2438  1.8086 -1.9384
  521MPD2    H1 7794   1.761   1.233  17.570 -0.5345 -0.6126 -0.8972
  521MPD2    H2 7795   1.449   1.483  17.704 -0.4553 -0.0404 -0.5699
  521MPD2    H3 7796   1.693   1.418  17.703  0.6532 -0.0143 -1.8056
  521MPD2     N 7797   1.620   1.083  17.391 -0.3270 -0.1130  0.2983
  521MPD2    H5 7798   1.562   1.048  17.316  0.3878 -0.0623 -0.2858
  521MPD2    N1 7799   1.259   1.373  17.565  0.2114  0.6022  0.0179
  521MPD2    H7 7800   1.233   1.436  17.640  0.7413  2.6727 -1.5478
  522TMC3    C1 7801   1.780   0.921  17.297  0.2513  0.1738 -0.6200
  522TMC3    C2 7802   1.912   0.893  17.285 -0.8210  0.0958  0.3240
  522TMC3    C3 7803   1.954   0.819  17.180 -0.7562 -0.4764 -0.0477
  522TMC3    C4 7804   1.697   0.896  17.192  0.0995  0.0933 -0.3280
  522TMC3    C5 7805   1.742   0.821  17.090  1.0419 -0.6860 -1.0523
  522TMC3    C6 7806   1.873   0.784  17.079 -0.4559  0.3528 -0.0404
  522TMC3     C 7807   1.748   1.023  17.397 -0.0185  0.9820 -0.3456
  522TMC3     O 7808   1.838   1.039  17.478 -0.0077  0.1872  0.0636
  522TMC3     H 7809   1.993   0.927  17.349 -0.3359 -0.6599  0.1238
  522TMC3    H1 7810   1.592   0.919  17.197  0.4454  1.1698  1.8740
  522TMC3    H2 7811   1.896   0.722  16.993 -1.8751 -1.3236  0.7802
  522TMC3    C7 7812   1.646   0.765  16.998  0.1086 -0.5742  0.3049
  522TMC3    C8 7813   2.096   0.782  17.177 -0.4526  0.1774  0.1184
  522TMC3    O1 7814   1.665   0.648  16.979  0.1285 -0.1089 -0.2309
  522TMC3    O2 7815   2.157   0.788  17.283 -0.5162  0.3526 -0.0566
  523MPD2     C 7816   3.896   1.204  10.537  0.5238 -0.0782 -0.8457
  523MPD2    C1 7817   3.870   1.116  10.431 -0.3663 -0.5142  0.3546
  523MPD2    C2 7818   3.854   1.164  10.300  0.6908  0.4914  0.4875
  523MPD2    C3 7819   3.886   1.303  10.280 -0.1185 -0.0430 -0.6483
  523MPD2    C4 7820   3.905   1.385  10.389  0.0969  0.1450  0.0022
  523MPD2    C5 7821   3.919   1.338  10.514 -0.1491 -0.1296  0.7439
  523MPD2     H 7822   3.833   1.092  10.222 -0.2584  1.1202  0.1702
  523MPD2    H1 7823   3.949   1.484  10.381 -1.5021  0.8190 -0.3969
  523MPD2    H2 7824   3.893   1.166  10.638 -0.5847  0.9741 -0.4829
  523MPD2    H3 7825   3.957   1.399  10.595  3.2477 -0.3154 -0.7194
  523MPD2     N 7826   3.896   1.369  10.153  0.9313  0.2784 -0.0617
  523MPD2    H5 7827   3.923   1.467  10.157  1.0942  0.2611 -0.6896
  523MPD2    N1 7828   3.845   0.981  10.457 -0.2604 -0.4569 -0.4809
  523MPD2    H7 7829   3.881   0.949  10.546 -0.0891 -0.7052 -0.6365
  524TMC3    C1 7830   3.921   1.385   9.920  0.3767  0.8897 -0.5147
  524TMC3    C2 7831   3.970   1.322   9.812  0.2548 -0.1009  0.1295
  524TMC3    C3 7832   3.971   1.389   9.693  0.3608 -0.5784  0.3696
  524TMC3    C4 7833   3.875   1.514   9.906 -0.5162  0.0512  0.0967
  524TMC3    C5 7834   3.869   1.573   9.783 -0.3013  0.2265  0.4359
  524TMC3    C6 7835   3.915   1.509   9.670  0.3470  0.0857  0.7486
  524TMC3     C 7836   3.886   1.302  10.033  0.8943 -0.9755 -0.1435
  524TMC3     O 7837   3.870   1.184  10.009  0.0702 -0.2076 -0.0784
  524TMC3     H 7838   4.029   1.234   9.832 -0.2545  0.0380  2.2189
  524TMC3    H1 7839   3.849   1.566   9.997 -1.0065 -0.9353  0.5213
  524TMC3    H2 7840   3.900   1.547   9.570 -1.0851 -0.4589  0.7553
  524TMC3    C7 7841   3.854   1.716   9.784  0.0113  1.1828 -0.8480
  524TMC3    C8 7842   3.973   1.313   9.573 -0.0809  0.0654 -0.8080
  524TMC3    O1 7843   3.885   1.773   9.684  0.4860  0.8125  0.2991
  524TMC3    O2 7844   3.932   1.366   9.473 -0.1845  0.0056  0.0265
  525MPD2     C 7845   1.556   2.678  14.326 -0.5187 -0.3643  0.2232
  525MPD2    C1 7846   1.662   2.703  14.398 -0.4527  0.5941  0.2492
  525MPD2    C2 7847   1.738   2.815  14.384  0.1735 -0.1244 -0.7019
  525MPD2    C3 7848   1.680   2.928  14.328  0.0173  0.4288  0.2111
  525MPD2    C4 7849   1.565   2.908  14.254 -0.7750 -0.0422  0.3307
  525MPD2    C5 7850   1.507   2.785  14.252  0.4587  0.6916  0.3478
  525MPD2     H 7851   1.833   2.832  14.434  0.3825  1.2463 -1.5644
  525MPD2    H1 7852   1.508   2.985  14.204  1.2364 -0.0208 -1.9419
  525MPD2    H2 7853   1.490   2.596  14.351  0.8680 -1.0641  1.6150
  525MPD2    H3 7854   1.414   2.774  14.197 -0.1671 -0.3518  1.6233
  525MPD2     N 7855   1.735   3.059  14.334 -0.3031  0.1424  0.6877
  525MPD2    H5 7856   1.693   3.137  14.284  1.2795 -0.1930 -1.1540
  525MPD2    N1 7857   1.712   2.609  14.489  0.5191  0.4646 -0.3160
  525MPD2    H7 7858   1.801   2.638  14.528  0.5048  0.4867 -0.3006
  526TMC3    C1 7859   1.721   2.420  14.616  0.2352 -0.4021  0.4663
  526TMC3    C2 7860   1.662   2.379  14.736  0.7412 -0.1698  0.7402
  526TMC3    C3 7861   1.746   2.325  14.834 -0.4622 -0.1488  0.1842
  526TMC3    C4 7862   1.857   2.417  14.596  0.2572 -0.3019 -0.1911
  526TMC3    C5 7863   1.936   2.354  14.691 -0.0359  0.7458  0.3905
  526TMC3    C6 7864   1.882   2.324  14.816  0.3873  1.3408  0.7891
  526TMC3     C 7865   1.640   2.501  14.532  0.0882  0.0597 -0.5317
  526TMC3     O 7866   1.517   2.496  14.539 -0.0323  0.7115  0.2943
  526TMC3     H 7867   1.554   2.382  14.749  0.5619 -1.3284 -0.5042
  526TMC3    H1 7868   1.898   2.450  14.502 -0.2772  0.4926 -0.1448
  526TMC3    H2 7869   1.949   2.293  14.895 -0.2445  1.3430  1.3262
  526TMC3    C7 7870   2.071   2.313  14.663 -0.1772  0.2394  0.0602
  526TMC3    C8 7871   1.707   2.338  14.980  0.1736 -0.0080  0.1367
  526TMC3    O1 7872   2.151   2.322  14.753 -0.4838  0.3088  0.2704
  526TMC3    O2 7873   1.796   2.336  15.064 -0.1058  0.3329  0.2729
  527MPD2     C 7874   0.399   1.221   1.501 -0.2258 -0.6088 -0.4858
  527MPD2    C1 7875   0.296   1.135   1.483  0.2628 -0.5580 -0.2848
  527MPD2    C2 7876   0.316   1.031   1.395 -0.0303 -0.4530 -0.1063
  527MPD2    C3 7877   0.435   1.003   1.333  0.5265 -0.5470  0.0527
  527MPD2    C4 7878   0.533   1.095   1.345 -0.3965 -0.4477 -0.2626
  527MPD2    C5 7879   0.516   1.198   1.434  0.5253  0.4087  0.6007
  527MPD2     H 7880   0.229   0.966   1.386 -2.6078  3.2082 -1.3553
  527MPD2    H1 7881   0.637   1.078   1.319 -0.3892 -1.4704  0.3931
  527MPD2    H2 7882   0.388   1.317   1.550 -0.6057 -0.7560 -0.2837
  527MPD2    H3 7883   0.606   1.259   1.434 -0.0625  1.2956 -0.5222
  527MPD2     N 7884   0.453   0.877   1.262  0.0267  0.3705 -0.0072
  527MPD2    H5 7885   0.376   0.814   1.243 -1.6254  2.7260 -1.0804
  527MPD2    N1 7886   0.163   1.157   1.532  0.1637  0.0553 -0.4338
  527MPD2    H7 7887   0.105   1.074   1.531  0.3125 -0.0471 -0.5487
  528TMC3    C1 7888   4.708   1.268   1.619 -0.2810  0.5456 -0.6056
  528TMC3    C2 7889   4.629   1.187   1.545 -0.8220  0.5373  0.2623
  528TMC3    C3 7890   4.494   1.231   1.531  0.0922 -0.6056  0.6214
  528TMC3    C4 7891   4.662   1.374   1.696  0.3618  0.2725 -0.5633
  528TMC3    C5 7892   4.528   1.403   1.694 -0.4762 -0.1115  0.4150
  528TMC3    C6 7893   4.446   1.342   1.604 -0.4186  0.2463  0.1563
  528TMC3     C 7894   0.112   1.269   1.586  0.4196 -0.1551  0.4753
  528TMC3     O 7895   0.167   1.377   1.603  0.1029 -0.5643  0.1114
  528TMC3     H 7896   4.658   1.106   1.479 -0.4788  1.4345 -0.6950
  528TMC3    H1 7897   4.730   1.434   1.755 -0.2052  1.1844 -0.8400
  528TMC3    H2 7898   4.341   1.369   1.600 -0.8211 -1.4367 -0.5738
  528TMC3    C7 7899   4.482   1.509   1.776 -0.2308 -0.5302 -0.2775
  528TMC3    C8 7900   4.412   1.180   1.420 -0.2060 -0.2373  0.5632
  528TMC3    O1 7901   4.369   1.539   1.761 -0.4403  0.5031  0.1134
  528TMC3    O2 7902   4.480   1.128   1.336  0.0428  0.1414 -0.5072
  529MPD2     C 7903   1.780   3.917   0.805 -0.2844 -1.2389 -0.3361
  529MPD2    C1 7904   1.865   3.824   0.747 -0.0506  0.3440  0.3563
  529MPD2    C2 7905   1.897   3.830   0.614 -0.6586  0.1653  0.0489
  529MPD2    C3 7906   1.851   3.937   0.536  0.5649 -0.0272 -0.3626
  529MPD2    C4 7907   1.757   4.021   0.593 -0.0078  0.5798 -1.3620
  529MPD2    C5 7908   1.730   4.014   0.727 -0.1163  0.0512  0.2931
  529MPD2     H 7909   1.980   3.767   0.587 -0.5414  0.7026 -0.8640
  529MPD2    H1 7910   1.708   4.100   0.538 -2.1385  0.7078  0.7429
  529MPD2    H2 7911   1.738   3.906   0.905  2.6399 -2.5496  0.7562
  529MPD2    H3 7912   1.665   4.090   0.768 -1.6899  0.1936 -2.4437
  529MPD2     N 7913   1.862   3.941   0.395 -0.3229 -0.0845  0.2541
  529MPD2    H5 7914   1.819   4.021   0.349  0.2413 -1.3878 -2.5067
  529MPD2    N1 7915   1.925   3.713   0.810 -0.3369  0.3360 -0.3645
  529MPD2    H7 7916   1.971   3.642   0.753  1.7055  0.1951  1.4551
  530TMC3    C1 7917   1.966   3.563   0.977 -1.1766  0.4253  0.6799
  530TMC3    C2 7918   2.030   3.551   1.093  0.6777  0.1839 -0.1829
  530TMC3    C3 7919   2.092   3.436   1.116 -0.1602  0.5406  0.3621
  530TMC3    C4 7920   1.965   3.464   0.881  0.8089  0.6087  0.5581
  530TMC3    C5 7921   2.020   3.345   0.919 -0.0466 -0.2006  0.1857
  530TMC3    C6 7922   2.091   3.325   1.033  0.6328  0.7289  0.1441
  530TMC3     C 7923   1.913   3.690   0.949 -0.3678 -0.0237  0.1703
  530TMC3     O 7924   1.878   3.756   1.044 -0.2576 -0.0302 -0.2144
  530TMC3     H 7925   2.058   3.635   1.154  1.6437 -0.3639  0.1159
  530TMC3    H1 7926   1.913   3.466   0.786 -0.3531  0.4495  1.1880
  530TMC3    H2 7927   2.144   3.235   1.062  0.2856  0.6039  0.3945
  530TMC3    C7 7928   1.993   3.223   0.843  0.4594 -0.0374 -0.5960
  530TMC3    C8 7929   2.159   3.442   1.241  0.5794 -0.1965  0.3831
  530TMC3    O1 7930   1.985   3.230   0.722 -0.0350 -0.1244  0.2021
  530TMC3    O2 7931   2.122   3.521   1.322  0.1576 -0.2273 -0.2546
  531MPD2     C 7932   0.943   1.425  12.893 -0.3949  1.0996  0.2272
  531MPD2    C1 7933   0.837   1.388  12.965  0.0145  0.7481  0.4084
  531MPD2    C2 7934   0.773   1.273  12.930  0.5191  0.0798 -0.6501
  531MPD2    C3 7935   0.815   1.207  12.820 -0.3933  0.5974  0.1138
  531MPD2    C4 7936   0.916   1.256  12.746 -0.4146 -0.0721 -0.3192
  531MPD2    C5 7937   0.985   1.365  12.785  0.0275  0.6139 -0.3165
  531MPD2     H 7938   0.695   1.238  12.996 -0.2862  1.6971 -0.7309
  531MPD2    H1 7939   0.953   1.203  12.659 -1.7550  0.8556 -1.4623
  531MPD2    H2 7940   1.000   1.512  12.924  4.5758 -1.2889 -2.3425
  531MPD2    H3 7941   1.074   1.377  12.724  0.1905  0.8268 -0.0367
  531MPD2     N 7942   0.744   1.091  12.776  0.5195 -1.0648 -0.4674
  531MPD2    H5 7943   0.778   1.042  12.694  0.4943 -2.0583  0.1151
  531MPD2    N1 7944   0.792   1.476  13.069  0.4158 -0.6962 -0.3361
  531MPD2    H7 7945   0.838   1.559  13.106  3.1424 -2.2070 -0.3517
  532TMC3    C1 7946   0.655   1.542  13.252 -0.0106  0.0872  0.5645
  532TMC3    C2 7947   0.524   1.569  13.253 -0.6077 -0.4904 -0.4144
  532TMC3    C3 7948   0.449   1.555  13.366 -0.1335 -0.1174 -0.0737
  532TMC3    C4 7949   0.722   1.517  13.367  0.2910  0.4661 -0.6504
  532TMC3    C5 7950   0.650   1.532  13.488  0.1789 -0.5409  0.1373
  532TMC3    C6 7951   0.512   1.552  13.483  0.0495  0.2079 -0.0549
  532TMC3     C 7952   0.684   1.443  13.153  0.3350  0.3719 -0.0483
  532TMC3     O 7953   0.605   1.352  13.151  0.2604 -0.2356  0.2469
  532TMC3     H 7954   0.480   1.576  13.155 -0.3153  0.0106 -0.5107
  532TMC3    H1 7955   0.823   1.483  13.352  0.5910  1.2763 -0.4539
  532TMC3    H2 7956   0.463   1.541  13.579 -0.2960 -0.9469 -0.3566
  532TMC3    C7 7957   0.709   1.505  13.616  0.6124  0.6814 -0.7121
  532TMC3    C8 7958   0.337   1.479  13.354 -0.2919 -0.8745 -0.0659
  532TMC3    O1 7959   0.656   1.541  13.721  0.3111  0.3511 -0.0073
  532TMC3    O2 7960   0.244   1.488  13.432  0.5587  0.1115 -0.7411
  533TMC3    C1 7961   1.850   3.242  14.419  0.3033  0.3947 -0.3128
  533TMC3    C2 7962   1.974   3.298  14.429 -0.1622 -0.2024 -0.9827
  533TMC3    C3 7963   1.998   3.384  14.527  0.2462 -0.2475  0.4873
  533TMC3    C4 7964   1.742   3.295  14.498 -0.3091  0.1053  0.9581
  533TMC3    C5 7965   1.771   3.383  14.598  0.2686 -0.7294  0.3435
  533TMC3    C6 7966   1.900   3.430  14.609 -0.1830 -0.3579  0.2250
  533TMC3     C 7967   1.847   3.100  14.401 -0.2115 -0.1904  0.5387
  533TMC3     O 7968   1.926   3.038  14.470  0.1634 -0.0504  0.1798
  533TMC3     H 7969   2.050   3.243  14.374 -0.7892 -0.8471 -1.2063
  533TMC3    H1 7970   1.647   3.244  14.485  0.1085 -0.6994  1.0475
  533TMC3    H2 7971   1.927   3.496  14.691  2.5797 -0.6124 -0.4732
  533TMC3    C7 7972   1.721   3.320  14.716  0.2635 -0.5898  0.1525
  533TMC3    C8 7973   2.134   3.420  14.564  0.3113  0.2275  0.2246
  533TMC3    O1 7974   1.690   3.202  14.713  0.2235 -0.2808 -0.2404
  533TMC3    O2 7975   2.154   3.486  14.668 -0.2688  0.2093 -0.0703
  534MPD2     C 7976   4.570   3.753   1.413  0.2515  0.2617 -1.0031
  534MPD2    C1 7977   4.536   3.885   1.442  0.0256 -0.2717  0.1961
  534MPD2    C2 7978   4.404   3.926   1.445  0.2474  0.2168  0.4957
  534MPD2    C3 7979   4.306   3.837   1.412 -0.7753 -0.4858  0.2210
  534MPD2    C4 7980   4.345   3.710   1.388 -0.0981 -0.1998  0.2533
  534MPD2    C5 7981   4.473   3.668   1.386  0.0390  0.1588 -1.1755
  534MPD2     H 7982   4.385   4.031   1.458  2.9448  0.4333  2.9062
  534MPD2    H1 7983   4.270   3.632   1.387 -1.0220  0.7163 -1.9131
  534MPD2    H2 7984   4.672   3.718   1.408  0.1047 -0.6038  2.8706
  534MPD2    H3 7985   4.491   3.564   1.362  0.6306 -0.4271  1.8457
  534MPD2     N 7986   4.170   3.861   1.411 -0.3915 -0.3258  0.0759
  534MPD2    H5 7987   4.111   3.784   1.383 -1.3159  0.0337  1.0383
  534MPD2    N1 7988   4.633   3.983   1.471  0.4446  0.0431 -0.8596
  534MPD2    H7 7989   4.609   4.078   1.496 -0.9341 -0.3022 -0.8334
  535TMC3    C1 7990   3.973   3.974   1.371  0.0747 -0.1319  0.7447
  535TMC3    C2 7991   3.888   3.871   1.403  0.2672 -0.4637 -0.5556
  535TMC3    C3 7992   3.784   3.838   1.311 -0.6915  0.0570  0.0185
  535TMC3    C4 7993   3.943   4.061   1.263  0.1602 -0.1882  0.3459
  535TMC3    C5 7994   3.837   4.020   1.181 -0.5430 -0.3354  0.3237
  535TMC3    C6 7995   3.759   3.914   1.201  0.2083  0.4125  0.1791
  535TMC3     C 7996   4.112   3.985   1.407 -0.2031 -1.0076  0.4456
  535TMC3     O 7997   4.162   4.100   1.412  0.0490 -0.1728 -0.0877
  535TMC3     H 7998   3.903   3.804   1.487 -1.6289  0.0556  0.1957
  535TMC3    H1 7999   3.994   4.146   1.219  1.9735 -1.1470  0.5922
  535TMC3    H2 8000   3.667   3.900   1.145  1.1981  2.3553 -1.9502
  535TMC3    C7 8001   3.804   4.093   1.057 -0.1442  0.3122  0.1455
  535TMC3    C8 8002   3.672   3.767   1.362  0.4208 -0.3407  0.2765
  535TMC3    O1 8003   3.733   4.029   0.980  1.3123 -0.4791 -0.4097
  535TMC3    O2 8004   3.573   3.761   1.291 -0.1845 -0.2419 -0.4495
  536MPD2     C 8005   3.110   1.986  16.292  0.0847 -0.8670 -0.0516
  536MPD2    C1 8006   3.004   1.900  16.310  0.4584 -0.1987 -0.0259
  536MPD2    C2 8007   2.912   1.888  16.208 -0.0067  0.7696 -0.6424
  536MPD2    C3 8008   2.926   1.959  16.088  0.5696 -0.1311  0.1561
  536MPD2    C4 8009   3.038   2.037  16.081  0.0802 -0.0784  0.3641
  536MPD2    C5 8010   3.139   2.042  16.173  0.3910 -0.2998  0.4852
  536MPD2     H 8011   2.830   1.818  16.221  0.6378  0.3850  1.4386
  536MPD2    H1 8012   3.046   2.094  15.989 -2.6041  1.1286  0.8705
  536MPD2    H2 8013   3.182   2.008  16.371  0.4614 -0.0353 -0.6253
  536MPD2    H3 8014   3.233   2.095  16.163  0.0785  0.4207  1.3689
  536MPD2     N 8015   2.830   1.959  15.979  0.2489 -0.5948 -0.0464
  536MPD2    H5 8016   2.859   2.005  15.893 -2.4305 -0.8822 -1.1151
  536MPD2    N1 8017   2.990   1.835  16.433  0.3589 -0.3271  0.7599
  536MPD2    H7 8018   3.064   1.861  16.497  2.2046  0.9996 -1.9347
  537TMC3    C1 8019   2.895   1.691  16.612 -0.0915 -0.2883 -0.5818
  537TMC3    C2 8020   3.012   1.687  16.684  0.4253 -0.1592 -0.2793
  537TMC3    C3 8021   3.020   1.611  16.798  0.2002 -0.1519  0.2066
  537TMC3    C4 8022   2.777   1.633  16.655  0.2429 -0.1999 -0.1578
  537TMC3    C5 8023   2.794   1.550  16.766 -0.0732 -0.3262  0.6119
  537TMC3    C6 8024   2.910   1.535  16.839  0.0566 -0.0916 -0.5844
  537TMC3     C 8025   2.886   1.748  16.476 -0.4509 -0.3185 -0.3312
  537TMC3     O 8026   2.792   1.703  16.409 -0.3197  0.2932 -0.3556
  537TMC3     H 8027   3.105   1.727  16.646 -0.3909  0.3562 -1.7470
  537TMC3    H1 8028   2.684   1.640  16.601 -0.0028  3.1020  0.6929
  537TMC3    H2 8029   2.908   1.481  16.933 -0.7009 -1.5763 -1.4566
  537TMC3    C7 8030   2.678   1.547  16.852  0.3621  0.8392 -0.3499
  537TMC3    C8 8031   3.113   1.653  16.898 -0.1572 -0.3675 -0.1925
  537TMC3    O1 8032   2.637   1.657  16.887  0.0030  0.0646 -0.1597
  537TMC3    O2 8033   3.180   1.754  16.863 -0.9418  0.4495 -0.1953
  538TMC3    C1 8034   4.263   0.129  11.204  0.0210 -0.1376 -0.9591
  538TMC3    C2 8035   4.334   0.071  11.109  0.4182 -0.3935 -1.4175
  538TMC3    C3 8036   4.355   0.144  10.993 -0.5680 -0.4312  0.2489
  538TMC3    C4 8037   4.209   0.254  11.198  0.6926  0.1380  0.1623
  538TMC3    C5 8038   4.223   0.320  11.077  0.3836 -0.5269  0.9649
  538TMC3    C6 8039   4.294   0.263  10.972 -0.1955 -0.4008  0.4269
  538TMC3     C 8040   4.261   0.066  11.334 -0.4439  0.0308  0.3020
  538TMC3     O 8041   4.270   4.677  11.335  0.4692  0.0505  0.5692
  538TMC3     H 8042   4.374   4.706  11.126 -1.1701 -0.6005  1.1042
  538TMC3    H1 8043   4.139   0.294  11.270 -0.7272 -0.5495 -0.8329
  538TMC3    H2 8044   4.287   0.312  10.876  0.7316 -0.1481  0.4917
  538TMC3    C7 8045   4.136   0.431  11.041  0.5546 -0.3358 -0.1298
  538TMC3    C8 8046   4.451   0.090  10.906  0.1492 -0.2707 -0.1757
  538TMC3    O1 8047   4.086   0.434  10.929 -0.4039  0.0073 -0.1912
  538TMC3    O2 8048   4.482   4.706  10.915  0.2788  0.2625 -0.4133
  539MPD2     C 8049   3.933   3.937  11.557 -1.4220 -0.0057  0.6037
  539MPD2    C1 8050   3.979   4.035  11.474 -0.3358 -0.0841 -0.4709
  539MPD2    C2 8051   3.975   4.170  11.508  0.3164 -0.0552 -0.3683
  539MPD2    C3 8052   3.916   4.208  11.633  0.0667  0.1535 -0.2499
  539MPD2    C4 8053   3.870   4.111  11.708  0.1377 -0.7295  0.1069
  539MPD2    C5 8054   3.884   3.981  11.678 -0.1365  0.7102 -0.0182
  539MPD2     H 8055   4.013   4.242  11.436  0.3120  2.2492  1.9450
  539MPD2    H1 8056   3.832   4.136  11.806 -0.9159 -1.1850 -0.1854
  539MPD2    H2 8057   3.910   3.835  11.529 -1.2536 -0.1199  0.8794
  539MPD2    H3 8058   3.836   3.910  11.745  1.1859  0.1539  0.3326
  539MPD2     N 8059   3.895   4.344  11.674 -0.7083 -0.4037  0.3781
  539MPD2    H5 8060   3.851   4.361  11.764 -0.0812 -0.1396  0.6361
  539MPD2    N1 8061   4.043   4.004  11.347  0.4424 -0.4794 -0.0842
  539MPD2    H7 8062   4.062   4.077  11.279 -0.2074  0.2222  0.4833
  540TMC3    C1 8063   3.889   4.582  11.663  0.4124 -0.0308 -0.0213
  540TMC3    C2 8064   3.892   4.699  11.587 -0.7373  0.3158 -0.6470
  540TMC3    C3 8065   3.901   0.088  11.646 -0.0921  0.1345 -0.1136
  540TMC3    C4 8066   3.899   4.589  11.806 -0.2106  0.4377  0.3863
  540TMC3    C5 8067   3.898   4.720  11.855 -0.2730 -0.2482  0.1631
  540TMC3    C6 8068   3.906   0.101  11.783 -0.6806 -0.4453 -0.0704
  540TMC3     C 8069   3.923   4.458  11.596 -0.1670 -0.5942 -0.4077
  540TMC3     O 8070   3.950   4.461  11.476  0.1481 -0.9711  0.1617
  540TMC3     H 8071   3.906   4.696  11.480  0.8064  1.4414 -0.4809
  540TMC3    H1 8072   3.907   4.506  11.876  2.5659  1.5571  1.3867
  540TMC3    H2 8073   3.909   0.196  11.835  1.7545 -1.5137  1.7427
  540TMC3    C7 8074   3.822   0.007  11.972  0.4409 -0.2898  0.0782
  540TMC3    C8 8075   3.906   0.211  11.573  0.0081 -0.0379  0.0028
  540TMC3    O1 8076   3.815   0.115  12.023  0.4872 -0.3819 -0.5120
  540TMC3    O2 8077   3.886   0.320  11.626  0.1309  0.5415  0.1118
  541MPD2     C 8078   2.307   1.482  13.426 -0.1537  0.7736  0.2435
  541MPD2    C1 8079   2.185   1.489  13.361  0.4416 -0.0739  0.5372
  541MPD2    C2 8080   2.182   1.475  13.220  0.0703  0.0685  0.2522
  541MPD2    C3 8081   2.299   1.469  13.140  0.1449 -0.5111  0.0707
  541MPD2    C4 8082   2.410   1.457  13.215 -0.2630 -0.6405  0.5745
  541MPD2    C5 8083   2.418   1.463  13.351 -0.0841 -0.1747  1.0122
  541MPD2     H 8084   2.081   1.479  13.181  0.3310 -2.0696 -0.6240
  541MPD2    H1 8085   2.503   1.449  13.160 -0.6382  0.0620 -0.1620
  541MPD2    H2 8086   2.315   1.484  13.534 -2.2561 -1.6036  0.4540
  541MPD2    H3 8087   2.520   1.465  13.386 -0.2296 -0.6683  1.4585
  541MPD2     N 8088   2.303   1.482  13.000 -0.1952 -0.4178  0.1764
  541MPD2    H5 8089   2.399   1.469  12.969 -0.3337 -0.1195 -0.3736
  541MPD2    N1 8090   2.063   1.500  13.430 -0.1469 -0.0573  0.0594
  541MPD2    H7 8091   1.976   1.488  13.379 -0.7272 -1.2749  1.3473
  542TMC3    C1 8092   2.247   1.522  12.780 -0.0424 -0.0378 -0.4927
  542TMC3    C2 8093   2.343   1.448  12.725 -0.1268 -0.4439 -0.3950
  542TMC3    C3 8094   2.379   1.472  12.600 -0.2976  0.6631 -0.0832
  542TMC3    C4 8095   2.173   1.613  12.711  0.0919 -0.3187 -0.2397
  542TMC3    C5 8096   2.203   1.631  12.583  0.1379  0.0445 -0.1318
  542TMC3    C6 8097   2.302   1.554  12.521  0.2732  0.3460  0.2575
  542TMC3     C 8098   2.202   1.506  12.915 -0.3624 -0.6783 -0.8905
  542TMC3     O 8099   2.081   1.518  12.933  0.3204  1.0121 -0.1031
  542TMC3     H 8100   2.401   1.374  12.780 -1.2161  0.0509  1.4270
  542TMC3    H1 8101   2.088   1.662  12.757  2.6552  1.4559  2.5352
  542TMC3    H2 8102   2.337   1.566  12.418  1.0884  1.5913  0.6720
  542TMC3    C7 8103   2.104   1.694  12.499 -0.1121 -0.4876  0.1581
  542TMC3    C8 8104   2.515   1.436  12.553  0.0151 -0.0806  0.4084
  542TMC3    O1 8105   2.006   1.726  12.568  0.0859  0.1491 -0.7558
  542TMC3    O2 8106   2.561   1.505  12.461 -0.0412 -0.0126 -0.3841
  543TMC3    C1 8107   1.723   3.014  17.271 -0.2118 -0.1318  0.1655
  543TMC3    C2 8108   1.725   2.910  17.369  0.2404 -0.3458  0.9509
  543TMC3    C3 8109   1.697   2.951  17.494 -1.2272  0.1183 -0.8538
  543TMC3    C4 8110   1.691   3.147  17.300 -0.9274  0.4569 -0.7748
  543TMC3    C5 8111   1.651   3.173  17.430  0.4062 -0.1230 -0.7773
  543TMC3    C6 8112   1.657   3.075  17.529  0.1349  0.0700  0.2983
  543TMC3     C 8113   1.757   2.980  17.129 -1.0330 -0.4292  0.7010
  543TMC3     O 8114   1.800   2.869  17.110  0.8548  0.4014 -0.0946
  543TMC3     H 8115   1.764   2.810  17.354  1.4087  0.2191  0.2388
  543TMC3    H1 8116   1.678   3.218  17.220  1.0647  0.9050 -0.7086
  543TMC3    H2 8117   1.622   3.109  17.626  1.5220  0.2223  0.7482
  543TMC3    C7 8118   1.559   3.285  17.462 -0.0005  0.0976 -0.8330
  543TMC3    C8 8119   1.709   2.846  17.597  0.4371 -0.0350 -0.5474
  543TMC3    O1 8120   1.500   3.278  17.566 -0.2740  0.6073 -0.1743
  543TMC3    O2 8121   1.766   2.744  17.558  0.3019 -0.1262 -0.0900
  544MPD2     C 8122   1.584   2.604   0.288 -1.0207 -0.0775  0.1360
  544MPD2    C1 8123   1.620   2.547   0.167  0.3591 -0.1917  0.0282
  544MPD2    C2 8124   1.640   2.634   0.060 -0.0711 -1.3234  0.1700
  544MPD2    C3 8125   1.613   2.769   0.073 -0.6783  0.2700  0.1052
  544MPD2    C4 8126   1.566   2.818   0.194 -0.2718  0.6008  0.4364
  544MPD2    C5 8127   1.559   2.738   0.308 -0.3051  0.1083  0.7092
  544MPD2     H 8128   1.672   2.596  17.702 -0.6032  2.3048 -1.4669
  544MPD2    H1 8129   1.545   2.924   0.205 -3.2478  0.1500 -1.0079
  544MPD2    H2 8130   1.586   2.539   0.375 -0.3430  0.4820  0.5382
  544MPD2    H3 8131   1.539   2.781   0.405  2.0087  1.3906  0.6334
  544MPD2     N 8132   1.631   2.865  17.710 -0.2607  0.6381  0.4133
  544MPD2    H5 8133   1.592   2.957  17.724  0.5274  1.4115 -2.4764
  544MPD2    N1 8134   1.643   2.405   0.166  0.2819  0.3893  0.4509
  544MPD2    H7 8135   1.640   2.351   0.253 -0.5102 -0.3899 -0.0563
  545TMC3    C1 8136   1.700   2.190   0.087 -0.4748 -0.0270  0.0527
  545TMC3    C2 8137   1.802   2.133   0.020  0.0430  0.1069  0.3159
  545TMC3    C3 8138   1.817   1.995   0.015  0.5771 -0.1933 -0.5638
  545TMC3    C4 8139   1.596   2.124   0.142  0.5145  0.2247  0.2932
  545TMC3    C5 8140   1.608   1.988   0.138  0.6908 -0.2431 -1.1745
  545TMC3    C6 8141   1.712   1.926   0.070  0.2133  0.0561  0.9132
  545TMC3     C 8142   1.679   2.329   0.060 -0.2250  0.1836  0.1240
  545TMC3     O 8143   1.699   2.359  17.680 -0.3220 -0.3090 -0.2074
  545TMC3     H 8144   1.884   2.191  17.717  0.7247 -1.3066 -0.3375
  545TMC3    H1 8145   1.513   2.172   0.193 -0.0975 -0.3028 -0.2126
  545TMC3    H2 8146   1.711   1.819   0.057 -0.3825  0.3486 -1.3439
  545TMC3    C7 8147   1.483   1.917   0.135 -0.3094  0.4326 -0.2705
  545TMC3    C8 8148   1.915   1.926  17.671 -0.0484  0.8512 -0.6095
  545TMC3    O1 8149   1.386   1.972   0.089  0.0326 -0.5240  0.3913
  545TMC3    O2 8150   1.959   1.815  17.703  0.4057  0.3042 -0.0468
  546MPD2     C 8151   3.107   2.507  17.412 -0.6850 -0.4308  0.0298
  546MPD2    C1 8152   3.137   2.551  17.286 -0.1985 -0.3739  0.0809
  546MPD2    C2 8153   3.217   2.663  17.268 -0.8959  0.7329  0.0423
  546MPD2    C3 8154   3.253   2.735  17.379 -0.0543  0.0036  0.8446
  546MPD2    C4 8155   3.201   2.695  17.501 -0.3759  0.3677 -0.8515
  546MPD2    C5 8156   3.135   2.578  17.516 -0.4449  0.4736 -0.2175
  546MPD2     H 8157   3.242   2.700  17.169  0.3763 -0.0282  0.0866
  546MPD2    H1 8158   3.229   2.741  17.595  2.8960 -2.1189 -0.5992
  546MPD2    H2 8159   3.060   2.410  17.427 -0.3333 -0.3860  1.3778
  546MPD2    H3 8160   3.110   2.546  17.617  3.7878 -2.8619 -0.2223
  546MPD2     N 8161   3.322   2.861  17.381 -0.5102 -0.1275 -0.1890
  546MPD2    H5 8162   3.342   2.908  17.469 -1.3712 -0.5154  0.2155
  546MPD2    N1 8163   3.095   2.463  17.185 -0.0782 -0.1220  0.4726
  546MPD2    H7 8164   3.031   2.388  17.206 -1.9462  0.7212 -2.1887
  547TMC3    C1 8165   3.067   2.371  16.978 -0.3294 -0.3741 -0.3368
  547TMC3    C2 8166   2.948   2.387  16.905 -0.4461  0.2349  0.0482
  547TMC3    C3 8167   2.851   2.290  16.920 -0.1720 -0.3645 -0.2896
  547TMC3    C4 8168   3.097   2.260  17.049  0.9080 -0.3091 -0.0315
  547TMC3    C5 8169   3.001   2.164  17.060  0.8803 -0.3170 -0.4017
  547TMC3    C6 8170   2.879   2.186  17.005 -0.8082  0.1508 -1.5599
  547TMC3     C 8171   3.119   2.490  17.049 -0.0147  0.1573 -0.4923
  547TMC3     O 8172   3.169   2.586  16.995 -0.1496 -0.1604 -0.2978
  547TMC3     H 8173   2.914   2.485  16.873 -1.0661 -0.0942 -0.2964
  547TMC3    H1 8174   3.197   2.235  17.081  0.3790 -0.4325  1.4925
  547TMC3    H2 8175   2.802   2.115  17.033 -0.1053  0.1978  0.4171
  547TMC3    C7 8176   2.996   2.082  17.178  0.1268 -0.1098 -0.0537
  547TMC3    C8 8177   2.716   2.322  16.874  0.2321 -0.2315  0.3412
  547TMC3    O1 8178   3.043   2.134  17.277 -0.1919 -0.0827 -0.7516
  547TMC3    O2 8179   2.696   2.428  16.814  0.7721  0.5928  0.1286
  548MPD2     C 8180   2.979   3.264  12.716 -0.1916  0.1997 -0.1676
  548MPD2    C1 8181   2.919   3.165  12.640 -0.3226  0.1622 -0.4675
  548MPD2    C2 8182   2.999   3.106  12.541 -0.2381  0.5089 -0.0487
  548MPD2    C3 8183   3.132   3.137  12.527  0.2927  0.5744  0.5888
  548MPD2    C4 8184   3.183   3.236  12.606 -0.4521 -0.5275  0.5472
  548MPD2    C5 8185   3.106   3.299  12.692 -0.5481  0.4566  0.5978
  548MPD2     H 8186   2.950   3.044  12.466 -0.6105  1.3002 -0.4586
  548MPD2    H1 8187   3.282   3.281  12.608 -0.8672  0.4306 -0.3368
  548MPD2    H2 8188   2.932   3.328  12.789  0.0165 -0.6354  0.6976
  548MPD2    H3 8189   3.145   3.377  12.755  0.4262 -0.5177  1.1964
  548MPD2     N 8190   3.207   3.064  12.431  0.3579  0.1011 -0.3764
  548MPD2    H5 8191   3.161   2.999  12.367  0.2013  2.1895 -2.3946
  548MPD2    N1 8192   2.777   3.146  12.654 -0.0024 -0.3335 -0.7725
  548MPD2    H7 8193   2.740   3.219  12.714  1.9060 -0.3784  0.4664
  549TMC3    C1 8194   2.564   3.055  12.624  0.1850 -0.2803  0.9596
  549TMC3    C2 8195   2.504   3.180  12.612 -0.4572  0.1047  0.1357
  549TMC3    C3 8196   2.371   3.195  12.650 -0.0424 -0.1527 -0.0708
  549TMC3    C4 8197   2.491   2.943  12.661  0.4376 -0.4447 -0.4168
  549TMC3    C5 8198   2.359   2.957  12.693 -0.3803  1.1583 -0.4787
  549TMC3    C6 8199   2.304   3.081  12.686 -0.1034  0.3260  0.1540
  549TMC3     C 8200   2.713   3.038  12.608 -0.5184 -0.4938 -0.6115
  549TMC3     O 8201   2.757   2.935  12.560  0.1876 -0.5277  0.0217
  549TMC3     H 8202   2.561   3.266  12.578  1.1495 -0.5747  1.1221
  549TMC3    H1 8203   2.547   2.851  12.663 -0.8644 -1.2450 -0.6907
  549TMC3    H2 8204   2.199   3.078  12.713 -0.1784 -0.7423 -0.2663
  549TMC3    C7 8205   2.305   2.860  12.783  0.1806 -0.2375  0.6117
  549TMC3    C8 8206   2.296   3.313  12.652 -0.0913 -0.6143 -1.0078
  549TMC3    O1 8207   2.243   2.910  12.873  0.6171  0.2786  0.3536
  549TMC3    O2 8208   2.183   3.318  12.697  0.0279  0.0443 -0.1303
  550TMC3    C1 8209   1.893   1.348  12.538 -0.1537 -0.6414  0.0633
  550TMC3    C2 8210   1.818   1.371  12.647  0.0225  0.0787 -0.1898
  550TMC3    C3 8211   1.706   1.448  12.640  0.6337 -0.1775 -0.1723
  550TMC3    C4 8212   1.873   1.407  12.416  0.1157  1.0448 -0.4019
  550TMC3    C5 8213   1.755   1.470  12.411  0.5396  0.4187 -0.3770
  550TMC3    C6 8214   1.682   1.503  12.522 -0.0746  0.3100  0.3445
  550TMC3     C 8215   1.959   1.220  12.532  0.2669 -0.0364 -0.4380
  550TMC3     O 8216   1.994   1.169  12.633  0.0714  0.0174 -0.5038
  550TMC3     H 8217   1.842   1.325  12.742 -0.4288  0.1210 -0.0538
  550TMC3    H1 8218   1.939   1.386  12.333  0.5961 -0.5943  0.3890
  550TMC3    H2 8219   1.587   1.555  12.513  0.3721  1.0172 -0.2715
  550TMC3    C7 8220   1.686   1.465  12.286 -0.5317  0.0501 -0.2322
  550TMC3    C8 8221   1.581   1.394  12.695 -0.2583 -0.3430 -0.5518
  550TMC3    O1 8222   1.729   1.373  12.221 -0.7057 -0.2943 -0.1362
  550TMC3    O2 8223   1.502   1.482  12.727  0.0191 -0.5403 -0.5031
  551TMC3    C1 8224   3.945   4.078  13.194  0.6082  0.7966  0.3327
  551TMC3    C2 8225   4.081   4.090  13.189  0.8550 -0.3002  0.3946
  551TMC3    C3 8226   4.152   4.115  13.308  0.1777 -0.2188  0.3431
  551TMC3    C4 8227   3.877   4.074  13.315  0.2859 -0.2657 -0.6150
  551TMC3    C5 8228   3.953   4.092  13.432  0.5395  0.2103 -0.5435
  551TMC3    C6 8229   4.090   4.103  13.430 -0.0214  0.1164  0.2306
  551TMC3     C 8230   3.876   4.019  13.080  0.0861 -0.1990  0.1084
  551TMC3     O 8231   3.787   3.938  13.093  0.0597 -0.1254  0.1254
  551TMC3     H 8232   4.146   4.065  13.105  0.1901 -1.6302  0.2732
  551TMC3    H1 8233   3.770   4.059  13.325  0.5882 -2.7576 -1.1467
  551TMC3    H2 8234   4.156   4.094  13.516 -0.6546 -1.1422  0.5933
  551TMC3    C7 8235   3.899   4.078  13.567  0.6553 -0.5816  0.2866
  551TMC3    C8 8236   4.292   4.163  13.305 -0.0829  0.2127 -0.3104
  551TMC3    O1 8237   3.980   4.053  13.655  0.0226  0.3362 -0.6024
  551TMC3    O2 8238   4.359   4.135  13.406 -0.0621 -0.0928  0.1117
  552MPD2     C 8239   0.889   1.459  14.206 -0.7179  0.1428 -0.1417
  552MPD2    C1 8240   0.911   1.327  14.232  0.2596  0.3769  0.2500
  552MPD2    C2 8241   1.013   1.297  14.324  0.1726  0.0943 -0.3095
  552MPD2    C3 8242   1.101   1.394  14.366  0.7120 -0.4328 -0.1374
  552MPD2    C4 8243   1.082   1.519  14.318 -0.3737 -0.3996  0.5758
  552MPD2    C5 8244   0.975   1.554  14.243 -0.2156 -0.7603 -0.5236
  552MPD2     H 8245   1.016   1.192  14.351  1.6798  0.6534  1.6990
  552MPD2    H1 8246   1.141   1.605  14.350  0.3656 -1.2619  1.5265
  552MPD2    H2 8247   0.805   1.481  14.142 -1.3019 -2.1944 -0.1830
  552MPD2    H3 8248   0.959   1.659  14.222 -1.4296 -1.0593 -1.0965
  552MPD2     N 8249   1.211   1.365  14.451  0.6343 -0.2779  0.2106
  552MPD2    H5 8250   1.276   1.438  14.477 -0.0098 -0.0887  1.3097
  552MPD2    N1 8251   0.827   1.221  14.180  0.0876  0.1222  0.2213
  552MPD2    H7 8252   0.864   1.129  14.201 -2.0045 -0.7577  0.0132
  553TMC3    C1 8253   0.690   1.109  14.015  0.1971  0.2600  0.1448
  553TMC3    C2 8254   0.682   1.110  13.878 -0.0002 -0.5017 -0.4913
  553TMC3    C3 8255   0.675   0.988  13.805 -0.4591 -0.3110 -0.1535
  553TMC3    C4 8256   0.702   0.992  14.087  0.0862 -0.3159  0.6295
  553TMC3    C5 8257   0.693   0.880  14.011  0.1309  0.3275  0.2551
  553TMC3    C6 8258   0.677   0.874  13.875  0.0493 -0.0582 -0.7200
  553TMC3     C 8259   0.731   1.234  14.081  0.7091 -0.0766 -0.5698
  553TMC3     O 8260   0.687   1.330  14.022 -0.5793  0.3478 -0.0641
  553TMC3     H 8261   0.683   1.205  13.827 -2.5523 -0.6813 -0.8527
  553TMC3    H1 8262   0.722   0.980  14.192 -0.3952 -1.4151  0.5951
  553TMC3    H2 8263   0.687   0.779  13.823  1.4691 -0.9064  1.1223
  553TMC3    C7 8264   0.701   0.753  14.083  0.1938  1.1114 -0.3920
  553TMC3    C8 8265   0.737   0.988  13.676 -0.0334  0.0445  0.5315
  553TMC3    O1 8266   0.611   0.671  14.054 -0.2881  0.7215 -0.2796
  553TMC3    O2 8267   0.800   1.089  13.646 -0.2952 -0.2918  0.3948
  554TMC3    C1 8268   3.443   0.461  11.347  0.3393  0.3787  0.0178
  554TMC3    C2 8269   3.405   0.365  11.255 -0.2797  0.2241  0.5552
  554TMC3    C3 8270   3.392   0.409  11.124  0.2964  0.5533  0.4814
  554TMC3    C4 8271   3.482   0.593  11.328 -0.5119 -0.3557 -0.2014
  554TMC3    C5 8272   3.459   0.632  11.194  0.1785 -0.3948  0.0141
  554TMC3    C6 8273   3.429   0.542  11.093  0.2930  0.2927 -0.3041
  554TMC3     C 8274   3.483   0.402  11.474  0.3123 -0.6503  0.2509
  554TMC3     O 8275   3.457   0.462  11.577  0.6507 -0.0624  0.0139
  554TMC3     H 8276   3.348   0.279  11.287  0.0125 -0.8658 -1.8945
  554TMC3    H1 8277   3.534   0.647  11.406  1.6666 -0.2296 -1.7502
  554TMC3    H2 8278   3.408   0.575  10.992  1.1726  0.9385 -0.2798
  554TMC3    C7 8279   3.461   0.768  11.135 -0.0591 -0.0357  0.0136
  554TMC3    C8 8280   3.276   0.368  11.049 -0.2121 -0.5253  0.7874
  554TMC3    O1 8281   3.464   0.772  11.016  0.4636  0.8630  0.4862
  554TMC3    O2 8282   3.202   0.462  11.021 -0.2329 -0.7668 -0.2126
  555TMC3    C1 8283   2.194   4.664  15.297  0.4701 -0.2011  0.0260
  555TMC3    C2 8284   2.187   4.734  15.419  0.4545  0.1764 -0.5421
  555TMC3    C3 8285   2.159   4.665  15.535 -0.8097  0.1191  0.1829
  555TMC3    C4 8286   2.169   4.529  15.294 -0.6927 -0.0056 -0.6866
  555TMC3    C5 8287   2.124   4.471  15.410  0.7900  0.2300  0.0791
  555TMC3    C6 8288   2.128   4.536  15.531 -1.0126 -0.7434 -0.1993
  555TMC3     C 8289   2.191   0.008  15.175  0.4747  0.0173 -0.1150
  555TMC3     O 8290   2.262   0.108  15.182 -0.0505 -0.1254 -0.0556
  555TMC3     H 8291   2.200   0.107  15.416  2.4232  0.0495  3.7889
  555TMC3    H1 8292   2.156   4.484  15.197  0.9721 -0.6315 -0.6126
  555TMC3    H2 8293   2.097   4.476  15.615 -0.7612 -1.9849 -0.9740
  555TMC3    C7 8294   2.109   4.329  15.419  0.0244 -0.1645 -0.1243
  555TMC3    C8 8295   2.164   4.726  15.662  0.6124  0.5797  0.7742
  555TMC3    O1 8296   2.002   4.292  15.468  0.1951  0.2507 -0.2017
  555TMC3    O2 8297   2.166   0.114  15.653 -0.0536 -0.3492 -0.2281
  556MPD2     C 8298   0.137   1.305  10.563  0.4605  0.2576 -0.3887
  556MPD2    C1 8299   0.100   1.208  10.649  0.4497  0.1557 -0.4698
  556MPD2    C2 8300   0.110   1.072  10.620  0.1908  0.1727  0.3261
  556MPD2    C3 8301   0.160   1.045  10.495  0.6159  0.0265  0.2719
  556MPD2    C4 8302   0.210   1.138  10.407  0.0537  0.4763  0.3179
  556MPD2    C5 8303   0.194   1.265  10.445 -0.4296 -0.0584 -0.1074
  556MPD2     H 8304   0.088   0.999  10.697 -1.5118  0.1612 -0.1795
  556MPD2    H1 8305   0.260   1.116  10.314  0.4582  0.4269  0.5483
  556MPD2    H2 8306   0.156   1.409  10.588  1.0576  0.2794 -0.9261
  556MPD2    H3 8307   0.228   1.345  10.380 -2.0433  2.6201  2.4037
  556MPD2     N 8308   0.166   0.907  10.466  1.0176 -0.1629 -0.1000
  556MPD2    H5 8309   0.130   0.843  10.536 -0.0273  0.7044  0.1325
  556MPD2    N1 8310   0.060   1.252  10.777 -0.5043  0.0634  0.0672
  556MPD2    H7 8311   0.068   1.351  10.797 -0.4114  0.4793 -2.0044
  557TMC3    C1 8312   0.192   0.708  10.332 -0.3980 -0.1175 -0.3326
  557TMC3    C2 8313   0.261   0.645  10.240 -0.6665  0.5827  0.4381
  557TMC3    C3 8314   0.216   0.538  10.176  0.1232 -0.3760 -0.3132
  557TMC3    C4 8315   0.078   0.652  10.378  0.3041  0.9900  0.1072
  557TMC3    C5 8316   0.040   0.535  10.325  0.5382  0.5137 -0.7789
  557TMC3    C6 8317   0.109   0.480  10.220  0.1834  0.7025  0.5308
  557TMC3     C 8318   0.221   0.852  10.354  0.6631  0.0362 -0.5028
  557TMC3     O 8319   0.294   0.897  10.265  0.6504  0.5289  0.2492
  557TMC3     H 8320   0.355   0.691  10.213  0.7763 -1.0135  2.7482
  557TMC3    H1 8321   0.010   0.707  10.442  0.7220  1.4923  0.1210
  557TMC3    H2 8322   0.070   0.390  10.174  1.2265  0.3573  0.3326
  557TMC3    C7 8323   4.685   0.460  10.406 -0.7436  0.2399  0.6727
  557TMC3    C8 8324   0.299   0.478  10.073 -0.6906 -0.8256 -0.0871
  557TMC3    O1 8325   4.634   0.521  10.497 -0.0861  0.4082 -0.5432
  557TMC3    O2 8326   0.410   0.519  10.062 -0.0175 -0.1067  0.5030
  558TMC3    C1 8327   2.121   4.255   9.925  0.8183 -0.0270  0.7228
  558TMC3    C2 8328   2.020   4.194   9.992 -0.5806 -0.3276  0.1337
  558TMC3    C3 8329   1.927   4.120   9.918 -0.1627 -0.4576 -0.9734
  558TMC3    C4 8330   2.131   4.234   9.789 -0.1859  0.6867 -0.4215
  558TMC3    C5 8331   2.034   4.173   9.716 -0.5052  0.0428  0.5618
  558TMC3    C6 8332   1.929   4.109   9.781  0.1753  0.3007  0.4518
  558TMC3     C 8333   2.240   4.306   9.982 -0.3351  0.3759 -0.2428
  558TMC3     O 8334   2.341   4.290   9.919  0.3339 -0.3651  0.2605
  558TMC3     H 8335   2.024   4.187  10.100  1.9052 -3.1295 -0.1590
  558TMC3    H1 8336   2.206   4.289   9.732  0.2360  0.9266  0.3600
  558TMC3    H2 8337   1.852   4.050   9.733  1.5803 -1.4012  0.2688
  558TMC3    C7 8338   2.028   4.197   9.577 -0.2347 -0.3277  0.2540
  558TMC3    C8 8339   1.872   4.002   9.975 -0.5331 -0.3185  0.7699
  558TMC3    O1 8340   2.105   4.279   9.527  0.0164 -0.2909  0.1189
  558TMC3    O2 8341   1.766   3.961   9.927 -0.1695  0.3969  0.0111
  559MPD2     C 8342   2.800   4.728  10.470  0.7121 -0.1689 -0.4532
  559MPD2    C1 8343   2.727   4.672  10.574  0.6709 -0.0829 -0.3331
  559MPD2    C2 8344   2.770   4.544  10.631  0.7860 -0.4092  1.1114
  559MPD2    C3 8345   2.893   4.495  10.596 -0.3498  0.3197  0.4189
  559MPD2    C4 8346   2.966   4.552  10.493  0.5738 -0.6676  0.0791
  559MPD2    C5 8347   2.915   4.667  10.435  0.1026  0.8056  0.0458
  559MPD2     H 8348   2.708   4.492  10.703 -0.6598 -0.5988 -0.2536
  559MPD2    H1 8349   3.065   4.520  10.463  0.9407  0.6234 -0.0879
  559MPD2    H2 8350   2.772   0.087  10.423 -0.4864 -0.9498 -1.2761
  559MPD2    H3 8351   2.979   4.706  10.357  0.5755  0.1790  0.1218
  559MPD2     N 8352   2.942   4.387  10.669  0.1673  0.2587  0.6146
  559MPD2    H5 8353   2.879   4.339  10.732  0.8039 -1.4743 -0.0635
  559MPD2    N1 8354   2.602   4.734  10.605 -0.2086  0.5866  0.2937
  559MPD2    H7 8355   2.561   0.063  10.538  2.1800  0.7071 -1.0872
  560TMC3    C1 8356   3.081   4.207  10.730 -0.4687  0.6910 -0.7322
  560TMC3    C2 8357   2.964   4.128  10.754  0.2435 -0.3656 -0.7877
  560TMC3    C3 8358   2.952   4.051  10.863 -0.4417 -0.8128 -0.4167
  560TMC3    C4 8359   3.192   4.194  10.808 -0.2973 -0.4854  0.7512
  560TMC3    C5 8360   3.179   4.107  10.916  0.4676  0.5083 -0.6206
  560TMC3    C6 8361   3.065   4.035  10.944  0.0316  0.4094  0.1328
  560TMC3     C 8362   3.068   4.336  10.662 -0.7123 -0.2078 -0.1357
  560TMC3     O 8363   3.168   4.366  10.599  0.0803 -0.1926 -0.0783
  560TMC3     H 8364   2.878   4.138  10.688 -0.2438 -0.4006 -0.1604
  560TMC3    H1 8365   3.276   4.260  10.790 -1.0366  0.3444  0.4003
  560TMC3    H2 8366   3.063   3.967  11.028 -3.5995  0.4824  0.0823
  560TMC3    C7 8367   3.298   4.080  10.997 -0.1691  0.4354  0.0111
  560TMC3    C8 8368   2.846   3.950  10.862 -0.7721  0.1583 -0.1701
  560TMC3    O1 8369   3.280   3.999  11.087  0.6686 -0.1555  0.1309
  560TMC3    O2 8370   2.768   3.960  10.766  0.0193 -0.4888 -0.2992
  561TMC3    C1 8371   1.076   3.773  10.907  0.2718  0.7960 -0.0804
  561TMC3    C2 8372   1.020   3.660  10.962 -0.5716  0.3210  1.0183
  561TMC3    C3 8373   0.914   3.663  11.048 -0.3525  0.0401 -0.2920
  561TMC3    C4 8374   1.021   3.891  10.939  0.1312  0.5492 -0.4312
  561TMC3    C5 8375   0.903   3.895  11.008  0.2032  0.3734 -0.7187
  561TMC3    C6 8376   0.854   3.781  11.077 -0.4962  0.8709 -0.4732
  561TMC3     C 8377   1.206   3.761  10.833 -0.0310  0.3396  0.6545
  561TMC3     O 8378   1.238   3.644  10.805  0.2066 -0.4243 -0.2860
  561TMC3     H 8379   1.060   3.566  10.926 -1.4128  1.4018 -2.7679
  561TMC3    H1 8380   1.050   3.971  10.872 -0.0760  0.9363 -0.0632
  561TMC3    H2 8381   0.774   3.785  11.150  1.0593 -0.3150  1.2868
  561TMC3    C7 8382   0.818   4.009  10.994  0.8765  0.0406  0.0497
  561TMC3    C8 8383   0.859   3.533  11.091  0.4697  0.0152  0.5232
  561TMC3    O1 8384   0.698   3.992  11.025 -0.2327  0.2086 -0.7764
  561TMC3    O2 8385   0.908   3.437  11.029  0.3286  0.1288  0.5237
  562TMC3    C1 8386   1.883   4.577  16.330 -0.3571 -0.9510  0.1606
  562TMC3    C2 8387   1.829   4.699  16.302 -0.4418 -0.3210 -0.1277
  562TMC3    C3 8388   1.807   4.725  16.167  0.8520  0.3796  0.2141
  562TMC3    C4 8389   1.913   4.483  16.235 -0.3090 -0.1432 -0.7246
  562TMC3    C5 8390   1.865   4.506  16.105  0.1068  0.4178 -0.3891
  562TMC3    C6 8391   1.814   4.630  16.075 -0.1560 -0.1536 -0.3311
  562TMC3     C 8392   1.906   4.549  16.468  0.5147  0.3186 -0.1876
  562TMC3     O 8393   1.911   4.646  16.541  0.3310  0.1123 -0.8660
  562TMC3     H 8394   1.812   0.036  16.382  0.7499 -0.8248  0.5790
  562TMC3    H1 8395   1.973   4.395  16.253  0.6596  1.1434  2.1927
  562TMC3    H2 8396   1.769   4.633  15.977  1.0789  1.7563 -0.8321
  562TMC3    C7 8397   1.886   4.415  15.994 -0.5826  0.5788  0.1235
  562TMC3    C8 8398   1.770   0.121  16.125  0.5505 -0.5982  0.3064
  562TMC3    O1 8399   1.891   4.459  15.881 -0.1332 -0.3981 -0.1425
  562TMC3    O2 8400   1.762   0.204  16.216 -0.2588 -0.2119  0.5863
  563MPD2     C 8401   4.420   1.463  15.717  0.6407  0.3946  0.2194
  563MPD2    C1 8402   4.439   1.442  15.853 -0.3900  0.1505  0.4081
  563MPD2    C2 8403   4.548   1.371  15.891  0.0225 -0.0006 -0.0044
  563MPD2    C3 8404   4.621   1.311  15.796  0.0898  0.6953  0.1427
  563MPD2    C4 8405   4.602   1.334  15.663 -0.7914 -0.6054  0.7366
  563MPD2    C5 8406   4.503   1.417  15.621  0.6961 -0.3031 -0.2779
  563MPD2     H 8407   4.560   1.353  15.998  1.4536  3.8079  0.4735
  563MPD2    H1 8408   4.660   1.286  15.585 -1.6953  0.1715 -0.4113
  563MPD2    H2 8409   4.328   1.505  15.677  0.9089  0.2202 -0.5760
  563MPD2    H3 8410   4.479   1.424  15.515 -0.4865  0.3913  0.0413
  563MPD2     N 8411   4.719   1.222  15.841  0.1637  0.5682 -0.3197
  563MPD2    H5 8412   4.719   1.200  15.940  0.0972  0.4386 -0.3478
  563MPD2    N1 8413   4.351   1.492  15.949 -0.5992  0.4043  0.3146
  563MPD2    H7 8414   4.379   1.471  16.044 -0.2281 -2.6617 -0.4741
  564TMC3    C1 8415   4.144   1.538  16.053  0.5513  0.3676 -0.5401
  564TMC3    C2 8416   4.008   1.522  16.037  0.1397 -0.2094 -0.2386
  564TMC3    C3 8417   3.937   1.500  16.152  0.4567 -0.2159  0.0992
  564TMC3    C4 8418   4.213   1.526  16.171  0.0598  0.3110 -0.3466
  564TMC3    C5 8419   4.135   1.484  16.280  0.0257  0.6143  0.5096
  564TMC3    C6 8420   3.997   1.475  16.276  0.3460 -0.6907  0.4882
  564TMC3     C 8421   4.220   1.538  15.932 -0.0538 -0.2219 -0.2111
  564TMC3     O 8422   4.160   1.563  15.828 -0.0430 -0.2687  0.1890
  564TMC3     H 8423   3.964   1.514  15.938 -0.4000  3.5906 -0.2830
  564TMC3    H1 8424   4.317   1.547  16.193  0.0891 -1.8285  1.4889
  564TMC3    H2 8425   3.952   1.427  16.362  2.6673 -1.1861  1.4144
  564TMC3    C7 8426   4.195   1.372  16.347  0.1026  0.1889  0.4896
  564TMC3    C8 8427   3.860   1.381  16.132  0.2549  0.5903  0.6921
  564TMC3    O1 8428   4.315   1.386  16.362 -0.1391  0.0913  0.0575
  564TMC3    O2 8429   3.887   1.290  16.210 -0.3833  0.2460 -0.0170
  565TMC3    C1 8430   0.136   3.243  10.381  0.5604  0.0617  0.4816
  565TMC3    C2 8431   0.221   3.149  10.428 -0.8045  0.3580  0.4658
  565TMC3    C3 8432   0.181   3.067  10.531  0.4054 -0.2293 -0.1491
  565TMC3    C4 8433   0.020   3.273  10.441 -0.2948 -0.3403 -0.2741
  565TMC3    C5 8434   4.725   3.193  10.554  0.9321  0.2258  0.1462
  565TMC3    C6 8435   0.067   3.088  10.599 -0.2603 -1.3574 -0.5769
  565TMC3     C 8436   0.173   3.328  10.263 -0.3214  0.0979  0.2602
  565TMC3     O 8437   0.088   3.396  10.215 -0.5377 -0.2689  0.2549
  565TMC3     H 8438   0.309   3.124  10.371 -0.5074  2.0260  0.2116
  565TMC3    H1 8439   4.687   3.345  10.397 -0.0886  1.1741  1.8959
  565TMC3    H2 8440   0.024   3.012  10.663  0.2062  0.2173  1.5960
  565TMC3    C7 8441   4.584   3.169  10.572 -0.5645  0.7302 -0.2683
  565TMC3    C8 8442   0.235   2.934  10.528 -0.1308  0.6525 -0.2722
  565TMC3    O1 8443   4.504   3.200  10.485  0.6317 -0.0121  0.1460
  565TMC3    O2 8444   0.295   2.914  10.423 -0.2703 -0.1719  0.0459
  566MPD2     C 8445   1.625   4.136  14.312 -0.6160 -0.3818  0.1672
  566MPD2    C1 8446   1.654   4.254  14.253 -0.0078 -0.0892  0.0889
  566MPD2    C2 8447   1.564   4.304  14.166  0.0365 -0.1217  0.3568
  566MPD2    C3 8448   1.449   4.235  14.132 -0.2043  0.3638  0.1146
  566MPD2    C4 8449   1.416   4.119  14.202  0.1457 -0.0417 -0.5555
  566MPD2    C5 8450   1.504   4.074  14.290 -0.2547  0.5026  0.3422
  566MPD2     H 8451   1.581   4.391  14.104 -3.0075  0.2935  0.1071
  566MPD2    H1 8452   1.338   4.050  14.175  1.2462 -1.2323 -0.6569
  566MPD2    H2 8453   1.701   4.084  14.370  0.0039  0.7106  0.3333
  566MPD2    H3 8454   1.497   3.974  14.332  0.5014  1.0604  1.8096
  566MPD2     N 8455   1.364   4.277  14.024 -0.2386  0.0495 -0.3065
  566MPD2    H5 8456   1.290   4.212  14.001 -0.7953  1.2476 -1.8613
  566MPD2    N1 8457   1.779   4.299  14.285  0.1954 -0.2800 -0.7101
  566MPD2    H7 8458   1.835   4.246  14.351 -2.7854 -1.6342  0.7267
  567TMC3    C1 8459   1.953   4.458  14.295 -0.9474  0.2810 -0.2535
  567TMC3    C2 8460   2.000   4.574  14.237 -0.3155  0.1940 -0.8324
  567TMC3    C3 8461   2.083   4.653  14.308  0.1576 -0.0956  0.2305
  567TMC3    C4 8462   1.982   4.418  14.422  0.3776 -0.3151  0.4814
  567TMC3    C5 8463   2.074   4.498  14.485  0.7881 -0.0744 -0.2287
  567TMC3    C6 8464   2.123   4.613  14.430 -0.1058  0.9820 -0.8193
  567TMC3     C 8465   1.832   4.414  14.229 -0.8570  0.0460  0.2047
  567TMC3     O 8466   1.802   4.462  14.123 -0.2291 -0.5675 -0.4066
  567TMC3     H 8467   1.963   4.612  14.143 -1.3037  2.4181  0.4567
  567TMC3    H1 8468   1.945   4.327  14.467  0.0754 -1.0923 -1.3181
  567TMC3    H2 8469   2.177   4.677  14.499 -0.1911  0.1413  0.0336
  567TMC3    C7 8470   2.116   4.468  14.624 -0.4035  0.1379 -0.2781
  567TMC3    C8 8471   2.119   0.051  14.251  0.5088 -0.7947  0.2343
  567TMC3    O1 8472   2.197   4.538  14.680  0.0331  0.1295  0.3770
  567TMC3    O2 8473   2.074   0.062  14.137  0.2304  0.3344  0.3424
  568MPD2     C 8474   3.536   0.011  16.291  0.6079  0.2948 -0.1529
  568MPD2    C1 8475   3.532   0.092  16.398  0.2521  0.0742 -0.1946
  568MPD2    C2 8476   3.466   0.211  16.391  0.4794 -0.0735 -0.4653
  568MPD2    C3 8477   3.404   0.248  16.274 -0.5591 -0.3253  0.1505
  568MPD2    C4 8478   3.409   0.171  16.166  0.6887  0.5333  0.0746
  568MPD2    C5 8479   3.476   0.051  16.175  0.3379  0.3245  0.4543
  568MPD2     H 8480   3.461   0.286  16.469 -2.7060  0.7369 -1.4342
  568MPD2    H1 8481   3.354   0.196  16.076  0.1889  0.3206  0.3213
  568MPD2    H2 8482   3.595   4.655  16.302  0.5549  0.4828  1.6510
  568MPD2    H3 8483   3.465   4.714  16.095  0.1390  0.6775  0.1681
  568MPD2     N 8484   3.364   0.381  16.272  0.6486 -0.2387  0.1650
  568MPD2    H5 8485   3.372   0.433  16.359  2.6280 -0.0727 -0.1307
  568MPD2    N1 8486   3.601   0.044  16.507  0.1374 -0.9345  0.0492
  568MPD2    H7 8487   3.649   4.689  16.499  0.8908 -0.6183  0.9904
  569TMC3    C1 8488   3.309   0.592  16.179 -0.3558  0.4042  0.9389
  569TMC3    C2 8489   3.269   0.630  16.306  0.0550 -0.2123 -0.0789
  569TMC3    C3 8490   3.310   0.744  16.360  0.1305  0.0456  0.5137
  569TMC3    C4 8491   3.379   0.675  16.094  0.9100  0.8417  0.0961
  569TMC3    C5 8492   3.418   0.794  16.149 -0.3115  0.2679  0.4132
  569TMC3    C6 8493   3.382   0.831  16.279  0.2080 -0.3813  0.3666
  569TMC3     C 8494   3.333   0.450  16.156  0.4255  0.4198  0.8783
  569TMC3     O 8495   3.340   0.420  16.039 -0.4257  0.2883  0.6713
  569TMC3     H 8496   3.207   0.560  16.359 -2.0873  0.0869 -2.1881
  569TMC3    H1 8497   3.411   0.635  15.999 -3.9913 -0.9843 -0.8175
  569TMC3    H2 8498   3.404   0.929  16.318 -0.8803  0.7986 -1.9718
  569TMC3    C7 8499   3.436   0.894  16.047  0.3953  0.4305  0.4566
  569TMC3    C8 8500   3.362   0.720  16.489 -0.0970  0.4971  0.2660
  569TMC3    O1 8501   3.408   0.864  15.933 -0.0543  0.2373 -0.1442
  569TMC3    O2 8502   3.288   0.668  16.569  0.9439 -0.4520 -0.2239
  570TMC3    C1 8503   3.258   3.317  16.190  0.6097 -0.0088  0.2104
  570TMC3    C2 8504   3.301   3.345  16.058  0.0077 -0.3465 -0.3493
  570TMC3    C3 8505   3.355   3.461  16.022 -0.1022  0.4735 -0.3586
  570TMC3    C4 8506   3.282   3.410  16.289  0.0054 -0.0780  0.2202
  570TMC3    C5 8507   3.364   3.513  16.255  0.4785 -0.2338 -1.0207
  570TMC3    C6 8508   3.396   3.546  16.128 -0.0476  0.0708 -1.1262
  570TMC3     C 8509   3.199   3.183  16.221  0.4636  0.0536 -0.5668
  570TMC3     O 8510   3.187   3.108  16.127  0.0346  0.5638  0.2574
  570TMC3     H 8511   3.294   3.262  15.988 -1.3494 -0.5213  0.0005
  570TMC3    H1 8512   3.231   3.396  16.383 -2.0639 -0.7916 -0.9969
  570TMC3    H2 8513   3.449   3.635  16.096 -0.4386  0.3548 -0.9700
  570TMC3    C7 8514   3.392   3.605  16.359 -0.3328  0.0416 -0.0106
  570TMC3    C8 8515   3.407   3.490  15.890 -0.0949  0.2110 -0.7112
  570TMC3    O1 8516   3.364   3.561  16.470 -0.1332 -0.0618  0.5568
  570TMC3    O2 8517   3.509   3.558  15.891  0.1951  0.1236  0.1431
  571MPD2     C 8518   0.634   1.143   0.052 -0.5822  0.2216  0.8863
  571MPD2    C1 8519   0.683   1.140   0.178  0.2956  1.0652  0.9249
  571MPD2    C2 8520   0.750   1.253   0.227  0.7184  0.4554 -0.4683
  571MPD2    C3 8521   0.746   1.374   0.156 -0.5657 -0.4231  0.1727
  571MPD2    C4 8522   0.686   1.383   0.037  0.2697  0.0404 -0.6085
  571MPD2    C5 8523   0.635   1.266  17.721  0.0806 -0.2459 -0.0826
  571MPD2     H 8524   0.797   1.245   0.325 -0.5322  0.2699  0.1212
  571MPD2    H1 8525   0.687   1.478  17.723  1.2441 -0.2996 -1.1963
  571MPD2    H2 8526   0.583   1.058   0.007  0.5238  0.7392 -1.3517
  571MPD2    H3 8527   0.592   1.269  17.621  4.0990 -0.6765 -1.8189
  571MPD2     N 8528   0.808   1.493   0.207 -0.6942 -0.1151  0.1272
  571MPD2    H5 8529   0.818   1.569   0.141  3.5644  0.8090  1.8499
  571MPD2    N1 8530   0.665   1.020   0.247  0.0127 -0.0712 -0.2292
  571MPD2    H7 8531   0.617   0.940   0.207  1.4085 -1.1068  0.1403
  572TMC3    C1 8532   0.931   1.632   0.354  0.3394 -0.0910 -1.0287
  572TMC3    C2 8533   1.041   1.633   0.430  0.8804 -0.0822  1.0510
  572TMC3    C3 8534   1.114   1.751   0.439  0.7063 -0.2290  0.6698
  572TMC3    C4 8535   0.889   1.746   0.288 -0.3369  0.0813 -0.4178
  572TMC3    C5 8536   0.965   1.860   0.296  0.2647 -0.5855 -0.3027
  572TMC3    C6 8537   1.082   1.866   0.369 -0.3078  0.5470  0.1803
  572TMC3     C 8538   0.864   1.509   0.333 -0.1086  0.5443  0.1189
  572TMC3     O 8539   0.847   1.436   0.433 -0.0647 -0.0048  0.4412
  572TMC3     H 8540   1.073   1.536   0.466 -1.0706 -1.2360 -0.3178
  572TMC3    H1 8541   0.797   1.741   0.230 -0.2324  4.0508 -0.9324
  572TMC3    H2 8542   1.155   1.946   0.360 -1.6426  1.9623  1.8898
  572TMC3    C7 8543   0.939   1.965   0.198  0.3098 -0.0072 -0.2443
  572TMC3    C8 8544   1.242   1.741   0.505 -1.0263  0.1352 -0.0922
  572TMC3    O1 8545   0.840   1.946   0.123 -0.0989  0.1782  0.0094
  572TMC3    O2 8546   1.334   1.816   0.468 -0.2598 -0.4243  0.6125
  573MPD2     C 8547   2.248   0.975   0.384  0.1669 -0.4437 -0.0582
  573MPD2    C1 8548   2.179   1.094   0.390  0.2875 -0.3960 -0.1625
  573MPD2    C2 8549   2.047   1.104   0.338 -0.1891  0.0229 -0.5860
  573MPD2    C3 8550   1.990   0.993   0.273 -0.6012 -0.2440 -0.0846
  573MPD2    C4 8551   2.061   0.869   0.260  0.0956  0.4503 -0.1574
  573MPD2    C5 8552   2.190   0.863   0.318 -0.0573 -0.2463 -0.1040
  573MPD2     H 8553   1.995   1.200   0.340 -2.9436 -1.4758  0.2011
  573MPD2    H1 8554   2.019   0.782   0.210  0.9725 -0.2303  0.2964
  573MPD2    H2 8555   2.348   0.952   0.421 -0.1744 -1.4077  0.2711
  573MPD2    H3 8556   2.248   0.773   0.301 -1.0027 -1.6932  4.2467
  573MPD2     N 8557   1.856   0.984   0.228  0.3368  0.1950  0.4000
  573MPD2    H5 8558   1.823   0.897   0.188  1.8453  0.4679 -1.4646
  573MPD2    N1 8559   2.249   1.200   0.453 -0.1985  0.2781  0.3343
  573MPD2    H7 8560   2.339   1.180   0.496 -0.1880 -0.2561  0.0645
  574TMC3    C1 8561   1.629   1.057   0.196 -0.4213  0.3405  0.6370
  574TMC3    C2 8562   1.525   1.127   0.255  0.4215 -0.1260  0.1302
  574TMC3    C3 8563   1.396   1.089   0.234  0.4643 -0.3444  0.4581
  574TMC3    C4 8564   1.616   0.978   0.090 -0.1135 -0.3552  0.1176
  574TMC3    C5 8565   1.491   0.942   0.069 -0.5204  0.2891  0.4073
  574TMC3    C6 8566   1.378   0.994   0.135 -0.1645  0.3506  0.1682
  574TMC3     C 8567   1.764   1.087   0.245  0.2611  0.4451 -0.6013
  574TMC3     O 8568   1.775   1.194   0.301  0.2822 -0.3566 -0.0870
  574TMC3     H 8569   1.542   1.161   0.356  1.2941  1.8230 -0.6844
  574TMC3    H1 8570   1.697   0.954   0.023 -0.2274 -0.6467  0.0853
  574TMC3    H2 8571   1.281   0.954   0.106  0.2313 -1.5542  1.4342
  574TMC3    C7 8572   1.452   0.896  17.675  0.2217  0.2015  0.8575
  574TMC3    C8 8573   1.313   1.205   0.233 -0.4736  0.5374  0.1581
  574TMC3    O1 8574   1.344   0.927  17.627  0.0439  0.2228  0.2160
  574TMC3    O2 8575   1.195   1.188   0.200 -0.5498  0.5306  0.1357
  575TMC3    C1 8576   0.664   2.151  10.356  0.0947 -0.0074 -0.0461
  575TMC3    C2 8577   0.700   2.162  10.224  0.4678 -0.3420  0.0513
  575TMC3    C3 8578   0.656   2.275  10.162  0.1313 -0.2750  0.1565
  575TMC3    C4 8579   0.583   2.239  10.425  0.2649  0.1324  0.5063
  575TMC3    C5 8580   0.525   2.335  10.349 -0.6699  0.4683  0.7982
  575TMC3    C6 8581   0.554   2.350  10.214  0.0494 -0.0576  0.2845
  575TMC3     C 8582   0.733   2.048  10.429 -0.2255  0.4479 -0.5369
  575TMC3     O 8583   0.782   1.960  10.359 -0.5485  0.2360 -0.0653
  575TMC3     H 8584   0.785   2.105  10.187 -0.2014 -0.9003 -0.6145
  575TMC3    H1 8585   0.547   2.224  10.526 -0.7984  2.0887  0.4231
  575TMC3    H2 8586   0.500   2.419  10.151 -1.7065 -1.3133  0.4076
  575TMC3    C7 8587   0.420   2.418  10.416 -0.0886 -0.3260 -0.2527
  575TMC3    C8 8588   0.655   2.266  10.019  0.0018 -0.7973 -0.7272
  575TMC3    O1 8589   0.333   2.469  10.344  0.1624  0.0061  0.1332
  575TMC3    O2 8590   0.556   2.321   9.970  0.1688  0.1796  0.1178
  576MPD2     C 8591   0.083   3.197  12.310  0.1326 -0.1636 -0.2986
  576MPD2    C1 8592   0.094   3.330  12.258  0.5494  0.2961  0.6158
  576MPD2    C2 8593   0.039   3.435  12.331  0.4203 -0.1725 -0.3422
  576MPD2    C3 8594   4.715   3.420  12.453 -0.4848  0.8136  0.3978
  576MPD2    C4 8595   4.708   3.294  12.505  0.1182  0.2476 -0.6526
  576MPD2    C5 8596   0.028   3.189  12.436 -0.2217  0.0848  0.8459
  576MPD2     H 8597   0.034   3.529  12.278 -2.1237 -0.7126 -1.0431
  576MPD2    H1 8598   4.672   3.272  12.605 -3.5958  0.7834 -1.8836
  576MPD2    H2 8599   0.115   3.104  12.264 -0.7592 -1.5402  1.8631
  576MPD2    H3 8600   0.021   3.093  12.486 -2.2728 -0.6337 -0.7927
  576MPD2     N 8601   4.666   3.544  12.511 -0.1620  0.5636  0.4667
  576MPD2    H5 8602   4.695   3.627  12.461 -1.8423  1.7329  1.3930
  576MPD2    N1 8603   0.159   3.355  12.135 -0.5610 -0.2815 -0.4010
  576MPD2    H7 8604   0.151   3.449  12.099  0.1755 -0.0506  0.0486
  577TMC3    C1 8605   0.209   3.319  11.909 -0.7510 -0.2511  0.2769
  577TMC3    C2 8606   0.283   3.254  11.806 -0.6464 -0.0829 -0.4237
  577TMC3    C3 8607   0.291   3.309  11.683 -0.0156 -0.2163 -0.6090
  577TMC3    C4 8608   0.157   3.445  11.882 -0.1570  0.6291  0.1620
  577TMC3    C5 8609   0.182   3.504  11.757 -0.2834 -0.2569  0.6528
  577TMC3    C6 8610   0.240   3.438  11.653  0.3638  0.2265  0.3026
  577TMC3     C 8611   0.209   3.262  12.045 -0.4074 -0.6229 -0.3011
  577TMC3     O 8612   0.239   3.146  12.072  0.0713 -0.0783 -0.5355
  577TMC3     H 8613   0.336   3.161  11.823  0.2612  0.3874 -0.7152
  577TMC3    H1 8614   0.086   3.494  11.947 -2.1468 -2.2798  0.2007
  577TMC3    H2 8615   0.246   3.475  11.551  0.5368  1.6289  0.8329
  577TMC3    C7 8616   0.125   3.631  11.739 -0.1894 -0.0416  1.0412
  577TMC3    C8 8617   0.392   3.249  11.590  0.7227  0.9299 -0.2328
  577TMC3    O1 8618   0.099   3.701  11.839 -0.2666 -0.3173 -0.5278
  577TMC3    O2 8619   0.395   3.126  11.582  0.1852 -0.0218  0.7488
  578MPD2     C 8620   2.204   3.838   1.355  0.2718  0.3673 -0.3096
  578MPD2    C1 8621   2.276   3.799   1.240 -0.5053 -0.1384  0.2025
  578MPD2    C2 8622   2.393   3.733   1.260 -0.1241  0.8441 -0.1520
  578MPD2    C3 8623   2.439   3.708   1.390  0.0605 -0.2750 -0.3037
  578MPD2    C4 8624   2.363   3.735   1.495  0.7980 -0.5471 -0.7129
  578MPD2    C5 8625   2.243   3.799   1.477 -0.1726  0.1554  0.3689
  578MPD2     H 8626   2.449   3.692   1.176  0.1883 -0.0157  0.4789
  578MPD2    H1 8627   2.381   3.684   1.589 -0.7681 -1.1326 -0.7211
  578MPD2    H2 8628   2.107   3.886   1.351  0.6017  1.3148  3.2130
  578MPD2    H3 8629   2.176   3.817   1.561 -0.4570 -1.5928  0.5335
  578MPD2     N 8630   2.566   3.639   1.400  0.6056 -0.1156  0.4585
  578MPD2    H5 8631   2.610   3.622   1.309  1.1250 -1.2886  0.9250
  578MPD2    N1 8632   2.222   3.841   1.114  0.3588 -0.4991 -0.8632
  578MPD2    H7 8633   2.153   3.915   1.124  4.0688  2.9541 -0.5344
  579TMC3    C1 8634   2.768   3.554   1.483 -0.2322  0.6560  0.2377
  579TMC3    C2 8635   2.877   3.595   1.551  0.0822  0.1913  0.2934
  579TMC3    C3 8636   2.997   3.560   1.509 -0.3409  0.2790 -0.3219
  579TMC3    C4 8637   2.771   3.475   1.371 -0.1528 -0.0770 -0.1483
  579TMC3    C5 8638   2.893   3.440   1.332  0.5600  0.3532  0.0509
  579TMC3    C6 8639   3.009   3.472   1.402 -0.4351  0.3692  0.7961
  579TMC3     C 8640   2.645   3.624   1.511  0.6015 -0.1415  0.1120
  579TMC3     O 8641   2.624   3.671   1.629 -0.1253  0.1003  0.1698
  579TMC3     H 8642   2.869   3.657   1.640  0.2994  1.8703 -0.8481
  579TMC3    H1 8643   2.682   3.432   1.327 -0.9008  0.7581  0.5703
  579TMC3    H2 8644   3.097   3.415   1.378 -2.1661 -2.0962  0.3327
  579TMC3    C7 8645   2.908   3.338   1.235 -0.3547 -0.8385  0.2116
  579TMC3    C8 8646   3.107   3.584   1.606 -0.0961  0.3134 -0.0280
  579TMC3    O1 8647   3.002   3.261   1.247  0.8394 -0.5046  1.0739
  579TMC3    O2 8648   3.077   3.626   1.718  0.1892  0.6516 -0.1060
  580TMC3    C1 8649   2.378   2.921  12.063 -0.3391 -0.1576  0.3236
  580TMC3    C2 8650   2.500   2.951  12.012  0.3107 -0.2078 -0.2576
  580TMC3    C3 8651   2.595   2.860  12.016  0.0606 -0.1774  0.0768
  580TMC3    C4 8652   2.343   2.796  12.102  0.6486  0.0549 -0.2655
  580TMC3    C5 8653   2.438   2.699  12.100 -0.1401  0.6893 -0.0799
  580TMC3    C6 8654   2.564   2.728  12.050  0.4693 -1.2831  0.0000
  580TMC3     C 8655   2.276   3.004  12.018 -0.7626  0.4788 -0.2281
  580TMC3     O 8656   2.309   3.075  11.926 -0.1133  0.0318  0.5507
  580TMC3     H 8657   2.527   3.047  11.970  0.2276  0.7383  1.8264
  580TMC3    H1 8658   2.244   2.776  12.142 -0.2678  3.1691 -0.9813
  580TMC3    H2 8659   2.643   2.653  12.047  1.7224  0.1179 -1.7339
  580TMC3    C7 8660   2.399   2.564  12.136 -0.6458 -0.7785 -0.1239
  580TMC3    C8 8661   2.712   2.876  11.940  0.1726 -0.7849  0.0502
  580TMC3    O1 8662   2.311   2.545  12.220  0.3183  0.0045  0.3415
  580TMC3    O2 8663   2.736   2.798  11.848  0.4144  0.0893  0.3379
  581MPD2     C 8664   4.440   2.560  14.562  0.2710  0.7967  0.2871
  581MPD2    C1 8665   4.313   2.568  14.611  0.0438 -0.6563 -0.4695
  581MPD2    C2 8666   4.228   2.644  14.540  0.5532 -0.5800 -0.3282
  581MPD2    C3 8667   4.262   2.713  14.419 -0.7030  0.1047  0.1449
  581MPD2    C4 8668   4.386   2.687  14.366  0.4547 -0.1470  0.5574
  581MPD2    C5 8669   4.475   2.604  14.433  0.7745 -0.4874 -0.6983
  581MPD2     H 8670   4.128   2.664  14.576  1.5170  0.5935  1.7420
  581MPD2    H1 8671   4.421   2.723  14.270 -0.1228  0.2885  0.5096
  581MPD2    H2 8672   4.520   2.512  14.619  0.7180  0.4737 -0.6195
  581MPD2    H3 8673   4.579   2.577  14.417  0.5864 -1.0809 -0.9331
  581MPD2     N 8674   4.160   2.803  14.363 -0.1405  0.1339  0.1679
  581MPD2    H5 8675   4.080   2.820  14.424 -2.0044 -0.4407 -2.1433
  581MPD2    N1 8676   4.283   2.521  14.741  0.3956  0.2633  0.0010
  581MPD2    H7 8677   4.357   2.465  14.783 -0.7989 -2.1980 -1.1810
  582TMC3    C1 8678   4.181   2.487  14.950  0.6180  0.3321  0.6699
  582TMC3    C2 8679   4.303   2.463  15.003  0.0039 -0.4034 -0.1617
  582TMC3    C3 8680   4.306   2.453  15.140  0.4841 -0.2519  0.7302
  582TMC3    C4 8681   4.069   2.507  15.027  0.1888  0.2514 -0.3603
  582TMC3    C5 8682   4.081   2.493  15.165  0.0199  0.1249 -0.6771
  582TMC3    C6 8683   4.197   2.450  15.224  0.1517  1.5042 -0.1375
  582TMC3     C 8684   4.165   2.527  14.811 -0.4444  0.2830  0.2434
  582TMC3     O 8685   4.055   2.572  14.777  0.9121  0.5659 -0.7414
  582TMC3     H 8686   4.387   2.437  14.939  0.1459 -2.2124  0.7579
  582TMC3    H1 8687   3.971   2.531  14.988  0.0566 -1.2275 -0.9403
  582TMC3    H2 8688   4.210   2.458  15.332  0.4424  1.3099 -0.1561
  582TMC3    C7 8689   4.003   2.595  15.245  0.1446  0.2469  0.3813
  582TMC3    C8 8690   4.432   2.478  15.218  0.0717 -0.0246  0.0890
  582TMC3    O1 8691   3.884   2.579  15.246  0.0522  0.0782  0.0972
  582TMC3    O2 8692   4.417   2.490  15.334  0.0244  0.1332 -0.1115
  583MPD2     C 8693   0.137   0.409  16.408  0.7301 -0.3188  0.5528
  583MPD2    C1 8694   0.173   0.307  16.499 -0.4795  0.1733 -0.0318
  583MPD2    C2 8695   0.129   0.316  16.625  0.7346 -0.0667  0.1483
  583MPD2    C3 8696   0.064   0.423  16.683  0.5614  0.1670 -0.1897
  583MPD2    C4 8697   0.028   0.521  16.592 -0.3076 -0.2385 -0.4523
  583MPD2    C5 8698   0.048   0.508  16.455  0.0097  0.1115  0.3313
  583MPD2     H 8699   0.157   0.235  16.691  1.9606  0.9586  0.9056
  583MPD2    H1 8700   4.698   0.603  16.621 -0.7621 -0.0270 -2.0587
  583MPD2    H2 8701   0.158   0.404  16.302  1.1077 -0.1752  0.6236
  583MPD2    H3 8702   0.010   0.585  16.389  0.3622 -0.3914 -0.4543
  583MPD2     N 8703   0.057   0.435  16.830  0.0727  0.0644  0.4541
  583MPD2    H5 8704   0.103   0.359  16.880 -1.3325 -0.8250  0.3719
  583MPD2    N1 8705   0.248   0.199  16.453  0.0871 -0.5917 -0.0312
  583MPD2    H7 8706   0.291   0.203  16.361 -0.3338 -1.9472 -0.2829
  584TMC3    C1 8707   0.040   0.556  17.030 -0.5576  0.0936  0.0436
  584TMC3    C2 8708   0.131   0.655  17.068  0.3041 -0.1536 -0.0098
  584TMC3    C3 8709   0.204   0.619  17.183  0.4469  0.2190  0.5281
  584TMC3    C4 8710   0.027   0.438  17.094  0.5467  0.2697  0.8315
  584TMC3    C5 8711   0.110   0.402  17.197  0.0776  0.5000  0.3290
  584TMC3    C6 8712   0.197   0.492  17.239  0.0386 -0.5801  0.3481
  584TMC3     C 8713   0.028   0.554  16.886  0.6101 -0.3914  0.0483
  584TMC3     O 8714   4.724   0.662  16.838  0.2167  0.3599  0.5986
  584TMC3     H 8715   0.147   0.745  17.010 -0.5281 -0.7138 -1.0862
  584TMC3    H1 8716   4.703   0.357  17.051  1.5370 -1.3092  2.4015
  584TMC3    H2 8717   0.269   0.463  17.315  0.7894  1.5419  0.4530
  584TMC3    C7 8718   0.093   0.273  17.269  0.6303 -0.0080  0.6650
  584TMC3    C8 8719   0.267   0.723  17.259 -0.3104  0.7635 -0.5424
  584TMC3    O1 8720   0.148   0.272  17.378  0.1949  0.0149  0.1234
  584TMC3    O2 8721   0.332   0.694  17.358 -0.3663 -0.1989  0.3866
  585MPD2     C 8722   3.814   3.683   0.523 -0.3565 -0.2740  0.4981
  585MPD2    C1 8723   3.848   3.712   0.395  0.0392 -0.0439 -0.1551
  585MPD2    C2 8724   3.874   3.609   0.311 -0.0480 -0.5623  0.6889
  585MPD2    C3 8725   3.844   3.474   0.352 -0.0234 -0.6121  0.3860
  585MPD2    C4 8726   3.789   3.448   0.473 -0.6708  0.2344  0.2819
  585MPD2    C5 8727   3.779   3.558   0.559 -0.0254 -0.0862 -0.1045
  585MPD2     H 8728   3.915   3.627   0.212  0.9041 -0.0579  1.1758
  585MPD2    H1 8729   3.763   3.348   0.507  0.4243 -0.2241 -0.2502
  585MPD2    H2 8730   3.795   3.768   0.587 -0.2679  0.6626 -0.7263
  585MPD2    H3 8731   3.718   3.546   0.648  0.1544  0.6917  0.1263
  585MPD2     N 8732   3.863   3.359   0.272 -0.2878 -0.0922 -0.5083
  585MPD2    H5 8733   3.817   3.278   0.313  0.0316 -0.1708 -0.3041
  585MPD2    N1 8734   3.860   3.847   0.355 -0.7246  0.5659 -0.2474
  585MPD2    H7 8735   3.850   3.916   0.430  0.4833 -0.0519  0.4723
  586TMC3    C1 8736   3.957   3.215   0.126 -0.3982  0.6619  0.2329
  586TMC3    C2 8737   4.069   3.162   0.081  0.2153 -0.3955  0.4804
  586TMC3    C3 8738   4.083   3.033   0.036 -0.0724  0.5652 -0.5680
  586TMC3    C4 8739   3.843   3.142   0.120 -0.2381  0.4981  0.1478
  586TMC3    C5 8740   3.851   3.015   0.065 -0.7288 -0.6212  0.2049
  586TMC3    C6 8741   3.972   2.955   0.036  0.6228 -0.6980 -0.1583
  586TMC3     C 8742   3.959   3.345   0.175 -0.1591 -0.3724 -0.1613
  586TMC3     O 8743   4.043   3.429   0.151  0.1770 -0.1925 -0.2540
  586TMC3     H 8744   4.158   3.219   0.105  1.4203 -1.1817 -2.1772
  586TMC3    H1 8745   3.745   3.175   0.153 -0.1527 -1.2393  2.0712
  586TMC3    H2 8746   3.965   2.860  17.722 -2.0222 -0.1896 -0.7622
  586TMC3    C7 8747   3.742   2.962  17.722  0.3511 -0.1034  0.1798
  586TMC3    C8 8748   4.178   3.002  17.669 -0.2107  0.3809  0.0257
  586TMC3    O1 8749   3.662   2.899   0.045  0.0411  0.0317  0.1445
  586TMC3    O2 8750   4.191   2.881  17.647  1.0186  0.2167 -0.1469
  587TMC3    C1 8751   1.644   2.024  16.599 -0.4473  0.0596 -0.5565
  587TMC3    C2 8752   1.648   2.123  16.510  0.3794  0.1730 -0.8087
  587TMC3    C3 8753   1.764   2.157  16.448  0.0668  0.1132 -0.0196
  587TMC3    C4 8754   1.764   1.959  16.629 -0.1847  0.2187 -0.2632
  587TMC3    C5 8755   1.883   2.002  16.575 -0.1040 -0.1383 -0.0938
  587TMC3    C6 8756   1.886   2.105  16.484 -0.5414  0.1445 -0.3948
  587TMC3     C 8757   1.517   1.974  16.659  0.7316 -0.4042 -0.5402
  587TMC3     O 8758   1.530   1.936  16.777 -0.1315 -0.1583  0.4383
  587TMC3     H 8759   1.553   2.162  16.473 -0.0621  0.5827  0.7572
  587TMC3    H1 8760   1.754   1.870  16.690 -1.7277 -0.8168 -2.0598
  587TMC3    H2 8761   1.977   2.147  16.442 -0.7774  0.5871 -0.4584
  587TMC3    C7 8762   2.005   1.922  16.597 -0.3143  0.6530 -0.1689
  587TMC3    C8 8763   1.773   2.276  16.373 -0.2633 -1.1342  0.9397
  587TMC3    O1 8764   2.098   1.933  16.517  0.6268  0.8394  0.0200
  587TMC3    O2 8765   1.850   2.275  16.280  0.3142  0.1267  0.0729
  588TMC3    C1 8766   3.769   4.522   9.588  0.3352 -0.6249  0.1498
  588TMC3    C2 8767   3.698   4.404   9.601  0.1738  0.0073  0.4135
  588TMC3    C3 8768   3.776   4.294   9.602 -0.5492  0.2732  0.4677
  588TMC3    C4 8769   3.901   4.529   9.572 -0.2417 -0.0937 -0.2298
  588TMC3    C5 8770   3.972   4.407   9.586  0.3905  1.0629  0.4495
  588TMC3    C6 8771   3.911   4.289   9.604 -0.3211 -0.2750 -0.2276
  588TMC3     C 8772   3.705   4.637   9.637  0.6110  0.4320  0.2829
  588TMC3     O 8773   3.601   4.611   9.700 -0.1492 -0.3573 -0.4157
  588TMC3     H 8774   3.592   4.389   9.620  0.4503 -2.7983 -0.3549
  588TMC3    H1 8775   3.940   4.616   9.519 -1.4879  1.2528  1.0772
  588TMC3    H2 8776   3.970   4.199   9.620  0.0230 -0.2092 -1.1855
  588TMC3    C7 8777   4.113   4.424   9.609 -0.2217 -0.5463  0.4603
  588TMC3    C8 8778   3.708   4.174   9.624 -0.0103  0.0286  0.6727
  588TMC3    O1 8779   4.189   4.324   9.594 -0.1789  0.4320  0.4180
  588TMC3    O2 8780   3.596   4.164   9.579 -0.2878  0.0392  0.4164
  589TMC3    C1 8781   3.300   1.589   1.388 -0.9631 -0.0107 -0.8970
  589TMC3    C2 8782   3.421   1.609   1.448  0.0407  0.2387 -0.4873
  589TMC3    C3 8783   3.529   1.545   1.394  0.1780 -0.2532  0.2684
  589TMC3    C4 8784   3.284   1.496   1.290  0.5055 -0.0717 -0.5098
  589TMC3    C5 8785   3.395   1.425   1.250 -0.7228 -0.5525  0.8311
  589TMC3    C6 8786   3.520   1.453   1.296 -0.1725 -0.1170 -0.5061
  589TMC3     C 8787   3.193   1.689   1.409 -1.1474  0.6168  0.4712
  589TMC3     O 8788   3.080   1.657   1.369 -0.2054  0.5180 -0.0057
  589TMC3     H 8789   3.436   1.668   1.537  2.7356  2.9605 -2.7647
  589TMC3    H1 8790   3.192   1.476   1.236  0.4705 -1.4991  0.0630
  589TMC3    H2 8791   3.604   1.387   1.278 -0.1838 -0.8331  2.1538
  589TMC3    C7 8792   3.369   1.306   1.173 -0.3907  0.4161 -0.9236
  589TMC3    C8 8793   3.662   1.583   1.442  0.3250 -0.5754 -0.4409
  589TMC3    O1 8794   3.252   1.263   1.163  0.2602  0.1143 -0.0969
  589TMC3    O2 8795   3.666   1.650   1.546 -0.2800  0.1888  0.2231
  590MPD2     C 8796   2.916   0.740  16.537 -0.0574  0.0093  0.2729
  590MPD2    C1 8797   2.858   0.675  16.433  1.0778 -0.3664  0.0791
  590MPD2    C2 8798   2.886   0.719  16.306 -0.6337  0.8141 -0.6453
  590MPD2    C3 8799   2.974   0.822  16.284 -0.2549  0.0364  0.2472
  590MPD2    C4 8800   3.024   0.891  16.392 -0.5314 -0.2490  0.6847
  590MPD2    C5 8801   2.998   0.845  16.517  0.4101  0.8146 -0.0333
  590MPD2     H 8802   2.823   0.687  16.223  1.1013 -2.7986 -0.6034
  590MPD2    H1 8803   3.093   0.974  16.376  0.4959 -1.0350  1.0482
  590MPD2    H2 8804   2.889   0.715  16.639 -2.0570 -0.4623 -0.3717
  590MPD2    H3 8805   3.020   0.908  16.602  1.1817 -1.0691  1.1413
  590MPD2     N 8806   3.002   0.862  16.153 -0.0106  0.2484 -0.2778
  590MPD2    H5 8807   2.968   0.798  16.081 -1.7744  0.9347 -0.0469
  590MPD2    N1 8808   2.766   0.572  16.466  0.5503 -0.4166 -0.7361
  590MPD2    H7 8809   2.712   0.584  16.551  0.7309 -0.2743 -0.6406
  591TMC3    C1 8810   3.072   0.988  15.963 -0.1497 -0.1131 -0.0673
  591TMC3    C2 8811   3.079   0.868  15.892  0.1882 -0.1553  0.2897
  591TMC3    C3 8812   3.138   0.882  15.767 -0.3474  0.6316  0.7565
  591TMC3    C4 8813   3.098   1.114  15.905 -0.2466 -0.3730  0.0531
  591TMC3    C5 8814   3.142   1.121  15.780 -0.4028  0.2582 -0.3716
  591TMC3    C6 8815   3.165   1.002  15.715  0.3119  0.0803 -1.0030
  591TMC3     C 8816   3.060   0.978  16.109  0.2761 -0.0828 -0.0909
  591TMC3     O 8817   3.112   1.063  16.176 -0.2143  0.1550  0.1634
  591TMC3     H 8818   3.073   0.773  15.943  2.4971  0.2648  1.3587
  591TMC3    H1 8819   3.075   1.196  15.972  1.1852  0.3026 -0.2922
  591TMC3    H2 8820   3.195   0.999  15.611 -0.4863 -1.3725 -1.1943
  591TMC3    C7 8821   3.095   1.237  15.705  0.0126  0.4698 -0.2534
  591TMC3    C8 8822   3.207   0.763  15.725  0.4911  0.4263  0.3928
  591TMC3    O1 8823   2.999   1.301  15.747 -0.1064 -0.0234  0.4481
  591TMC3    O2 8824   3.170   0.655  15.771  0.2675 -0.9273 -0.0708
  592MPD2     C 8825   3.412   2.217  11.465 -0.1901  0.0523  0.1490
  592MPD2    C1 8826   3.359   2.302  11.561 -0.1783 -0.2050  0.8147
  592MPD2    C2 8827   3.269   2.241  11.644  0.0405 -0.4728  0.3937
  592MPD2    C3 8828   3.247   2.106  11.653 -0.3934  0.0836  0.5994
  592MPD2    C4 8829   3.302   2.023  11.554 -0.4384  0.3373  0.7510
  592MPD2    C5 8830   3.384   2.078  11.463  1.1021  0.2258  0.5814
  592MPD2     H 8831   3.218   2.303  11.717  1.0350 -2.4437  2.7500
  592MPD2    H1 8832   3.287   1.916  11.548 -1.1932  0.4867 -0.0459
  592MPD2    H2 8833   3.489   2.238  11.393 -1.6855 -1.6210 -1.9499
  592MPD2    H3 8834   3.433   2.018  11.387  1.1699  2.6639 -1.3131
  592MPD2     N 8835   3.166   2.045  11.752 -0.3835  0.2092 -0.0855
  592MPD2    H5 8836   3.125   2.108  11.820 -0.3781 -1.0996  1.1379
  592MPD2    N1 8837   3.388   2.436  11.554 -0.5768  0.1298 -0.4603
  592MPD2    H7 8838   3.452   2.471  11.484 -0.6063 -0.2899 -0.6968
  593TMC3    C1 8839   3.408   2.658  11.637  0.0839  0.3767 -0.2133
  593TMC3    C2 8840   3.430   2.731  11.750  0.3990 -0.9067  0.1502
  593TMC3    C3 8841   3.474   2.860  11.739  0.6149 -0.2910 -0.3682
  593TMC3    C4 8842   3.428   2.712  11.518  0.5831 -0.6581 -0.6258
  593TMC3    C5 8843   3.483   2.836  11.507 -1.0114  0.5925 -0.9725
  593TMC3    C6 8844   3.513   2.914  11.619 -0.0276 -0.3130 -0.0163
  593TMC3     C 8845   3.351   2.527  11.656  0.5013  0.9198 -0.3011
  593TMC3     O 8846   3.306   2.496  11.765  0.0898  0.0958 -0.0541
  593TMC3     H 8847   3.416   2.694  11.851 -2.2976  2.4478  0.9949
  593TMC3    H1 8848   3.405   2.657  11.427 -1.2993 -0.2077 -0.4253
  593TMC3    H2 8849   3.563   3.009  11.605  0.9644 -0.6538  1.2070
  593TMC3    C7 8850   3.492   2.909  11.378 -0.0342  0.4447  0.7462
  593TMC3    C8 8851   3.494   2.940  11.856 -0.3071 -1.1191 -0.3538
  593TMC3    O1 8852   3.549   3.020  11.389 -0.2137  0.2069 -0.2126
  593TMC3    O2 8853   3.404   2.923  11.934 -0.0305 -0.1178 -0.9051
  594MPD2     C 8854   1.976   1.121  14.370  0.0674 -0.1389 -0.7830
  594MPD2    C1 8855   1.901   1.231  14.375  0.7965 -0.2221  0.1643
  594MPD2    C2 8856   1.941   1.343  14.298 -0.0142  0.2108 -0.3589
  594MPD2    C3 8857   2.043   1.330  14.205  0.8167 -0.1929 -0.0486
  594MPD2    C4 8858   2.124   1.217  14.208 -0.5680 -0.0507 -0.7488
  594MPD2    C5 8859   2.092   1.109  14.295  0.1742  0.0391 -0.2473
  594MPD2     H 8860   1.883   1.435  14.300  0.2503  0.3235  2.2720
  594MPD2    H1 8861   2.216   1.201  14.152 -0.9141 -0.3202 -1.2491
  594MPD2    H2 8862   1.941   1.030  14.418 -3.3235  1.4788 -0.2011
  594MPD2    H3 8863   2.150   1.017  14.301  1.1378  0.6944  0.4516
  594MPD2     N 8864   2.077   1.447  14.133  0.1992  0.2358 -0.4074
  594MPD2    H5 8865   2.022   1.530  14.150  0.4361  0.5382 -1.1019
  594MPD2    N1 8866   1.792   1.226  14.469 -0.3753  0.4136  0.4647
  594MPD2    H7 8867   1.789   1.141  14.525  0.7144 -0.3368 -0.6239
  595TMC3    C1 8868   2.421   1.717  13.952  0.2166  0.3361  0.0334
  595TMC3    C2 8869   2.357   1.596  13.958  0.4262  1.1153 -0.3801
  595TMC3    C3 8870   2.233   1.589  14.020  0.3756  0.5462  0.2699
  595TMC3    C4 8871   2.371   1.824  14.012  0.0603  0.3343  0.0404
  595TMC3    C5 8872   2.255   1.810  14.079 -0.0468 -0.1549  0.1810
  595TMC3    C6 8873   2.188   1.692  14.096 -0.3783 -0.5396  0.2167
  595TMC3     C 8874   2.563   1.722  13.915 -0.0257  0.1417 -0.3905
  595TMC3     O 8875   2.646   1.758  13.999 -0.1675 -0.0497  0.1376
  595TMC3     H 8876   2.400   1.506  13.915  1.9040  1.4696  0.3571
  595TMC3    H1 8877   2.417   1.920  13.992  2.3272 -0.4037  1.6450
  595TMC3    H2 8878   2.094   1.690  14.149 -1.7291 -1.1437 -2.1949
  595TMC3    C7 8879   2.222   1.912  14.182  0.3298 -0.2105  0.1629
  595TMC3    C8 8880   2.184   1.456  14.044 -0.0215 -0.1542 -0.2672
  595TMC3    O1 8881   2.122   1.892  14.252 -0.0738 -0.5079  0.0631
  595TMC3    O2 8882   2.249   1.362  14.000 -0.1995 -0.2969  0.1800
  596MPD2     C 8883   1.175   4.258  16.638 -0.0800  0.3458  0.1900
  596MPD2    C1 8884   1.174   4.381  16.586 -0.3741 -0.1679  0.1175
  596MPD2    C2 8885   1.205   4.392  16.452  0.8136  0.4587  0.0256
  596MPD2    C3 8886   1.224   4.285  16.368 -0.6714  0.0725 -0.1435
  596MPD2    C4 8887   1.217   4.160  16.420 -0.3791  0.4349 -0.0342
  596MPD2    C5 8888   1.199   4.153  16.552  0.0207 -0.1825 -0.5135
  596MPD2     H 8889   1.191   4.488  16.403  0.6916  1.2535  1.6343
  596MPD2    H1 8890   1.226   4.069  16.363  0.0723 -0.8808  2.1495
  596MPD2    H2 8891   1.159   4.235  16.742  1.3585 -0.3991  0.2415
  596MPD2    H3 8892   1.190   4.050  16.586 -0.1117 -0.0312 -0.0799
  596MPD2     N 8893   1.241   4.297  16.229  0.4070 -0.8855  0.5161
  596MPD2    H5 8894   1.244   4.211  16.175  0.0013  0.5848 -1.8544
  596MPD2    N1 8895   1.167   4.494  16.664  0.1068  0.9460 -0.0443
  596MPD2    H7 8896   1.185   4.583  16.618  0.2228  1.1645  0.4196
  597TMC3    C1 8897   1.100   4.641  16.830 -0.8872 -0.6592 -0.2072
  597TMC3    C2 8898   1.187   0.006  16.781 -0.4503  0.2868  0.6232
  597TMC3    C3 8899   1.148   0.134  16.811  0.4310 -0.2918 -0.1350
  597TMC3    C4 8900   0.991   4.674  16.918 -0.5140 -0.4133  0.7456
  597TMC3    C5 8901   0.957   0.073  16.934 -0.1084 -0.0426  0.1989
  597TMC3    C6 8902   1.037   0.171  16.882 -0.1776  0.1507 -0.4019
  597TMC3     C 8903   1.114   4.504  16.790 -0.4403  0.0202  0.5754
  597TMC3     O 8904   1.057   4.429  16.868  0.3666 -0.2208 -0.0852
  597TMC3     H 8905   1.277   4.716  16.726 -0.7743 -1.8500  1.0220
  597TMC3    H1 8906   0.921   4.593  16.938  0.6217 -0.9493  2.5042
  597TMC3    H2 8907   1.014   0.275  16.902  1.4611  0.2733  0.8002
  597TMC3    C7 8908   0.859   0.100  17.036 -0.9408  0.1609  0.0879
  597TMC3    C8 8909   1.208   0.241  16.733  0.2610  0.2158 -0.4879
  597TMC3    O1 8910   0.824   0.008  17.110 -0.3393  0.3192  0.6328
  597TMC3    O2 8911   1.142   0.338  16.701 -0.1657  0.3972 -0.2968
  598TMC3    C1 8912   4.176   0.947  15.404  0.5038 -0.6128  0.2380
  598TMC3    C2 8913   4.096   0.834  15.404 -0.0901 -0.2727 -0.1828
  598TMC3    C3 8914   4.047   0.786  15.284 -0.1747  0.4563 -0.0633
  598TMC3    C4 8915   4.190   1.017  15.286 -0.1851  0.3328  0.4858
  598TMC3    C5 8916   4.120   0.974  15.177  0.2237  0.4052 -0.7059
  598TMC3    C6 8917   4.062   0.849  15.164 -0.1376 -0.4845  0.2345
  598TMC3     C 8918   4.201   1.024  15.523  0.0596  0.0295 -0.1257
  598TMC3     O 8919   4.287   1.111  15.512 -1.1027  0.0254 -0.2850
  598TMC3     H 8920   4.078   0.771  15.490  1.2958 -1.6944 -0.9406
  598TMC3    H1 8921   4.234   1.116  15.288  1.1186 -0.2280  0.0993
  598TMC3    H2 8922   3.995   0.834  15.080  0.8683 -1.1176 -0.4526
  598TMC3    C7 8923   4.123   1.043  15.052 -0.1238 -0.5063 -0.5509
  598TMC3    C8 8924   3.957   0.669  15.291  0.3446 -0.6982  0.4092
  598TMC3    O1 8925   4.127   0.981  14.949  0.2074 -0.1367  0.3300
  598TMC3    O2 8926   3.937   0.622  15.400  0.3799  0.2956 -0.2098
  599MPD2     C 8927   3.976   3.125  15.765 -0.1115  0.6505  0.6215
  599MPD2    C1 8928   3.954   2.992  15.796 -0.5370  0.1068  0.6758
  599MPD2    C2 8929   3.878   2.969  15.917 -0.0858 -0.1175  0.0102
  599MPD2    C3 8930   3.833   3.072  15.996 -0.4129  0.1083 -0.0932
  599MPD2    C4 8931   3.856   3.205  15.961  0.7965 -0.5344 -0.1467
  599MPD2    C5 8932   3.926   3.226  15.841  0.3383  0.8407  0.3934
  599MPD2     H 8933   3.869   2.867  15.952  0.9050 -0.7601 -1.6240
  599MPD2    H1 8934   3.827   3.294  16.015 -0.3185 -1.5952  1.0243
  599MPD2    H2 8935   4.019   3.169  15.675 -1.1197 -1.3122 -0.8137
  599MPD2    H3 8936   3.949   3.328  15.814 -0.5335  0.4935 -1.6129
  599MPD2     N 8937   3.750   3.048  16.116 -0.4821  0.0511 -0.3649
  599MPD2    H5 8938   3.722   3.128  16.172  0.4923  0.5256 -0.5464
  599MPD2    N1 8939   4.010   2.896  15.713 -0.2079  0.5525  1.5764
  599MPD2    H7 8940   4.090   2.918  15.655 -0.2115 -0.6247  1.1314
  600TMC3    C1 8941   3.633   2.933  16.289  0.1083  0.1189 -0.6932
  600TMC3    C2 8942   3.535   2.848  16.318  0.0794 -0.2880 -0.2278
  600TMC3    C3 8943   3.483   2.836  16.443  0.0776  1.1054  0.1164
  600TMC3    C4 8944   3.692   3.002  16.392  0.1221 -0.4257 -0.5782
  600TMC3    C5 8945   3.636   2.987  16.520 -0.8525 -0.7063 -0.3429
  600TMC3    C6 8946   3.532   2.906  16.546  0.1165 -0.4861  0.7453
  600TMC3     C 8947   3.711   2.922  16.164 -0.1606  0.5304 -0.2462
  600TMC3     O 8948   3.740   2.810  16.118  0.7954 -0.0292 -0.0756
  600TMC3     H 8949   3.501   2.777  16.243 -0.3884 -1.5952  1.2200
  600TMC3    H1 8950   3.781   3.061  16.371  0.6277 -2.0348 -2.9806
  600TMC3    H2 8951   3.503   2.895  16.650  0.4703 -0.7608  0.8149
  600TMC3    C7 8952   3.684   3.077  16.622 -0.2514  0.2770 -0.2894
  600TMC3    C8 8953   3.390   2.720  16.470 -0.4641 -0.0078  0.2735
  600TMC3    O1 8954   3.610   3.095  16.716  0.7608  0.2396 -0.3380
  600TMC3    O2 8955   3.391   2.666  16.582  0.1885 -0.4541  0.7011
  601MPD2     C 8956   1.083   2.352  17.626 -0.4625 -0.1597 -0.2233
  601MPD2    C1 8957   0.963   2.293  17.633 -0.3014  0.2181 -0.3126
  601MPD2    C2 8958   0.947   2.190  17.718  0.6225  0.3070 -0.2187
  601MPD2    C3 8959   1.058   2.148   0.059 -0.6286 -0.3000 -0.4887
  601MPD2    C4 8960   1.186   2.205   0.046 -0.2089  0.4642  0.0923
  601MPD2    C5 8961   1.191   2.299  17.683  0.3217 -0.1901  0.4022
  601MPD2     H 8962   0.849   2.147  17.735  0.8653 -1.0843 -2.2758
  601MPD2    H1 8963   1.280   2.180   0.094  1.3163  2.2833 -1.9643
  601MPD2    H2 8964   1.088   2.446  17.573 -0.2349 -1.9332 -3.3189
  601MPD2    H3 8965   1.275   2.366  17.667  0.8664 -0.7158  1.1058
  601MPD2     N 8966   1.043   2.050   0.161  0.0453  0.4819  0.8656
  601MPD2    H5 8967   1.127   2.029   0.215 -0.2225  0.8685  1.4217
  601MPD2    N1 8968   0.851   2.346  17.564 -1.1882  0.2290  0.1937
  601MPD2    H7 8969   0.763   2.307  17.595 -1.6762 -0.6536 -2.2980
  602TMC3    C1 8970   0.700   2.498  17.452  1.2017  0.2780  0.0877
  602TMC3    C2 8971   0.673   2.634  17.418  1.0628  0.2502  0.1055
  602TMC3    C3 8972   0.563   2.671  17.346 -0.5228 -0.0014  0.1446
  602TMC3    C4 8973   0.598   2.409  17.425 -0.9790  0.6469  0.3123
  602TMC3    C5 8974   0.488   2.453  17.355 -0.2246  0.0636 -0.4068
  602TMC3    C6 8975   0.467   2.581  17.313  0.0196 -0.1349 -0.7039
  602TMC3     C 8976   0.837   2.461  17.486  0.4872 -0.3239 -0.2844
  602TMC3     O 8977   0.915   2.544  17.449  0.3705 -0.4665  0.0360
  602TMC3     H 8978   0.748   2.708  17.443 -0.5513  1.7646  0.4121
  602TMC3    H1 8979   0.618   2.303  17.440  1.6648  1.2224  0.8214
  602TMC3    H2 8980   0.363   2.610  17.320  0.2721  0.4186  0.6213
  602TMC3    C7 8981   0.422   2.351  17.275  0.0565 -0.1632 -0.3292
  602TMC3    C8 8982   0.536   2.818  17.325  0.4924 -0.4479  0.1168
  602TMC3    O1 8983   0.429   2.235  17.306 -0.1343 -0.5601  0.1931
  602TMC3    O2 8984   0.573   2.896  17.413  0.1387  0.1251  0.1918
  603TMC3    C1 8985   4.243   2.028  11.075 -0.5291 -0.1793 -0.1870
  603TMC3    C2 8986   4.264   1.982  11.197 -0.9000 -0.0684 -0.3818
  603TMC3    C3 8987   4.278   2.073  11.302  0.9269  0.2037 -0.6246
  603TMC3    C4 8988   4.237   2.158  11.038  0.5821  0.3043  0.0530
  603TMC3    C5 8989   4.225   2.244  11.150  0.1311  0.1417 -1.0684
  603TMC3    C6 8990   4.256   2.208  11.278 -0.1535  0.3805  0.5010
  603TMC3     C 8991   4.192   1.930  10.982 -0.0035  0.3363 -0.1904
  603TMC3     O 8992   4.149   1.828  11.029  0.0593  0.2327 -0.5328
  603TMC3     H 8993   4.274   1.874  11.209 -1.5265 -0.1861 -0.8798
  603TMC3    H1 8994   4.232   2.200  10.938  2.1956  0.6279  0.1070
  603TMC3    H2 8995   4.228   2.280  11.353 -1.2625  0.2085  0.2460
  603TMC3    C7 8996   4.234   2.385  11.115 -0.1517 -0.4324  0.0602
  603TMC3    C8 8997   4.316   2.032  11.429 -0.1939 -0.3806 -0.1179
  603TMC3    O1 8998   4.296   2.460  11.186  0.0122 -0.1022 -0.8312
  603TMC3    O2 8999   4.299   1.909  11.445  0.5385 -0.2649  0.2293
  604MPD2     C 9000   0.510   0.991  16.457 -0.1011 -1.6377  0.4989
  604MPD2    C1 9001   0.406   0.935  16.394  0.3520  0.3462  0.2775
  604MPD2    C2 9002   0.412   0.903  16.255  0.6073 -0.2284 -0.4488
  604MPD2    C3 9003   0.521   0.939  16.176  0.1595  0.0522 -0.5063
  604MPD2    C4 9004   0.621   1.007  16.236 -0.3320  0.7891  0.2938
  604MPD2    C5 9005   0.611   1.031  16.371  0.7786 -0.4218 -0.4789
  604MPD2     H 9006   0.337   0.846  16.201 -0.6319 -0.9650  2.0125
  604MPD2    H1 9007   0.708   1.039  16.179  0.0242 -0.4780  0.1429
  604MPD2    H2 9008   0.524   1.024  16.559 -1.0892 -0.9344  0.4080
  604MPD2    H3 9009   0.675   1.105  16.419 -2.4050  0.8516  1.7806
  604MPD2     N 9010   0.525   0.911  16.036  0.4327  0.3800 -0.2611
  604MPD2    H5 9011   0.442   0.866  16.000  1.0419 -0.5762 -0.4596
  604MPD2    N1 9012   0.297   0.899  16.478  0.1482 -0.1569  0.1412
  604MPD2    H7 9013   0.303   0.924  16.576 -0.0253 -0.4812  0.2348
  605TMC3    C1 9014   0.090   0.848  16.550 -0.5855 -0.7000 -0.2372
  605TMC3    C2 9015   0.148   0.861  16.671  0.4108  0.6220  0.1184
  605TMC3    C3 9016   0.100   0.953  16.757 -0.8006 -0.8413  0.2934
  605TMC3    C4 9017   4.710   0.914  16.519 -0.0121  0.0617 -0.0327
  605TMC3    C5 9018   4.657   1.000  16.616 -0.9343 -0.7958 -0.5869
  605TMC3    C6 9019   4.723   1.028  16.730 -0.4009  0.3734 -0.4300
  605TMC3     C 9020   0.183   0.831  16.440 -0.1944  0.0918 -0.3160
  605TMC3     O 9021   0.140   0.798  16.329 -0.5637 -0.3427  0.5288
  605TMC3     H 9022   0.225   0.792  16.705  2.4302  1.9681 -1.7304
  605TMC3    H1 9023   4.663   0.888  16.425 -0.6815 -0.7562  0.5282
  605TMC3    H2 9024   4.667   1.082  16.806 -1.2292 -0.3982 -0.4913
  605TMC3    C7 9025   4.533   1.059  16.579  0.6175 -0.2675 -0.0978
  605TMC3    C8 9026   0.220   1.018  16.803  0.0169  0.2857  0.5346
  605TMC3    O1 9027   4.507   1.170  16.616 -0.2989 -0.1402  0.0131
  605TMC3    O2 9028   0.325   0.978  16.752  0.3942 -0.8684  0.0228
  606TMC3    C1 9029   1.373   4.604  17.165 -0.7135 -0.2581 -0.3087
  606TMC3    C2 9030   1.334   4.582  17.294 -0.8726  0.6017 -0.0885
  606TMC3    C3 9031   1.292   4.457  17.336 -0.0946 -0.5412 -0.4905
  606TMC3    C4 9032   1.373   4.503  17.071 -0.4832 -0.0449  0.3279
  606TMC3    C5 9033   1.332   4.381  17.124  0.0776 -0.7804  0.4463
  606TMC3    C6 9034   1.289   4.360  17.244  0.2603  0.4537 -0.3226
  606TMC3     C 9035   1.403   0.009  17.129 -0.1086  0.1847  0.2404
  606TMC3     O 9036   1.469   0.029  17.026  0.0866 -0.0929 -0.0761
  606TMC3     H 9037   1.355   4.655  17.371  0.9960  1.3079 -1.2652
  606TMC3    H1 9038   1.393   4.526  16.967 -1.4514  0.2802  0.2167
  606TMC3    H2 9039   1.280   4.257  17.277 -0.1233  1.1060  1.5760
  606TMC3    C7 9040   1.327   4.264  17.032 -0.4061 -0.8140  0.4063
  606TMC3    C8 9041   1.323   4.410  17.471  0.2292  0.4818  0.3006
  606TMC3    O1 9042   1.408   4.261  16.939 -0.3855  0.4251 -0.5413
  606TMC3    O2 9043   1.292   4.294  17.497 -0.2567  0.2753 -0.0462
  607MPD2     C 9044   3.521   1.795  11.857  0.1702  0.0382 -0.0041
  607MPD2    C1 9045   3.464   1.902  11.930 -0.6051  0.1869  0.0360
  607MPD2    C2 9046   3.388   1.873  12.038 -0.2142 -0.2697  0.3097
  607MPD2    C3 9047   3.344   1.744  12.065  0.0338 -0.1839  0.1452
  607MPD2    C4 9048   3.389   1.643  11.986  0.4365 -0.6014 -0.0599
  607MPD2    C5 9049   3.472   1.671  11.884  0.0427  0.0948 -0.3981
  607MPD2     H 9050   3.348   1.954  12.097  0.8817  0.8983 -0.5594
  607MPD2    H1 9051   3.369   1.540  12.014 -2.8124  0.6950  2.3694
  607MPD2    H2 9052   3.592   1.814  11.778  2.4721  0.5742  2.1785
  607MPD2    H3 9053   3.510   1.583  11.833  0.1854 -0.4190  0.6040
  607MPD2     N 9054   3.252   1.730  12.167  0.2214  0.0126 -0.1894
  607MPD2    H5 9055   3.238   1.813  12.222 -0.1795 -0.4858  0.4574
  607MPD2    N1 9056   3.494   2.035  11.912  0.4096 -0.8619 -0.0474
  607MPD2    H7 9057   3.448   2.102  11.972  0.3824 -0.5435 -0.4242
  608TMC3    C1 9058   3.636   2.213  11.863 -0.6579 -0.3056  0.4044
  608TMC3    C2 9059   3.627   2.234  12.002  0.3601  0.0828  0.1822
  608TMC3    C3 9060   3.647   2.363  12.038 -0.8571 -0.5049 -0.8611
  608TMC3    C4 9061   3.657   2.306  11.768  0.4509 -0.6262  0.4886
  608TMC3    C5 9062   3.679   2.433  11.822  0.5946  0.4175 -0.1229
  608TMC3    C6 9063   3.673   2.469  11.954  0.2314  0.0502 -0.2415
  608TMC3     C 9064   3.590   2.080  11.825  0.8873 -0.3887 -0.0390
  608TMC3     O 9065   3.630   2.041  11.721 -0.1528 -0.5585  0.6957
  608TMC3     H 9066   3.611   2.151  12.069  1.6063  0.0465  0.4344
  608TMC3    H1 9067   3.659   2.283  11.662 -0.4167  0.4160  0.2480
  608TMC3    H2 9068   3.694   2.573  11.976  0.9977 -0.6679  2.4355
  608TMC3    C7 9069   3.712   2.534  11.721  0.5266 -0.7930 -0.1764
  608TMC3    C8 9070   3.609   2.394  12.171  0.6256 -0.2554  0.1028
  608TMC3    O1 9071   3.679   2.520  11.604 -0.0030 -0.0312 -0.0307
  608TMC3    O2 9072   3.675   2.484  12.219  0.0848 -0.1107  0.0429
  609TMC3    C1 9073   1.710   0.939   9.289 -0.0688  0.1985 -0.4792
  609TMC3    C2 9074   1.667   0.878   9.170  0.0924 -0.1539  0.0260
  609TMC3    C3 9075   1.763   0.850   9.077  0.0467  0.1240 -1.1342
  609TMC3    C4 9076   1.842   0.990   9.301  0.2912 -0.3106 -0.0237
  609TMC3    C5 9077   1.921   0.981   9.192 -0.0134 -1.0151  0.5573
  609TMC3    C6 9078   1.891   0.900   9.086  0.5452  1.0302 -0.1290
  609TMC3     C 9079   1.605   1.003   9.355  0.7655  0.5724 -0.1725
  609TMC3     O 9080   1.494   0.970   9.327  0.1627 -0.3042 -0.0668
  609TMC3     H 9081   1.564   0.866   9.139  0.4091  0.8702 -1.4329
  609TMC3    H1 9082   1.880   1.042   9.388  0.1262 -0.0085 -0.1308
  609TMC3    H2 9083   1.961   0.888   9.003 -1.4448 -3.8854 -1.0435
  609TMC3    C7 9084   2.062   1.012   9.213 -0.1968 -0.4757 -0.0536
  609TMC3    C8 9085   1.722   0.758   8.966 -0.9479 -0.4429  0.3268
  609TMC3    O1 9086   2.063   1.117   9.278  0.3927  0.6747 -0.0373
  609TMC3    O2 9087   1.610   0.708   8.968 -0.9537  0.0357  0.4525
  610TMC3    C1 9088   3.818   2.334  12.637 -0.3160 -0.1724 -0.0567
  610TMC3    C2 9089   3.844   2.330  12.508  0.3002 -0.2148 -0.8488
  610TMC3    C3 9090   3.897   2.216  12.455  0.0449 -0.5262  0.0246
  610TMC3    C4 9091   3.839   2.230  12.719  0.5801 -0.2338 -0.5515
  610TMC3    C5 9092   3.895   2.119  12.668 -0.3791  0.4071 -0.3483
  610TMC3    C6 9093   3.922   2.112  12.538 -0.7379 -0.5031 -0.1294
  610TMC3     C 9094   3.753   2.454  12.691  0.0847 -0.0515 -0.0800
  610TMC3     O 9095   3.693   2.455  12.798 -0.0029 -0.4453  0.5010
  610TMC3     H 9096   3.805   2.404  12.438 -0.4179  0.4742  0.2921
  610TMC3    H1 9097   3.819   2.233  12.826 -0.1319  1.4853 -0.7282
  610TMC3    H2 9098   3.968   2.024  12.494 -2.5525 -2.0033  1.0341
  610TMC3    C7 9099   3.952   2.015  12.750  0.6968 -0.1483  0.1103
  610TMC3    C8 9100   3.894   2.196  12.313 -0.4433  0.5527 -0.3873
  610TMC3    O1 9101   4.018   2.051  12.848 -0.3722 -0.4171  0.2073
  610TMC3    O2 9102   3.908   2.294  12.238  0.1515  0.2437  0.0780
  611MPD2     C 9103   3.531   1.918  10.430  0.2837 -0.6698  1.0255
  611MPD2    C1 9104   3.433   2.006  10.465 -0.8715  0.3800  0.3590
  611MPD2    C2 9105   3.472   2.142  10.465  0.2968 -0.2456 -1.3700
  611MPD2    C3 9106   3.596   2.182  10.427 -1.3872  0.2676 -0.2245
  611MPD2    C4 9107   3.699   2.093  10.403 -0.3786 -0.0958  0.6984
  611MPD2    C5 9108   3.660   1.960  10.387 -0.1107 -0.9543  0.0234
  611MPD2     H 9109   3.404   2.222  10.492 -0.0193 -1.4218  1.3084
  611MPD2    H1 9110   3.802   2.119  10.386 -0.2369 -1.2005 -0.1450
  611MPD2    H2 9111   3.505   1.814  10.415  1.6330 -0.8390 -0.1282
  611MPD2    H3 9112   3.735   1.895  10.344 -1.3456 -2.5341  0.2323
  611MPD2     N 9113   3.637   2.315  10.418  0.0584  0.6488 -0.5023
  611MPD2    H5 9114   3.733   2.346  10.419 -0.3739  1.9415  0.2787
  611MPD2    N1 9115   3.309   1.952  10.505 -0.1128  0.0113 -0.0833
  611MPD2    H7 9116   3.304   1.851  10.508  1.7566 -0.0542  0.8692
  612TMC3    C1 9117   3.616   2.548  10.397 -0.4649  0.3418 -0.2049
  612TMC3    C2 9118   3.716   2.573  10.479 -0.0474  0.1549 -0.1114
  612TMC3    C3 9119   3.783   2.692  10.468  0.3671  0.0026 -0.1040
  612TMC3    C4 9120   3.572   2.646  10.306 -0.5228 -0.0392  0.6694
  612TMC3    C5 9121   3.636   2.768  10.311 -0.1840 -0.4775 -0.5137
  612TMC3    C6 9122   3.744   2.793  10.386  0.3194 -0.1360  0.0247
  612TMC3     C 9123   3.551   2.420  10.399  0.1706 -0.0785  0.1782
  612TMC3     O 9124   3.435   2.423  10.360  0.4287 -0.1771 -0.1215
  612TMC3     H 9125   3.741   2.499  10.555  2.5138  0.8796 -0.2596
  612TMC3    H1 9126   3.485   2.626  10.245  0.1619 -0.5817 -0.1308
  612TMC3    H2 9127   3.788   2.892  10.383 -0.9825  0.4191 -0.9523
  612TMC3    C7 9128   3.582   2.876  10.239 -0.5049  0.2999 -0.3046
  612TMC3    C8 9129   3.908   2.726  10.551  0.4822 -0.1109  0.3260
  612TMC3    O1 9130   3.625   2.992  10.243 -0.3395 -0.5390 -0.1926
  612TMC3    O2 9131   3.950   2.839  10.547 -0.0918  0.3726  0.2528
  613MPD2     C 9132   2.404   3.907  16.883  1.0638  0.1975 -0.1673
  613MPD2    C1 9133   2.352   3.955  16.768  0.2547 -0.1713  0.1900
  613MPD2    C2 9134   2.288   3.875  16.672  0.4484  0.2968 -0.3411
  613MPD2    C3 9135   2.298   3.740  16.690 -0.2440 -0.9842 -0.5800
  613MPD2    C4 9136   2.352   3.690  16.809 -0.1085 -0.7297 -0.1457
  613MPD2    C5 9137   2.393   3.778  16.909 -0.2833  0.5096  0.1417
  613MPD2     H 9138   2.255   3.915  16.576 -1.9310 -0.5346  0.1196
  613MPD2    H1 9139   2.351   3.583  16.825 -1.0707 -0.8298 -0.8892
  613MPD2    H2 9140   2.452   3.972  16.956 -0.1763 -0.8134  1.5340
  613MPD2    H3 9141   2.438   3.733  16.997 -1.4456 -0.6438  0.1629
  613MPD2     N 9142   2.256   3.653  16.585 -0.2913  0.3893 -0.1966
  613MPD2    H5 9143   2.276   3.553  16.585  2.2924  0.9188 -2.3906
  613MPD2    N1 9144   2.368   4.094  16.748 -0.3057 -0.7971  0.0250
  613MPD2    H7 9145   2.430   4.142  16.812 -1.4160  1.8661 -0.9201
  614TMC3    C1 9146   2.370   4.290  16.620 -0.4560  0.0565  0.4257
  614TMC3    C2 9147   2.503   4.275  16.591  0.0617  0.0204 -0.5024
  614TMC3    C3 9148   2.544   4.302  16.463  0.1546  0.3154 -0.3970
  614TMC3    C4 9149   2.295   4.368  16.532  1.2168  0.0150  0.0733
  614TMC3    C5 9150   2.341   4.404  16.408 -0.5370  0.6174 -0.4229
  614TMC3    C6 9151   2.468   4.367  16.370  0.1728  0.1339 -0.1663
  614TMC3     C 9152   2.300   4.170  16.657 -1.3437  0.1379 -0.2316
  614TMC3     O 9153   2.204   4.130  16.588  0.4056  0.2165 -0.3240
  614TMC3     H 9154   2.571   4.228  16.661 -1.6915 -1.5476  0.1588
  614TMC3    H1 9155   2.199   4.399  16.571  0.9503 -0.3706 -0.2836
  614TMC3    H2 9156   2.501   4.385  16.268  1.0021 -0.8771 -0.0757
  614TMC3    C7 9157   2.274   4.517  16.351 -0.1198  0.1177 -0.0963
  614TMC3    C8 9158   2.591   4.175  16.397 -0.3101  0.5476 -0.2480
  614TMC3    O1 9159   2.207   4.594  16.420 -0.4817 -0.3289  0.6116
  614TMC3    O2 9160   2.540   4.159  16.288 -0.0946 -0.0005 -0.6334
  615MPD2     C 9161   1.465   1.132  16.085 -0.2982 -0.5142  0.8575
  615MPD2    C1 9162   1.569   1.227  16.087  0.0497 -0.5743  0.4651
  615MPD2    C2 9163   1.595   1.300  15.972 -0.1035 -0.5504  0.6377
  615MPD2    C3 9164   1.495   1.290  15.870  0.6709 -0.9914  1.2250
  615MPD2    C4 9165   1.403   1.188  15.875 -0.0734 -0.0521  0.0959
  615MPD2    C5 9166   1.391   1.102  15.976 -0.8145  0.2466 -0.4895
  615MPD2     H 9167   1.672   1.376  15.969  2.1180 -2.9055 -1.9386
  615MPD2    H1 9168   1.337   1.163  15.793 -2.5057  2.2344  1.3578
  615MPD2    H2 9169   1.439   1.073  16.172 -0.4126 -0.0156  1.1601
  615MPD2    H3 9170   1.316   1.024  15.982 -0.9317  0.1886 -2.7834
  615MPD2     N 9171   1.500   1.373  15.751 -0.3550 -0.3472  0.0186
  615MPD2    H5 9172   1.434   1.348  15.678  0.4734  1.2023 -1.2548
  615MPD2    N1 9173   1.640   1.270  16.204  0.0537 -0.2809  0.3651
  615MPD2    H7 9174   1.712   1.341  16.196  0.0794 -0.3074  0.3648
  616TMC3    C1 9175   1.705   1.306  16.415  0.4577  0.0553  0.8353
  616TMC3    C2 9176   1.834   1.340  16.376 -0.1506 -0.1877 -0.2689
  616TMC3    C3 9177   1.904   1.428  16.452 -0.9462 -0.0844 -0.0562
  616TMC3    C4 9178   1.642   1.378  16.509 -0.2770  0.3789 -0.1453
  616TMC3    C5 9179   1.709   1.482  16.572  0.3594  0.1418 -0.4716
  616TMC3    C6 9180   1.843   1.508  16.543 -0.5228  0.5900  0.3855
  616TMC3     C 9181   1.619   1.222  16.330 -0.5598 -0.7198 -0.1873
  616TMC3     O 9182   1.537   1.148  16.382 -0.2825 -0.0853 -0.0413
  616TMC3     H 9183   1.872   1.277  16.297  0.6173 -0.0134 -0.0422
  616TMC3    H1 9184   1.548   1.341  16.547  1.2204 -2.3206  0.9174
  616TMC3    H2 9185   1.906   1.574  16.602  0.3870  0.0299  0.0419
  616TMC3    C7 9186   1.675   1.495  16.711  0.8082  0.7873 -0.7061
  616TMC3    C8 9187   2.045   1.439  16.422 -0.2737 -0.0736  0.5982
  616TMC3    O1 9188   1.766   1.519  16.788  0.2979 -0.4625  0.0345
  616TMC3    O2 9189   2.103   1.333  16.415 -0.7212  0.3484  0.2534
  617MPD2     C 9190   0.008   3.948  13.357  0.0984  0.0383  0.3072
  617MPD2    C1 9191   4.658   3.926  13.466  1.6113 -0.3965 -0.1942
  617MPD2    C2 9192   4.530   3.875  13.432  0.1736 -0.1836  0.1635
  617MPD2    C3 9193   4.487   3.846  13.307 -0.2766  0.3787 -0.2942
  617MPD2    C4 9194   4.576   3.869  13.202  0.6218  0.4254  0.1102
  617MPD2    C5 9195   4.701   3.915  13.228  0.5330 -0.5182  0.4003
  617MPD2     H 9196   4.459   3.860  13.512  1.7902 -2.1272  1.2419
  617MPD2    H1 9197   4.555   3.853  13.097 -3.6513 -0.1570  1.0520
  617MPD2    H2 9198   0.110   3.982  13.369  0.5398 -1.4590  0.8069
  617MPD2    H3 9199   0.044   3.935  13.155 -0.1168 -0.4760 -0.2825
  617MPD2     N 9200   4.359   3.797  13.278 -0.7222 -0.1248 -0.1762
  617MPD2    H5 9201   4.335   3.798  13.179  0.3006 -1.2106 -0.4277
  617MPD2    N1 9202   4.699   3.950  13.602  0.3790  0.0825 -0.3245
  617MPD2    H7 9203   0.058   3.985  13.619  0.4242 -0.2479  0.1219
  618TMC3    C1 9204   4.706   3.912  13.832  0.0590 -0.0398  0.5517
  618TMC3    C2 9205   0.024   3.801  13.902 -0.0830 -0.0505  0.0166
  618TMC3    C3 9206   0.107   3.828  14.010 -0.1852 -0.1406  0.2366
  618TMC3    C4 9207   0.023   4.039  13.858 -0.1948  0.3640  0.2258
  618TMC3    C5 9208   0.121   4.052  13.952 -0.2373 -1.0554 -0.3430
  618TMC3    C6 9209   0.158   3.950  14.040  0.3354 -0.2575  0.4609
  618TMC3     C 9210   4.628   3.896  13.712  0.1282 -0.6594  0.7163
  618TMC3     O 9211   4.551   3.805  13.719 -0.5101 -0.9616  0.1662
  618TMC3     H 9212   4.730   3.697  13.888  2.5828 -0.9969  1.6840
  618TMC3    H1 9213   4.734   4.125  13.796 -0.1841 -0.7728 -1.3719
  618TMC3    H2 9214   0.224   3.972  14.123 -0.6599  0.1295  1.1596
  618TMC3    C7 9215   0.179   4.183  13.967  0.3260  0.2986 -0.8898
  618TMC3    C8 9216   0.207   3.721  14.037  0.4297  0.4075 -0.1753
  618TMC3    O1 9217   0.095   4.262  14.010  0.1925  0.2399  0.0372
  618TMC3    O2 9218   0.261   3.731  14.145 -0.4805  0.0936 -0.2906
  619MPD2     C 9219   1.420   0.579  13.970 -0.5257  0.4786  0.4687
  619MPD2    C1 9220   1.323   0.620  13.878 -0.1922 -0.1904 -0.1300
  619MPD2    C2 9221   1.199   0.571  13.873  0.0948 -0.0711 -0.4649
  619MPD2    C3 9222   1.165   0.455  13.938  0.0237 -0.0188 -0.4473
  619MPD2    C4 9223   1.261   0.399  14.018  0.0663 -0.6499 -0.0372
  619MPD2    C5 9224   1.378   0.466  14.034 -0.3460  0.0021 -0.1486
  619MPD2     H 9225   1.135   0.608  13.794 -1.8059  0.0893  1.1432
  619MPD2    H1 9226   1.250   0.302  14.067  1.5994 -1.2085 -0.7998
  619MPD2    H2 9227   1.524   0.607  13.985 -0.6457  2.0672 -1.6431
  619MPD2    H3 9228   1.447   0.418  14.103 -0.6747  1.9501  1.5663
  619MPD2     N 9229   1.038   0.392  13.934 -0.2075 -0.4934  0.3340
  619MPD2    H5 9230   1.038   0.296  13.967 -1.9357 -0.3803  0.6550
  619MPD2    N1 9231   1.344   0.735  13.798  0.2098  0.3206  0.0942
  619MPD2    H7 9232   1.281   0.740  13.718 -0.2074 -1.8357  0.2988
  620TMC3    C1 9233   1.470   0.924  13.720 -0.3547 -0.4063 -0.6011
  620TMC3    C2 9234   1.415   0.900  13.594 -0.1084  0.0780 -0.3329
  620TMC3    C3 9235   1.379   1.011  13.509  0.8637 -0.3921  0.9062
  620TMC3    C4 9236   1.485   1.056  13.760  0.2096  0.0583  0.2047
  620TMC3    C5 9237   1.453   1.161  13.679  0.2166  0.4983  0.4433
  620TMC3    C6 9238   1.402   1.136  13.554 -0.0747  0.8546 -0.0086
  620TMC3     C 9239   1.450   0.825  13.816  0.5279 -0.0570 -0.5988
  620TMC3     O 9240   1.528   0.823  13.909  0.7414  0.0176 -0.6778
  620TMC3     H 9241   1.416   0.794  13.570  1.7961 -0.0330  0.2105
  620TMC3    H1 9242   1.525   1.068  13.860  1.1404 -0.7031 -0.0839
  620TMC3    H2 9243   1.359   1.215  13.493 -0.9129  1.0253  0.8139
  620TMC3    C7 9244   1.384   1.265  13.749  0.2879 -0.8277  0.1896
  620TMC3    C8 9245   1.237   1.002  13.490 -0.7325 -0.3390 -0.5183
  620TMC3    O1 9246   1.421   1.299  13.861  0.1651 -0.0750  0.7223
  620TMC3    O2 9247   1.168   1.101  13.495 -0.1635 -0.2529 -0.5323
  621MPD2     C 9248   2.248   0.638   9.902 -0.6086  0.9660  0.3603
  621MPD2    C1 9249   2.183   0.754   9.943 -0.1917  0.2918  0.9019
  621MPD2    C2 9250   2.249   0.874   9.954 -0.4129  0.8121 -0.3950
  621MPD2    C3 9251   2.382   0.883   9.916  1.0445 -0.3254 -0.0762
  621MPD2    C4 9252   2.451   0.767   9.880  0.4533 -0.4923  0.5096
  621MPD2    C5 9253   2.379   0.649   9.871  0.1508  0.1112  0.0202
  621MPD2     H 9254   2.194   0.959   9.992 -1.1843 -0.2187  0.7934
  621MPD2    H1 9255   2.556   0.769   9.852 -0.0234  1.5047 -1.1205
  621MPD2    H2 9256   2.191   0.547   9.889 -0.4397  0.8315  0.5498
  621MPD2    H3 9257   2.437   0.559   9.858 -0.8476 -0.2466 -1.9504
  621MPD2     N 9258   2.443   1.010   9.923  0.6693 -0.5788 -0.6954
  621MPD2    H5 9259   2.382   1.086   9.953  0.9521 -1.4007  1.9852
  621MPD2    N1 9260   2.051   0.754   9.982 -0.0425 -0.1417 -1.0399
  621MPD2    H7 9261   2.029   0.840  10.031  0.5452  0.1884 -1.3590
  622TMC3    C1 9262   1.830   0.674  10.023  0.2221 -0.3868  0.2952
  622TMC3    C2 9263   1.823   0.773  10.119  0.9058  0.1364  0.1779
  622TMC3    C3 9264   1.698   0.827  10.142  0.2602  0.4659 -0.0205
  622TMC3    C4 9265   1.719   0.624   9.959 -0.0477 -0.4842 -0.3401
  622TMC3    C5 9266   1.602   0.685   9.979 -0.3233  0.1735  0.4268
  622TMC3    C6 9267   1.592   0.784  10.073 -0.3087 -0.2287 -0.7567
  622TMC3     C 9268   1.954   0.660   9.947  0.0985 -0.1801 -0.1729
  622TMC3     O 9269   1.958   0.572   9.861  0.1383  0.5412  0.1389
  622TMC3     H 9270   1.906   0.790  10.187  1.4685 -0.4678 -0.3606
  622TMC3    H1 9271   1.726   0.544   9.886  0.2198 -0.4273 -0.3792
  622TMC3    H2 9272   1.497   0.835  10.085 -0.8517 -1.6358  1.0059
  622TMC3    C7 9273   1.485   0.610   9.989 -0.7021 -1.1749 -0.6014
  622TMC3    C8 9274   1.680   0.887  10.275 -0.2912 -0.0120  1.0184
  622TMC3    O1 9275   1.411   0.631  10.084 -0.1255  0.2133  0.2159
  622TMC3    O2 9276   1.774   0.892  10.356  0.1015  0.6396  0.1682
  623MPD2     C 9277   0.709   1.470  16.018 -0.2258 -0.3839  0.0054
  623MPD2    C1 9278   0.652   1.377  16.096  1.1149  0.1395  0.5218
  623MPD2    C2 9279   0.705   1.356  16.216 -0.3345 -0.1585 -0.5012
  623MPD2    C3 9280   0.816   1.432  16.262 -0.2443 -0.0579  0.0378
  623MPD2    C4 9281   0.872   1.529  16.180 -0.0288 -0.8274  0.0406
  623MPD2    C5 9282   0.817   1.548  16.059  0.0360  0.5091  0.2091
  623MPD2     H 9283   0.663   1.285  16.286  0.1742 -0.6107 -0.6490
  623MPD2    H1 9284   0.958   1.585  16.213 -0.5234 -1.0005  1.6235
  623MPD2    H2 9285   0.676   1.495  15.918 -1.4355 -2.4103 -0.1088
  623MPD2    H3 9286   0.848   1.626  15.991 -0.0170  2.1001  1.9999
  623MPD2     N 9287   0.861   1.406  16.398 -0.3709  0.1011 -0.0481
  623MPD2    H5 9288   0.795   1.345  16.443 -0.4224  1.8839  2.3028
  623MPD2    N1 9289   0.544   1.298  16.062 -0.1583 -0.1838  0.2700
  623MPD2    H7 9290   0.499   1.261  16.145 -1.2614 -0.9445 -0.6676
  624TMC3    C1 9291   1.052   1.217  16.693  0.0507  0.1980 -0.3469
  624TMC3    C2 9292   0.947   1.198  16.768 -0.2314  0.7050 -0.0449
  624TMC3    C3 9293   0.840   1.291  16.755 -0.1254 -0.3317 -0.4034
  624TMC3    C4 9294   1.070   1.338  16.637 -0.6060  0.4592  0.1302
  624TMC3    C5 9295   0.964   1.417  16.609  0.2676 -0.0140  0.8155
  624TMC3    C6 9296   0.849   1.389  16.661 -0.4171 -0.9947 -0.0661
  624TMC3     C 9297   1.174   1.135  16.722 -0.4730 -1.0736 -0.0678
  624TMC3     O 9298   1.282   1.186  16.715 -0.5186  0.2721  0.2147
  624TMC3     H 9299   0.935   1.107  16.825  0.0557  1.2262  0.8606
  624TMC3    H1 9300   1.162   1.369  16.589 -0.3410  0.3950  0.5922
  624TMC3    H2 9301   0.768   1.459  16.645  0.8334  1.6009  4.9385
  624TMC3    C7 9302   0.962   1.460  16.470 -0.0991  1.5023 -0.0722
  624TMC3    C8 9303   0.711   1.260  16.805 -0.5701 -0.5262 -0.3485
  624TMC3    O1 9304   1.049   1.536  16.432  0.4189  0.0636  0.6639
  624TMC3    O2 9305   0.692   1.143  16.824 -0.4422 -0.2769 -0.1536
  625MPD2     C 9306   0.863   2.691   1.069  0.7807  0.0134  0.2648
  625MPD2    C1 9307   0.896   2.784   0.967  0.4725 -0.1034  0.2041
  625MPD2    C2 9308   1.028   2.819   0.947  0.1064 -0.4388  0.1824
  625MPD2    C3 9309   1.129   2.744   1.016 -0.3921 -0.1529  0.2409
  625MPD2    C4 9310   1.090   2.650   1.107 -0.1241  0.1664 -0.3228
  625MPD2    C5 9311   0.961   2.626   1.135  0.4196 -0.2719  0.0223
  625MPD2     H 9312   1.057   2.886   0.867  2.9286  0.5059  1.9774
  625MPD2    H1 9313   1.157   2.607   1.181  2.6699  2.2374 -1.6687
  625MPD2    H2 9314   0.759   2.669   1.090  0.6188  0.8329  0.3197
  625MPD2    H3 9315   0.941   2.556   1.215 -0.1583 -2.6685 -2.2528
  625MPD2     N 9316   1.263   2.775   0.989  0.2076  0.0751  0.0925
  625MPD2    H5 9317   1.281   2.855   0.929  0.7810  1.9398  2.7693
  625MPD2    N1 9318   0.793   2.846   0.887 -0.1477 -0.3685 -0.6285
  625MPD2    H7 9319   0.697   2.830   0.915 -0.1683  1.1701  0.1836
  626TMC3    C1 9320   0.686   2.970   0.715  0.3005 -0.4001 -0.2138
  626TMC3    C2 9321   0.684   2.993   0.578 -0.1752  0.5361 -0.0432
  626TMC3    C3 9322   0.573   3.057   0.534  0.0278 -0.2595  0.0321
  626TMC3    C4 9323   0.591   3.020   0.800 -0.7996  0.1222  0.5413
  626TMC3    C5 9324   0.488   3.085   0.744  0.2650 -0.1805  0.3393
  626TMC3    C6 9325   0.474   3.107   0.609 -0.3773  0.6193 -0.9455
  626TMC3     C 9326   0.809   2.918   0.767  0.2795  0.4890  0.6793
  626TMC3     O 9327   0.903   2.931   0.693 -0.5162 -0.1499 -0.1523
  626TMC3     H 9328   0.764   2.970   0.508  2.0875 -0.3241  2.8084
  626TMC3    H1 9329   0.609   3.024   0.907 -1.9828 -0.5931  0.7723
  626TMC3    H2 9330   0.402   3.181   0.577 -0.7690  0.2755 -0.8534
  626TMC3    C7 9331   0.408   3.176   0.838  0.1660  0.5218  0.6376
  626TMC3    C8 9332   0.559   3.082   0.394 -0.3348  0.2964  0.4746
  626TMC3    O1 9333   0.444   3.188   0.955  0.2432 -0.0120 -0.2055
  626TMC3    O2 9334   0.656   3.054   0.328 -0.4946  0.0695  0.4851
  627MPD2     C 9335   3.510   2.787  14.173 -0.5018  0.1599  0.2880
  627MPD2    C1 9336   3.637   2.763  14.129 -0.3100  0.0424 -0.0488
  627MPD2    C2 9337   3.671   2.633  14.101  0.3827  0.0919 -0.0594
  627MPD2    C3 9338   3.578   2.534  14.098 -0.3663  0.1591 -0.1181
  627MPD2    C4 9339   3.443   2.561  14.129 -0.0421 -0.4498 -0.6078
  627MPD2    C5 9340   3.411   2.692  14.176 -0.2698 -0.5023 -0.5006
  627MPD2     H 9341   3.767   2.611  14.057 -0.8607 -1.2303 -2.1069
  627MPD2    H1 9342   3.367   2.484  14.129 -0.3142 -0.1773 -0.2238
  627MPD2    H2 9343   3.487   2.887  14.206  1.0286 -0.4073  3.0746
  627MPD2    H3 9344   3.309   2.718  14.199 -0.1209  0.2974 -0.7424
  627MPD2     N 9345   3.619   2.407  14.066  0.5766 -0.2630 -0.1872
  627MPD2    H5 9346   3.706   2.415  14.014  1.8810 -0.9311  1.9273
  627MPD2    N1 9347   3.737   2.860  14.130  0.2925 -0.4590  0.2183
  627MPD2    H7 9348   3.826   2.838  14.087 -0.0055 -1.7094  0.2512
  628TMC3    C1 9349   3.866   3.045  14.186  0.7689 -0.3750  0.5263
  628TMC3    C2 9350   3.967   2.963  14.233  0.2814 -0.1524 -0.3747
  628TMC3    C3 9351   4.089   3.008  14.265 -0.2984 -0.3387 -0.5123
  628TMC3    C4 9352   3.885   3.181  14.174 -0.5294  0.0173  0.6302
  628TMC3    C5 9353   4.011   3.228  14.215 -0.2405  0.1513 -0.6958
  628TMC3    C6 9354   4.112   3.141  14.260  0.2945  0.2925 -0.1476
  628TMC3     C 9355   3.734   2.990  14.184  0.9301  0.1206 -1.2570
  628TMC3     O 9356   3.638   3.054  14.228 -0.7063  0.2294 -0.4938
  628TMC3     H 9357   3.961   2.854  14.238  0.3812 -0.1740 -0.7403
  628TMC3    H1 9358   3.801   3.241  14.143 -1.2199 -0.6466  1.2181
  628TMC3    H2 9359   4.211   3.183  14.265 -0.6354  2.1568  2.4514
  628TMC3    C7 9360   4.067   3.357  14.167  0.5520  0.0010 -0.5008
  628TMC3    C8 9361   4.201   2.914  14.288  0.1907  0.1890  0.2950
  628TMC3    O1 9362   4.161   3.403  14.224 -0.0560 -0.0916 -0.2117
  628TMC3    O2 9363   4.316   2.949  14.265 -0.0553  0.2791  0.8227
  629MPD2     C 9364   2.477   1.703  16.330  0.7403  0.4670  0.0603
  629MPD2    C1 9365   2.456   1.576  16.368  0.6748 -0.5243  0.6320
  629MPD2    C2 9366   2.324   1.524  16.387  0.0761  1.0520 -0.1455
  629MPD2    C3 9367   2.216   1.604  16.357 -0.6714 -0.4872 -0.9611
  629MPD2    C4 9368   2.243   1.739  16.325 -0.2361  0.0519  0.2218
  629MPD2    C5 9369   2.370   1.783  16.303  0.5752 -0.3182  0.0093
  629MPD2     H 9370   2.311   1.422  16.424 -0.0189  1.0025 -0.3156
  629MPD2    H1 9371   2.163   1.813  16.319 -0.2350  0.0917  0.7215
  629MPD2    H2 9372   2.568   1.759  16.312 -0.3272  1.9258 -0.9096
  629MPD2    H3 9373   2.399   1.884  16.276  1.6037 -0.9411 -1.2629
  629MPD2     N 9374   2.084   1.564  16.381 -0.0431  0.4033 -0.1133
  629MPD2    H5 9375   2.009   1.631  16.367 -0.5745  0.1281  1.4820
  629MPD2    N1 9376   2.574   1.504  16.390 -0.0654  0.0227  0.0966
  629MPD2    H7 9377   2.662   1.554  16.379 -0.1184 -0.0222 -0.5289
  630TMC3    C1 9378   2.729   1.339  16.449 -0.1134 -0.5933 -0.2727
  630TMC3    C2 9379   2.825   1.395  16.368  0.5476 -0.3086 -0.0203
  630TMC3    C3 9380   2.955   1.357  16.392 -0.2632 -0.2397 -1.2071
  630TMC3    C4 9381   2.751   1.251  16.551 -0.3786  0.0335  0.2552
  630TMC3    C5 9382   2.891   1.234  16.581  0.1448  0.1302 -0.9340
  630TMC3    C6 9383   2.991   1.282  16.503 -0.4193 -0.5864 -0.2482
  630TMC3     C 9384   2.584   1.369  16.435 -0.2240  0.0203 -0.1482
  630TMC3     O 9385   2.501   1.281  16.456  0.0982 -0.1426  0.6695
  630TMC3     H 9386   2.794   1.481  16.310  0.4814  0.0526  0.5583
  630TMC3    H1 9387   2.668   1.226  16.616  0.5020 -2.2615  0.5044
  630TMC3    H2 9388   3.095   1.267  16.527 -0.0852  0.5592 -0.9936
  630TMC3    C7 9389   2.919   1.184  16.720  0.5667  1.1815  0.4275
  630TMC3    C8 9390   3.054   1.448  16.343 -0.5534  0.2372  0.2838
  630TMC3    O1 9391   2.825   1.162  16.791  0.0543  0.7749 -0.2291
  630TMC3    O2 9392   3.134   1.510  16.414 -0.3453 -0.3685  0.0020
  631MPD2     C 9393   0.876   1.907  15.234 -0.9979 -0.3388 -0.0431
  631MPD2    C1 9394   0.988   1.971  15.196 -0.4943  0.5015  0.5280
  631MPD2    C2 9395   1.109   1.921  15.231  0.1063  0.7556 -0.2333
  631MPD2    C3 9396   1.122   1.794  15.294  0.0052  0.0255  0.2451
  631MPD2    C4 9397   1.006   1.729  15.333  0.9092  0.2257  0.5340
  631MPD2    C5 9398   0.884   1.791  15.302 -0.5858  0.0379 -0.9424
  631MPD2     H 9399   1.199   1.977  15.205  1.1850 -0.3109  1.2488
  631MPD2    H1 9400   1.002   1.629  15.373  0.9264 -0.8874 -2.2829
  631MPD2    H2 9401   0.778   1.931  15.196 -1.2339  2.9444  2.5873
  631MPD2    H3 9402   0.799   1.737  15.340 -2.0298  2.0008 -1.3884
  631MPD2     N 9403   1.251   1.739  15.323 -0.5956  0.0508 -0.4110
  631MPD2    H5 9404   1.331   1.777  15.273 -0.2922 -1.4864 -1.0918
  631MPD2    N1 9405   0.956   2.096  15.138 -0.0890 -0.0530 -0.0342
  631MPD2    H7 9406   0.859   2.113  15.116 -0.4101 -1.0184  0.6619
  632TMC3    C1 9407   0.980   2.264  14.987 -0.1942 -0.5514 -0.0091
  632TMC3    C2 9408   0.845   2.295  15.019 -0.4341  0.2858 -0.2492
  632TMC3    C3 9409   0.759   2.280  14.919 -0.3160  0.0253 -0.9640
  632TMC3    C4 9410   1.017   2.232  14.860 -0.3504 -0.6482 -0.0516
  632TMC3    C5 9411   0.919   2.226  14.759 -0.2376  0.4246  0.0707
  632TMC3    C6 9412   0.789   2.267  14.787  0.4961  0.1234  0.6747
  632TMC3     C 9413   1.044   2.180  15.076 -1.0845 -0.4292 -0.1101
  632TMC3     O 9414   1.167   2.160  15.065 -0.0098 -0.5324 -0.3776
  632TMC3     H 9415   0.807   2.315  15.118 -3.0860  1.7320 -1.5429
  632TMC3    H1 9416   1.122   2.208  14.845 -0.7168 -1.3026 -1.6715
  632TMC3    H2 9417   0.714   2.245  14.712  0.1412  0.8182  0.8240
  632TMC3    C7 9418   0.954   2.152  14.639 -0.8002  1.1279  0.2293
  632TMC3    C8 9419   0.629   2.233  14.964 -0.5390 -0.8589  0.3358
  632TMC3    O1 9420   0.862   2.128  14.562 -0.0318 -0.0286 -0.2717
  632TMC3    O2 9421   0.633   2.147  15.054 -0.0388  0.4511 -0.1324
  633MPD2     C 9422   0.437   4.339  17.245 -0.3698  0.2564 -0.4185
  633MPD2    C1 9423   0.465   4.300  17.111 -0.7222  0.4152 -0.3534
  633MPD2    C2 9424   0.457   4.169  17.073  0.8108 -0.4313 -0.1937
  633MPD2    C3 9425   0.436   4.066  17.162 -0.7370  1.0366 -0.3787
  633MPD2    C4 9426   0.419   4.104  17.290  0.9560  0.6534  0.7493
  633MPD2    C5 9427   0.409   4.238  17.332 -0.6552 -0.1171  0.1146
  633MPD2     H 9428   0.477   4.153  16.967  0.9992 -1.5427  0.0138
  633MPD2    H1 9429   0.415   4.022  17.361 -3.8417  0.0261 -0.2426
  633MPD2    H2 9430   0.424   4.439  17.284 -1.1945  0.8862 -2.2758
  633MPD2    H3 9431   0.388   4.253  17.437  0.7185 -3.0296  0.7856
  633MPD2     N 9432   0.450   3.930  17.133 -0.0169  0.1455  0.7579
  633MPD2    H5 9433   0.458   3.871  17.215 -1.7513 -1.6114 -0.3246
  633MPD2    N1 9434   0.517   4.385  17.021 -0.6465 -0.4860 -0.1656
  633MPD2    H7 9435   0.548   4.344  16.933  0.2579 -1.4277  0.5984
  634TMC3    C1 9436   0.600   4.582  16.925 -0.5690 -0.1200  0.9679
  634TMC3    C2 9437   0.672   4.493  16.843  0.2169  0.2631  0.0616
  634TMC3    C3 9438   0.714   4.540  16.720 -0.2048  0.3932 -0.0743
  634TMC3    C4 9439   0.565   4.714  16.896 -0.0244 -0.4584 -0.3668
  634TMC3    C5 9440   0.606   0.017  16.767 -0.0683 -0.8696  0.0071
  634TMC3    C6 9441   0.683   4.672  16.685  0.3763 -0.3607  0.1850
  634TMC3     C 9442   0.537   4.522  17.038 -0.2640 -0.2577 -0.2623
  634TMC3     O 9443   0.483   4.595  17.118 -0.1450  0.0907  0.6331
  634TMC3     H 9444   0.697   4.390  16.862 -0.2865  0.0131 -0.6521
  634TMC3    H1 9445   0.503   0.040  16.962 -0.5988  0.2408 -1.5478
  634TMC3    H2 9446   0.716   4.704  16.587  1.3113 -0.2214  0.5381
  634TMC3    C7 9447   0.577   0.148  16.715  0.0177 -0.1104 -0.4890
  634TMC3    C8 9448   0.794   4.450  16.637  0.8998  0.2471  0.2246
  634TMC3    O1 9449   0.609   0.162  16.599  0.2754  0.4975  0.7919
  634TMC3    O2 9450   0.781   4.328  16.658 -0.6606 -0.6264 -0.2402
  635TMC3    C1 9451   0.686   0.870   0.436  0.2374  0.3620  0.0357
  635TMC3    C2 9452   0.698   0.764   0.350  0.6527 -0.8252 -0.6749
  635TMC3    C3 9453   0.707   0.635   0.399 -0.2645  0.3504 -0.2252
  635TMC3    C4 9454   0.701   0.842   0.569  0.1692 -0.5613 -0.1301
  635TMC3    C5 9455   0.721   0.717   0.609  0.0153 -0.4128 -0.1068
  635TMC3    C6 9456   0.714   0.610   0.529  0.3277  0.1677  0.1407
  635TMC3     C 9457   0.689   1.009   0.386  0.0210 -0.8669 -0.3396
  635TMC3     O 9458   0.724   1.094   0.468 -0.0109  0.2927  0.5942
  635TMC3     H 9459   0.676   0.779   0.245  3.1861  0.5260 -1.0078
  635TMC3    H1 9460   0.699   0.918   0.647  0.3685  0.4440 -1.1127
  635TMC3    H2 9461   0.728   0.510   0.569 -2.1643 -0.3333 -0.2698
  635TMC3    C7 9462   0.788   0.703   0.735 -0.1381 -0.0197 -0.3002
  635TMC3    C8 9463   0.725   0.526   0.305  0.1901 -0.4143 -0.0641
  635TMC3    O1 9464   0.752   0.780   0.825  0.1152  1.0128 -0.0419
  635TMC3    O2 9465   0.774   0.559   0.198  0.0291 -0.0999 -0.8150
  636MPD2     C 9466   1.980   4.175  15.827  0.1197  0.0474 -0.5140
  636MPD2    C1 9467   1.955   4.177  15.965  0.3618  0.5087 -0.2807
  636MPD2    C2 9468   1.984   4.060  16.038 -0.2098  0.7911  0.4804
  636MPD2    C3 9469   2.063   3.959  15.980  0.3014 -0.4301 -0.2216
  636MPD2    C4 9470   2.081   3.960  15.844  0.2089  0.8022  0.0849
  636MPD2    C5 9471   2.034   4.063  15.767 -0.1570 -0.2901  0.0434
  636MPD2     H 9472   1.967   4.068  16.145 -0.0230 -0.1713  0.5825
  636MPD2    H1 9473   2.113   3.875  15.784 -0.0970  0.2398  0.7227
  636MPD2    H2 9474   1.960   4.248  15.749  0.9176  1.4194  0.5784
  636MPD2    H3 9475   2.035   4.057  15.659  1.0713  1.3965 -0.0362
  636MPD2     N 9476   2.107   3.855  16.063  0.1180 -0.9167  0.0957
  636MPD2    H5 9477   2.078   3.861  16.160 -0.1535 -1.1433  0.0280
  636MPD2    N1 9478   1.912   4.288  16.040  0.1728 -0.5365 -0.4373
  636MPD2    H7 9479   1.900   4.284  16.140 -2.5148 -0.9665 -0.7922
  637TMC3    C1 9480   2.219   3.656  16.137 -0.0925  0.1333  0.1841
  637TMC3    C2 9481   2.133   3.646  16.242 -0.1101  0.3290  0.4326
  637TMC3    C3 9482   2.185   3.596  16.359  0.5165 -0.2512  0.9400
  637TMC3    C4 9483   2.345   3.601  16.149 -0.4201  0.3803 -0.6158
  637TMC3    C5 9484   2.372   3.516  16.256 -0.8335  0.5992 -0.0036
  637TMC3    C6 9485   2.286   3.509  16.363 -0.2536 -0.1951 -0.2414
  637TMC3     C 9486   2.191   3.755  16.028 -0.1015  0.2376 -0.7873
  637TMC3     O 9487   2.258   3.741  15.923  0.1053 -0.1224  0.0430
  637TMC3     H 9488   2.040   3.702  16.248  0.3636  1.0545  1.0923
  637TMC3    H1 9489   2.413   3.598  16.064  0.6716 -0.3773  0.2949
  637TMC3    H2 9490   2.327   3.475  16.458 -0.5019 -0.3655 -0.1954
  637TMC3    C7 9491   2.499   3.540  16.302  0.1032  0.9601 -0.1598
  637TMC3    C8 9492   2.192   3.695  16.469  0.2037  0.0926 -0.1111
  637TMC3    O1 9493   2.534   3.451  16.378 -0.2133 -0.1884 -0.0707
  637TMC3    O2 9494   2.126   3.796  16.448 -0.2049  0.1710  0.0375
  638MPD2     C 9495   1.719   3.471  15.060  0.2050 -0.6034  0.0679
  638MPD2    C1 9496   1.721   3.373  14.962 -0.4555  0.0549 -0.6790
  638MPD2    C2 9497   1.718   3.243  15.010  0.0125 -1.1282  0.1717
  638MPD2    C3 9498   1.695   3.219  15.143  0.3591 -0.7276 -1.1759
  638MPD2    C4 9499   1.688   3.322  15.240 -0.4421 -0.0325  0.7043
  638MPD2    C5 9500   1.714   3.445  15.196  0.6828  0.0164  0.2546
  638MPD2     H 9501   1.734   3.157  14.946  3.2053  1.1080 -2.0679
  638MPD2    H1 9502   1.689   3.295  15.345 -1.2947 -2.2410  0.1423
  638MPD2    H2 9503   1.712   3.575  15.032  0.0632 -0.4469  0.6821
  638MPD2    H3 9504   1.721   3.532  15.260  1.5310  1.0492 -1.2293
  638MPD2     N 9505   1.679   3.082  15.169 -0.1134  0.2469 -0.0018
  638MPD2    H5 9506   1.694   3.020  15.090 -0.4313 -3.0802  2.5158
  638MPD2    N1 9507   1.734   3.402  14.825  0.4083 -0.1859  0.5796
  638MPD2    H7 9508   1.736   3.501  14.803  1.9151 -1.0204 -3.0880
  639TMC3    C1 9509   1.626   2.883  15.275 -0.1800  0.5245 -0.1459
  639TMC3    C2 9510   1.571   2.851  15.149 -0.7435 -0.4556  0.3801
  639TMC3    C3 9511   1.627   2.752  15.072  0.2579 -0.7429  0.3475
  639TMC3    C4 9512   1.724   2.802  15.326  0.2105 -0.7590 -0.4271
  639TMC3    C5 9513   1.785   2.718  15.235  0.7583 -0.4741 -0.3275
  639TMC3    C6 9514   1.735   2.682  15.111 -1.7166 -0.5469 -0.1005
  639TMC3     C 9515   1.640   3.028  15.287  0.0041  0.3908 -0.0118
  639TMC3     O 9516   1.609   3.085  15.389 -0.6741 -0.0586  0.1597
  639TMC3     H 9517   1.479   2.904  15.124 -0.3830 -0.5043 -1.0631
  639TMC3    H1 9518   1.772   2.819  15.421  1.8897 -0.5592 -1.3150
  639TMC3    H2 9519   1.780   2.608  15.045  0.5309  0.4266  0.3487
  639TMC3    C7 9520   1.864   2.616  15.294  0.1620 -0.7926  0.5670
  639TMC3    C8 9521   1.544   2.686  14.972  0.0245 -0.4294 -0.1573
  639TMC3    O1 9522   1.842   2.589  15.409 -0.1168  0.5017  0.2209
  639TMC3    O2 9523   1.609   2.633  14.882  0.0477  0.0803  0.4621
  640MPD2     C 9524   1.059   1.784   9.179  0.3009 -0.1425 -0.1307
  640MPD2    C1 9525   1.163   1.837   9.256 -0.0596  0.3443 -1.1471
  640MPD2    C2 9526   1.155   1.964   9.313  0.4451  0.4103 -0.6015
  640MPD2    C3 9527   1.040   2.037   9.293 -0.4605  0.1767  0.4336
  640MPD2    C4 9528   0.947   1.994   9.200 -0.7303  0.1537 -0.4375
  640MPD2    C5 9529   0.950   1.865   9.148 -0.0115  0.2173  0.0725
  640MPD2     H 9530   1.229   1.996   9.385 -0.2985 -1.7170  1.1077
  640MPD2    H1 9531   0.859   2.053   9.177 -1.7533 -1.0751  0.3398
  640MPD2    H2 9532   1.059   1.692   9.122  0.4770  0.5164 -1.1890
  640MPD2    H3 9533   0.867   1.833   9.086  0.6864 -1.5406  0.0518
  640MPD2     N 9534   1.020   2.164   9.356 -0.6200 -0.5790 -0.2706
  640MPD2    H5 9535   0.927   2.204   9.346  0.0046  0.8759 -0.1171
  640MPD2    N1 9536   1.278   1.757   9.264  0.2569  0.0834  0.0172
  640MPD2    H7 9537   1.268   1.661   9.232  0.7572 -0.2064  0.7252
  641TMC3    C1 9538   1.500   1.699   9.299 -0.1106 -0.5231  0.1121
  641TMC3    C2 9539   1.617   1.709   9.375  0.1310 -0.0503 -0.3633
  641TMC3    C3 9540   1.708   1.604   9.363  0.4369 -0.5420 -0.3232
  641TMC3    C4 9541   1.470   1.585   9.223 -0.0058  0.4790  0.5126
  641TMC3    C5 9542   1.570   1.493   9.219 -0.6158  0.2159  0.2451
  641TMC3    C6 9543   1.687   1.490   9.291 -0.1039 -0.5605  0.5309
  641TMC3     C 9544   1.396   1.791   9.328  0.2954 -0.1075 -0.2602
  641TMC3     O 9545   1.418   1.898   9.382  0.4856  0.4465 -0.1967
  641TMC3     H 9546   1.639   1.794   9.439  2.3891 -0.3032 -0.7949
  641TMC3    H1 9547   1.377   1.577   9.168  0.7305 -0.6628 -0.5548
  641TMC3    H2 9548   1.770   1.423   9.271 -0.8981 -1.4287  0.1406
  641TMC3    C7 9549   1.546   1.373   9.146  0.7419  0.4383  0.5039
  641TMC3    C8 9550   1.835   1.612   9.420 -0.8010  0.4921 -0.3342
  641TMC3    O1 9551   1.433   1.328   9.140 -0.2558  0.3422  0.2869
  641TMC3    O2 9552   1.915   1.522   9.392  0.9732 -0.3166 -0.5174
  642TMC3    C1 9553   3.395   2.946  12.356  0.1447  0.5011  0.5096
  642TMC3    C2 9554   3.528   2.946  12.323  0.3031  0.3694  0.1019
  642TMC3    C3 9555   3.576   2.842  12.251 -0.5650 -0.0201 -0.5596
  642TMC3    C4 9556   3.315   2.841  12.329  0.2247  0.5455 -0.0397
  642TMC3    C5 9557   3.367   2.744  12.250  0.0394 -0.4532 -0.8183
  642TMC3    C6 9558   3.497   2.745  12.203 -0.1156  0.0729 -0.0035
  642TMC3     C 9559   3.342   3.057  12.427 -0.7948 -0.7254  0.3824
  642TMC3     O 9560   3.425   3.132  12.483 -0.3077 -0.0910 -0.5573
  642TMC3     H 9561   3.585   3.037  12.342 -0.2315  0.9476 -1.0350
  642TMC3    H1 9562   3.211   2.835  12.360  0.6826  2.1847  1.7606
  642TMC3    H2 9563   3.536   2.659  12.150  0.6054  1.6762 -2.0591
  642TMC3    C7 9564   3.293   2.619  12.235 -0.3397 -0.0706  0.9499
  642TMC3    C8 9565   3.699   2.858  12.165 -0.4559  0.8442 -0.0241
  642TMC3    O1 9566   3.324   2.543  12.142 -0.2095 -0.2540  0.4468
  642TMC3    O2 9567   3.707   2.787  12.068  0.2949  0.1601 -0.5623
  643TMC3    C1 9568   2.676   2.204   0.124 -0.2514  1.2536  0.0985
  643TMC3    C2 9569   2.549   2.184   0.076  0.3855 -1.0221 -0.0335
  643TMC3    C3 9570   2.535   2.062   0.013  0.2605  0.0632  0.3986
  643TMC3    C4 9571   2.786   2.120   0.103 -0.3812  0.5270 -0.3492
  643TMC3    C5 9572   2.756   1.997   0.041  0.5410  0.1227  0.2754
  643TMC3    C6 9573   2.634   1.969   0.001 -0.3040  0.2225  0.1782
  643TMC3     C 9574   2.678   2.287   0.241 -0.0955 -0.6419 -0.2678
  643TMC3     O 9575   2.647   2.406   0.230  1.0661  0.4497  0.1179
  643TMC3     H 9576   2.470   2.249   0.111  2.0481  1.1836 -0.3607
  643TMC3    H1 9577   2.889   2.146   0.125  0.6522 -1.8231 -2.4047
  643TMC3    H2 9578   2.610   1.879  17.684  0.4291 -0.7074  1.3742
  643TMC3    C7 9579   2.851   1.965  17.675 -0.6940  0.1558 -0.0905
  643TMC3    C8 9580   2.467   2.090  17.619 -0.0319 -0.0705  1.0596
  643TMC3    O1 9581   2.931   2.049  17.640  0.6007  0.1804  0.4808
  643TMC3    O2 9582   2.435   1.993  17.557 -0.2378 -0.0093 -0.0236
  644MPD2     C 9583   3.165   2.788  10.311  0.3042 -0.1361  0.5466
  644MPD2    C1 9584   3.080   2.700  10.243  0.8119  0.3545 -0.6505
  644MPD2    C2 9585   2.970   2.759  10.187  0.0750  0.0782 -0.3425
  644MPD2    C3 9586   2.976   2.895  10.155 -0.3128 -0.3645 -0.5290
  644MPD2    C4 9587   3.067   2.979  10.218  0.2336 -0.0337 -0.4732
  644MPD2    C5 9588   3.154   2.927  10.305 -0.3182  0.0852 -0.2618
  644MPD2     H 9589   2.902   2.700  10.127  0.7056 -1.1532  0.1623
  644MPD2    H1 9590   3.081   3.086  10.203 -0.7819  0.3198  1.1356
  644MPD2    H2 9591   3.249   2.749  10.367  1.9988  0.0710 -1.8477
  644MPD2    H3 9592   3.224   2.995  10.352  0.0678 -1.8506  1.9919
  644MPD2     N 9593   2.882   2.951  10.066 -0.1103 -0.1439 -0.3545
  644MPD2    H5 9594   2.826   2.882  10.017  1.7737 -1.3672 -0.7632
  644MPD2    N1 9595   3.122   2.563  10.247 -0.6771 -0.0494 -0.2718
  644MPD2    H7 9596   3.215   2.548  10.284 -1.2409 -2.1209  0.3020
  645TMC3    C1 9597   2.757   3.114   9.937 -0.2928 -0.4370  0.4987
  645TMC3    C2 9598   2.758   3.241   9.885 -0.0292 -1.1795 -0.1542
  645TMC3    C3 9599   2.648   3.270   9.807  0.1603 -0.2109 -0.9017
  645TMC3    C4 9600   2.661   3.014   9.910  0.4242  0.3103  0.2900
  645TMC3    C5 9601   2.550   3.058   9.842  0.4995 -0.8093  0.4249
  645TMC3    C6 9602   2.540   3.181   9.786  0.6475 -1.1226 -0.2304
  645TMC3     C 9603   2.866   3.086  10.033 -0.4695  0.1722 -0.2859
  645TMC3     O 9604   2.944   3.180  10.055  0.1250  0.1993  0.3471
  645TMC3     H 9605   2.829   3.316   9.917 -1.8908  0.6431 -0.2399
  645TMC3    H1 9606   2.665   2.923   9.970 -0.9817 -0.5085 -0.8657
  645TMC3    H2 9607   2.456   3.213   9.726  2.2275 -0.8907 -2.3078
  645TMC3    C7 9608   2.436   2.969   9.822  0.2713  0.5244 -0.1107
  645TMC3    C8 9609   2.622   3.405   9.756 -0.6453 -0.0852  1.0804
  645TMC3    O1 9610   2.456   2.848   9.822  0.1135 -0.3443 -0.4919
  645TMC3    O2 9611   2.556   3.410   9.653  0.2322  0.6528  0.0753
  646MPD2     C 9612   1.865   1.893  14.431 -0.0808 -0.2298  0.3373
  646MPD2    C1 9613   1.846   1.980  14.541 -0.3506 -1.1745 -0.6926
  646MPD2    C2 9614   1.751   2.087  14.528  0.2812  0.7871 -0.0888
  646MPD2    C3 9615   1.676   2.102  14.411 -0.3947 -0.1158  0.4752
  646MPD2    C4 9616   1.694   1.997  14.312 -0.4668 -0.1298 -0.6855
  646MPD2    C5 9617   1.792   1.901  14.319 -0.1729  0.0405 -0.3438
  646MPD2     H 9618   1.737   2.153  14.613 -3.5391 -0.2704  0.0825
  646MPD2    H1 9619   1.631   1.992  14.224 -0.0241  1.8256 -1.1167
  646MPD2    H2 9620   1.932   1.808  14.437  0.4769  0.2853  1.3081
  646MPD2    H3 9621   1.814   1.830  14.240 -2.0882 -0.6996 -0.2029
  646MPD2     N 9622   1.575   2.201  14.394  0.2559 -0.3017 -0.5290
  646MPD2    H5 9623   1.562   2.260  14.476  0.9980  1.4994 -1.7227
  646MPD2    N1 9624   1.924   1.956  14.657  0.3389 -0.1364 -0.3815
  646MPD2    H7 9625   2.008   1.898  14.654  1.1864  1.1849 -1.9858
  647TMC3    C1 9626   1.973   1.918  14.876  0.0133  0.8079 -0.1104
  647TMC3    C2 9627   1.907   1.829  14.954  0.0183  0.2079  0.1202
  647TMC3    C3 9628   1.973   1.719  15.005  0.1510  1.0679  0.6098
  647TMC3    C4 9629   2.107   1.902  14.839 -0.0307 -0.0550 -0.0417
  647TMC3    C5 9630   2.172   1.804  14.908 -0.1035  0.5499  0.1665
  647TMC3    C6 9631   2.112   1.713  14.983 -0.0519  0.0879  0.0657
  647TMC3     C 9632   1.886   1.989  14.788 -0.3175 -0.1074  0.0127
  647TMC3     O 9633   1.781   2.032  14.828 -0.1453 -0.1114  0.0977
  647TMC3     H 9634   1.800   1.842  14.966  0.0474  0.9318 -0.4279
  647TMC3    H1 9635   2.161   1.969  14.773 -0.5042  1.5963  1.2407
  647TMC3    H2 9636   2.163   1.630  15.029  0.6683  1.4845  1.7714
  647TMC3    C7 9637   2.312   1.773  14.877  0.1796 -0.1832  0.4669
  647TMC3    C8 9638   1.908   1.625  15.094 -0.0364  0.6213  0.5148
  647TMC3    O1 9639   2.365   1.684  14.941 -0.2939 -0.0429 -0.3028
  647TMC3    O2 9640   1.983   1.563  15.167 -0.8142 -0.0699  0.4822
  648TMC3    C1 9641   1.199   4.390  16.014  0.1068  0.2788 -0.1174
  648TMC3    C2 9642   1.194   4.260  15.969 -0.0750 -0.0750 -0.8798
  648TMC3    C3 9643   1.118   4.239  15.851  0.2265  0.6586  0.1737
  648TMC3    C4 9644   1.138   4.490  15.949 -0.2176 -0.6156  0.0804
  648TMC3    C5 9645   1.063   4.460  15.840  0.2331 -0.4940  0.1542
  648TMC3    C6 9646   1.055   4.339  15.779 -0.8556 -0.1234  0.8471
  648TMC3     C 9647   1.233   4.416  16.153  0.9573 -0.3548 -0.0780
  648TMC3     O 9648   1.241   4.529  16.203 -0.2438  0.1746  0.1896
  648TMC3     H 9649   1.248   4.178  16.013 -0.8412 -0.2394 -0.2431
  648TMC3    H1 9650   1.161   4.594  15.969 -0.1760 -0.5186 -0.4782
  648TMC3    H2 9651   1.005   4.318  15.686  2.0279 -0.1363 -0.7183
  648TMC3    C7 9652   1.033   4.575  15.763  0.5484 -0.5645  0.3008
  648TMC3    C8 9653   1.113   4.103  15.791 -0.1031  0.9034 -0.8865
  648TMC3    O1 9654   1.025   4.562  15.643  0.1809  0.1779  0.2216
  648TMC3    O2 9655   1.004   4.063  15.748 -0.1791  0.8795  0.2771
  649TMC3    C1 9656   0.140   0.621  12.665 -0.3922 -0.2996  0.0298
  649TMC3    C2 9657   0.262   0.586  12.633  0.8182 -0.1129  0.1653
  649TMC3    C3 9658   0.340   0.526  12.722  0.6643 -0.1106 -0.7063
  649TMC3    C4 9659   0.088   0.580  12.785  0.2844 -0.0387 -0.4423
  649TMC3    C5 9660   0.167   0.508  12.874  0.4390  0.2615  0.1150
  649TMC3    C6 9661   0.295   0.480  12.837 -0.4747 -0.3629  0.2835
  649TMC3     C 9662   0.043   0.689  12.580  0.3199 -0.5382 -0.1143
  649TMC3     O 9663   4.678   0.731  12.636 -0.0043 -0.2729  0.0460
  649TMC3     H 9664   0.299   0.631  12.542  2.3989 -0.3838  0.6803
  649TMC3    H1 9665   4.724   0.609  12.821  1.4342  1.8541  1.2259
  649TMC3    H2 9666   0.354   0.405  12.889 -3.6464 -2.7915  0.3364
  649TMC3    C7 9667   0.102   0.410  12.955  0.2290  0.2675  0.0484
  649TMC3    C8 9668   0.486   0.550  12.711  0.6265 -0.8656  0.3746
  649TMC3    O1 9669   4.732   0.365  12.914  0.3545  0.1405 -0.1497
  649TMC3    O2 9670   0.546   0.553  12.815  0.7138  0.2886  0.2204
  650TMC3    C1 9671   2.497   1.898  12.693 -0.1930  0.1381  0.1938
  650TMC3    C2 9672   2.428   1.997  12.763  0.6551 -0.9337  0.0446
  650TMC3    C3 9673   2.333   2.060  12.695  0.6784 -0.3656  0.8802
  650TMC3    C4 9674   2.474   1.870  12.562 -0.4955 -0.1740 -0.5620
  650TMC3    C5 9675   2.368   1.929  12.506  0.2112  0.2168  0.2271
  650TMC3    C6 9676   2.297   2.028  12.567  0.1952  1.3133  0.4143
  650TMC3     C 9677   2.571   1.787  12.765 -0.1122  0.3043  0.7285
  650TMC3     O 9678   2.503   1.748  12.859  0.8232 -0.2040  0.0277
  650TMC3     H 9679   2.451   2.022  12.866  1.7638 -2.9951  0.3091
  650TMC3    H1 9680   2.538   1.798  12.511  0.0491  0.0385 -0.1796
  650TMC3    H2 9681   2.205   2.071  12.530 -0.7611  1.4226  2.8870
  650TMC3    C7 9682   2.392   1.946  12.360  0.4349  0.3675  0.1550
  650TMC3    C8 9683   2.334   2.211  12.703  0.1956 -0.2062  0.3881
  650TMC3    O1 9684   2.417   1.850  12.290  0.2463  0.5916 -0.1403
  650TMC3    O2 9685   2.346   2.268  12.598  0.4198  0.1941 -0.3893
  651MPD2     C 9686   1.646   0.040  10.306  0.3471 -0.0427  0.2866
  651MPD2    C1 9687   1.648   0.072  10.437 -0.2643  0.2797 -0.3923
  651MPD2    C2 9688   1.767   0.096  10.503  0.4716 -0.1001  0.6496
  651MPD2    C3 9689   1.891   0.093  10.436  0.0001  0.3876  0.0722
  651MPD2    C4 9690   1.884   0.064  10.303  0.5740  0.1904 -0.5553
  651MPD2    C5 9691   1.767   0.046  10.240 -0.8164  0.1530 -0.3849
  651MPD2     H 9692   1.767   0.124  10.608  1.1979 -0.2676  0.6912
  651MPD2    H1 9693   1.974   0.069  10.242  0.9997  1.1939  0.1344
  651MPD2    H2 9694   1.555   0.045  10.247  0.1142  0.7137  0.7098
  651MPD2    H3 9695   1.767   0.043  10.131 -1.9544  2.2645 -0.4383
  651MPD2     N 9696   2.010   0.132  10.505 -0.3801  0.3657 -0.1002
  651MPD2    H5 9697   2.000   0.163  10.601 -0.1632 -0.6744  0.2597
  651MPD2    N1 9698   1.532   0.082  10.519  0.7266 -0.3835  0.5768
  651MPD2    H7 9699   1.546   0.103  10.618 -0.6408  0.5346  0.5754
  652TMC3    C1 9700   2.401   0.035  10.699  0.2566  0.6575  0.6749
  652TMC3    C2 9701   2.336   0.039  10.580 -0.1076 -0.4439 -0.8397
  652TMC3    C3 9702   2.232   0.132  10.565 -0.0382 -0.1741 -0.1719
  652TMC3    C4 9703   2.367   0.119  10.804 -0.1951 -0.3396  0.0605
  652TMC3    C5 9704   2.261   0.205  10.788 -0.0200 -0.5777  0.3151
  652TMC3    C6 9705   2.197   0.218  10.670  0.3893  0.1747  0.1286
  652TMC3     C 9706   2.529   4.701  10.712 -0.6866 -0.6428 -0.1142
  652TMC3     O 9707   2.562   4.654  10.818  0.0355 -0.3588 -0.4033
  652TMC3     H 9708   2.377   4.716  10.498  1.2536  2.4801 -2.2060
  652TMC3    H1 9709   2.425   0.114  10.894 -1.6727 -2.5104  0.9114
  652TMC3    H2 9710   2.124   0.297  10.657 -0.5755 -0.5541  1.1407
  652TMC3    C7 9711   2.240   0.313  10.888 -0.6470  1.1149 -0.6572
  652TMC3    C8 9712   2.138   0.110  10.457 -0.1769 -0.1988  0.2412
  652TMC3    O1 9713   2.242   0.277  11.007  0.1238  0.4270 -0.3145
  652TMC3    O2 9714   2.168   0.056  10.356 -0.5006 -0.6932  0.0010
  653MPD2     C 9715   0.180   4.443  17.689 -0.1927 -0.3791 -0.0341
  653MPD2    C1 9716   0.192   4.545  17.597 -0.0659 -0.5082  0.3986
  653MPD2    C2 9717   0.154   4.521  17.468  0.2035  0.4258 -0.5512
  653MPD2    C3 9718   0.100   4.402  17.428  0.1519  0.0612 -0.1226
  653MPD2    C4 9719   0.076   4.303  17.521  1.3053 -0.2471 -0.3532
  653MPD2    C5 9720   0.121   4.330  17.649  0.1929  0.3987  0.2457
  653MPD2     H 9721   0.175   4.587  17.384  0.1246  1.4911  0.2673
  653MPD2    H1 9722   0.031   4.206  17.506  1.3258 -0.3517  0.2671
  653MPD2    H2 9723   0.220   4.451   0.052 -1.1550 -2.8909  0.5507
  653MPD2    H3 9724   0.102   4.249  17.719 -0.2999 -1.5983 -2.2111
  653MPD2     N 9725   0.066   4.389  17.287  0.4751 -0.5355  0.3697
  653MPD2    H5 9726   0.082   4.473  17.231  1.2991 -0.0131  1.3810
  653MPD2    N1 9727   0.241   4.676  17.626 -1.1995 -0.5039 -0.7737
  653MPD2    H7 9728   0.242   4.731  17.541 -0.6133  0.9021  0.1549
  654TMC3    C1 9729   0.019   4.275  17.093 -0.3868 -0.1947 -0.3789
  654TMC3    C2 9730   4.649   4.353  17.053  0.1099 -0.3085 -0.1164
  654TMC3    C3 9731   4.584   4.313  16.940  0.4112  0.1736 -0.3048
  654TMC3    C4 9732   0.053   4.157  17.028 -0.4940 -0.5592 -0.7825
  654TMC3    C5 9733   4.711   4.119  16.917  0.0102  0.0477  0.3215
  654TMC3    C6 9734   4.611   4.199  16.871  0.6050 -0.0056  0.6577
  654TMC3     C 9735   0.049   4.267  17.233 -0.2122 -0.5470  1.1467
  654TMC3     O 9736   0.059   4.152  17.282  0.6281  0.3207  0.8346
  654TMC3     H 9737   4.622   4.448  17.098  0.1858  0.3333 -1.4133
  654TMC3    H1 9738   0.146   4.106  17.051  0.3394  2.2334  2.0196
  654TMC3    H2 9739   4.557   4.165  16.784  1.4852  0.4479 -0.0661
  654TMC3    C7 9740   4.716   3.988  16.856  0.0449 -0.4009  0.1121
  654TMC3    C8 9741   4.481   4.406  16.896  0.0991 -0.6706 -0.7000
  654TMC3    O1 9742   4.678   3.972  16.740 -0.1242  0.1701  0.2774
  654TMC3    O2 9743   4.408   4.457  16.979 -0.2661 -0.0961  0.4118
  655MPD2     C 9744   1.573   4.354  15.788 -0.0412  0.6540 -1.1339
  655MPD2    C1 9745   1.507   4.439  15.696  0.3500  0.0485 -0.0603
  655MPD2    C2 9746   1.489   4.383  15.568 -0.0594 -0.0179  0.1712
  655MPD2    C3 9747   1.537   4.263  15.526 -0.4906  0.3768 -0.3896
  655MPD2    C4 9748   1.601   4.184  15.625  1.2177  0.2900  0.1589
  655MPD2    C5 9749   1.613   4.230  15.754 -0.5180  0.1106  0.1018
  655MPD2     H 9750   1.440   4.442  15.491  1.7188 -1.0263 -1.7494
  655MPD2    H1 9751   1.623   4.079  15.611 -0.6508  0.1242 -1.5967
  655MPD2    H2 9752   1.587   4.374  15.894 -0.1465 -0.9400 -0.8180
  655MPD2    H3 9753   1.666   4.181  15.835 -0.3362  1.0652  0.5659
  655MPD2     N 9754   1.523   4.209  15.395  0.3162 -0.6737  0.4552
  655MPD2    H5 9755   1.576   4.125  15.379  0.4116 -0.7517  1.2003
  655MPD2    N1 9756   1.457   4.571  15.728  0.0195  1.1014  0.5614
  655MPD2    H7 9757   1.418   4.617  15.646 -2.1479 -0.9367  0.4497
  656TMC3    C1 9758   1.438   0.039  15.860  0.4380 -0.4775  0.3095
  656TMC3    C2 9759   1.375   0.077  15.976  0.7120  0.1661  0.4049
  656TMC3    C3 9760   1.286   0.184  15.978 -0.7666 -0.2495  0.7352
  656TMC3    C4 9761   1.407   0.114  15.749  0.3351 -0.0914 -0.3115
  656TMC3    C5 9762   1.318   0.217  15.752 -0.0505  0.8682 -0.4450
  656TMC3    C6 9763   1.259   0.252  15.868  0.4211 -0.4684 -0.3775
  656TMC3     C 9764   1.469   4.631  15.847 -0.0344  0.5597 -0.3613
  656TMC3     O 9765   1.504   4.588  15.956 -0.0604 -0.2092 -0.1465
  656TMC3     H 9766   1.390   0.016  16.065 -0.8339 -0.3978  0.2801
  656TMC3    H1 9767   1.450   0.085  15.654 -0.7217 -1.8507 -0.2699
  656TMC3    H2 9768   1.171   0.316  15.864  0.0328 -0.9486  0.4056
  656TMC3    C7 9769   1.304   0.300  15.629  0.3002 -1.0340  0.0458
  656TMC3    C8 9770   1.185   0.164  16.072  0.2750 -0.2854 -0.2936
  656TMC3    O1 9771   1.330   0.254  15.517  0.5248  0.5286  0.0347
  656TMC3    O2 9772   1.145   0.055  16.105 -0.3935 -0.4925  0.2559
  657TMC3    C1 9773   0.522   3.720  14.859 -0.1811  0.8499  0.1819
  657TMC3    C2 9774   0.543   3.770  14.981  0.0996 -0.3270 -0.1033
  657TMC3    C3 9775   0.445   3.860  15.030  0.1958  0.2117  0.0043
  657TMC3    C4 9776   0.424   3.763  14.773 -0.7521  0.1120 -0.0400
  657TMC3    C5 9777   0.353   3.874  14.818 -0.7933 -0.0643  0.2659
  657TMC3    C6 9778   0.360   3.922  14.948  0.3224  0.1493 -0.9845
  657TMC3     C 9779   0.592   3.594  14.821 -0.7324 -0.6020  0.7106
  657TMC3     O 9780   0.547   3.538  14.724 -0.2620 -0.3498  0.0753
  657TMC3     H 9781   0.608   3.725  15.055  2.5126  2.2664 -0.6319
  657TMC3    H1 9782   0.402   3.703  14.686  0.8159 -0.4744 -0.0314
  657TMC3    H2 9783   0.302   4.006  14.984 -1.3238 -0.9974 -1.0032
  657TMC3    C7 9784   0.279   3.944  14.709 -0.2420  0.1751  0.4146
  657TMC3    C8 9785   0.445   3.892  15.174 -0.1910  0.1665 -0.4549
  657TMC3    O1 9786   0.266   3.877  14.608 -0.4248  0.2979  0.4937
  657TMC3    O2 9787   0.542   3.857  15.241 -0.3099  0.4091  0.7238
  658MPD2     C 9788   2.049   4.166  15.034 -0.1828  0.3899 -0.0001
  658MPD2    C1 9789   1.937   4.163  14.954  0.1085  0.3643 -0.3704
  658MPD2    C2 9790   1.934   4.244  14.845 -0.5775 -0.5742 -0.4409
  658MPD2    C3 9791   2.039   4.319  14.812 -0.1804 -0.5807  0.2863
  658MPD2    C4 9792   2.157   4.314  14.881  0.0612  0.7877  0.2687
  658MPD2    C5 9793   2.157   4.239  14.995  0.5903  0.2190  0.2285
  658MPD2     H 9794   1.842   4.259  14.790 -0.7201  3.3007  0.9050
  658MPD2    H1 9795   2.245   4.360  14.837 -0.7242 -0.0766 -2.2098
  658MPD2    H2 9796   2.063   4.110  15.125 -1.5001  1.0734  0.6378
  658MPD2    H3 9797   2.238   4.235  15.067 -0.6363  0.3650  1.6135
  658MPD2     N 9798   2.022   4.383  14.684 -0.2761  0.1701  0.7723
  658MPD2    H5 9799   1.931   4.368  14.643  0.6483  1.1736 -1.6294
  658MPD2    N1 9800   1.820   4.091  15.010  0.0099  0.4717  0.0827
  658MPD2    H7 9801   1.843   4.044  15.097 -1.1994 -2.1999 -1.0753
  659TMC3    C1 9802   1.579   4.067  15.018 -0.5862 -0.2411  0.2164
  659TMC3    C2 9803   1.571   4.130  15.137 -0.2554  0.3522 -0.2332
  659TMC3    C3 9804   1.449   4.179  15.183 -0.3281 -0.0288 -0.0594
  659TMC3    C4 9805   1.461   4.045  14.950  0.1340  0.0840  0.1354
  659TMC3    C5 9806   1.344   4.084  14.998 -0.0022 -0.2440 -0.0554
  659TMC3    C6 9807   1.332   4.155  15.115 -0.4320 -0.1210  0.2948
  659TMC3     C 9808   1.700   4.084  14.938  0.3018 -0.5774  0.0266
  659TMC3     O 9809   1.684   4.105  14.820  0.0491  0.0032  0.0665
  659TMC3     H 9810   1.662   4.155  15.191 -0.4164 -0.8655  0.5985
  659TMC3    H1 9811   1.461   4.021  14.845  3.1699  2.1972 -0.3347
  659TMC3    H2 9812   1.236   4.194  15.145 -0.0820  1.9258 -1.2302
  659TMC3    C7 9813   1.232   4.062  14.910 -0.5153  0.3840  0.1558
  659TMC3    C8 9814   1.436   4.257  15.300  0.4737 -0.2859 -0.3043
  659TMC3    O1 9815   1.146   4.148  14.897 -0.8497  0.0143  0.6079
  659TMC3    O2 9816   1.362   4.353  15.305  0.3034 -1.5597  0.1562
  660MPD2     C 9817   4.060   3.714  12.732  0.4120 -0.4117 -0.0509
  660MPD2    C1 9818   4.067   3.598  12.663  0.0659 -0.8604  0.2998
  660MPD2    C2 9819   4.021   3.486  12.717 -0.4897  0.7392  0.2903
  660MPD2    C3 9820   3.944   3.492  12.837  0.6779 -0.3036  0.5041
  660MPD2    C4 9821   3.929   3.610  12.901  0.2949  0.1001 -0.8184
  660MPD2    C5 9822   3.996   3.719  12.851  0.1686  0.5269 -0.3734
  660MPD2     H 9823   4.032   3.390  12.669  1.4055  1.0525  0.0624
  660MPD2    H1 9824   3.886   3.622  13.000 -0.6487 -0.4652 -1.1560
  660MPD2    H2 9825   4.088   3.814  12.700 -1.4746 -0.4992 -1.9951
  660MPD2    H3 9826   3.993   3.814  12.903  1.0224  1.5479 -2.1780
  660MPD2     N 9827   3.866   3.387  12.884  0.1395  0.2149 -0.4031
  660MPD2    H5 9828   3.813   3.409  12.968 -0.9585  0.5985 -1.1864
  660MPD2    N1 9829   4.133   3.597  12.538  0.4347  0.1766  0.3670
  660MPD2    H7 9830   4.155   3.692  12.512  1.9031 -0.7563 -1.8222
  661TMC3    C1 9831   4.192   3.516  12.326 -0.0151 -0.1271  0.2527
  661TMC3    C2 9832   4.262   3.413  12.257 -0.1792  0.1956  0.0565
  661TMC3    C3 9833   4.233   3.389  12.123  0.2386 -0.9096  0.1570
  661TMC3    C4 9834   4.084   3.568  12.264 -0.0465  0.1568 -0.3760
  661TMC3    C5 9835   4.047   3.527  12.139  0.9408  0.3750 -0.1304
  661TMC3    C6 9836   4.128   3.447  12.064  0.2143 -0.1747  0.0849
  661TMC3     C 9837   4.168   3.486  12.462 -0.4362 -0.2351  0.1008
  661TMC3     O 9838   4.159   3.366  12.491 -0.7789 -0.0416 -0.1919
  661TMC3     H 9839   4.351   3.370  12.300  0.7439  0.9910 -1.0625
  661TMC3    H1 9840   4.028   3.648  12.309 -1.6996 -0.6996 -0.9131
  661TMC3    H2 9841   4.113   3.440  11.957  1.2148 -0.1176 -0.0584
  661TMC3    C7 9842   3.909   3.495  12.128 -0.1640  0.4622 -0.2352
  661TMC3    C8 9843   4.342   3.334  12.040 -0.5579  0.3590  0.2652
  661TMC3    O1 9844   3.830   3.557  12.201  0.0471 -0.1274  0.0577
  661TMC3    O2 9845   4.328   3.365  11.923  0.0916 -0.3076  0.7173
  662MPD2     C 9846   4.429   3.069  17.228  0.5426 -0.5650  0.1289
  662MPD2    C1 9847   4.355   2.964  17.273  0.7222  0.8958  0.2542
  662MPD2    C2 9848   4.273   2.979  17.385 -0.4932 -0.3046  0.7808
  662MPD2    C3 9849   4.276   3.099  17.463 -0.9348 -0.3717  0.9290
  662MPD2    C4 9850   4.345   3.206  17.406 -0.2021 -0.2797  0.2201
  662MPD2    C5 9851   4.414   3.194  17.289 -0.3016 -0.4379  0.1807
  662MPD2     H 9852   4.216   2.895  17.422 -1.1941  0.4113  1.3161
  662MPD2    H1 9853   4.343   3.299  17.463 -0.1289  0.9061 -1.7146
  662MPD2    H2 9854   4.481   3.074  17.132 -0.2791 -1.0256 -0.3382
  662MPD2    H3 9855   4.480   3.271  17.250 -1.7092  0.4681 -0.4052
  662MPD2     N 9856   4.219   3.110  17.593  0.0700 -0.2269  0.1058
  662MPD2    H5 9857   4.209   3.201  17.636  0.4997 -0.7635  1.3838
  662MPD2    N1 9858   4.353   2.838  17.210  0.6152 -0.0404  0.0040
  662MPD2    H7 9859   4.295   2.765  17.250  4.6783 -1.7016  2.9318
  663TMC3    C1 9860   4.458   2.660  17.088 -0.0841  0.0676 -0.5196
  663TMC3    C2 9861   4.439   2.599  17.212 -0.0552  0.2178  0.8266
  663TMC3    C3 9862   4.380   2.480  17.210  0.6157 -0.6827 -0.1926
  663TMC3    C4 9863   4.422   2.605  16.967  0.0947  0.5073 -0.0627
  663TMC3    C5 9864   4.372   2.483  16.973 -0.0537 -0.1849  0.2878
  663TMC3    C6 9865   4.351   2.425  17.091  0.4745 -0.2323 -0.0005
  663TMC3     C 9866   4.421   2.803  17.097  0.3419  0.4650 -0.6097
  663TMC3     O 9867   4.461   2.869  17.003 -0.3116  0.0125 -0.1081
  663TMC3     H 9868   4.445   2.647  17.309  2.0380 -1.2947  1.4429
  663TMC3    H1 9869   4.447   2.646  16.870 -1.9726 -1.6475 -1.5034
  663TMC3    H2 9870   4.269   2.354  17.085  0.4664 -0.3414  1.4946
  663TMC3    C7 9871   4.404   2.392  16.867  0.3263 -0.0522  0.1608
  663TMC3    C8 9872   4.262   2.499  17.289  0.1413  0.1142 -1.3178
  663TMC3    O1 9873   4.403   2.425  16.748  0.2942  0.6904 -0.2663
  663TMC3    O2 9874   4.210   2.608  17.281 -0.6244  0.1121 -0.3474
  664MPD2     C 9875   2.424   0.490  17.619 -0.1985  0.1839  0.5209
  664MPD2    C1 9876   2.485   0.596  17.689  0.0646 -0.1417 -0.1596
  664MPD2    C2 9877   2.451   0.618   0.082  0.4802  0.3574  0.1468
  664MPD2    C3 9878   2.358   0.539   0.147 -0.3764  0.2269  0.0353
  664MPD2    C4 9879   2.311   0.433   0.079  0.0026  0.5718  1.2709
  664MPD2    C5 9880   2.339   0.412  17.687 -0.2280 -0.2594 -0.0183
  664MPD2     H 9881   2.500   0.700   0.133 -0.3927  0.3795  0.9492
  664MPD2    H1 9882   2.256   0.355   0.130 -1.7890  0.8577 -0.2598
  664MPD2    H2 9883   2.456   0.467  17.518 -0.9531 -1.8067  0.7323
  664MPD2    H3 9884   2.289   0.338  17.626  0.5300 -0.1617 -0.7558
  664MPD2     N 9885   2.339   0.557   0.285  0.3163 -0.6151 -0.3882
  664MPD2    H5 9886   2.412   0.606   0.336  1.4042 -1.0846 -1.4806
  664MPD2    N1 9887   2.568   0.692  17.629 -0.2844 -0.1338 -0.1262
  664MPD2    H7 9888   2.578   0.781  17.676  0.1377 -0.9665  1.3570
  665TMC3    C1 9889   2.282   0.511   0.515 -0.0272  0.6356 -0.0919
  665TMC3    C2 9890   2.176   0.525   0.604  0.2458 -0.3707  0.2764
  665TMC3    C3 9891   2.216   0.557   0.732 -0.1378  0.3456 -0.0487
  665TMC3    C4 9892   2.411   0.521   0.557 -0.3721  0.3070  0.1519
  665TMC3    C5 9893   2.449   0.537   0.685 -0.0130 -0.2915  0.1012
  665TMC3    C6 9894   2.350   0.555   0.779 -0.0328 -0.2359  0.3364
  665TMC3     C 9895   2.253   0.487   0.366 -0.2245  0.5205  0.3275
  665TMC3     O 9896   2.149   0.434   0.327 -0.3418  0.5022 -0.0303
  665TMC3     H 9897   2.074   0.540   0.571 -0.0825 -0.9577  1.0180
  665TMC3    H1 9898   2.491   0.503   0.487 -1.0353 -2.4108  0.0701
  665TMC3    H2 9899   2.373   0.568   0.884 -0.5526  1.2640  0.2691
  665TMC3    C7 9900   2.582   0.587   0.713  0.1620 -0.1061  0.1760
  665TMC3    C8 9901   2.122   0.605   0.835  0.9232 -0.2507  0.4180
  665TMC3    O1 9902   2.654   0.583   0.615 -0.0039  0.1589 -0.0243
  665TMC3    O2 9903   2.174   0.662   0.927  0.7916  0.3392  0.3631
  666TMC3    C1 9904   2.600   1.177   9.940 -0.6269 -0.9171 -0.7370
  666TMC3    C2 9905   2.689   1.217  10.031 -0.1134  0.1922 -0.7026
  666TMC3    C3 9906   2.683   1.341  10.085 -0.3444  0.6130 -0.5387
  666TMC3    C4 9907   2.509   1.267   9.890  0.2823 -0.4075  0.0564
  666TMC3    C5 9908   2.502   1.392   9.941  0.1852 -0.9440  0.3362
  666TMC3    C6 9909   2.591   1.427  10.038 -0.4239  0.4925  0.0421
  666TMC3     C 9910   2.574   1.033   9.938  0.2462 -0.1581 -0.4955
  666TMC3     O 9911   2.671   0.958   9.952 -0.1415  0.3016 -0.1111
  666TMC3     H 9912   2.764   1.146  10.064 -2.2638 -0.7045  2.3183
  666TMC3    H1 9913   2.443   1.236   9.811 -0.7772 -0.3315  0.9156
  666TMC3    H2 9914   2.592   1.529  10.076 -1.6106  1.2763 -2.0537
  666TMC3    C7 9915   2.373   1.433   9.983 -0.5467 -0.7008 -0.3281
  666TMC3    C8 9916   2.689   1.335  10.226 -0.2153  1.1549  0.3893
  666TMC3    O1 9917   2.377   1.480  10.093  0.2550  0.3284 -0.1980
  666TMC3    O2 9918   2.783   1.275  10.271 -0.0857  0.3799 -0.1584
  667MPD2     C 9919   3.446   0.535  14.802 -0.6044  0.5685 -0.2476
  667MPD2    C1 9920   3.390   0.656  14.852 -0.6925  0.1056 -0.1088
  667MPD2    C2 9921   3.257   0.653  14.899  0.2325 -0.1911 -0.3090
  667MPD2    C3 9922   3.176   0.541  14.890 -0.4009  0.3363 -0.4540
  667MPD2    C4 9923   3.232   0.433  14.822 -0.4609  0.1107 -0.1980
  667MPD2    C5 9924   3.362   0.432  14.778 -0.1018  0.4982  0.1689
  667MPD2     H 9925   3.213   0.737  14.952 -2.0322 -1.1931 -0.6030
  667MPD2    H1 9926   3.179   0.344  14.789  0.7036 -0.1934 -1.2386
  667MPD2    H2 9927   3.544   0.525  14.758 -1.1546 -0.5837 -1.1988
  667MPD2    H3 9928   3.395   0.338  14.737  0.3442  0.6881  0.0918
  667MPD2     N 9929   3.041   0.530  14.940 -0.6430  0.5157 -0.1636
  667MPD2    H5 9930   2.990   0.444  14.923  0.7458 -0.8468  2.5960
  667MPD2    N1 9931   3.469   0.774  14.860  0.5203 -0.3247  0.5584
  667MPD2    H7 9932   3.428   0.853  14.908  0.6758  0.4709 -0.6177
  668TMC3    C1 9933   3.622   0.921  14.796 -0.2632 -0.3352  0.2269
  668TMC3    C2 9934   3.677   0.970  14.681  0.0211 -0.2676 -0.3675
  668TMC3    C3 9935   3.744   1.088  14.689 -0.6166 -0.0789  0.0101
  668TMC3    C4 9936   3.638   0.972  14.921  0.0097 -0.4923  0.2835
  668TMC3    C5 9937   3.715   1.083  14.927 -0.1508 -0.6284 -0.7716
  668TMC3    C6 9938   3.767   1.150  14.812  0.3866 -0.1233  0.2511
  668TMC3     C 9939   3.588   0.787  14.790  0.2910 -0.3726  0.2052
  668TMC3     O 9940   3.655   0.709  14.718  0.2306  0.4742  0.1920
  668TMC3     H 9941   3.660   0.913  14.590  1.8654 -1.9350  0.3181
  668TMC3    H1 9942   3.618   0.912  15.008  2.1581 -0.0107  1.1074
  668TMC3    H2 9943   3.824   1.241  14.827  1.4161 -1.3132  3.4077
  668TMC3    C7 9944   3.737   1.145  15.056 -0.0015  0.3675  0.0083
  668TMC3    C8 9945   3.773   1.142  14.555  0.4570  0.4931 -0.2507
  668TMC3    O1 9946   3.767   1.267  15.058  0.2674 -0.5603 -0.5435
  668TMC3    O2 9947   3.732   1.076  14.460  0.3161 -1.0978 -0.0133
  669TMC3    C1 9948   1.519   1.155  14.733  0.2405 -0.5521  0.3452
  669TMC3    C2 9949   1.393   1.166  14.690 -0.5089  0.2220 -0.4807
  669TMC3    C3 9950   1.367   1.254  14.587  1.0859  0.9865  0.2898
  669TMC3    C4 9951   1.622   1.221  14.680 -0.3193  0.4429 -0.5917
  669TMC3    C5 9952   1.595   1.302  14.574 -0.0908  0.0956 -0.1768
  669TMC3    C6 9953   1.463   1.327  14.526  1.0753 -0.8379  0.1808
  669TMC3     C 9954   1.537   1.073  14.852 -0.4359  0.5325 -0.1369
  669TMC3     O 9955   1.468   0.973  14.857  0.2090  0.0956 -0.2211
  669TMC3     H 9956   1.308   1.106  14.722 -1.2818  0.8108 -1.4386
  669TMC3    H1 9957   1.722   1.198  14.715 -0.2818  1.4912 -0.0082
  669TMC3    H2 9958   1.446   1.394  14.442  1.0478  1.9928  2.4775
  669TMC3    C7 9959   1.703   1.328  14.473  0.2033  0.2489 -0.5933
  669TMC3    C8 9960   1.240   1.244  14.508 -0.4584 -0.7314  0.1231
  669TMC3    O1 9961   1.682   1.429  14.403 -0.0760 -0.4952  0.8198
  669TMC3    O2 9962   1.170   1.146  14.508 -0.0554  0.4863  0.2344
  670MPD2     C 9963   4.600   3.449  13.206  0.1035  0.5144  0.4333
  670MPD2    C1 9964   4.622   3.521  13.322 -0.5162 -0.2117 -1.6632
  670MPD2    C2 9965   4.533   3.511  13.431 -0.1305 -0.3631  0.2317
  670MPD2    C3 9966   4.427   3.417  13.425  0.2797  0.1458 -0.1932
  670MPD2    C4 9967   4.419   3.334  13.322 -0.1813  0.6290  0.0346
  670MPD2    C5 9968   4.503   3.351  13.209 -0.3864  0.2104  0.0668
  670MPD2     H 9969   4.553   3.568  13.520 -2.0162 -0.4883  0.7446
  670MPD2    H1 9970   4.335   3.268  13.303 -1.1563  2.0096 -0.5487
  670MPD2    H2 9971   4.669   3.448  13.122  0.6777 -1.4331  0.9259
  670MPD2    H3 9972   4.495   3.286  13.122  0.3733 -0.9402  0.8474
  670MPD2     N 9973   4.344   3.398  13.536 -0.9133 -0.0172 -0.6978
  670MPD2    H5 9974   4.356   3.468  13.609  0.2987 -0.6026 -0.3378
  670MPD2    N1 9975   0.005   3.595  13.348 -0.5624  0.4033  0.3202
  670MPD2    H7 9976   0.009   3.630  13.443 -0.0941 -0.1773  0.5135
  671TMC3    C1 9977   4.206   3.293  13.698  0.9729 -0.1669  0.1077
  671TMC3    C2 9978   4.304   3.300  13.795 -0.2474  0.0148 -0.6944
  671TMC3    C3 9979   4.293   3.220  13.903  0.2313  0.4149  0.1575
  671TMC3    C4 9980   4.110   3.201  13.714 -0.2539 -0.4126  0.0743
  671TMC3    C5 9981   4.100   3.122  13.827 -0.0639  0.1293  0.3172
  671TMC3    C6 9982   4.195   3.129  13.922  0.5035  0.1053  0.3124
  671TMC3     C 9983   4.243   3.308  13.556 -0.0430  0.0486 -0.1733
  671TMC3     O 9984   4.200   3.227  13.477 -0.1866 -0.6505 -0.4719
  671TMC3     H 9985   4.404   3.332  13.769  0.4494 -0.9564  0.8107
  671TMC3    H1 9986   4.044   3.189  13.629  0.8227 -0.7943 -0.7011
  671TMC3    H2 9987   4.204   3.041  13.984 -1.3933 -0.8804 -0.7745
  671TMC3    C7 9988   4.047   2.993  13.798 -1.2109 -0.4530 -0.1911
  671TMC3    C8 9989   4.420   3.181  13.957 -0.8802  0.2344  0.2174
  671TMC3    O1 9990   4.113   2.892  13.824 -0.4430  0.1754  0.2114
  671TMC3    O2 9991   4.434   3.062  13.957 -0.2667  0.2252 -0.0224
  672MPD2     C 9992   0.108   4.045   1.108 -0.2482  0.4697 -0.4288
  672MPD2    C1 9993   0.220   4.003   1.036 -0.2178 -0.9684  0.5139
  672MPD2    C2 9994   0.340   4.071   1.066  0.5477 -0.3785 -0.0830
  672MPD2    C3 9995   0.341   4.184   1.147  0.0874  0.3341  0.4212
  672MPD2    C4 9996   0.216   4.242   1.191  0.2238  0.1122 -0.0294
  672MPD2    C5 9997   0.106   4.170   1.178 -0.5575 -0.1372 -0.2676
  672MPD2     H 9998   0.432   4.029   1.025  0.8389  1.3600 -1.1902
  672MPD2    H1 9999   0.214   4.335   1.247  0.1577  1.2712 -1.9334
  672MPD2    H210000   0.011   4.004   1.080  0.6883 -0.5501 -2.1374
  672MPD2    H310001   0.009   4.208   1.209 -0.5126 -0.5545  0.3961
  672MPD2     N10002   0.458   4.251   1.188 -0.7560  0.2183  0.0046
  672MPD2    H510003   0.449   4.347   1.217  0.7341  0.2620  0.3412
  672MPD2    N110004   0.216   3.904   0.943 -0.2509  0.8355  0.0891
  672MPD2    H710005   0.306   3.893   0.897 -1.3306  0.0223 -1.8482
  673TMC3    C110006   0.142   3.769   0.772 -0.0645  0.6353 -0.6640
  673TMC3    C210007   0.229   3.670   0.771  0.4427  0.3529 -0.8031
  673TMC3    C310008   0.258   3.612   0.652 -0.0851  0.1152  0.6007
  673TMC3    C410009   0.064   3.796   0.665  0.0074  0.4975 -0.2906
  673TMC3    C510010   0.083   3.729   0.548 -0.9983 -0.9066 -0.5397
  673TMC3    C610011   0.188   3.636   0.539  0.5626 -0.6288  0.3288
  673TMC3     C10012   0.112   3.833   0.901 -0.4387  0.2979  0.3945
  673TMC3     O10013   4.727   3.832   0.922 -0.3782  0.2567  0.1101
  673TMC3     H10014   0.290   3.658   0.860 -1.2335  0.7910  0.3904
  673TMC3    H110015   4.722   3.870   0.686  0.3443  0.3563  1.4546
  673TMC3    H210016   0.220   3.589   0.447 -1.0731 -1.1089 -0.0076
  673TMC3    C710017   0.017   3.780   0.430 -0.2394 -0.7022  0.3079
  673TMC3    C810018   0.374   3.528   0.644 -0.2694  0.3849  0.4487
  673TMC3    O110019   0.024   3.710   0.331  0.8529  0.1502  0.7102
  673TMC3    O210020   0.384   3.476   0.530  0.2965 -0.4942  0.2220
  674MPD2     C10021   4.483   4.087  17.440 -0.4290  0.3876 -0.1756
  674MPD2    C110022   4.429   3.985  17.514  0.4976  0.0288  0.0688
  674MPD2    C210023   4.327   4.018  17.596  0.0663  1.3092  0.6447
  674MPD2    C310024   4.279   4.140  17.616 -0.3747  0.1392  0.5630
  674MPD2    C410025   4.334   4.247  17.543 -0.3442  1.0498 -0.5352
  674MPD2    C510026   4.438   4.216  17.461 -0.6522  0.0912  0.6842
  674MPD2     H10027   4.290   3.942  17.663 -0.0671 -0.6910 -1.6927
  674MPD2    H110028   4.315   4.351  17.565 -0.0989  0.9505  0.1591
  674MPD2    H210029   4.562   4.073  17.367 -0.5181 -1.4865  0.0944
  674MPD2    H310030   4.476   4.298  17.401  1.7436 -0.7018  1.1291
  674MPD2     N10031   4.173   4.148  17.712  0.1170  0.0571 -0.8218
  674MPD2    H510032   4.160   4.057   0.015 -0.5782  0.7717  0.5406
  674MPD2    N110033   4.495   3.864  17.508  0.5096 -0.4110 -0.1512
  674MPD2    H710034   4.571   3.858  17.441 -1.5459 -2.7568 -2.2254
  675TMC3    C110035   4.545   3.643  17.559 -0.0879 -0.0840  0.8249
  675TMC3    C210036   4.501   3.524  17.612 -0.0854 -0.5971 -0.0052
  675TMC3    C310037   4.592   3.425  17.638 -0.0034  0.5334  0.2457
  675TMC3    C410038   4.682   3.670  17.546  0.4318 -0.2800  1.2322
  675TMC3    C510039   0.031   3.570  17.571  0.4899  0.5408 -0.2342
  675TMC3    C610040   4.726   3.444  17.615  0.2215  0.4744 -0.1555
  675TMC3     C10041   4.459   3.751  17.579  0.5359  0.7019  0.1370
  675TMC3     O10042   4.364   3.735  17.652  0.3747 -0.0899 -0.2080
  675TMC3     H10043   4.395   3.507  17.626  0.0313  1.0992  2.8102
  675TMC3    H110044   4.721   3.766  17.513 -2.0973  0.6730  1.0062
  675TMC3    H210045   0.066   3.366  17.626  0.6185  1.4082  3.4611
  675TMC3    C710046   0.171   3.605  17.596  0.0900 -0.3517 -0.1984
  675TMC3    C810047   4.555   3.293  17.694 -0.0567  0.3282 -0.4030
  675TMC3    O110048   0.220   3.694  17.528 -0.0440  0.2082 -0.4086
  675TMC3    O210049   4.616   3.201  17.641  0.0979 -0.3212  0.3030
  676MPD2     C10050   3.185   1.796  11.232  0.4198 -0.8386  0.7352
  676MPD2    C110051   3.079   1.726  11.282  0.3338  0.4876 -0.2182
  676MPD2    C210052   3.105   1.596  11.319 -0.4917  0.4812  0.4775
  676MPD2    C310053   3.228   1.526  11.310  0.2456 -0.0060 -0.0371
  676MPD2    C410054   3.327   1.602  11.261  0.5560 -0.0936 -0.2449
  676MPD2    C510055   3.308   1.738  11.232  0.2425 -0.3233 -0.4345
  676MPD2     H10056   3.016   1.542  11.351 -0.2215  0.8270  1.8047
  676MPD2    H110057   3.428   1.564  11.253  0.4192 -0.8976  1.9715
  676MPD2    H210058   3.177   1.900  11.206  1.9242 -0.5693  1.3690
  676MPD2    H310059   3.377   1.805  11.183  0.6876 -0.4453  0.0304
  676MPD2     N10060   3.244   1.386  11.331  0.0835  0.0288 -0.2682
  676MPD2    H510061   3.332   1.345  11.301 -0.1815 -0.8423  0.1425
  676MPD2    N110062   2.951   1.779  11.298 -0.0856 -0.0725  0.2589
  676MPD2    H710063   2.880   1.715  11.332 -1.2649  1.6657  1.1033
  677TMC3    C110064   2.780   1.936  11.274 -1.1517  0.1472  0.8960
  677TMC3    C210065   2.695   1.832  11.312 -0.2323 -0.1315  0.5365
  677TMC3    C310066   2.565   1.871  11.351 -0.4689  0.6783  0.3295
  677TMC3    C410067   2.736   2.068  11.265 -0.1781 -0.5694 -0.6419
  677TMC3    C510068   2.613   2.098  11.307 -0.1779 -0.4170 -0.4231
  677TMC3    C610069   2.530   2.001  11.357 -0.6566 -0.3281  0.5233
  677TMC3     C10070   2.922   1.907  11.259  0.3416 -0.7892  0.4236
  677TMC3     O10071   2.988   2.004  11.224 -0.1636  1.1071 -0.2055
  677TMC3     H10072   2.707   1.728  11.282 -3.7851 -0.6892  0.9699
  677TMC3    H110073   2.802   2.141  11.219 -0.9753 -0.0416 -0.9565
  677TMC3    H210074   2.435   2.040  11.392 -0.8487 -0.2276 -0.1038
  677TMC3    C710075   2.556   2.237  11.281 -0.1226  0.0409  0.5496
  677TMC3    C810076   2.517   1.765  11.435 -0.6343 -0.2015 -0.2979
  677TMC3    O110077   2.435   2.255  11.287 -0.5988  0.2642  0.1097
  677TMC3    O210078   2.582   1.664  11.456  0.2295  0.4112 -0.5821
  678MPD2     C10079   4.174   1.595   1.413 -0.1317 -0.0381 -0.3150
  678MPD2    C110080   4.134   1.562   1.284 -0.8412  0.1962 -0.2195
  678MPD2    C210081   3.990   1.561   1.268  0.2888  0.3619  0.6832
  678MPD2    C310082   3.901   1.580   1.375 -0.5398  0.4200  0.7449
  678MPD2    C410083   3.952   1.602   1.505 -0.2009  0.2101  0.2044
  678MPD2    C510084   4.088   1.622   1.514  0.2113 -0.2144 -0.0294
  678MPD2     H10085   3.951   1.538   1.169 -0.9939 -2.5130  1.8647
  678MPD2    H110086   3.901   1.598   1.601 -1.7490  3.2620 -0.4930
  678MPD2    H210087   4.279   1.605   1.434 -0.5374  1.6669  0.8948
  678MPD2    H310088   4.118   1.641   1.616 -1.0754 -0.6623  0.4232
  678MPD2     N10089   3.760   1.548   1.350  0.4141 -0.2307 -0.1490
  678MPD2    H510090   3.734   1.520   1.256 -0.9127  1.3513 -0.2569
  678MPD2    N110091   4.224   1.536   1.175 -0.3118 -0.6653 -0.1161
  678MPD2    H710092   4.180   1.522   1.085 -1.6116  2.3777  0.0215
  679TMC3    C110093   4.629   1.519   0.944 -0.1871 -0.7763 -0.3257
  679TMC3    C210094   4.570   1.491   1.063 -0.8454  0.0290 -0.2397
  679TMC3    C310095   4.433   1.480   1.063 -0.8500  0.1424 -0.1305
  679TMC3    C410096   4.559   1.534   0.824  0.4456  0.2153 -0.1862
  679TMC3    C510097   4.424   1.515   0.823 -0.3953 -0.0176 -0.0963
  679TMC3    C610098   4.359   1.487   0.941  0.8441  0.3606  0.8898
  679TMC3     C10099   0.044   1.530   0.932  0.2724  0.1011  0.7717
  679TMC3     O10100   0.091   1.579   0.830 -0.2570  0.1547 -0.6406
  679TMC3     H10101   4.619   1.507   1.158 -2.7686  0.5795  0.6768
  679TMC3    H110102   4.620   1.569   0.742  0.1337  1.9426  0.3065
  679TMC3    H210103   4.251   1.472   0.935  1.1517 -1.0938 -0.7984
  679TMC3    C710104   4.352   1.510   0.696 -0.0937 -0.1846 -0.5392
  679TMC3    C810105   4.361   1.513   1.189 -0.6918 -0.0603 -1.1070
  679TMC3    O110106   4.227   1.504   0.693 -0.3539  0.2075 -0.2418
  679TMC3    O210107   4.428   1.506   1.291 -0.1429 -0.2094  0.4044
  680MPD2     C10108   3.969   0.344  13.305  0.3576 -0.0083 -0.1904
  680MPD2    C110109   4.097   0.314  13.359 -0.4499  0.6784  0.1638
  680MPD2    C210110   4.165   0.416  13.434 -0.1056  0.2922 -0.0602
  680MPD2    C310111   4.100   0.542  13.461  0.4501  0.2242 -0.5051
  680MPD2    C410112   3.982   0.569  13.405 -0.0655  0.2077 -0.3222
  680MPD2    C510113   3.918   0.469  13.322  0.0126  0.4895  0.2393
  680MPD2     H10114   4.262   0.396  13.478 -0.3150  1.0254  0.7425
  680MPD2    H110115   3.923   0.657  13.429  2.1171  1.1371  1.6840
  680MPD2    H210116   3.925   0.277  13.232 -0.7977 -1.1219  1.5460
  680MPD2    H310117   3.833   0.489  13.258 -0.3597  2.6090  1.3911
  680MPD2     N10118   4.157   0.643  13.538 -0.0581  0.1448 -0.6494
  680MPD2    H510119   4.102   0.728  13.553  2.6168  1.6022  0.9307
  680MPD2    N110120   4.153   0.188  13.344  0.0588  0.0500 -0.3155
  680MPD2    H710121   4.243   0.172  13.387  0.7359  0.2823 -1.6744
  681TMC3    C110122   4.213   4.721  13.254  0.5088 -0.3662  0.1431
  681TMC3    C210123   4.157   4.594  13.270  0.4915 -0.6136  0.3556
  681TMC3    C310124   4.236   4.509  13.337  1.5199  0.4367  0.7624
  681TMC3    C410125   4.341   0.021  13.268 -0.3090 -0.8618  0.7561
  681TMC3    C510126   4.420   4.653  13.314  0.4193  0.4637  0.3091
  681TMC3    C610127   4.367   4.533  13.358  0.3036 -0.4026 -0.3051
  681TMC3     C10128   4.110   0.086  13.271 -0.6390 -0.5229  0.2813
  681TMC3     O10129   3.993   0.065  13.231  0.1686  0.0744 -0.0069
  681TMC3     H10130   4.051   4.574  13.269  0.6836 -1.6218  0.2485
  681TMC3    H110131   4.370   0.120  13.234 -1.4324 -0.1158  1.9685
  681TMC3    H210132   4.424   4.468  13.424  0.3625 -2.4815 -2.4258
  681TMC3    C710133   4.562   4.669  13.310 -0.6620 -0.1361 -0.3784
  681TMC3    C810134   4.163   4.451  13.449 -0.3317 -0.3934 -0.1556
  681TMC3    O110135   4.628   4.591  13.368  0.1833 -0.5254  0.0878
  681TMC3    O210136   4.054   4.407  13.429  0.2687  0.4548 -0.2843
  682MPD2     C10137   1.319   2.016  10.704  0.1910 -0.4793  0.1842
  682MPD2    C110138   1.375   1.895  10.733 -0.0927 -0.4377  0.1762
  682MPD2    C210139   1.343   1.833  10.852 -0.2255 -0.3595  0.4201
  682MPD2    C310140   1.277   1.901  10.953  0.7320  0.0156  0.0211
  682MPD2    C410141   1.233   2.031  10.931  0.1942  0.3585 -0.1533
  682MPD2    C510142   1.262   2.085  10.811  0.4731  1.0429 -0.1607
  682MPD2     H10143   1.383   1.733  10.866  0.3914 -0.1339  0.2879
  682MPD2    H110144   1.190   2.095  11.007 -1.3428  1.6542 -2.1010
  682MPD2    H210145   1.354   2.075  10.619 -1.2051  2.4324  1.6329
  682MPD2    H310146   1.220   2.181  10.783 -0.1640  0.9481  0.4806
  682MPD2     N10147   1.274   1.848  11.086 -0.0125 -0.3230  0.3936
  682MPD2    H510148   1.232   1.908  11.156  0.9726 -0.4241  1.0725
  682MPD2    N110149   1.462   1.828  10.654 -0.3250  0.2162 -0.5471
  682MPD2    H710150   1.495   1.738  10.687  0.1599  1.2317  1.7783
  683TMC3    C110151   1.306   1.756  11.472  0.5630  0.8058  0.8656
  683TMC3    C210152   1.305   1.630  11.518 -0.2595  0.2438  0.3418
  683TMC3    C310153   1.316   1.529  11.429  0.1062 -0.1822 -0.1189
  683TMC3    C410154   1.309   1.787  11.343  0.3374  0.0246 -0.3695
  683TMC3    C510155   1.301   1.683  11.254 -0.4289 -0.0379  0.5089
  683TMC3    C610156   1.313   1.553  11.297 -0.0896  0.1973  0.3262
  683TMC3     C10157   1.320   1.859  11.576  0.9848 -0.1092 -0.4364
  683TMC3     O10158   1.317   1.977  11.545  0.1308 -0.6368  0.1795
  683TMC3     H10159   1.292   1.608  11.623  1.1403  1.7790  0.8264
  683TMC3    H110160   1.317   1.892  11.317  0.5423  0.8194  2.9598
  683TMC3    H210161   1.300   1.473  11.225 -0.5563 -2.3751  3.2528
  683TMC3    C710162   1.332   1.724  11.116 -0.4250  0.3105  0.0107
  683TMC3    C810163   1.336   1.400  11.493 -0.4674  0.3361 -0.1467
  683TMC3    O110164   1.384   1.635  11.047 -0.0711 -1.3827  0.1302
  683TMC3    O210165   1.402   1.398  11.594 -0.1160  0.1600 -0.0591
  684MPD2     C10166   0.151   1.281  16.512  0.2837  0.2912 -0.4485
  684MPD2    C110167   0.105   1.282  16.389 -0.2200  0.0018  0.1253
  684MPD2    C210168   0.028   1.390  16.347  0.3110 -0.2550  0.4284
  684MPD2    C310169   0.014   1.504  16.417  0.3977 -0.2170  0.2829
  684MPD2    C410170   0.072   1.506  16.543 -0.0686 -0.7845 -0.4822
  684MPD2    C510171   0.134   1.397  16.589  0.6797  1.2318  0.4447
  684MPD2     H10172   4.734   1.394  16.243  2.0525 -1.1780 -0.0847
  684MPD2    H110173   0.082   1.601  16.596 -0.2633 -1.7739  1.3092
  684MPD2    H210174   0.199   1.194  16.556  1.2747  0.5165 -1.0819
  684MPD2    H310175   0.185   1.400  16.684  0.9738  2.1679  0.2611
  684MPD2     N10176   4.696   1.624  16.360 -0.1279  0.3131  0.4731
  684MPD2    H510177   4.700   1.708  16.416  1.3155  0.0107  0.8324
  684MPD2    N110178   0.148   1.181  16.302  0.0319 -0.2723  0.1764
  684MPD2    H710179   0.231   1.128  16.328  0.2212 -0.3075 -0.4884
  685TMC3    C110180   0.198   1.092  16.091 -0.3612 -0.1837  0.5999
  685TMC3    C210181   0.138   1.051  15.980 -0.2747 -0.9056  0.3857
  685TMC3    C310182   0.181   1.094  15.854 -0.4639  0.2070 -0.2517
  685TMC3    C410183   0.309   1.178  16.072 -0.6523  0.8766  0.2739
  685TMC3    C510184   0.363   1.204  15.950 -0.3784 -0.2445 -0.1413
  685TMC3    C610185   0.300   1.161  15.836 -0.3052 -0.2752  0.0188
  685TMC3     C10186   0.106   1.155  16.178 -0.0330 -0.7273 -0.3821
  685TMC3     O10187   0.005   1.198  16.124 -0.0873 -0.0668  0.4050
  685TMC3     H10188   0.046   0.993  15.986 -0.2783 -1.0664 -1.2408
  685TMC3    H110189   0.354   1.218  16.162 -0.9013 -1.0025  1.2228
  685TMC3    H210190   0.331   1.191  15.736  1.7762 -0.2008  0.6782
  685TMC3    C710191   0.485   1.280  15.936 -0.0070 -0.2957  0.7577
  685TMC3    C810192   0.077   1.155  15.773  0.2217 -0.4560  0.4677
  685TMC3    O110193   0.512   1.326  15.829  0.2262 -0.0334 -0.1264
  685TMC3    O210194   0.101   1.168  15.654 -0.6132  0.2993  0.6075
  686MPD2     C10195   1.318   2.093  15.473 -0.1918  0.1006 -0.6211
  686MPD2    C110196   1.372   1.990  15.548 -1.4085 -0.0806 -0.7953
  686MPD2    C210197   1.498   1.946  15.520  0.3901  0.3120  0.1831
  686MPD2    C310198   1.565   1.985  15.403 -0.4614  0.1075 -0.7650
  686MPD2    C410199   1.510   2.085  15.326  0.2244  0.1201  0.2487
  686MPD2    C510200   1.389   2.145  15.364 -0.4362  0.2017 -0.3045
  686MPD2     H10201   1.549   1.868  15.576  2.9691  0.7026 -1.6259
  686MPD2    H110202   1.554   2.113  15.231  0.2842  1.4712  0.6795
  686MPD2    H210203   1.218   2.122  15.504 -0.5286 -2.0535  0.2939
  686MPD2    H310204   1.340   2.216  15.299  0.9622  0.6984 -0.8259
  686MPD2     N10205   1.684   1.922  15.358 -0.0490 -0.1508 -0.1559
  686MPD2    H510206   1.754   1.979  15.312 -0.4374 -0.5152 -1.2039
  686MPD2    N110207   1.285   1.927  15.644  0.2155  0.0996  0.7498
  686MPD2    H710208   1.192   1.958  15.672 -0.8695 -1.8313 -0.6868
  687TMC3    C110209   1.635   1.692  15.424 -1.1161  0.3744 -0.7362
  687TMC3    C210210   1.507   1.692  15.373 -0.1478 -0.6710  0.8146
  687TMC3    C310211   1.414   1.615  15.441 -0.2858  0.1506 -1.0656
  687TMC3    C410212   1.659   1.606  15.527 -0.7302 -0.0701  0.0635
  687TMC3    C510213   1.571   1.528  15.592  0.2907 -0.6936  0.0233
  687TMC3    C610214   1.442   1.532  15.546 -0.0127  0.3113 -0.2112
  687TMC3     C10215   1.729   1.802  15.396  0.5690  0.0172 -0.1536
  687TMC3     O10216   1.841   1.773  15.429 -0.1775  0.3417  0.7174
  687TMC3     H10217   1.490   1.755  15.286  0.1559 -0.7438  0.7024
  687TMC3    H110218   1.752   1.613  15.583 -1.3135 -1.3779  1.2059
  687TMC3    H210219   1.361   1.471  15.584  0.1143 -0.4003 -1.0917
  687TMC3    C710220   1.600   1.465  15.719 -0.4553 -0.0253 -0.2319
  687TMC3    C810221   1.272   1.627  15.404  0.5166  0.3618 -0.5651
  687TMC3    O110222   1.704   1.497  15.783  0.1465  0.0744 -0.2119
  687TMC3    O210223   1.187   1.567  15.469  0.4907 -0.4767  0.4312
  688MPD2     C10224   0.557   0.450  17.274 -0.1653  0.3919 -0.5350
  688MPD2    C110225   0.590   0.323  17.314 -0.1069  0.6675  0.2520
  688MPD2    C210226   0.665   0.247  17.230  0.7004 -0.4332  0.3626
  688MPD2    C310227   0.720   0.294  17.109 -0.7822 -0.1846 -0.0432
  688MPD2    C410228   0.686   0.418  17.067  0.6175 -0.4024 -0.8353
  688MPD2    C510229   0.611   0.495  17.150 -0.3259 -0.6420 -0.0872
  688MPD2     H10230   0.687   0.146  17.264 -0.8169  0.0742  2.8768
  688MPD2    H110231   0.718   0.457  16.971  3.4376  0.1803  0.3297
  688MPD2    H210232   0.485   0.512  17.325  0.5412  0.7352  0.0544
  688MPD2    H310233   0.580   0.592  17.111  0.5487  0.0304  0.8805
  688MPD2     N10234   0.806   0.224  17.021 -0.4079 -0.3545 -0.3476
  688MPD2    H510235   0.840   0.275  16.939  0.1030 -0.3424 -0.1297
  688MPD2    N110236   0.542   0.273  17.436  0.2401  0.3015  0.2481
  688MPD2    H710237   0.558   0.173  17.443  0.8764  0.3314 -0.8866
  689TMC3    C110238   0.451   0.293  17.655 -0.4533  0.7817 -1.0046
  689TMC3    C210239   0.450   0.367   0.033  0.0099  0.1143 -1.1449
  689TMC3    C310240   0.371   0.320   0.130 -0.6999 -0.1160 -0.3757
  689TMC3    C410241   0.388   0.173  17.638 -0.6132 -0.1675  0.0894
  689TMC3    C510242   0.323   0.122   0.010  0.0107 -0.5398 -0.0825
  689TMC3    C610243   0.317   0.189   0.130  0.5216  0.0790 -0.5086
  689TMC3     C10244   0.507   0.358  17.540 -1.1760  0.1974  0.0082
  689TMC3     O10245   0.551   0.473  17.561 -0.3370  0.0286  0.1011
  689TMC3     H10246   0.509   0.456   0.054 -2.6354  1.4664  0.4522
  689TMC3    H110247   0.392   0.122  17.543  0.4495  2.0230 -1.0581
  689TMC3    H210248   0.249   0.159   0.209  2.2972  0.1050  1.0101
  689TMC3    C710249   0.262   4.725   0.013  0.5262 -0.5047 -0.0578
  689TMC3    C810250   0.361   0.386   0.256  0.0427 -0.4687  0.8739
  689TMC3    O110251   0.237   4.670   0.121 -0.8177  0.3277 -0.0771
  689TMC3    O210252   0.365   0.315   0.352 -0.6813  0.5392 -0.3447
  690MPD2     C10253   3.133   1.896  15.418 -0.3674 -0.0028 -0.6092
  690MPD2    C110254   3.031   1.910  15.325 -0.0766 -0.4747 -0.0300
  690MPD2    C210255   3.047   1.977  15.204  0.1564  0.3822 -0.9474
  690MPD2    C310256   3.175   2.025  15.178 -0.3536  0.2692 -1.1972
  690MPD2    C410257   3.277   2.015  15.267  0.4006 -0.3057  0.2038
  690MPD2    C510258   3.257   1.953  15.389  0.0791 -0.7718 -0.3087
  690MPD2     H10259   2.965   1.997  15.135 -0.9413 -0.7727  0.0222
  690MPD2    H110260   3.377   2.051  15.248  0.1516  0.3225  0.0751
  690MPD2    H210261   3.114   1.836  15.507 -0.0464 -0.8739 -1.1324
  690MPD2    H310262   3.330   1.949  15.469  0.9565  3.7591 -0.9206
  690MPD2     N10263   3.191   2.083  15.053 -0.4646  0.3699 -0.3600
  690MPD2    H510264   3.104   2.093  15.002 -0.9353  1.6431  0.6755
  690MPD2    N110265   2.897   1.865  15.341  0.6118 -0.3502 -0.0275
  690MPD2    H710266   2.840   1.882  15.259  0.7583 -1.2853 -0.3265
  691TMC3    C110267   2.710   1.761  15.448  0.1278  0.2387 -0.2522
  691TMC3    C210268   2.617   1.823  15.373  0.8776 -0.0046  0.5312
  691TMC3    C310269   2.485   1.824  15.402  0.0424  0.9543  0.0168
  691TMC3    C410270   2.670   1.688  15.560 -0.3972 -0.1255  0.0704
  691TMC3    C510271   2.534   1.684  15.581 -0.3574  0.6052 -0.4297
  691TMC3    C610272   2.437   1.752  15.505  0.3284  0.1000  0.1851
  691TMC3     C10273   2.842   1.804  15.452 -0.3114 -0.4401  0.0254
  691TMC3     O10274   2.900   1.774  15.556  0.3287 -0.7206 -0.0420
  691TMC3     H10275   2.643   1.905  15.306 -1.0580 -0.0283 -0.2566
  691TMC3    H110276   2.734   1.629  15.625 -1.3186  1.1514  2.1575
  691TMC3    H210277   2.332   1.751  15.532  0.3456  1.3289  0.3062
  691TMC3    C710278   2.485   1.639  15.714  0.2782 -0.2896  0.1828
  691TMC3    C810279   2.388   1.903  15.316 -0.1421 -0.5594 -0.2465
  691TMC3    O110280   2.561   1.649  15.810 -0.4652 -0.2666  0.3612
  691TMC3    O210281   2.428   1.922  15.198 -0.6014  0.6047 -0.4116
  692TMC3    C110282   4.088   2.682  15.654 -0.2540 -0.3782  0.0268
  692TMC3    C210283   4.209   2.741  15.634  0.4242  0.3313  0.4766
  692TMC3    C310284   4.317   2.659  15.620  0.2735 -0.1993 -0.4300
  692TMC3    C410285   4.069   2.551  15.658  0.4853 -0.2505 -0.2479
  692TMC3    C510286   4.179   2.475  15.646 -0.2806 -0.0872 -0.1988
  692TMC3    C610287   4.308   2.522  15.631 -0.0014 -0.4205  0.7239
  692TMC3     C10288   3.978   2.761  15.710  0.1700  0.3389  0.0133
  692TMC3     O10289   3.887   2.706  15.766  0.0226  0.0787  0.3413
  692TMC3     H10290   4.216   2.845  15.603  1.6888  0.6777  1.9540
  692TMC3    H110291   3.967   2.514  15.662  0.4135  0.2043  2.3205
  692TMC3    H210292   4.394   2.461  15.607 -0.3976 -0.4785 -0.5396
  692TMC3    C710293   4.152   2.339  15.635  0.5697  0.1635 -0.4024
  692TMC3    C810294   4.450   2.708  15.675  0.1109 -0.6503 -0.0803
  692TMC3    O110295   4.044   2.298  15.601 -0.0208 -0.3161 -0.3571
  692TMC3    O210296   4.530   2.630  15.722  0.1194 -0.3423 -0.5685
  693MPD2     C10297   3.917   0.881  11.163 -0.9933  0.4127 -0.2623
  693MPD2    C110298   3.874   0.789  11.070 -0.1374 -0.0207  0.3325
  693MPD2    C210299   3.949   0.674  11.053  0.8688  0.0272 -0.1710
  693MPD2    C310300   4.048   0.636  11.143 -0.1555  0.4647  0.2593
  693MPD2    C410301   4.085   0.732  11.233 -0.1695  0.5285  0.0371
  693MPD2    C510302   4.020   0.854  11.246  0.1628 -0.1411  0.5565
  693MPD2     H10303   3.917   0.599  10.982 -1.7804 -3.2920  4.5038
  693MPD2    H110304   4.159   0.714  11.310  0.0183  1.1105 -0.0044
  693MPD2    H210305   3.857   0.970  11.180 -0.1732  0.6427  1.4448
  693MPD2    H310306   4.041   0.926  11.323 -1.1186  1.2203 -0.3719
  693MPD2     N10307   4.125   0.516  11.139  0.7254 -0.5370  0.1662
  693MPD2    H510308   4.186   0.492  11.217 -1.6476 -2.0807  1.5504
  693MPD2    N110309   3.772   0.825  10.977 -0.0379 -0.1048  0.3265
  693MPD2    H710310   3.729   0.917  10.970 -0.7063 -0.4586 -0.2658
  694TMC3    C110311   3.640   0.833  10.786 -0.0034  0.4622  0.0112
  694TMC3    C210312   3.549   0.778  10.698  0.6218  0.1729  0.7150
  694TMC3    C310313   3.454   0.863  10.633  0.2288  0.2489 -0.0026
  694TMC3    C410314   3.651   0.966  10.803  0.0766  0.5114 -0.8095
  694TMC3    C510315   3.547   1.039  10.744  0.1745 -0.1030  0.5288
  694TMC3    C610316   3.451   0.997  10.657 -0.6203  0.5468  0.0166
  694TMC3     C10317   3.719   0.746  10.877  0.1480 -1.1860  0.1423
  694TMC3     O10318   3.759   0.639  10.836 -0.2296 -0.0137 -0.3315
  694TMC3     H10319   3.560   0.670  10.687  1.9788  0.4456 -0.5119
  694TMC3    H110320   3.737   1.020  10.840 -0.2171 -0.2391  0.9649
  694TMC3    H210321   3.381   1.073  10.625  0.7920  2.2918  1.1030
  694TMC3    C710322   3.535   1.180  10.784 -0.0105 -0.1566 -0.0275
  694TMC3    C810323   3.354   0.798  10.549 -0.3785  0.0045  0.1041
  694TMC3    O110324   3.529   1.254  10.684  0.4425 -0.1423  0.3304
  694TMC3    O210325   3.360   0.675  10.533 -0.5534  0.5401  0.4281
  695MPD2     C10326   0.115   2.307  13.518  0.2814  0.4291  0.0908
  695MPD2    C110327   0.056   2.423  13.561 -0.1177 -0.0273 -1.0866
  695MPD2    C210328   4.676   2.468  13.500  0.3915 -0.1548 -0.3993
  695MPD2    C310329   4.628   2.405  13.385 -0.6217  0.1413  0.7928
  695MPD2    C410330   4.694   2.291  13.342  0.5097  0.0528  0.1315
  695MPD2    C510331   0.064   2.246  13.407  0.0352 -0.2946 -0.1567
  695MPD2     H10332   4.621   2.549  13.546  2.4423  0.3220  1.2174
  695MPD2    H110333   4.661   2.228  13.261 -0.8045 -0.8242  1.3428
  695MPD2    H210334   0.195   2.261  13.574 -0.0621  0.8079  0.8978
  695MPD2    H310335   0.104   2.150  13.377 -1.7317 -0.4910 -1.8180
  695MPD2     N10336   4.519   2.465  13.323  0.5770  0.0520  0.1038
  695MPD2    H510337   4.475   2.538  13.378  3.5495  1.6895  0.2420
  695MPD2    N110338   0.113   2.508  13.658  0.6281 -0.0722 -0.4454
  695MPD2    H710339   0.056   2.590  13.673 -0.1267 -0.4775 -1.1265
  696TMC3    C110340   4.347   2.524  13.171  0.6184  0.5693 -0.3755
  696TMC3    C210341   4.263   2.525  13.283 -0.6865  0.3475 -0.4020
  696TMC3    C310342   4.175   2.631  13.281  0.5808  0.1867  0.1723
  696TMC3    C410343   4.332   2.601  13.057  0.3093 -0.3659 -0.3889
  696TMC3    C510344   4.252   2.709  13.070  0.2259  0.4405 -0.5821
  696TMC3    C610345   4.168   2.721  13.177  0.8450 -0.1129  0.5756
  696TMC3     C10346   4.470   2.443  13.195  0.7044  0.2679  0.2454
  696TMC3     O10347   4.538   2.421  13.092 -0.0176  0.1157  0.1743
  696TMC3     H10348   4.273   2.462  13.370 -1.2113 -0.3380 -0.8430
  696TMC3    H110349   4.394   2.580  12.971 -0.0151 -1.7869 -0.2832
  696TMC3    H210350   4.111   2.811  13.195 -0.1024 -0.3879 -0.9962
  696TMC3    C710351   4.260   2.806  12.966  0.3846 -0.4246 -0.0820
  696TMC3    C810352   4.112   2.672  13.405  0.2156 -1.0799  0.3013
  696TMC3    O110353   4.337   2.783  12.874 -0.4955 -0.1743  0.3298
  696TMC3    O210354   4.145   2.618  13.510  0.2351 -0.3037  0.1768
  697MPD2     C10355   3.999   4.248  15.648  0.5589  0.2090 -0.1697
  697MPD2    C110356   3.958   4.250  15.518  0.5699 -0.1503  0.5826
  697MPD2    C210357   3.965   4.370  15.444 -1.4557 -0.5136  0.5789
  697MPD2    C310358   4.011   4.489  15.498  0.3649 -0.3215 -0.4616
  697MPD2    C410359   4.063   4.480  15.624 -0.2315  0.3916  0.2314
  697MPD2    C510360   4.048   4.368  15.704 -0.6909  0.8722  0.4567
  697MPD2     H10361   3.906   4.368  15.353  3.4963  1.1621 -2.6474
  697MPD2    H110362   4.115   4.567  15.662 -0.5621  0.2377  1.0539
  697MPD2    H210363   3.997   4.164  15.716  2.6879  0.3901  0.1160
  697MPD2    H310364   4.092   4.371  15.803  2.3482 -1.3130 -0.8078
  697MPD2     N10365   4.027   4.604  15.417  0.0893  0.2716  0.0724
  697MPD2    H510366   4.085   4.679  15.455  0.7037  0.5033 -1.3286
  697MPD2    N110367   3.915   4.137  15.446 -0.4521 -0.2027  0.1076
  697MPD2    H710368   3.873   4.158  15.355  0.6934 -0.8864 -0.5716
  698TMC3    C110369   4.026   0.004  15.207  0.5669 -1.0174  0.3305
  698TMC3    C210370   4.104   0.099  15.272  0.2820  0.0869 -0.2900
  698TMC3    C310371   4.111   0.221  15.205  0.7441 -0.6505 -0.4751
  698TMC3    C410372   3.961   0.019  15.087 -0.0635 -0.4776 -0.1508
  698TMC3    C510373   3.982   0.141  15.025 -0.3402 -0.0510  0.0686
  698TMC3    C610374   4.055   0.243  15.080  0.3256 -0.2413  0.0781
  698TMC3     C10375   3.976   4.621  15.286  0.1359 -0.4287  0.3302
  698TMC3     O10376   3.891   4.556  15.228 -0.2269  0.0193  0.0018
  698TMC3     H10377   4.149   0.081  15.369 -0.8623 -1.9935 -0.1392
  698TMC3    H110378   3.904   4.675  15.041  1.0450 -0.7810 -1.0086
  698TMC3    H210379   4.038   0.347  15.053 -2.2894 -0.5313  0.5918
  698TMC3    C710380   3.918   0.151  14.895  0.4635 -0.2602  0.4809
  698TMC3    C810381   4.190   0.333  15.250 -0.3176  0.2655 -0.1207
  698TMC3    O110382   3.870   0.056  14.841 -0.0213 -0.8516  0.3028
  698TMC3    O210383   4.207   0.342  15.372  0.4330  0.3167 -0.4451
  699TMC3    C110384   3.770   3.174  12.891  0.2670 -0.1142  0.8795
  699TMC3    C210385   3.791   3.037  12.897  0.3090  0.1446 -0.0759
  699TMC3    C310386   3.701   2.965  12.971 -0.3484 -0.8251  0.2382
  699TMC3    C410387   3.658   3.237  12.930  0.1923 -0.6500  0.2502
  699TMC3    C510388   3.574   3.159  13.007 -0.4358  0.3608  0.6271
  699TMC3    C610389   3.598   3.028  13.037  0.1259 -0.5360 -0.1354
  699TMC3     C10390   3.876   3.256  12.843 -0.1241  0.2199 -0.1735
  699TMC3     O10391   3.963   3.198  12.773  0.1000 -0.1421  0.2020
  699TMC3     H10392   3.880   2.991  12.856 -0.7697 -1.3338 -0.7450
  699TMC3    H110393   3.634   3.341  12.914  0.0857 -0.9311 -1.3565
  699TMC3    H210394   3.521   2.975  13.092  1.7333  0.1135  2.7250
  699TMC3    C710395   3.467   3.218  13.085 -0.0434 -0.1369  0.3662
  699TMC3    C810396   3.742   2.838  13.014  0.3238  0.1876 -0.5772
  699TMC3    O110397   3.455   3.184  13.200 -0.2647 -0.7949  0.4892
  699TMC3    O210398   3.686   2.796  13.114  0.1768  0.5266  0.1346
  700TMC3    C110399   2.958   0.317  17.410  0.1259  0.2168 -0.1550
  700TMC3    C210400   3.013   0.191  17.411 -0.4053 -0.3325  0.2357
  700TMC3    C310401   3.096   0.157  17.518  1.5423 -0.3413 -0.4210
  700TMC3    C410402   2.977   0.411  17.496 -0.2560  0.1046 -0.2614
  700TMC3    C510403   3.060   0.371  17.601 -0.1852 -0.4915 -0.5100
  700TMC3    C610404   3.132   0.255  17.608  0.7755 -0.2774 -0.1121
  700TMC3     C10405   2.933   0.367  17.276 -0.4108 -0.2516  0.0610
  700TMC3     O10406   2.867   0.300  17.195  0.3287  0.2029  1.0003
  700TMC3     H10407   2.978   0.120  17.337  4.4839  0.1776 -2.5300
  700TMC3    H110408   2.935   0.511  17.488 -1.5378 -0.4369 -0.4436
  700TMC3    H210409   3.185   0.224  17.697  1.1495  1.9154  0.4126
  700TMC3    C710410   3.099   0.471  17.693 -0.2770  0.0607 -0.5507
  700TMC3    C810411   3.203   0.074  17.476 -0.2993  0.0304 -0.3271
  700TMC3    O110412   3.214   0.469  17.733 -0.1949 -0.2599 -0.3003
  700TMC3    O210413   3.321   0.105  17.501  0.4555  0.1330  0.0753
  701TMC3    C110414   3.450   3.890  15.840  0.5110  0.1092  0.3688
  701TMC3    C210415   3.414   3.869  15.701  0.6623  0.0735  0.0839
  701TMC3    C310416   3.452   3.969  15.615  0.3547 -0.0805 -0.1354
  701TMC3    C410417   3.539   3.992  15.876 -0.0048 -0.2246 -0.3292
  701TMC3    C510418   3.581   4.077  15.778  0.2965 -0.6810  0.3457
  701TMC3    C610419   3.529   4.071  15.651 -0.3298  0.4077 -0.9894
  701TMC3     C10420   3.360   3.854  15.950 -0.2600  0.1722  0.0349
  701TMC3     O10421   3.398   3.878  16.067  0.5311  1.0118 -0.0021
  701TMC3     H10422   3.358   3.781  15.672 -0.2910  1.4731 -2.2949
  701TMC3    H110423   3.553   4.022  15.979 -0.3348  0.7657 -0.5717
  701TMC3    H210424   3.547   4.151  15.581 -0.2185  0.3301 -1.0503
  701TMC3    C710425   3.654   4.201  15.796 -0.4264  0.0721  0.4299
  701TMC3    C810426   3.423   3.944  15.469  0.2487  0.4012  0.6800
  701TMC3    O110427   3.605   4.305  15.750 -0.3528 -0.5638  0.0829
  701TMC3    O210428   3.471   4.025  15.391  0.8397  0.4234  0.2598
  702MPD2     C10429   3.101   1.108  10.761 -0.3592  0.2670 -0.1075
  702MPD2    C110430   3.097   1.193  10.870 -0.2138  0.2481  0.2432
  702MPD2    C210431   3.069   1.328  10.859  0.0737 -0.0180 -0.3423
  702MPD2    C310432   3.054   1.387  10.734 -1.1639 -0.1618 -0.0303
  702MPD2    C410433   3.054   1.304  10.621  0.2501  0.5092 -0.7378
  702MPD2    C510434   3.089   1.174  10.637 -0.1517 -0.0602  0.0162
  702MPD2     H10435   3.041   1.380  10.949  0.3680  1.0756 -0.8849
  702MPD2    H110436   3.047   1.342  10.520  3.2655 -3.3968 -2.4032
  702MPD2    H210437   3.107   1.001  10.776  0.5083  0.3535  0.1419
  702MPD2    H310438   3.101   1.114  10.547  0.5598 -0.1571  0.1761
  702MPD2     N10439   3.050   1.525  10.726  0.2214 -0.6975 -0.2100
  702MPD2    H510440   3.054   1.578  10.812  0.8662 -0.7483 -0.2082
  702MPD2    N110441   3.114   1.141  11.000 -0.6001 -0.1437 -0.0440
  702MPD2    H710442   3.087   1.201  11.076 -0.7143  1.0603 -1.0333
  703TMC3    C110443   3.019   1.737  10.634 -0.1489 -0.7655  0.9750
  703TMC3    C210444   2.937   1.769  10.740  0.1484  0.1607 -0.3844
  703TMC3    C310445   2.937   1.904  10.776 -0.4410  0.5334  0.7333
  703TMC3    C410446   3.097   1.820  10.563  0.0741 -0.1856  0.0842
  703TMC3    C510447   3.107   1.943  10.609  0.1961  0.2960  0.0942
  703TMC3    C610448   3.018   1.992  10.703  0.2599 -0.0408  0.1158
  703TMC3     C10449   3.033   1.594  10.608  0.3974 -0.0449 -0.1029
  703TMC3     O10450   3.049   1.564  10.488  0.6738  0.3082 -0.6806
  703TMC3     H10451   2.886   1.690  10.794  1.3054 -0.4115 -0.1289
  703TMC3    H110452   3.128   1.794  10.462 -0.8585 -1.9012  0.2413
  703TMC3    H210453   3.019   2.099  10.721  1.7198  0.3590 -2.4011
  703TMC3    C710454   3.213   2.027  10.566 -0.4447  0.3592  0.6250
  703TMC3    C810455   2.829   1.971  10.848  0.0847 -0.5627 -0.2458
  703TMC3    O110456   3.192   2.148  10.581 -0.0586  0.2159 -0.2177
  703TMC3    O210457   2.850   2.083  10.892 -0.4838  0.1710  0.3610
  704TMC3    C110458   0.445   4.686  12.421  0.1105 -0.2391 -0.2501
  704TMC3    C210459   0.536   4.669  12.329 -0.1306  0.7949  1.2215
  704TMC3    C310460   0.643   4.590  12.351 -0.3690  0.3066  1.2940
  704TMC3    C410461   0.450   4.626  12.539 -0.2634 -0.1592  0.7299
  704TMC3    C510462   0.567   4.550  12.567  0.1854  0.2165 -0.2030
  704TMC3    C610463   0.663   4.527  12.472  0.4231  0.0504 -0.5101
  704TMC3     C10464   0.306   4.723  12.390  0.4288  0.0596  0.2938
  704TMC3     O10465   0.217   4.684  12.465  0.2159  0.4731  0.6071
  704TMC3     H10466   0.523   4.721  12.235 -0.8169 -0.5094  0.6013
  704TMC3    H110467   0.368   4.619  12.609 -0.9254  2.2772  0.1703
  704TMC3    H210468   0.739   4.452  12.492 -0.2366 -0.6582 -0.6366
  704TMC3    C710469   0.540   4.424  12.639 -0.4922 -0.5291  0.3286
  704TMC3    C810470   0.706   4.536  12.243 -0.9584 -0.1053  0.3757
  704TMC3    O110471   0.580   4.328  12.577 -0.5310  0.1452  0.3969
  704TMC3    O210472   0.645   4.544  12.138  0.3333  0.0682 -0.2668
  705MPD2     C10473   4.648   2.415  16.143  0.0278 -0.6554 -0.0220
  705MPD2    C110474   4.692   2.547  16.160  0.0202  0.1336  0.2084
  705MPD2    C210475   4.625   2.620  16.261  0.0604  0.9324 -0.2318
  705MPD2    C310476   4.526   2.562  16.339  0.2234 -0.3482 -0.0996
  705MPD2    C410477   4.489   2.430  16.318  0.2906 -0.6861  0.0587
  705MPD2    C510478   4.552   2.355  16.222 -0.5016  0.1950  0.6426
  705MPD2     H10479   4.665   2.718  16.284 -2.4032  2.0314 -0.6928
  705MPD2    H110480   4.421   2.371  16.378 -0.7904  1.7989  1.3017
  705MPD2    H210481   4.699   2.342  16.080  3.8929  2.6583 -0.7596
  705MPD2    H310482   4.522   2.254  16.198  2.1647 -0.0868 -1.4936
  705MPD2     N10483   4.445   2.632  16.429 -0.2513 -0.7732 -0.3823
  705MPD2    H510484   4.371   2.577  16.471 -1.6380  0.1514 -1.6213
  705MPD2    N110485   0.061   2.605  16.087 -0.3950  0.0541 -0.5130
  705MPD2    H710486   0.083   2.700  16.114  0.3037 -0.3158  0.1930
  706TMC3    C110487   0.248   2.718  15.680 -0.3894 -0.6429 -0.0818
  706TMC3    C210488   0.313   2.827  15.728 -0.4444  0.2643  0.3431
  706TMC3    C310489   0.321   2.847  15.867  0.4133  0.0053  0.0545
  706TMC3    C410490   0.196   2.617  15.759 -0.0029 -0.5201  0.7978
  706TMC3    C510491   0.197   2.642  15.895  0.4616 -0.5174  0.0725
  706TMC3    C610492   0.257   2.758  15.952  0.7473 -0.2905 -0.7205
  706TMC3     C10493   0.236   2.699  15.535  0.0055  0.5295  0.4478
  706TMC3     O10494   0.322   2.760  15.470  0.0267  0.5973 -0.0516
  706TMC3     H10495   0.360   2.904  15.668 -2.3777  1.1360 -0.0374
  706TMC3    H110496   0.151   2.530  15.712  0.4905 -0.6515  0.5665
  706TMC3    H210497   0.240   2.781  16.057 -0.8451  0.0335 -1.0447
  706TMC3    C710498   0.124   2.547  15.977  0.1676  0.2243  0.7841
  706TMC3    C810499   0.309   2.989  15.903 -1.6522  0.7867 -0.2055
  706TMC3    O110500   0.096   2.441  15.921 -0.0385  0.5115  0.0543
  706TMC3    O210501   0.294   3.067  15.809 -0.3700 -0.4149 -0.0611
  707TMC3    C110502   1.515   1.891   0.878  0.6561 -0.0036  0.0251
  707TMC3    C210503   1.508   1.851   1.009 -0.5129 -0.0935  0.4733
  707TMC3    C310504   1.383   1.864   1.068 -0.4523  0.1105 -0.1225
  707TMC3    C410505   1.410   1.940   0.805  0.0901  0.4786 -0.0351
  707TMC3    C510506   1.288   1.947   0.862  0.2729  0.0755 -0.3620
  707TMC3    C610507   1.273   1.900   0.995 -0.6807  0.7248  0.5171
  707TMC3     C10508   1.642   1.867   0.815 -0.2475  0.7236  0.1697
  707TMC3     O10509   1.726   1.801   0.876  0.3993 -0.4524 -0.4833
  707TMC3     H10510   1.600   1.823   1.058 -0.3608  0.1574  0.3313
  707TMC3    H110511   1.415   1.943   0.697  2.8940  2.0317  0.1347
  707TMC3    H210512   1.171   1.905   1.033 -2.0053 -0.5785 -2.8362
  707TMC3    C710513   1.165   1.967   0.783 -1.1601 -0.2580  0.4757
  707TMC3    C810514   1.356   1.802   1.196 -0.1660 -0.0562  0.0710
  707TMC3    O110515   1.187   2.032   0.681 -0.0802 -0.2351  0.1567
  707TMC3    O210516   1.251   1.837   1.245 -0.1985 -0.6725  0.1449
  708MPD2     C10517   3.117   0.768  14.026  1.0891 -0.1218 -0.1554
  708MPD2    C110518   3.105   0.863  14.129  0.5596  0.1690 -0.9140
  708MPD2    C210519   3.078   0.812  14.253 -0.7859  0.1966  0.1640
  708MPD2    C310520   3.053   0.679  14.283  0.0264  0.9278  0.2491
  708MPD2    C410521   3.054   0.587  14.177  0.3207  0.3950  0.5213
  708MPD2    C510522   3.085   0.632  14.053  0.3958 -0.0120 -0.0322
  708MPD2     H10523   3.060   0.887  14.329 -0.5411 -2.4833  2.8446
  708MPD2    H110524   3.027   0.483  14.185 -1.1585  0.8215  1.1227
  708MPD2    H210525   3.127   0.800  13.924  0.9883 -0.3602 -0.2418
  708MPD2    H310526   3.081   0.554  13.978 -2.0032 -0.1525  0.2306
  708MPD2     N10527   3.025   0.622  14.411  0.1456  0.2791 -0.0606
  708MPD2    H510528   3.001   0.524  14.410 -0.4470  0.4782 -3.3119
  708MPD2    N110529   3.117   1.002  14.115  0.5100 -0.0903  0.0311
  708MPD2    H710530   3.100   1.056  14.199 -1.6044 -1.2537  0.3520
  709TMC3    C110531   3.096   1.200  14.017 -0.6248 -0.0815 -0.7605
  709TMC3    C210532   2.996   1.230  13.932  0.5347  0.1887  0.2065
  709TMC3    C310533   2.885   1.296  13.988  0.9879  0.3804 -0.4809
  709TMC3    C410534   3.090   1.233  14.150 -0.0286  0.0448 -0.1925
  709TMC3    C510535   2.972   1.268  14.205  0.0437 -0.3634 -0.2135
  709TMC3    C610536   2.873   1.311  14.125 -0.5556 -1.2078  0.4981
  709TMC3     C10537   3.132   1.065  13.998 -0.8531  0.0876  0.2490
  709TMC3     O10538   3.158   1.030  13.883 -0.6979  0.3895 -0.1489
  709TMC3     H10539   2.995   1.192  13.831  1.1992 -1.8276  0.9527
  709TMC3    H110540   3.178   1.226  14.214  1.5782  0.1852 -2.4049
  709TMC3    H210541   2.773   1.331  14.161  0.1272  0.7740  1.3142
  709TMC3    C710542   2.956   1.227  14.340  0.4176  0.4465 -0.2074
  709TMC3    C810543   2.763   1.315  13.916 -0.1933  0.7613 -0.7307
  709TMC3    O110544   3.043   1.148  14.378  0.0075 -0.3485 -0.3470
  709TMC3    O210545   2.667   1.352  13.977  0.2439 -0.2296  0.1834
  710TMC3    C110546   3.815   1.898   0.178  0.3024 -0.1755  0.2334
  710TMC3    C210547   3.843   1.916   0.047 -0.9706  0.5961  0.0257
  710TMC3    C310548   3.975   1.894   0.006  0.7273 -0.4108  0.7565
  710TMC3    C410549   3.905   1.845   0.266 -0.0166 -0.6787 -0.1684
  710TMC3    C510550   4.022   1.793   0.213 -0.1049  0.3663 -0.5080
  710TMC3    C610551   4.066   1.826   0.081  0.4825 -0.2288 -0.3712
  710TMC3     C10552   3.709   1.975   0.234 -0.3366 -0.2882 -0.7384
  710TMC3     O10553   3.643   2.034   0.150 -0.4703 -0.3662  0.5294
  710TMC3     H10554   3.774   1.962  17.716  1.1304 -0.7309 -3.0144
  710TMC3    H110555   3.880   1.832   0.371 -1.1518  1.2358 -0.2107
  710TMC3    H210556   4.158   1.786   0.040  0.4506 -0.8497  0.1634
  710TMC3    C710557   4.102   1.704   0.294  0.1910  0.3174 -0.0010
  710TMC3    C810558   4.031   1.995  17.650  0.8322  1.0304 -0.5930
  710TMC3    O110559   4.086   1.719   0.418  0.1035  0.1363 -0.1249
  710TMC3    O210560   4.134   1.974  17.586  0.0502 -0.4085  0.7664
  711TMC3    C110561   3.942   3.618  14.814  0.4109 -0.5821  0.0309
  711TMC3    C210562   3.926   3.591  14.946 -0.3190 -0.7939  0.3188
  711TMC3    C310563   4.037   3.609  15.028 -0.6827  0.0398  0.8916
  711TMC3    C410564   4.056   3.681  14.762 -0.2170  0.2948 -0.3250
  711TMC3    C510565   4.152   3.718  14.850 -0.3669  0.3539  0.2826
  711TMC3    C610566   4.150   3.674  14.982  1.3224 -0.0741  0.5585
  711TMC3     C10567   3.840   3.559  14.726 -0.2875 -0.6158 -1.0799
  711TMC3     O10568   3.737   3.513  14.772 -0.6061 -0.5473 -0.3168
  711TMC3     H10569   3.845   3.530  14.982  0.2143 -1.3111  0.6515
  711TMC3    H110570   4.052   3.729  14.665  0.7563  1.1003  0.0311
  711TMC3    H210571   4.243   3.692  15.035  1.3206 -0.3902  0.6737
  711TMC3    C710572   4.288   3.760  14.797 -0.3401  0.2732  0.5080
  711TMC3    C810573   4.024   3.566  15.170  0.3484 -0.6074 -0.3841
  711TMC3    O110574   4.348   3.822  14.883 -0.5133  0.1363  0.3477
  711TMC3    O210575   3.926   3.504  15.196  0.0433 -0.1765 -0.0179
  712MPD2     C10576   0.878   4.288  13.819  0.0634 -0.4450  0.2598
  712MPD2    C110577   0.820   4.348  13.712  0.1591 -0.2783  0.0759
  712MPD2    C210578   0.802   4.485  13.714  0.3956  0.3729 -0.4318
  712MPD2    C310579   0.849   4.559  13.823 -0.2929 -0.4307  0.0341
  712MPD2    C410580   0.915   4.493  13.923 -0.2239 -0.2597 -0.1457
  712MPD2    C510581   0.918   4.357  13.929  0.3045  0.1428  0.4580
  712MPD2     H10582   0.739   4.519  13.633  0.3002 -0.5549 -0.7568
  712MPD2    H110583   0.954   4.544  14.010 -2.5748 -1.0705  1.3689
  712MPD2    H210584   0.896   4.181  13.817  0.3023 -0.3981 -0.0149
  712MPD2    H310585   0.965   4.306  14.013 -1.2082 -1.8454  0.0981
  712MPD2     N10586   0.819   4.698  13.844 -0.2363 -0.6153  0.3252
  712MPD2    H510587   0.872   0.006  13.920  0.2750 -1.1609  0.2643
  712MPD2    N110588   0.791   4.284  13.588 -0.0345  0.4342  0.2842
  712MPD2    H710589   0.758   4.341  13.511 -0.8709  1.6687  1.5573
  713TMC3    C110590   0.710   0.171  13.823  1.1038  0.2874 -0.4650
  713TMC3    C210591   0.820   0.241  13.865 -0.1666 -0.0107  0.2732
  713TMC3    C310592   0.805   0.373  13.898 -0.3649 -0.7539  0.0979
  713TMC3    C410593   0.594   0.230  13.817  0.0229  0.0560 -0.3537
  713TMC3    C510594   0.580   0.361  13.842 -0.6101 -0.3950 -0.1882
  713TMC3    C610595   0.692   0.433  13.872 -0.1621  0.2713  0.0094
  713TMC3     C10596   0.723   0.033  13.778 -0.6230 -0.3881  0.2814
  713TMC3     O10597   0.643   4.729  13.693  0.0566  0.2875  1.0177
  713TMC3     H10598   0.915   0.190  13.865 -0.2774 -0.2118 -1.2317
  713TMC3    H110599   0.506   0.176  13.783  0.1817  0.2069 -1.0043
  713TMC3    H210600   0.680   0.539  13.893  0.6889  0.3247  0.2296
  713TMC3    C710601   0.472   0.441  13.784  0.3663  0.4570  0.1784
  713TMC3    C810602   0.923   0.455  13.892  0.0664 -0.7594 -0.0167
  713TMC3    O110603   0.404   0.389  13.696 -0.5143 -0.5912  0.1054
  713TMC3    O210604   0.907   0.575  13.857  0.0408  0.4657  0.0529
  714MPD2     C10605   2.519   3.291   1.567  0.3051  0.4821  0.5073
  714MPD2    C110606   2.528   3.206   1.456 -0.0234 -0.2699  0.1609
  714MPD2    C210607   2.437   3.229   1.351 -0.3708 -0.2078 -0.0991
  714MPD2    C310608   2.337   3.323   1.366 -0.1308  0.6920  0.0872
  714MPD2    C410609   2.330   3.400   1.482 -0.2498 -0.3657 -0.1542
  714MPD2    C510610   2.417   3.374   1.590 -0.0182 -0.0158 -0.1845
  714MPD2     H10611   2.427   3.170   1.261 -1.4820  1.2716 -0.9379
  714MPD2    H110612   2.258   3.479   1.500 -0.8988 -1.2749  1.2346
  714MPD2    H210613   2.595   3.296   1.644 -0.5541 -0.9817  1.4600
  714MPD2    H310614   2.417   3.431   1.682 -0.8767  0.7771 -0.6758
  714MPD2     N10615   2.246   3.337   1.258 -0.1891  0.7009 -0.3098
  714MPD2    H510616   2.255   3.263   1.189  2.5063 -0.4049  1.2508
  714MPD2    N110617   2.636   3.117   1.447 -0.2579  0.1547 -0.2235
  714MPD2    H710618   2.697   3.124   1.528 -0.2705 -1.2276 -0.0973
  715TMC3    C110619   2.803   2.992   1.352  0.4216 -0.2127 -0.0825
  715TMC3    C210620   2.828   2.867   1.288  0.7917  0.1864 -0.3020
  715TMC3    C310621   2.955   2.810   1.289 -0.0157  0.2497  0.3387
  715TMC3    C410622   2.902   3.054   1.419 -0.6578  0.6858 -0.3537
  715TMC3    C510623   3.023   2.990   1.426 -0.6374  0.1466 -0.0898
  715TMC3    C610624   3.058   2.870   1.363 -0.2320  0.3068 -0.9628
  715TMC3     C10625   2.668   3.034   1.344 -0.4985  0.7736  0.1631
  715TMC3     O10626   2.602   2.997   1.249 -0.5980 -0.2154  0.9713
  715TMC3     H10627   2.749   2.815   1.235 -1.1994  1.0268  1.8407
  715TMC3    H110628   2.884   3.148   1.468 -2.9535 -0.6118  1.3196
  715TMC3    H210629   3.159   2.834   1.378 -0.4615  0.3610  0.7828
  715TMC3    C710630   3.130   3.049   1.503  0.2392 -0.2514  0.3944
  715TMC3    C810631   2.967   2.674   1.233 -0.1352  0.8188  0.7109
  715TMC3    O110632   3.241   3.007   1.481  0.0617  0.2771 -0.0305
  715TMC3    O210633   2.871   2.611   1.186  0.1916  0.2824 -0.4408
  716MPD2     C10634   1.936   1.805   9.720 -0.2808  0.8512 -0.5535
  716MPD2    C110635   1.953   1.731   9.605 -0.2562 -0.3229 -0.0676
  716MPD2    C210636   2.081   1.690   9.573 -0.4811  0.1726 -0.1715
  716MPD2    C310637   2.186   1.724   9.660 -0.2718 -0.1945  0.3887
  716MPD2    C410638   2.163   1.789   9.784  0.0963 -0.2002 -0.0268
  716MPD2    C510639   2.039   1.834   9.807  0.4874  0.5263 -0.9070
  716MPD2     H10640   2.110   1.629   9.489 -0.9424 -1.8361  1.1297
  716MPD2    H110641   2.245   1.812   9.851  0.4798  1.4452 -1.0434
  716MPD2    H210642   1.836   1.830   9.754 -0.1023  0.2532  0.3899
  716MPD2    H310643   2.008   1.877   9.902  2.0425  0.8149 -0.5342
  716MPD2     N10644   2.312   1.678   9.622 -0.6063 -0.5065  0.0904
  716MPD2    H510645   2.324   1.637   9.530 -0.9803 -0.8292  0.1829
  716MPD2    N110646   1.844   1.695   9.525  0.1825 -0.2103 -0.5224
  716MPD2    H710647   1.756   1.742   9.544  0.1628 -0.6093  0.3603
  717TMC3    C110648   2.533   1.582   9.617 -0.0384 -0.1452 -0.3849
  717TMC3    C210649   2.492   1.524   9.502 -0.3845  0.4919 -0.3682
  717TMC3    C310650   2.552   1.406   9.463  0.4673  0.4089  0.4070
  717TMC3    C410651   2.640   1.540   9.693 -0.0977  0.1926 -0.4919
  717TMC3    C510652   2.702   1.424   9.653 -0.6084  0.4708 -0.1066
  717TMC3    C610653   2.653   1.354   9.542  0.0495  0.5742  1.1711
  717TMC3     C10654   2.429   1.662   9.694 -0.9444  0.1604  0.2697
  717TMC3     O10655   2.452   1.688   9.809 -0.1817 -0.4096 -0.4929
  717TMC3     H10656   2.419   1.562   9.432 -0.9779  0.6218  0.3098
  717TMC3    H110657   2.651   1.578   9.794  0.0977  0.6780 -0.6962
  717TMC3    H210658   2.683   1.253   9.515  0.7350  1.5222 -1.6704
  717TMC3    C710659   2.818   1.373   9.724 -0.2027  0.2315 -0.4322
  717TMC3    C810660   2.481   1.317   9.371  0.0017  0.4515  0.4592
  717TMC3    O110661   2.884   1.277   9.679  0.9574 -0.3266 -1.0713
  717TMC3    O210662   2.360   1.342   9.372 -0.5940  0.7431  0.0241
  718MPD2     C10663   2.483   0.288  13.104  0.2623  0.1438 -0.0849
  718MPD2    C110664   2.372   0.218  13.058  0.3842 -0.5013  0.3994
  718MPD2    C210665   2.268   0.188  13.143 -0.1494 -0.4216 -0.5058
  718MPD2    C310666   2.279   0.239  13.273 -0.2341  0.1755  0.4031
  718MPD2    C410667   2.391   0.306  13.322  0.0889 -0.4886  0.6605
  718MPD2    C510668   2.494   0.331  13.236 -0.3338  0.1027 -0.3315
  718MPD2     H10669   2.181   0.127  13.119 -0.5913  0.8164 -2.0916
  718MPD2    H110670   2.389   0.344  13.424 -1.8304  1.0729  0.0454
  718MPD2    H210671   2.563   0.323  13.038  1.8589  0.7838  2.1932
  718MPD2    H310672   2.580   0.385  13.273 -0.1247  0.7662 -1.7893
  718MPD2     N10673   2.176   0.194  13.357 -0.0303 -0.1088 -0.1672
  718MPD2    H510674   2.119   0.124  13.311  1.1136 -1.1656  0.0091
  718MPD2    N110675   2.373   0.143  12.940  0.2035 -0.0745 -0.1740
  718MPD2    H710676   2.294   0.081  12.930  0.5206 -0.2020 -1.9568
  719TMC3    C110677   2.456   0.026  12.742 -0.5368  0.4199 -0.0918
  719TMC3    C210678   2.323   0.000  12.733  0.1111  0.2988  0.5305
  719TMC3    C310679   2.276   4.613  12.754 -0.0663  0.0266 -0.0484
  719TMC3    C410680   2.542   4.653  12.744 -0.3193  0.0358 -0.0956
  719TMC3    C510681   2.489   4.531  12.734 -0.3543 -0.4600 -0.6725
  719TMC3    C610682   2.359   4.503  12.761  0.1027  0.1646  0.2399
  719TMC3     C10683   2.477   0.128  12.848 -0.2035  0.1757  0.2564
  719TMC3     O10684   2.593   0.169  12.852 -0.3178 -0.0308 -0.4160
  719TMC3     H10685   2.259   0.087  12.729  1.2050  1.0480 -0.5369
  719TMC3    H110686   2.649   4.674  12.745  0.0104 -1.5925 -3.6688
  719TMC3    H210687   2.324   4.402  12.780 -0.3948  0.1024 -1.0189
  719TMC3    C710688   2.553   4.456  12.633  0.3852  0.9164 -0.2193
  719TMC3    C810689   2.172   4.611  12.849  0.0446 -0.2296 -0.2130
  719TMC3    O110690   2.664   4.486  12.596 -0.2313  0.0044 -0.1945
  719TMC3    O210691   2.150   4.718  12.906  0.1609 -0.0470  0.1644
  720MPD2     C10692   0.336   1.919  13.615  0.5570 -0.1509 -0.2319
  720MPD2    C110693   0.430   1.892  13.517 -0.2167 -0.1797  0.4136
  720MPD2    C210694   0.560   1.877  13.563 -0.5960  0.0112 -0.0836
  720MPD2    C310695   0.606   1.886  13.691  0.4662  0.7968 -0.5703
  720MPD2    C410696   0.514   1.900  13.792 -0.1737 -0.5274 -0.2658
  720MPD2    C510697   0.381   1.927  13.749 -0.2552 -0.1295 -0.2677
  720MPD2     H10698   0.634   1.861  13.486 -1.9214 -0.3959 -1.2742
  720MPD2    H110699   0.549   1.917  13.893  0.1356 -0.2244 -0.4237
  720MPD2    H210700   0.229   1.931  13.601  0.9071  0.9100 -2.1072
  720MPD2    H310701   0.308   1.932  13.828  1.5065 -2.4033  1.5035
  720MPD2     N10702   0.749   1.881  13.709 -0.2342  0.1002 -0.2121
  720MPD2    H510703   0.801   1.886  13.622 -2.1616  0.8182 -1.3113
  720MPD2    N110704   0.401   1.904  13.381 -0.3287 -0.9145 -0.1562
  720MPD2    H710705   0.480   1.912  13.319  1.8616 -0.9825  2.6480
  721TMC3    C110706   0.961   1.882  13.816 -0.3682 -0.1806  0.1127
  721TMC3    C210707   1.028   1.929  13.927  0.2594 -0.1875  0.1977
  721TMC3    C310708   1.161   1.900  13.943 -0.4829  0.8602  0.1934
  721TMC3    C410709   1.028   1.815  13.719 -0.9430 -0.0868  0.3602
  721TMC3    C510710   1.165   1.798  13.740 -0.3696  0.6716 -0.0694
  721TMC3    C610711   1.239   1.832  13.850  0.2449  0.1538  0.6423
  721TMC3     C10712   0.814   1.876  13.831 -0.2861  0.1671 -0.1891
  721TMC3     O10713   0.767   1.854  13.943 -0.1630  0.1778  0.5689
  721TMC3     H10714   0.964   1.976  14.001  0.5849 -1.4082  1.2444
  721TMC3    H110715   0.984   1.779  13.627 -2.5262  0.9213  0.7184
  721TMC3    H210716   1.344   1.810  13.863 -0.0465 -1.0906  0.9627
  721TMC3    C710717   1.233   1.713  13.642  0.5555  0.0386  0.3760
  721TMC3    C810718   1.222   1.911  14.073  0.5418 -0.2860 -0.1095
  721TMC3    O110719   1.161   1.650  13.564 -0.0775  0.3533 -0.3987
  721TMC3    O210720   1.347   1.899  14.067 -0.2830  0.4301 -0.3650
  722MPD2     C10721   4.429   0.367  13.064  0.7176  0.4678 -0.1528
  722MPD2    C110722   4.363   0.478  13.098  0.3838  0.6341 -0.1924
  722MPD2    C210723   4.225   0.480  13.073 -0.4412 -0.5217  0.0132
  722MPD2    C310724   4.152   0.374  13.018 -1.2122 -0.5592  0.2092
  722MPD2    C410725   4.220   0.255  12.991 -0.1430 -0.4666 -0.0866
  722MPD2    C510726   4.355   0.269  13.001 -0.0715  0.5031  0.0394
  722MPD2     H10727   4.167   0.572  13.076 -0.2216 -0.3280 -1.8542
  722MPD2    H110728   4.180   0.173  12.932 -1.4275 -0.5242  0.8797
  722MPD2    H210729   4.537   0.362  13.065  0.6222 -1.8236 -0.6705
  722MPD2    H310730   4.410   0.185  12.958 -0.2210 -0.4181  1.6440
  722MPD2     N10731   4.016   0.393  13.008  0.5031 -0.6643  0.0901
  722MPD2    H510732   3.986   0.483  13.044  1.3764 -0.6897  0.8851
  722MPD2    N110733   4.422   0.588  13.164  0.1609 -0.2426 -0.2763
  722MPD2    H710734   4.356   0.665  13.171  0.3663  0.0441 -1.5260
  723TMC3    C110735   3.795   0.342  12.997  0.8402  0.5364 -0.4515
  723TMC3    C210736   3.712   0.256  13.047  0.2376  0.1032 -0.3030
  723TMC3    C310737   3.601   0.299  13.109 -0.0509  0.1280  0.1051
  723TMC3    C410738   3.768   0.470  12.992  0.3690  0.0562 -0.1988
  723TMC3    C510739   3.657   0.511  13.057  0.7543 -1.2141  0.2210
  723TMC3    C610740   3.571   0.432  13.118  0.0833 -0.6758  0.1926
  723TMC3     C10741   3.928   0.294  12.973  0.6912 -1.1301  0.9216
  723TMC3     O10742   3.948   0.179  12.935  0.3008 -0.4859 -0.5472
  723TMC3     H10743   3.738   0.152  13.058 -3.4782 -0.5540  2.3917
  723TMC3    H110744   3.819   0.545  12.934  0.8368  1.3094  1.8075
  723TMC3    H210745   3.479   0.463  13.166  0.3440  0.6489 -0.1485
  723TMC3    C710746   3.615   0.641  13.017 -0.3456 -0.0384  0.1499
  723TMC3    C810747   3.507   0.210  13.162 -0.2442 -0.4750 -0.5220
  723TMC3    O110748   3.703   0.725  13.011 -1.0444 -0.2243 -0.1558
  723TMC3    O210749   3.450   0.231  13.267  0.5728 -0.5797  0.5884
  724TMC3    C110750   0.896   3.335  10.412 -0.2168 -0.1013 -0.1547
  724TMC3    C210751   0.778   3.347  10.474 -0.1904 -0.3169  0.0753
  724TMC3    C310752   0.712   3.465  10.456  0.7109 -0.0902  0.2520
  724TMC3    C410753   0.952   3.438  10.346  0.1473 -0.1740  0.5743
  724TMC3    C510754   0.875   3.554  10.317  0.1761 -0.7590  0.0348
  724TMC3    C610755   0.754   3.565  10.371 -0.2640  0.7357  0.0020
  724TMC3     C10756   0.974   3.212  10.415  0.7300 -0.1989 -0.2009
  724TMC3     O10757   1.033   3.185  10.314  0.1521 -0.4965  0.4578
  724TMC3     H10758   0.732   3.256  10.511 -3.4885  1.3943  0.2184
  724TMC3    H110759   1.056   3.425  10.316 -0.7537  0.0913 -2.6617
  724TMC3    H210760   0.707   3.661  10.353 -0.9848 -0.2357 -3.3434
  724TMC3    C710761   0.933   3.679  10.276  0.3692  0.0377  0.1830
  724TMC3    C810762   0.579   3.468  10.516 -0.1061 -0.0910  0.0626
  724TMC3    O110763   0.865   3.743  10.195  0.0719  0.5786 -0.6449
  724TMC3    O210764   0.573   3.428  10.632  0.3724 -0.0805 -0.8264
  725TMC3    C110765   0.939   1.791  12.399 -0.2867  0.1534  0.6247
  725TMC3    C210766   0.943   1.796  12.260  0.8987  0.5233 -0.1548
  725TMC3    C310767   0.972   1.676  12.197  0.9076 -0.4151 -0.1313
  725TMC3    C410768   0.989   1.687  12.468  0.1027 -0.6140 -0.0684
  725TMC3    C510769   1.018   1.570  12.397 -0.3141 -0.1306  0.0349
  725TMC3    C610770   0.994   1.559  12.259  0.8653 -0.0562 -0.2172
  725TMC3     C10771   0.900   1.911  12.475 -0.3754  0.6014  0.3124
  725TMC3     O10772   0.868   2.009  12.409 -0.2977 -0.6298  0.2630
  725TMC3     H10773   0.892   1.884  12.222  0.1448  0.0833 -0.1734
  725TMC3    H110774   1.007   1.691  12.575 -2.4610 -0.4155  0.3409
  725TMC3    H210775   1.036   1.477  12.204  0.1610  0.6849 -1.8672
  725TMC3    C710776   1.140   1.500  12.447 -0.1402 -0.0623 -0.7196
  725TMC3    C810777   0.944   1.660  12.056  0.1624  0.0017  0.4047
  725TMC3    O110778   1.210   1.576  12.509 -0.1414  0.4191 -0.6743
  725TMC3    O210779   0.916   1.542  12.029  0.0770  0.5278  0.4662
  726MPD2     C10780   3.601   3.874  10.316  0.0612  0.5293 -0.8217
  726MPD2    C110781   3.504   3.898  10.222 -0.2380  0.6409 -0.8855
  726MPD2    C210782   3.392   3.827  10.233  0.4497  0.3362  0.0709
  726MPD2    C310783   3.361   3.732  10.325 -0.0852 -0.1284 -0.0472
  726MPD2    C410784   3.457   3.707  10.420  0.3000  0.0374  0.1751
  726MPD2    C510785   3.579   3.780  10.416 -0.4506  0.7904 -0.3401
  726MPD2     H10786   3.311   3.849  10.164  0.2247 -3.7922 -1.0043
  726MPD2    H110787   3.439   3.646  10.507  2.8415  1.9363  2.0318
  726MPD2    H210788   3.703   3.909  10.323  0.5877 -1.1777  0.0926
  726MPD2    H310789   3.656   3.755  10.487 -0.3767  0.3212 -0.5821
  726MPD2     N10790   3.234   3.666  10.333  0.4053 -0.1207 -0.1741
  726MPD2    H510791   3.220   3.618  10.422  0.9761  0.1239  0.0454
  726MPD2    N110792   3.516   3.992  10.117 -0.5910  0.2088  0.0777
  726MPD2    H710793   3.438   3.995  10.051  0.0330  1.1444 -0.6155
  727TMC3    C110794   3.617   4.173   9.998 -0.5343 -0.1976  0.3741
  727TMC3    C210795   3.732   4.246   9.981 -0.2033  0.1383  0.5957
  727TMC3    C310796   3.725   4.381   9.956  0.3290 -0.3439  0.1228
  727TMC3    C410797   3.499   4.240  10.001  0.1148  0.2153 -0.3391
  727TMC3    C510798   3.497   4.376   9.983 -0.2161 -0.1031 -0.3178
  727TMC3    C610799   3.612   4.451   9.962 -0.6862  0.4334  0.1802
  727TMC3     C10800   3.632   4.060  10.089  0.6316  0.0038  0.4376
  727TMC3     O10801   3.736   4.058  10.155 -0.9025 -0.1506 -0.6069
  727TMC3     H10802   3.829   4.199   9.985  0.2516  1.1031  0.8955
  727TMC3    H110803   3.402   4.195  10.015 -0.2459  0.5398 -1.8213
  727TMC3    H210804   3.607   4.555   9.933  0.5537  0.5375  0.3329
  727TMC3    C710805   3.365   4.424   9.944 -0.7397 -0.1731 -0.4382
  727TMC3    C810806   3.858   4.442   9.958  0.1323 -0.1653 -0.4877
  727TMC3    O110807   3.264   4.354   9.947  0.0191  0.0095  0.8824
  727TMC3    O210808   3.952   4.380   9.909 -0.4341 -0.2603  0.4426
  728TMC3    C110809   3.298   2.161  14.846 -0.2998 -0.2272  0.3905
  728TMC3    C210810   3.414   2.163  14.774  0.0679  0.0313 -0.5897
  728TMC3    C310811   3.413   2.208  14.643  0.3394 -0.4099 -0.0438
  728TMC3    C410812   3.187   2.223  14.791  0.7288  0.4257  1.0827
  728TMC3    C510813   3.190   2.280  14.669  0.0739  0.4976 -0.3015
  728TMC3    C610814   3.301   2.265  14.590 -0.1402  0.0652  0.3117
  728TMC3     C10815   3.307   2.126  14.990 -0.5632 -0.1206 -0.2831
  728TMC3     O10816   3.417   2.131  15.037  0.4061  0.6086  0.2884
  728TMC3     H10817   3.496   2.106  14.817 -0.5515 -1.8267 -1.8723
  728TMC3    H110818   3.099   2.243  14.852 -1.7173  0.8819 -2.5867
  728TMC3    H210819   3.297   2.294  14.485 -0.7885  0.9519  0.5843
  728TMC3    C710820   3.077   2.342  14.607  1.0834 -0.0905  0.3075
  728TMC3    C810821   3.534   2.235  14.579 -0.4120 -0.5124 -0.1863
  728TMC3    O110822   2.966   2.303  14.643  0.0202  0.0981  0.2632
  728TMC3    O210823   3.619   2.146  14.579 -0.2579  0.7262  0.5968
  729MPD2     C10824   0.489   3.627  16.232  0.2297 -0.2972 -0.4123
  729MPD2    C110825   0.596   3.564  16.292 -0.0067 -0.0029 -0.1376
  729MPD2    C210826   0.594   3.540  16.428  0.6594 -0.3088  0.0028
  729MPD2    C310827   0.491   3.577  16.511 -0.0136 -0.7402 -0.0699
  729MPD2    C410828   0.381   3.634  16.443 -0.0728  0.0444  0.2578
  729MPD2    C510829   0.383   3.661  16.313  0.2537 -0.1418 -0.3612
  729MPD2     H10830   0.688   3.510  16.474  1.2565 -1.9741 -2.2943
  729MPD2    H110831   0.295   3.659  16.504 -0.7792 -1.9943  0.1033
  729MPD2    H210832   0.481   3.648  16.126  1.2589  0.3963 -0.3489
  729MPD2    H310833   0.298   3.714  16.274  0.8235 -0.8293 -2.5395
  729MPD2     N10834   0.495   3.577  16.654  0.4270  0.3602  0.3007
  729MPD2    H510835   0.412   3.618  16.697  1.2992  0.6193  1.7494
  729MPD2    N110836   0.717   3.563  16.221  0.3226  0.8138  0.8021
  729MPD2    H710837   0.716   3.615  16.134 -1.0978  0.3444  0.5401
  730TMC3    C110838   0.587   3.569  16.871  0.2192 -1.0808  0.3549
  730TMC3    C210839   0.698   3.544  16.946 -1.1292 -0.1835  0.0301
  730TMC3    C310840   0.746   3.653  17.011 -0.0729  1.1233  0.5162
  730TMC3    C410841   0.503   3.673  16.904  0.2148 -0.0080  0.2143
  730TMC3    C510842   0.543   3.755  17.005  0.6719 -0.0997 -0.5599
  730TMC3    C610843   0.671   3.760  17.062 -0.8304  0.4383  0.1210
  730TMC3     C10844   0.592   3.522  16.730  0.2317 -0.4583 -0.1313
  730TMC3     O10845   0.682   3.448  16.693  0.3223 -0.8003  0.2338
  730TMC3     H10846   0.762   3.461  16.919  1.4434  2.1439 -0.9295
  730TMC3    H110847   0.407   3.692  16.858 -0.1286  1.0601  1.3764
  730TMC3    H210848   0.705   3.847  17.117 -0.6076 -1.4218  2.9178
  730TMC3    C710849   0.471   3.883  17.007  0.5972 -0.1936 -0.9618
  730TMC3    C810850   0.890   3.669  16.995  0.2545  0.3018 -0.6170
  730TMC3    O110851   0.426   3.915  16.902 -0.0422 -0.4895  0.0598
  730TMC3    O210852   0.947   3.574  16.938 -0.4895  0.7388  0.0522
  731MPD2     C10853   0.657   0.780  11.990 -0.5687 -0.5159  0.2282
  731MPD2    C110854   0.757   0.843  12.059  0.3607  0.8380 -0.0256
  731MPD2    C210855   0.728   0.878  12.189 -0.1585 -0.4794  0.0619
  731MPD2    C310856   0.602   0.852  12.248  0.6296 -0.0841  0.1764
  731MPD2    C410857   0.503   0.789  12.177 -0.4857 -0.6518  0.0208
  731MPD2    C510858   0.535   0.751  12.050  0.1187  0.2304 -0.3030
  731MPD2     H10859   0.807   0.903  12.258  0.1406 -1.3660  0.0496
  731MPD2    H110860   0.403   0.762  12.207 -0.5728  1.3413  1.5114
  731MPD2    H210861   0.685   0.750  11.889  1.2247  0.2811  0.4801
  731MPD2    H310862   0.459   0.702  11.990 -0.5868  1.9470 -0.7868
  731MPD2     N10863   0.585   0.888  12.387  0.2835  0.2718  0.0923
  731MPD2    H510864   0.665   0.937  12.428 -0.6685  2.0081 -0.1275
  731MPD2    N110865   0.885   0.860  12.005 -0.0858 -0.9763  0.6402
  731MPD2    H710866   0.893   0.818  11.913  0.8489  0.6410 -0.0255
  732TMC3    C110867   1.086   0.959  11.938  0.4453  0.3145 -0.1616
  732TMC3    C210868   1.042   0.917  11.815  0.7336  0.2909 -0.3473
  732TMC3    C310869   1.040   1.005  11.710 -0.6885 -0.3720 -0.3473
  732TMC3    C410870   1.161   1.076  11.950 -0.2135 -0.5760  0.7224
  732TMC3    C510871   1.163   1.158  11.840 -0.1734 -0.1405  0.2130
  732TMC3    C610872   1.095   1.127  11.722 -0.1032  0.0299 -0.1998
  732TMC3     C10873   0.995   0.933  12.046 -0.0440  0.8869 -0.8425
  732TMC3     O10874   1.016   0.994  12.150 -0.6531  0.3844  0.2312
  732TMC3     H10875   1.005   0.818  11.788  2.6448 -0.7305  0.7695
  732TMC3    H110876   1.190   1.103  12.051 -1.3500  0.9892  0.6255
  732TMC3    H210877   1.098   1.190  11.634 -1.4900  3.4660  2.2344
  732TMC3    C710878   1.188   1.295  11.869 -0.1533 -0.1500  0.7037
  732TMC3    C810879   0.914   0.990  11.639 -0.0250  0.2790  0.0081
  732TMC3    O110880   1.114   1.376  11.807  1.1321  0.1857 -0.3544
  732TMC3    O210881   0.906   0.925  11.532 -0.3023  0.5487 -0.0353
  733TMC3    C110882   1.845   0.105  13.650 -0.0751  0.4069 -0.1281
  733TMC3    C210883   1.969   0.164  13.638 -0.0677  0.4195  0.1217
  733TMC3    C310884   2.067   0.109  13.554  0.5962  0.2196 -0.0624
  733TMC3    C410885   1.833   4.706  13.597  0.2025  0.5975  0.4430
  733TMC3    C510886   1.932   4.651  13.525  0.0266 -0.4485 -0.0243
  733TMC3    C610887   2.049   4.721  13.498 -0.2071  0.1669 -0.2399
  733TMC3     C10888   1.746   0.179  13.580  0.0394  0.1905 -0.2758
  733TMC3     O10889   1.641   0.120  13.560  0.4405 -0.3941 -0.4464
  733TMC3     H10890   1.996   0.247  13.703  3.9969 -0.5193 -0.3952
  733TMC3    H110891   1.736   4.658  13.599  1.7782 -2.5927  0.0494
  733TMC3    H210892   2.130   4.678  13.441  0.2625  3.1276 -1.8079
  733TMC3    C710893   1.893   4.549  13.433 -0.3160  0.0337 -0.6410
  733TMC3    C810894   2.165   0.207  13.494  0.0869  0.4608  0.1389
  733TMC3    O110895   1.790   4.491  13.446 -0.1073  0.0705 -0.0486
  733TMC3    O210896   2.218   0.281  13.574  0.0818  0.1657  0.1757
  734MPD2     C10897   3.384   2.243  12.607 -0.4151 -0.1718  0.0175
  734MPD2    C110898   3.338   2.158  12.508 -0.0235 -0.1061  0.4319
  734MPD2    C210899   3.384   2.191  12.378 -0.0847  0.1484  0.2456
  734MPD2    C310900   3.469   2.294  12.348  1.1827  0.0557  0.2768
  734MPD2    C410901   3.508   2.374  12.453 -0.2621 -0.0328 -0.1855
  734MPD2    C510902   3.463   2.348  12.576  0.7877 -0.3948  0.3433
  734MPD2     H10903   3.355   2.124  12.297 -2.2535  1.2831  0.0777
  734MPD2    H110904   3.573   2.460  12.436 -0.6430  0.8603  2.8571
  734MPD2    H210905   3.359   2.223  12.710 -1.2793  1.2723  0.0884
  734MPD2    H310906   3.488   2.411  12.660 -0.0750 -0.0782  0.3611
  734MPD2     N10907   3.511   2.314  12.217  0.1926 -0.7570  0.4680
  734MPD2    H510908   3.472   2.256  12.144  0.0544  0.2521 -0.2652
  734MPD2    N110909   3.260   2.040  12.538 -0.2967  0.1469 -0.3504
  734MPD2    H710910   3.239   2.021  12.635  1.8988 -0.3721  0.0335
  735TMC3    C110911   3.182   1.817  12.500  0.2755  0.3277  0.5766
  735TMC3    C210912   3.125   1.761  12.395 -0.0934 -0.0034  0.2494
  735TMC3    C310913   3.156   1.632  12.362  0.4102  0.3727  0.9117
  735TMC3    C410914   3.286   1.754  12.569  0.0544  0.5324 -0.1354
  735TMC3    C510915   3.309   1.619  12.539 -1.0599  0.4866  0.0116
  735TMC3    C610916   3.236   1.554  12.441 -0.5890 -0.0221  0.0598
  735TMC3     C10917   3.237   1.940  12.447 -0.4136 -0.5208  0.6471
  735TMC3     O10918   3.243   1.937  12.326 -1.2652  0.4277  0.0503
  735TMC3     H10919   3.053   1.817  12.336 -0.7392 -1.4061 -0.2989
  735TMC3    H110920   3.345   1.809  12.640  0.5717 -0.9915  0.6230
  735TMC3    H210921   3.268   1.462  12.394 -0.4504  0.7536 -1.3446
  735TMC3    C710922   3.454   1.587  12.532 -0.1231 -0.2794  0.5939
  735TMC3    C810923   3.196   1.614  12.221 -0.4776 -0.1376  0.0570
  735TMC3    O110924   3.529   1.682  12.521 -0.1720  0.2014 -0.1546
  735TMC3    O210925   3.217   1.504  12.172 -0.3914 -0.4126 -0.1318
  736MPD2     C10926   3.545   1.256  12.425  0.0277  0.2502  0.1931
  736MPD2    C110927   3.578   1.389  12.458 -0.1007 -0.1065 -0.7886
  736MPD2    C210928   3.693   1.451  12.404  0.4482 -0.4041 -0.3580
  736MPD2    C310929   3.782   1.380  12.324  0.6450 -0.7853 -0.1675
  736MPD2    C410930   3.751   1.252  12.292  0.0880  0.1994 -0.0178
  736MPD2    C510931   3.636   1.190  12.341 -0.3181  0.8310 -0.6198
  736MPD2     H10932   3.702   1.558  12.423  0.3944 -0.8516  2.2006
  736MPD2    H110933   3.815   1.207  12.216 -0.4446  0.7985 -0.8263
  736MPD2    H210934   3.457   1.197  12.450  1.3408 -2.1231 -0.7331
  736MPD2    H310935   3.605   1.090  12.314  0.8306  0.4445 -0.4954
  736MPD2     N10936   3.899   1.440  12.269  0.3380 -0.7110 -0.3146
  736MPD2    H510937   3.941   1.372  12.207  0.7259  0.8843 -1.8032
  736MPD2    N110938   3.465   1.456  12.512  0.3629 -0.1863 -0.6360
  736MPD2    H710939   3.389   1.393  12.539 -1.1338  2.1602  0.6103
  737TMC3    C110940   4.064   1.584  12.199  0.0846  0.9583  0.1619
  737TMC3    C210941   4.104   1.709  12.178  0.0286 -0.7216  0.0961
  737TMC3    C310942   4.214   1.731  12.099  0.1920 -1.1234  0.9801
  737TMC3    C410943   4.120   1.481  12.135  0.1829  0.4564 -0.1238
  737TMC3    C510944   4.223   1.507  12.043 -0.8439  0.3248  0.7336
  737TMC3    C610945   4.268   1.633  12.021  0.2519 -0.3274  1.0415
  737TMC3     C10946   3.949   1.567  12.276  0.1300 -0.4306 -0.7335
  737TMC3     O10947   3.895   1.667  12.323 -0.4828 -0.2167  0.6072
  737TMC3     H10948   4.065   1.796  12.230 -0.6194 -0.0000 -1.5979
  737TMC3    H110949   4.084   1.379  12.138  0.3472  0.4231  0.7029
  737TMC3    H210950   4.363   1.654  11.972  0.4028 -2.1013  0.5713
  737TMC3    C710951   4.295   1.395  11.980  1.1996 -0.1480  0.3613
  737TMC3    C810952   4.245   1.862  12.058  0.2941 -0.0102 -0.0343
  737TMC3    O110953   4.276   1.290  12.042 -0.1142  0.5636  0.1087
  737TMC3    O210954   4.234   1.958  12.134  0.1101 -0.2278 -0.0354
  738MPD2     C10955   4.336   0.589  15.269 -0.1725  0.5452 -0.5750
  738MPD2    C110956   4.320   0.517  15.153 -0.4390  0.4450  0.2726
  738MPD2    C210957   4.388   0.551  15.044  0.0428  0.6194  0.3307
  738MPD2    C310958   4.474   0.656  15.043  0.0800 -0.5101  0.2347
  738MPD2    C410959   4.488   0.727  15.159 -0.2817 -0.0436  0.2541
  738MPD2    C510960   4.415   0.696  15.272  0.4914 -0.5772 -0.4337
  738MPD2     H10961   4.388   0.486  14.957 -2.5296  2.6515 -1.1973
  738MPD2    H110962   4.567   0.800  15.175 -1.1978  0.7110  1.2631
  738MPD2    H210963   4.283   0.560  15.359  3.0920  0.0517  1.1723
  738MPD2    H310964   4.439   0.743  15.367 -0.4993  2.9972 -1.9732
  738MPD2     N10965   4.555   0.677  14.931 -1.0025  0.1728 -0.2830
  738MPD2    H510966   4.637   0.737  14.937 -0.4720 -0.6282  0.4628
  738MPD2    N110967   4.246   0.399  15.144 -0.1815 -0.4536  0.2676
  738MPD2    H710968   4.245   0.344  15.059  0.5904 -0.0196 -0.0205
  739TMC3    C110969   4.673   0.631  14.734  0.0218  0.0659 -0.0313
  739TMC3    C210970   4.647   0.678  14.608 -0.6738 -0.6069 -0.1523
  739TMC3    C310971   0.009   0.748  14.542 -0.5279  0.0707 -0.1702
  739TMC3    C410972   0.069   0.636  14.786 -0.4473 -0.2430  0.3507
  739TMC3    C510973   0.164   0.700  14.705  0.3292  0.0113 -0.1493
  739TMC3    C610974   0.137   0.757  14.585  0.2182 -0.7904 -0.4298
  739TMC3     C10975   4.559   0.596  14.819  0.5337 -0.5180  0.8069
  739TMC3     O10976   4.468   0.542  14.755  0.3055 -0.0198  0.0798
  739TMC3     H10977   4.547   0.683  14.567 -0.7341  1.4113  0.2581
  739TMC3    H110978   0.103   0.597  14.882  3.3041  1.8853 -0.1289
  739TMC3    H210979   0.211   0.802  14.521 -2.5443  0.3878 -2.8197
  739TMC3    C710980   0.304   0.719  14.753  0.1734  0.0118  0.2547
  739TMC3    C810981   4.697   0.815  14.421  0.2881  0.2617  0.4301
  739TMC3    O110982   0.338   0.641  14.842 -0.0290 -0.2459  0.2814
  739TMC3    O210983   4.618   0.752  14.354 -0.3941  0.4681 -0.4872
  740TMC3    C110984   0.281   2.263  14.411  0.1572 -0.3934  0.3008
  740TMC3    C210985   0.303   2.202  14.534 -0.5457  0.0056  0.5109
  740TMC3    C310986   0.427   2.142  14.550 -0.1545  0.1847  0.1164
  740TMC3    C410987   0.375   2.290  14.314  0.3651  0.1437 -0.1634
  740TMC3    C510988   0.499   2.230  14.341  0.1963 -0.4125 -0.0814
  740TMC3    C610989   0.524   2.150  14.452 -1.3760  0.2396 -0.0240
  740TMC3     C10990   0.150   2.318  14.383  0.2712 -1.0956 -0.8818
  740TMC3     O10991   0.135   2.381  14.283  0.6048  0.3647 -0.3392
  740TMC3     H10992   0.230   2.176  14.609 -0.8177  0.2664  0.3358
  740TMC3    H110993   0.363   2.347  14.223 -1.5107 -2.4815 -1.5715
  740TMC3    H210994   0.622   2.104  14.458 -1.4980  0.0609  0.5504
  740TMC3    C710995   0.611   2.250  14.237 -0.2414 -0.0733 -0.0404
  740TMC3    C810996   0.437   2.038  14.655 -0.3670 -0.5293 -0.0620
  740TMC3    O110997   0.727   2.264  14.282  0.3060 -0.0231  0.3025
  740TMC3    O210998   0.341   1.989  14.710 -0.1010  0.4716  0.2613
  741TMC3    C110999   4.459   1.422  14.072  0.4452 -0.3171 -0.1837
  741TMC3    C211000   4.375   1.354  13.999  0.0497  0.2748 -0.9176
  741TMC3    C311001   4.331   1.242  14.060  0.1023  0.1182  0.5794
  741TMC3    C411002   4.505   1.385  14.196  0.7798 -0.7072  0.4023
  741TMC3    C511003   4.451   1.277  14.255  0.0455 -0.2562  0.9486
  741TMC3    C611004   4.353   1.206  14.192 -0.1042  0.5815  0.0214
  741TMC3     C11005   4.528   1.546  14.026 -0.1354  0.1400 -0.3869
  741TMC3     O11006   4.595   1.604  14.109  0.2647 -0.4117 -0.2550
  741TMC3     H11007   4.351   1.375  13.895  0.2804 -0.5638 -1.1432
  741TMC3    H111008   4.582   1.441  14.247 -0.3245 -0.7800  2.1425
  741TMC3    H211009   4.306   1.123  14.243 -0.3039  0.5895 -0.1473
  741TMC3    C711010   4.476   1.268  14.400 -0.3730  0.2347  0.6670
  741TMC3    C811011   4.227   1.163  13.980 -0.1072  0.0817  0.2656
  741TMC3    O111012   4.529   1.369  14.448 -0.3233  0.0287 -0.0806
  741TMC3    O211013   4.169   1.223  13.893  0.1602 -0.3215  0.1897
  742TMC3    C111014   4.709   0.248  14.887 -0.4855 -0.1246 -0.0767
  742TMC3    C211015   4.618   0.214  14.789  0.7009  0.4147  0.3563
  742TMC3    C311016   4.657   0.112  14.703 -0.5176  0.0889 -0.0663
  742TMC3    C411017   0.098   0.201  14.889 -0.0363  0.4448 -0.1178
  742TMC3    C511018   0.128   0.104  14.798  0.3918 -0.0918 -0.6573
  742TMC3    C611019   0.042   0.055  14.703  0.5937  0.4107 -0.0992
  742TMC3     C11020   4.644   0.288  15.012  0.4262  0.2500  0.2332
  742TMC3     O11021   4.527   0.261  15.035  0.0543  0.1224  0.4378
  742TMC3     H11022   4.521   0.260  14.805  1.3177  1.9105 -0.2497
  742TMC3    H111023   0.158   0.227  14.975  0.9696 -1.7240 -0.1724
  742TMC3    H211024   0.065   4.709  14.633 -1.5896 -0.3063 -0.0142
  742TMC3    C711025   0.259   0.041  14.805 -0.4608  0.5762  0.0741
  742TMC3    C811026   4.566   0.057  14.611 -0.0139 -0.0785 -0.8309
  742TMC3    O111027   0.269   4.665  14.754  0.0730 -0.2851  0.2034
  742TMC3    O211028   4.585   4.679  14.560 -0.4999  0.0751 -0.2275
  743MPD2     C11029   2.060   1.204   1.966  0.1017  0.6278 -0.5488
  743MPD2    C111030   2.105   1.151   1.850 -0.2766 -0.1802  0.1481
  743MPD2    C211031   2.237   1.163   1.808  0.3290 -0.0945 -0.1579
  743MPD2    C311032   2.327   1.212   1.897  0.3382 -0.5334 -0.1053
  743MPD2    C411033   2.277   1.261   2.021 -0.0797 -0.0486  0.4076
  743MPD2    C511034   2.144   1.261   2.047 -0.3738  0.4578 -0.0824
  743MPD2     H11035   2.258   1.134   1.706 -1.0677  2.5718 -1.1977
  743MPD2    H111036   2.347   1.289   2.100  0.2788 -0.0338  0.0852
  743MPD2    H211037   1.956   1.200   1.996  0.3530  0.6255  0.3223
  743MPD2    H311038   2.120   1.293   2.148 -0.0537 -0.4982  0.2902
  743MPD2     N11039   2.462   1.224   1.866  0.1523  0.2157 -0.5295
  743MPD2    H511040   2.497   1.186   1.779  0.8448 -0.2000 -0.0719
  743MPD2    N111041   2.007   1.113   1.763 -0.3288  0.0944 -0.0892
  743MPD2    H711042   1.911   1.142   1.777 -0.7849 -1.3732 -0.1833
  744TMC3    C111043   1.931   1.053   1.551  0.2455  0.1776 -0.4103
  744TMC3    C211044   1.858   1.168   1.552 -0.8102 -0.2563 -0.6892
  744TMC3    C311045   1.787   1.197   1.436 -0.2933 -0.3147 -0.3655
  744TMC3    C411046   1.932   0.974   1.437 -0.1480 -0.2696 -0.0612
  744TMC3    C511047   1.843   1.000   1.338  0.3511  0.1990  0.4072
  744TMC3    C611048   1.761   1.107   1.331  0.1942  0.5341 -0.2523
  744TMC3     C11049   2.026   1.029   1.656 -0.3015 -0.3410 -0.0090
  744TMC3     O11050   2.122   0.952   1.649 -0.6199 -0.1232 -0.3889
  744TMC3     H11051   1.858   1.250   1.623  2.5345 -1.2340  0.4216
  744TMC3    H111052   1.990   0.883   1.431 -2.2125 -1.4787 -1.7741
  744TMC3    H211053   1.729   1.144   1.234 -0.1025  0.9440 -0.0011
  744TMC3    C711054   1.876   0.923   1.221 -0.3340  0.4521  0.1106
  744TMC3    C811055   1.739   1.335   1.423  0.1457  0.2415  0.1975
  744TMC3    O111056   1.992   0.893   1.204  0.3014 -0.7535  0.2698
  744TMC3    O211057   1.758   1.383   1.313 -0.1087  0.1778 -0.1690
  745TMC3    C111058   0.723   4.112  13.451 -0.3510 -0.3040  0.6224
  745TMC3    C211059   0.601   4.055  13.480 -0.1082  0.6348 -0.2115
  745TMC3    C311060   0.509   4.045  13.381  0.0590 -0.2553 -0.0067
  745TMC3    C411061   0.751   4.164  13.334  0.4449  0.4501  0.2739
  745TMC3    C511062   0.659   4.142  13.239  0.4391  0.5765 -0.2909
  745TMC3    C611063   0.548   4.073  13.254  0.3463  0.5674  0.8100
  745TMC3     C11064   0.794   4.147  13.569  0.5413 -0.0142 -0.3563
  745TMC3     O11065   0.821   4.059  13.652  0.4778  0.3401 -0.0310
  745TMC3     H11066   0.590   4.019  13.581  0.6354  0.8315 -0.0567
  745TMC3    H111067   0.846   4.213  13.314  0.3611  0.3079 -0.4457
  745TMC3    H211068   0.474   4.065  13.176  1.7154 -0.0227 -0.4347
  745TMC3    C711069   0.700   4.174  13.103  0.0316 -0.0269 -0.2717
  745TMC3    C811070   0.393   4.123  13.413 -0.0145  0.2281 -0.9651
  745TMC3    O111071   0.647   4.118  13.009  0.2831 -0.4264  0.2871
  745TMC3    O211072   0.312   4.131  13.319 -0.5723  0.4090 -0.1759
  746TMC3    C111073   3.191   1.161  11.368  0.5090  0.3000 -0.5627
  746TMC3    C211074   3.232   1.136  11.240 -0.5898 -0.8811  0.2580
  746TMC3    C311075   3.199   1.018  11.181 -0.1991  0.6438  0.2259
  746TMC3    C411076   3.117   1.068  11.433  0.0272  0.0355 -0.0431
  746TMC3    C511077   3.100   0.944  11.387  0.1083  0.2421 -0.1563
  746TMC3    C611078   3.144   0.911  11.260  0.5537 -0.4623  0.2957
  746TMC3     C11079   3.160   1.299  11.396 -0.3707  0.0387  0.4228
  746TMC3     O11080   3.071   1.321  11.481 -0.0393 -0.3968 -0.7164
  746TMC3     H11081   3.274   1.211  11.175 -2.7278  1.2691  1.3386
  746TMC3    H111082   3.065   1.100  11.523 -2.0284  1.2406 -1.6699
  746TMC3    H211083   3.122   0.816  11.213 -1.9245 -0.1001  0.7303
  746TMC3    C711084   2.961   0.894  11.405  0.5469 -0.8450  0.4641
  746TMC3    C811085   3.173   1.024  11.040 -0.0268  0.1441 -0.3365
  746TMC3    O111086   2.913   0.859  11.298  0.6904  0.0119  0.2764
  746TMC3    O211087   3.205   0.922  10.979  0.7046 -0.0976 -0.1284
  747TMC3    C111088   4.682   1.269  10.988 -0.1556 -0.3487  0.1818
  747TMC3    C211089   4.673   1.214  11.112 -0.1376 -0.3745 -0.4010
  747TMC3    C311090   4.620   1.295  11.206  0.9786 -1.1627 -0.1185
  747TMC3    C411091   4.637   1.391  10.947  0.6436 -0.1723  0.4264
  747TMC3    C511092   4.585   1.466  11.048  1.0405  0.3354 -0.6737
  747TMC3    C611093   4.575   1.422  11.175  0.6244  0.0512 -0.3897
  747TMC3     C11094   0.004   1.179  10.883  0.8169 -0.6068  0.1916
  747TMC3     O11095   4.708   1.060  10.889  0.2737  0.4807  0.5332
  747TMC3     H11096   4.710   1.114  11.132 -1.5888 -0.9258 -0.4549
  747TMC3    H111097   4.664   1.423  10.847  0.2885  0.4937  0.5456
  747TMC3    H211098   4.542   1.492  11.250 -1.5739  0.0133 -1.3350
  747TMC3    C711099   4.554   1.605  11.023 -0.3002 -0.4713  0.1937
  747TMC3    C811100   4.620   1.235  11.343 -0.1947  0.4032  0.2226
  747TMC3    O111101   4.528   1.678  11.121 -0.0200 -0.3178 -0.2498
  747TMC3    O211102   4.678   1.130  11.371  0.3358  0.0120 -0.6563
  748MPD2     C11103   1.498   2.188   1.080  0.2531  0.3127 -0.6380
  748MPD2    C111104   1.528   2.257   0.958 -0.3424  0.2240  0.1522
  748MPD2    C211105   1.656   2.261   0.911 -0.3494 -0.0580  1.0274
  748MPD2    C311106   1.753   2.188   0.986  0.2645 -0.0459 -0.1906
  748MPD2    C411107   1.723   2.113   1.095 -0.3019  0.4191 -0.2619
  748MPD2    C511108   1.594   2.126   1.146  0.0675  0.1656  0.0207
  748MPD2     H11109   1.676   2.316   0.820 -4.0336  0.8591  0.7869
  748MPD2    H111110   1.797   2.062   1.155 -0.7648  1.0401  0.8307
  748MPD2    H211111   1.402   2.191   1.132  0.0578 -2.5035 -0.8350
  748MPD2    H311112   1.573   2.089   1.246  0.7816 -1.0939 -0.2954
  748MPD2     N11113   1.887   2.208   0.945 -0.6850 -0.1077 -0.3722
  748MPD2    H511114   1.907   2.275   0.871 -1.8249 -0.7769 -1.2866
  748MPD2    N111115   1.424   2.322   0.888  0.2694  0.2602  0.9046
  748MPD2    H711116   1.341   2.331   0.945 -1.1866  1.1671 -1.3639
  749TMC3    C111117   2.117   2.162   0.899 -0.2279  0.3962  0.0449
  749TMC3    C211118   2.196   2.050   0.873 -0.9564  0.6222  0.2954
  749TMC3    C311119   2.291   2.062   0.771  0.0274  0.3418 -0.0644
  749TMC3    C411120   2.126   2.285   0.824  0.0618 -0.1831 -0.1602
  749TMC3    C511121   2.220   2.293   0.722  0.1584 -0.2246 -0.0766
  749TMC3    C611122   2.306   2.186   0.705 -0.5740  0.6106  0.4714
  749TMC3     C11123   1.997   2.133   0.978  0.7228 -0.7994  0.2641
  749TMC3     O11124   2.003   2.038   1.053  0.2942  0.1246 -0.1937
  749TMC3     H11125   2.168   1.953   0.913  2.1380 -0.2739  0.3403
  749TMC3    H111126   2.081   2.375   0.862 -1.0711 -0.9000  0.2014
  749TMC3    H211127   2.382   2.202   0.629 -0.3015 -0.0789  0.5945
  749TMC3    C711128   2.253   2.429   0.677 -0.0399 -1.0456 -0.6358
  749TMC3    C811129   2.388   1.960   0.742 -0.0926 -0.2187  0.0405
  749TMC3    O111130   2.275   2.509   0.766  0.2569 -0.2710 -0.2837
  749TMC3    O211131   2.451   1.969   0.638  0.1873  0.2790 -0.9829
  750MPD2     C11132   2.045   3.262  10.947 -0.5528  0.5033 -0.2596
  750MPD2    C111133   2.018   3.215  11.079 -0.3474  0.5208 -0.0658
  750MPD2    C211134   2.015   3.078  11.095  0.8046  0.7732  0.0486
  750MPD2    C311135   2.029   2.988  10.989  0.8467 -0.5750 -0.4295
  750MPD2    C411136   2.040   3.039  10.864  0.1365  0.6770  0.5258
  750MPD2    C511137   2.051   3.171  10.847  0.0679  0.2553  0.2902
  750MPD2     H11138   2.009   3.033  11.193 -2.3319  0.8599 -0.1004
  750MPD2    H111139   2.038   2.972  10.779 -0.5681 -0.6521  1.5862
  750MPD2    H211140   2.062   3.367  10.927 -0.0828  0.5263  0.2412
  750MPD2    H311141   2.073   3.218  10.752 -0.2565  1.3733  0.7704
  750MPD2     N11142   2.024   2.848  11.009  0.5673  0.0593  0.3517
  750MPD2    H511143   2.062   2.797  10.930  1.3390  2.2535 -0.6686
  750MPD2    N111144   1.995   3.313  11.180 -0.3894  0.3973  0.5641
  750MPD2    H711145   1.998   3.409  11.148  0.0260  0.1373 -0.1783
  751TMC3    C111146   2.021   2.640  11.107  0.0494  0.8094  0.1668
  751TMC3    C211147   1.940   2.552  11.170 -0.4217  0.4097 -0.0436
  751TMC3    C311148   1.961   2.423  11.143 -0.2765 -0.4420 -0.5755
  751TMC3    C411149   2.122   2.601  11.023  0.3473  0.2339  0.9923
  751TMC3    C511150   2.144   2.468  10.999  0.3891 -0.4827 -0.0464
  751TMC3    C611151   2.064   2.374  11.061 -0.1245 -0.0851  0.0020
  751TMC3     C11152   1.998   2.783  11.126  0.3147 -0.3803  0.0178
  751TMC3     O11153   1.935   2.814  11.229 -0.0587  0.3197  0.1723
  751TMC3     H11154   1.850   2.583  11.222 -1.4425 -0.9962 -0.9452
  751TMC3    H111155   2.182   2.667  10.961  1.5465 -0.2310  1.6514
  751TMC3    H211156   2.076   2.267  11.049 -0.6754 -0.2123  0.5924
  751TMC3    C711157   2.258   2.443  10.909  0.6522  0.1920  0.4791
  751TMC3    C811158   1.867   2.334  11.213  0.0179  0.0976 -0.3936
  751TMC3    O111159   2.340   2.536  10.905  0.4665  0.0742 -0.1562
  751TMC3    O211160   1.772   2.375  11.279 -0.3538 -0.0999 -0.3931
  752TMC3    C111161   1.268   3.250  17.182  0.1846 -0.1121  0.6352
  752TMC3    C211162   1.315   3.159  17.270 -0.0977  0.6656  0.0647
  752TMC3    C311163   1.239   3.123  17.379 -0.3006 -0.5729  0.7386
  752TMC3    C411164   1.152   3.320  17.211  0.6392  0.8793  0.5876
  752TMC3    C511165   1.088   3.288  17.327 -1.0288  0.0404  0.5627
  752TMC3    C611166   1.121   3.188  17.412  0.5001  0.6148 -0.4865
  752TMC3     C11167   1.346   3.285  17.061 -0.2962 -0.1528  0.2414
  752TMC3     O11168   1.465   3.263  17.082 -0.1072  0.5918  0.3333
  752TMC3     H11169   1.407   3.106  17.249 -1.0836 -0.7107 -0.7995
  752TMC3    H111170   1.096   3.381  17.142 -1.1962 -1.1006  0.3178
  752TMC3    H211171   1.058   3.161  17.496 -0.0272 -0.8597 -1.3513
  752TMC3    C711172   0.963   3.361  17.362  0.2827  0.6108  0.0407
  752TMC3    C811173   1.287   3.021  17.468 -0.5805  0.2414  0.3770
  752TMC3    O111174   0.874   3.306  17.426 -0.4655 -0.3468 -1.1303
  752TMC3    O211175   1.261   3.024  17.588 -0.3980  0.2921 -0.4558
  753TMC3    C111176   3.312   3.954  13.513  0.0939 -0.4144  0.2993
  753TMC3    C211177   3.295   4.011  13.640  0.4594 -0.0498  0.1680
  753TMC3    C311178   3.287   3.925  13.749 -0.6277 -0.6933 -0.1293
  753TMC3    C411179   3.330   3.821  13.490 -0.5153 -0.2845  0.0037
  753TMC3    C511180   3.338   3.744  13.606 -0.0032 -0.3624  0.2496
  753TMC3    C611181   3.315   3.793  13.733  0.4184  0.7587  1.3222
  753TMC3     C11182   3.376   4.043  13.416  0.1322  0.2464 -0.3629
  753TMC3     O11183   3.410   4.156  13.449  0.0130  0.4743 -0.3229
  753TMC3     H11184   3.289   4.118  13.652 -0.5889  0.1582 -2.2589
  753TMC3    H111185   3.364   3.779  13.396 -1.7414 -1.5155  0.0970
  753TMC3    H211186   3.290   3.723  13.812  0.2930  0.9898  1.4880
  753TMC3    C711187   3.344   3.604  13.596 -0.6737  0.7495 -0.2755
  753TMC3    C811188   3.266   3.975  13.885  0.5630  0.3361 -0.3643
  753TMC3    O111189   3.330   3.554  13.486  0.1765 -0.2072  0.1699
  753TMC3    O211190   3.259   3.883  13.968  0.4623  0.0392 -0.1046
  754MPD2     C11191   1.699   3.119  12.426  0.2374 -0.9001 -0.7559
  754MPD2    C111192   1.715   2.991  12.468  0.0607 -0.4486 -0.5954
  754MPD2    C211193   1.604   2.904  12.477 -0.7322  0.1417  0.1637
  754MPD2    C311194   1.474   2.950  12.447  0.1660 -0.2571  0.5959
  754MPD2    C411195   1.459   3.084  12.416 -0.5566 -0.2776 -0.3325
  754MPD2    C511196   1.569   3.162  12.396 -0.4375  0.6964 -0.8886
  754MPD2     H11197   1.618   2.803  12.516 -2.2398  0.2347  0.9458
  754MPD2    H111198   1.362   3.124  12.386 -0.8976 -2.5554 -2.2136
  754MPD2    H211199   1.780   3.190  12.410  0.9289 -2.1492 -2.8623
  754MPD2    H311200   1.546   3.263  12.364 -0.9064  1.5098  1.9911
  754MPD2     N11201   1.357   2.864  12.463 -0.5046 -0.1966 -0.1208
  754MPD2    H511202   1.263   2.900  12.467 -0.9891 -1.2914 -1.7973
  754MPD2    N111203   1.833   2.938  12.507 -0.5527 -0.5311  0.2747
  754MPD2    H711204   1.832   2.839  12.529 -2.3974 -0.3175  1.2088
  755MPD2     C11205   1.121   3.136  13.236  0.1572  0.0533 -0.3209
  755MPD2    C111206   1.014   3.060  13.195 -0.5093  0.5278 -0.9713
  755MPD2    C211207   1.035   2.960  13.108  0.5112  0.5035  0.5530
  755MPD2    C311208   1.156   2.938  13.044 -0.1260 -0.4706  0.1203
  755MPD2    C411209   1.264   3.011  13.091  0.3686  0.1916  0.1722
  755MPD2    C511210   1.245   3.110  13.189 -0.1946  0.0561  0.6141
  755MPD2     H11211   0.951   2.896  13.084  0.2783  0.7079  0.8196
  755MPD2    H111212   1.364   2.989  13.055  0.3702  0.4562  0.0178
  755MPD2    H211213   1.112   3.209  13.316 -1.5411  0.3206 -0.7498
  755MPD2    H311214   1.331   3.166  13.224 -0.4202  1.7906 -1.6331
  755MPD2     N11215   1.172   2.866  12.923  0.2613 -0.1268  0.2689
  755MPD2    H511216   1.262   2.874  12.877 -1.0437 -0.1234 -2.2862
  755MPD2    N111217   0.879   3.089  13.234 -0.6112 -0.1111  0.4909
  755MPD2    H711218   0.813   3.021  13.198 -0.6321 -0.3167  0.9156
  756MPD2     C11219   1.939   4.233   9.280  0.5464 -0.6097  0.4267
  756MPD2    C111220   1.867   4.178   9.384 -1.1120 -0.2764  0.3517
  756MPD2    C211221   1.733   4.139   9.366  0.2675 -0.0304  0.5413
  756MPD2    C311222   1.668   4.171   9.248 -0.6546 -0.7284  0.2801
  756MPD2    C411223   1.744   4.218   9.137  0.2687 -0.6105  0.0833
  756MPD2    C511224   1.874   4.247   9.160 -0.3949  0.2707 -0.6330
  756MPD2     H11225   1.681   4.076   9.436  0.1146  1.8393  2.1034
  756MPD2    H111226   1.703   4.243   9.040 -2.1715  0.0713  1.2694
  756MPD2    H211227   2.045   4.253   9.291  0.5517 -0.4963  0.1780
  756MPD2    H311228   1.942   4.277   9.080  0.7044 -0.0045  0.1876
  756MPD2     N11229   1.529   4.128   9.240  0.2722  0.1067  0.2724
  756MPD2    H511230   1.487   4.080   9.319 -0.0873  0.2204  0.1496
  756MPD2    N111231   1.912   4.147   9.520  0.2480  0.3179 -0.0124
  756MPD2    H711232   1.857   4.083   9.577 -0.0700  1.0177  0.4641
  757MPD2     C11233   1.074   3.450   9.528 -0.1015  0.1835  0.4275
  757MPD2    C111234   1.192   3.469   9.461 -0.1787  0.3589  0.5382
  757MPD2    C211235   1.227   3.595   9.421 -0.7446 -0.4360 -0.4865
  757MPD2    C311236   1.144   3.701   9.439  0.1638  0.2631 -0.4102
  757MPD2    C411237   1.024   3.675   9.498  0.1660  0.0152  0.3220
  757MPD2    C511238   0.987   3.554   9.539  0.2518 -0.1599 -0.4660
  757MPD2     H11239   1.312   3.590   9.353 -0.0949 -0.2514  0.3166
  757MPD2    H111240   0.947   3.750   9.511 -0.4217 -0.9587  2.3084
  757MPD2    H211241   1.052   3.348   9.557 -2.3208  0.6758  0.4210
  757MPD2    H311242   0.893   3.549   9.592  1.0680 -1.5271  0.8716
  757MPD2     N11243   1.175   3.825   9.372  0.7075 -0.2425 -0.4516
  757MPD2    H511244   1.258   3.816   9.315  1.6592 -0.1900  0.9202
  757MPD2    N111245   1.276   3.354   9.452  0.7305 -0.0223 -0.4807
  757MPD2    H711246   1.243   3.266   9.489 -0.6773  0.7470  0.1188
  758MPD2     C11247   2.276   2.532  15.799  0.8546 -0.0525  0.3397
  758MPD2    C111248   2.277   2.419  15.884 -0.0337  0.1733 -0.4107
  758MPD2    C211249   2.196   2.422  15.999 -0.8281 -0.0992 -0.1758
  758MPD2    C311250   2.139   2.546  16.032  0.2612 -0.4330 -0.2824
  758MPD2    C411251   2.138   2.655  15.952  0.5036  0.3083 -0.2339
  758MPD2    C511252   2.209   2.648  15.832  0.2261  0.0438  0.5682
  758MPD2     H11253   2.189   2.334  16.062  2.6056 -0.8420 -0.8366
  758MPD2    H111254   2.082   2.743  15.980 -1.4876 -1.2464  0.7042
  758MPD2    H211255   2.344   2.542  15.715 -0.6274  0.3863 -0.7927
  758MPD2    H311256   2.226   2.735  15.771 -1.2477 -0.5040 -0.6517
  758MPD2     N11257   2.074   2.560  16.158 -0.0051 -0.0285 -0.5465
  758MPD2    H511258   2.022   2.645  16.181  0.7126 -0.0931  1.2633
  758MPD2    N111259   2.347   2.302  15.835 -0.3965 -0.5892 -0.1454
  758MPD2    H711260   2.399   2.314  15.749 -0.9697  0.0072 -0.4059
  759MPD2     C11261   0.540   1.233  10.291  0.0422  0.7013  0.8646
  759MPD2    C111262   0.653   1.163  10.263  0.3222  0.5239  0.1979
  759MPD2    C211263   0.721   1.188  10.145  0.2277 -0.1780 -0.3414
  759MPD2    C311264   0.671   1.280  10.048 -0.0797 -0.6833  0.0737
  759MPD2    C411265   0.556   1.345  10.083 -0.7239 -0.1768  0.0052
  759MPD2    C511266   0.491   1.319  10.200 -0.0370  0.2495 -0.8938
  759MPD2     H11267   0.817   1.140  10.127  1.0042  0.7409  1.3906
  759MPD2    H111268   0.501   1.398  10.006 -0.8117 -0.9077 -0.4343
  759MPD2    H211269   0.483   1.220  10.382 -1.8037 -1.5761 -0.6335
  759MPD2    H311270   0.404   1.380  10.220  0.7548  0.8399  0.7397
  759MPD2     N11271   0.741   1.298   9.925 -0.3172  0.0910  0.6095
  759MPD2    H511272   0.824   1.244   9.907  0.1430  0.6659  0.9967
  759MPD2    N111273   0.709   1.065  10.350  0.1294  0.3581  0.0579
  759MPD2    H711274   0.797   1.019  10.330  1.5815  3.4537 -0.6023
  760MPD2     C11275   0.964   2.971  11.788 -0.1401  0.6780  0.7758
  760MPD2    C111276   1.094   2.969  11.736 -0.2045 -0.4134  0.3209
  760MPD2    C211277   1.133   2.853  11.664  0.4485 -0.0114  0.1887
  760MPD2    C311278   1.050   2.746  11.648 -0.9239 -0.4275  0.1895
  760MPD2    C411279   0.916   2.758  11.689 -0.1035  0.0131 -0.3009
  760MPD2    C511280   0.879   2.874  11.750 -0.2451 -0.0144  0.6101
  760MPD2     H11281   1.239   2.839  11.643  0.5200 -1.2330  1.4190
  760MPD2    H111282   0.843   2.679  11.679  0.5344 -0.8192  1.6744
  760MPD2    H211283   0.923   3.057  11.840  1.1481  0.5284  2.0366
  760MPD2    H311284   0.777   2.874  11.788 -0.5154 -1.6915 -0.1106
  760MPD2     N11285   1.088   2.621  11.593 -0.3005  0.6870  0.7304
  760MPD2    H511286   1.025   2.543  11.610 -1.5753  1.6607  0.5115
  760MPD2    N111287   1.190   3.071  11.761  0.1881  0.2688  0.3727
  760MPD2    H711288   1.285   3.064  11.727 -0.0578  2.2521 -0.6918
  761MPD2     C11289   1.682   1.852  11.286 -0.0933  1.0987 -0.3046
  761MPD2    C111290   1.818   1.846  11.256  0.0878  0.2808 -0.3109
  761MPD2    C211291   1.876   1.962  11.211  0.1087 -0.0493 -0.7590
  761MPD2    C311292   1.823   2.086  11.237 -0.2231  0.3598 -0.2219
  761MPD2    C411293   1.695   2.091  11.284 -0.4015 -0.0663 -0.0197
  761MPD2    C511294   1.620   1.976  11.293  0.3059 -0.5962  0.3161
  761MPD2     H11295   1.976   1.963  11.170  0.2488 -1.4104 -0.4498
  761MPD2    H111296   1.646   2.187  11.295 -1.7691 -0.7504 -0.1830
  761MPD2    H211297   1.617   1.767  11.302  0.4383  0.7086 -0.2101
  761MPD2    H311298   1.516   1.988  11.320  0.7658  2.3423  0.8394
  761MPD2     N11299   1.898   2.201  11.194 -0.1275  0.7230 -0.7528
  761MPD2    H511300   1.989   2.192  11.151 -0.2051  1.4038 -1.0670
  761MPD2    N111301   1.882   1.720  11.249  0.0858  0.0749  0.2019
  761MPD2    H711302   1.835   1.641  11.294 -0.6942  1.4406  1.8138
  762MPD2     C11303   2.367   1.950  11.038  0.2469 -0.0735  0.2058
  762MPD2    C111304   2.418   1.825  11.044  0.5663  0.8667  0.0717
  762MPD2    C211305   2.543   1.806  10.992 -0.0584  0.2071 -0.4317
  762MPD2    C311306   2.620   1.909  10.949  0.9091 -0.3742  0.2166
  762MPD2    C411307   2.568   2.037  10.950 -0.3884  0.4147  0.0552
  762MPD2    C511308   2.441   2.052  10.995  0.5705  0.6100  0.6292
  762MPD2     H11309   2.574   1.704  10.972  1.1070  0.1621  1.5761
  762MPD2    H111310   2.622   2.118  10.902  1.8593 -0.5003  1.0333
  762MPD2    H211311   2.268   1.970  11.078  0.1362 -1.3630  0.5627
  762MPD2    H311312   2.406   2.155  10.998 -0.3786  0.2807  1.0168
  762MPD2     N11313   2.734   1.878  10.883 -0.2890  0.0131  0.0923
  762MPD2    H511314   2.745   1.781  10.855 -2.7114  0.1633 -1.4131
  762MPD2    N111315   2.335   1.712  11.088 -0.3747 -0.7794  0.3630
  762MPD2    H711316   2.244   1.733  11.129  0.1747 -0.1216  1.2243
  763MPD2     C11317   4.232   2.596  16.047  0.7547  0.4654 -0.0848
  763MPD2    C111318   4.111   2.641  16.089  0.2652 -0.6085  0.3066
  763MPD2    C211319   4.101   2.774  16.136 -0.4854 -0.2238 -0.0047
  763MPD2    C311320   4.214   2.853  16.138  0.1315 -0.0299  0.1897
  763MPD2    C411321   4.335   2.801  16.098 -0.2186  0.1840  0.0888
  763MPD2    C511322   4.348   2.671  16.055  0.3265  0.0646  0.2362
  763MPD2     H11323   4.004   2.802  16.174 -0.3107  1.1920 -0.6206
  763MPD2    H111324   4.416   2.873  16.098 -0.6427  0.6584 -0.0802
  763MPD2    H211325   4.239   2.496  16.007 -1.2035  0.1906  0.2453
  763MPD2    H311326   4.444   2.638  16.017 -0.3135 -0.4663 -0.9170
  763MPD2     N11327   4.216   2.988  16.162 -0.1375  0.4026  0.2286
  763MPD2    H511328   4.292   3.044  16.123 -0.8996  0.6263 -0.9052
  763MPD2    N111329   3.992   2.569  16.061 -0.1512 -1.0581 -0.2413
  763MPD2    H711330   3.904   2.615  16.082  0.1055 -0.3307 -0.7737
  764MPD2     C11331   2.056   3.822  17.065 -0.1521  0.6430 -0.1189
  764MPD2    C111332   1.925   3.863  17.085  0.5752  0.1208  0.1360
  764MPD2    C211333   1.883   3.878  17.214 -0.1590 -0.1164 -0.2936
  764MPD2    C311334   1.968   3.854  17.323  0.1567 -0.4146 -0.2336
  764MPD2    C411335   2.098   3.823  17.302 -0.2520  0.1676  0.0369
  764MPD2    C511336   2.136   3.802  17.174 -0.3371 -0.6588  0.5187
  764MPD2     H11337   1.779   3.906  17.230  0.3990  0.6623  1.8878
  764MPD2    H111338   2.168   3.797  17.381 -0.1699  0.4023  0.0410
  764MPD2    H211339   2.101   3.792  16.970  0.8022 -0.6079  0.7265
  764MPD2    H311340   2.240   3.775  17.155  0.0550  0.6500  0.7865
  764MPD2     N11341   1.911   3.858  17.453  0.1242  0.0480 -0.6477
  764MPD2    H511342   1.809   3.853  17.452  0.1362  0.3160 -2.6193
  764MPD2    N111343   1.840   3.880  16.972 -0.1642 -0.9319 -0.7244
  764MPD2    H711344   1.874   3.847  16.882  0.7307 -1.3262 -0.2416
  765MPD2     C11345   1.931   2.149  15.285  0.4531 -0.3831  0.4312
  765MPD2    C111346   1.966   2.140  15.417  0.1497  0.3042  0.8629
  765MPD2    C211347   2.084   2.077  15.456 -0.4051 -0.3489 -0.5706
  765MPD2    C311348   2.162   2.017  15.356 -0.3349 -0.0051 -0.1012
  765MPD2    C411349   2.120   2.015  15.225 -0.1671  0.2311 -0.3262
  765MPD2    C511350   2.006   2.079  15.191 -0.6309  0.0093 -1.0930
  765MPD2     H11351   2.115   2.092  15.559 -1.1661  1.3315 -0.5878
  765MPD2    H111352   2.179   1.962  15.151 -0.7624 -0.2234 -0.4807
  765MPD2    H211353   1.852   2.210  15.245  2.6834  1.9716 -0.3900
  765MPD2    H311354   1.982   2.076  15.085 -2.7603 -0.0771 -0.6084
  765MPD2     N11355   2.279   1.944  15.389  0.6606  1.2089 -0.3346
  765MPD2    H511356   2.279   1.929  15.489  2.0910 -1.1084 -0.6776
  765MPD2    N111357   1.892   2.228  15.501 -0.1231 -0.0868  0.2388
  765MPD2    H711358   1.810   2.271  15.459 -0.1966  1.7031  2.2146
  766MPD2     C11359   1.367   2.510  15.316 -0.3031 -0.5311  0.0852
  766MPD2    C111360   1.502   2.491  15.337  0.5297  0.5420  0.5278
  766MPD2    C211361   1.570   2.438  15.226 -0.2393 -0.3100 -0.6293
  766MPD2    C311362   1.502   2.394  15.114  0.1684  0.1215 -0.7205
  766MPD2    C411363   1.365   2.394  15.106 -0.6594 -0.3949  0.1301
  766MPD2    C511364   1.296   2.454  15.211  0.2929  0.1925  0.3079
  766MPD2     H11365   1.677   2.432  15.244 -0.3235 -1.3480 -0.4330
  766MPD2    H111366   1.300   2.364  15.025  0.9311  1.6197 -1.8819
  766MPD2    H211367   1.305   2.565  15.387 -1.0823  0.7953 -1.6253
  766MPD2    H311368   1.190   2.470  15.198  0.3175 -0.5835 -0.7760
  766MPD2     N11369   1.569   2.348  14.998 -0.6776 -0.4654 -0.1873
  766MPD2    H511370   1.502   2.331  14.923 -0.4161  0.8118 -0.7149
  766MPD2    N111371   1.577   2.514  15.456 -0.2440 -0.4773 -0.1074
  766MPD2    H711372   1.678   2.501  15.454 -0.3376 -1.2532  0.2473
  767MPD2     C11373   1.179   2.639  14.965  0.1534  0.4171 -0.1133
  767MPD2    C111374   1.312   2.640  14.914  0.3856 -0.2081  0.3947
  767MPD2    C211375   1.325   2.592  14.788 -0.5872 -0.0362 -0.1458
  767MPD2    C311376   1.216   2.541  14.718  0.7022  0.0198  0.0583
  767MPD2    C411377   1.093   2.549  14.765  0.3834  0.0434  0.5353
  767MPD2    C511378   1.070   2.596  14.891  0.5272 -0.7948 -0.3074
  767MPD2     H11379   1.422   2.580  14.742 -0.9773  1.0614 -1.2441
  767MPD2    H111380   1.012   2.509  14.706  1.6850 -1.6258 -0.1346
  767MPD2    H211381   1.163   2.672  15.067 -1.1345  0.6916 -0.3967
  767MPD2    H311382   0.972   2.609  14.935  1.4629  0.0638  1.4999
  767MPD2     N11383   1.238   2.471  14.595  0.1809  0.5306 -0.6970
  767MPD2    H511384   1.334   2.458  14.562 -0.1458  0.2586 -1.5340
  767MPD2    N111385   1.409   2.703  14.994 -0.3790 -0.2417  0.0504
  767MPD2    H711386   1.387   2.741  15.085 -0.5537  2.8824 -1.3009
  768MPD2     C11387   2.714   0.746  10.832  0.9684  0.4404  0.0096
  768MPD2    C111388   2.655   0.704  10.947 -0.1644  0.0141 -0.0119
  768MPD2    C211389   2.732   0.634  11.038  0.1507 -0.2165 -0.4327
  768MPD2    C311390   2.866   0.611  11.021 -0.6209 -0.6136  0.6309
  768MPD2    C411391   2.926   0.661  10.905 -0.0545 -0.2176 -0.4049
  768MPD2    C511392   2.851   0.722  10.815 -0.1489  0.9152 -0.8053
  768MPD2     H11393   2.692   0.600  11.133  0.1025 -0.6143 -0.5953
  768MPD2    H111394   3.032   0.652  10.886 -0.3611  0.7670 -2.5448
  768MPD2    H211395   2.662   0.808  10.760  0.8441 -1.6516 -1.7032
  768MPD2    H311396   2.901   0.763  10.728  1.7827  0.2083 -0.0237
  768MPD2     N11397   2.947   0.546  11.113 -0.3878 -0.2059 -0.2389
  768MPD2    H511398   3.046   0.530  11.096 -0.5173 -2.2009  0.8459
  768MPD2    N111399   2.524   0.732  10.978 -0.3318  0.2934  0.1064
  768MPD2    H711400   2.482   0.694  11.063  2.6562 -0.2676  1.3207
  769MPD2     C11401   3.247   3.681  15.067  0.4369  0.1869  0.2525
  769MPD2    C111402   3.174   3.642  15.173  0.2767 -0.4505  0.4661
  769MPD2    C211403   3.213   3.691  15.295 -0.3740  0.0740 -0.5437
  769MPD2    C311404   3.306   3.794  15.307 -0.5366 -1.1775 -0.1397
  769MPD2    C411405   3.370   3.836  15.192  0.2234  0.3657 -0.1699
  769MPD2    C511406   3.330   3.782  15.073 -0.2610 -0.7968 -0.2951
  769MPD2     H11407   3.151   3.653  15.375 -0.4038  2.0085  0.3537
  769MPD2    H111408   3.432   3.925  15.194  2.2244 -1.0137 -1.2449
  769MPD2    H211409   3.220   3.663  14.963  3.3159 -0.6348 -0.3611
  769MPD2    H311410   3.365   3.827  14.981 -1.6294  0.1775 -0.3272
  769MPD2     N11411   3.341   3.838  15.437 -0.4987 -0.3428  0.0192
  769MPD2    H511412   3.278   3.802  15.508  0.0083  0.3512  0.8251
  769MPD2    N111413   3.081   3.538  15.141 -0.1028  0.2638 -0.4036
  769MPD2    H711414   3.087   3.503  15.046 -0.6404  1.4824 -0.8858
  770MPD2     C11415   2.397   2.706  15.159  0.1798  0.6155 -0.1327
  770MPD2    C111416   2.465   2.735  15.045  0.4768  0.0486 -0.7042
  770MPD2    C211417   2.543   2.846  15.041 -0.7177  0.4042  0.6096
  770MPD2    C311418   2.528   2.945  15.138  0.4934  0.1010  0.0029
  770MPD2    C411419   2.447   2.919  15.247 -0.1411 -0.3648  0.1483
  770MPD2    C511420   2.386   2.797  15.258  0.0898  0.0254  0.1494
  770MPD2     H11421   2.609   2.875  14.960  0.6373  2.0397  2.3063
  770MPD2    H111422   2.437   2.993  15.326  1.2393 -1.1226  1.0138
  770MPD2    H211423   2.354   2.608  15.176  2.8889 -0.3739  1.0131
  770MPD2    H311424   2.324   2.782  15.346  0.5759 -2.3540  0.0641
  770MPD2     N11425   2.608   3.064  15.127  0.0253  0.0830 -0.3651
  770MPD2    H511426   2.655   3.084  15.039  1.8096  1.1331  0.8290
  770MPD2    N111427   2.469   2.632  14.949  0.4748  0.2924 -0.5242
  770MPD2    H711428   2.410   2.550  14.955 -1.8526  2.0533  0.4359
  771MPD2     C11429   3.822   1.701  13.636 -0.5550 -0.0715 -0.2320
  771MPD2    C111430   3.808   1.784  13.531 -0.9108  0.3862  0.0857
  771MPD2    C211431   3.763   1.727  13.415 -0.0678 -0.0811  0.2145
  771MPD2    C311432   3.737   1.591  13.404 -0.2389  0.2666 -0.2687
  771MPD2    C411433   3.741   1.512  13.517 -0.7897  0.2232  0.5701
  771MPD2    C511434   3.787   1.573  13.627  0.1796  0.0352 -0.1015
  771MPD2     H11435   3.765   1.793  13.329  0.2154 -1.3834 -0.7687
  771MPD2    H111436   3.723   1.406  13.510  0.2270  0.0533  0.4328
  771MPD2    H211437   3.845   1.742  13.733  2.3821 -0.9120 -0.5770
  771MPD2    H311438   3.778   1.516  13.719 -1.0351  0.6306  0.1582
  771MPD2     N11439   3.700   1.547  13.279 -0.0304 -0.2286 -0.4603
  771MPD2    H511440   3.713   1.611  13.201 -0.2996 -0.6882 -0.8799
  771MPD2    N111441   3.833   1.921  13.534  0.6847 -0.6264  0.5860
  771MPD2    H711442   3.816   1.975  13.450  1.0246 -1.5268 -0.0600
  772MPD2     C11443   3.473   2.553  13.765 -0.4742 -0.1477  0.0514
  772MPD2    C111444   3.498   2.418  13.747  0.1074 -0.2578  0.6473
  772MPD2    C211445   3.392   2.330  13.776  0.1602 -0.3140  0.2765
  772MPD2    C311446   3.266   2.378  13.819  0.0476  0.4139  0.3183
  772MPD2    C411447   3.237   2.513  13.821 -0.5563  0.1007  0.4762
  772MPD2    C511448   3.343   2.597  13.797 -0.1573 -0.0780  0.1647
  772MPD2     H11449   3.420   2.227  13.758  0.5376 -0.5124  1.9417
  772MPD2    H111450   3.139   2.546  13.852 -0.4368  0.2227  0.7231
  772MPD2    H211451   3.548   2.632  13.762 -0.3139 -0.2861  0.4236
  772MPD2    H311452   3.318   2.701  13.810 -1.4297 -0.5772  1.6017
  772MPD2     N11453   3.152   2.285  13.845  0.2927 -0.4942  0.1070
  772MPD2    H511454   3.063   2.328  13.868 -0.7147 -0.6491 -3.5326
  772MPD2    N111455   3.625   2.362  13.710  0.1518 -0.7668  0.2960
  772MPD2    H711456   3.632   2.262  13.691 -2.9080 -1.2110  1.5506
  773MPD2     C11457   2.488   3.139   0.046 -0.6291  0.2365 -0.1747
  773MPD2    C111458   2.514   3.012   0.001 -0.0900 -0.4728  0.8178
  773MPD2    C211459   2.557   2.916   0.089 -0.5446  0.4967  0.0054
  773MPD2    C311460   2.580   2.941   0.217  0.7404  0.1086  0.6049
  773MPD2    C411461   2.552   3.066   0.266 -0.2060  0.6626  1.1738
  773MPD2    C511462   2.508   3.162   0.179  0.3056  0.0041  0.3283
  773MPD2     H11463   2.576   2.816   0.052  2.3298  0.4418  1.6216
  773MPD2    H111464   2.541   3.086   0.372 -4.0707 -1.4680  1.1658
  773MPD2    H211465   2.447   3.214  17.717 -0.7329  1.4669  1.2858
  773MPD2    H311466   2.476   3.253   0.227  0.4990  0.3313 -0.1586
  773MPD2     N11467   2.625   2.837   0.299 -0.3818 -0.4032  0.6923
  773MPD2    H511468   2.649   2.747   0.258 -2.1792 -0.4133 -0.3198
  773MPD2    N111469   2.505   2.976  17.600  0.2710 -0.1887 -0.0464
  773MPD2    H711470   2.522   2.883  17.565  0.5910 -0.4486  0.7887
  774MPD2     C11471   1.878   2.053  12.609 -0.3407 -0.0930  0.1492
  774MPD2    C111472   1.948   2.085  12.728  0.1085  0.3629  0.3698
  774MPD2    C211473   1.979   2.218  12.755 -0.1087  0.0753  0.8325
  774MPD2    C311474   1.951   2.316  12.663 -0.1215 -0.4147 -0.1512
  774MPD2    C411475   1.892   2.283  12.541  0.4686 -0.1806 -0.0220
  774MPD2    C511476   1.856   2.156  12.516 -0.5840  0.0977  0.2314
  774MPD2     H11477   2.044   2.246  12.837  0.5597  1.3062 -0.1112
  774MPD2    H111478   1.878   2.354  12.461  0.5605 -2.1275 -1.7500
  774MPD2    H211479   1.866   1.948  12.588  0.1559 -0.5388  2.1079
  774MPD2    H311480   1.815   2.139  12.418  0.9797 -1.6287 -0.1304
  774MPD2     N11481   1.985   2.449  12.700  0.1166  0.1464 -0.0554
  774MPD2    H511482   2.001   2.479  12.796  0.5054 -1.0725  0.2750
  774MPD2    N111483   1.970   1.976  12.825  0.0586  0.7420 -0.8135
  774MPD2    H711484   1.922   1.889  12.805  1.0581  0.0083  0.0237
  775MPD2     C11485   3.258   3.368  15.572  0.2127 -0.1446  0.4078
  775MPD2    C111486   3.353   3.429  15.650 -0.8350  0.5914 -0.4470
  775MPD2    C211487   3.464   3.490  15.597  0.0328  0.8176  0.1393
  775MPD2    C311488   3.483   3.479  15.460  0.2551  0.4055 -0.3388
  775MPD2    C411489   3.385   3.416  15.381 -0.7676 -0.4263  0.1121
  775MPD2    C511490   3.276   3.354  15.436 -0.4028 -0.0318 -0.1028
  775MPD2     H11491   3.531   3.545  15.661  0.0332  0.5263  0.3894
  775MPD2    H111492   3.393   3.418  15.272  0.5084 -2.6818  0.1622
  775MPD2    H211493   3.168   3.328  15.617  0.1549 -0.6155 -0.1260
  775MPD2    H311494   3.204   3.302  15.375 -1.1131 -0.5912  1.1991
  775MPD2     N11495   3.586   3.546  15.391  0.0264 -0.5190 -0.6439
  775MPD2    H511496   3.578   3.552  15.290 -1.0064  2.4349 -0.3760
  775MPD2    N111497   3.324   3.438  15.789  0.0525 -0.3859 -0.1415
  775MPD2    H711498   3.235   3.403  15.823 -0.0484  1.9803  2.0422
  776MPD2     C11499   1.856   4.091  11.498 -0.0271 -0.3476 -1.1718
  776MPD2    C111500   1.952   4.007  11.456  0.1170 -0.0552  0.3725
  776MPD2    C211501   2.055   4.058  11.379 -0.1812  0.1300 -0.4497
  776MPD2    C311502   2.052   4.191  11.340 -0.1093 -0.4054 -0.4497
  776MPD2    C411503   1.947   4.272  11.383  0.7483 -0.3493 -0.1174
  776MPD2    C511504   1.858   4.219  11.464 -0.2379 -0.6310 -0.0336
  776MPD2     H11505   2.128   3.987  11.340 -1.0511  0.1468 -2.1026
  776MPD2    H111506   1.936   4.368  11.335  1.9844 -1.0363 -1.7838
  776MPD2    H211507   1.766   4.050  11.542 -0.0472  0.0010 -0.8806
  776MPD2    H311508   1.770   4.275  11.490 -0.0272 -0.5177  0.4375
  776MPD2     N11509   2.152   4.236  11.250 -0.0419 -0.4961 -0.7002
  776MPD2    H511510   2.136   4.323  11.201  2.4517  0.5391  0.2858
  776MPD2    N111511   1.921   3.865  11.466  0.1426  1.0628 -0.3189
  776MPD2    H711512   1.836   3.847  11.518  2.1873 -2.2674  1.8096
  777MPD2     C11513   2.925   0.877   0.944  0.0379  0.3113  0.0869
  777MPD2    C111514   2.809   0.891   1.011 -0.0994  0.1332 -0.4444
  777MPD2    C211515   2.701   0.808   0.975  0.4656 -0.3144 -0.3353
  777MPD2    C311516   2.719   0.721   0.873 -0.2742  0.3419 -0.5039
  777MPD2    C411517   2.836   0.714   0.798 -0.8862 -0.4620  0.3429
  777MPD2    C511518   2.934   0.795   0.837 -0.7557  0.9077 -0.1215
  777MPD2     H11519   2.600   0.816   1.013  0.7123  0.0240  0.2384
  777MPD2    H111520   2.848   0.659   0.705  2.1847  1.0549 -0.1263
  777MPD2    H211521   3.017   0.933   0.960 -0.1003  0.5776 -0.0542
  777MPD2    H311522   3.016   0.807   0.767  0.9161 -0.1878  1.6342
  777MPD2     N11523   2.609   0.647   0.836 -0.2199  0.0224 -0.4775
  777MPD2    H511524   2.541   0.632   0.910  1.1428 -1.3634  0.4943
  777MPD2    N111525   2.799   0.992   1.112 -0.0950 -1.0178 -0.3147
  777MPD2    H711526   2.881   1.046   1.138  0.1877 -0.7053 -1.8169
  778MPD2     C11527   3.854   1.291  14.312  0.4260  0.2394 -0.3649
  778MPD2    C111528   3.904   1.312  14.439 -0.0495 -0.0774  0.4796
  778MPD2    C211529   4.006   1.408  14.458  0.3434 -0.4027 -0.5375
  778MPD2    C311530   4.064   1.469  14.346 -0.9763 -0.3006 -0.3780
  778MPD2    C411531   4.016   1.442  14.222 -0.3928  0.8569  0.6504
  778MPD2    C511532   3.904   1.359  14.203  0.0503  0.3762 -0.2471
  778MPD2     H11533   4.049   1.444  14.551 -1.3828  2.0088 -0.6760
  778MPD2    H111534   4.053   1.489  14.131  0.5922 -1.3141 -0.0672
  778MPD2    H211535   3.774   1.223  14.288 -0.5828  0.8345  1.3112
  778MPD2    H311536   3.864   1.342  14.103  2.3502 -2.6539 -0.6520
  778MPD2     N11537   4.174   1.559  14.370  0.0092  0.3211 -0.5351
  778MPD2    H511538   4.205   1.579  14.465  1.8693  1.4104 -1.3600
  778MPD2    N111539   3.848   1.253  14.557  0.1705 -0.3293  0.1296
  778MPD2    H711540   3.881   1.278  14.650  0.3944  1.2002 -0.3483
  779MPD2     C11541   3.188   0.362  13.775  0.2526  0.3518  0.3574
  779MPD2    C111542   3.282   0.409  13.867 -0.1069  0.2584 -0.7330
  779MPD2    C211543   3.337   0.529  13.848  1.2989 -0.3035 -0.5214
  779MPD2    C311544   3.301   0.612  13.746  0.0003 -0.3489 -0.1991
  779MPD2    C411545   3.209   0.569  13.661  0.7873 -0.5403  0.5772
  779MPD2    C511546   3.143   0.450  13.672  0.0385  0.8906 -0.2905
  779MPD2     H11547   3.403   0.562  13.928 -0.7088  1.7944  0.2600
  779MPD2    H111548   3.187   0.623  13.569  0.4471 -0.8081  0.4990
  779MPD2    H211549   3.132   0.271  13.787  1.4667 -0.1260  2.4012
  779MPD2    H311550   3.070   0.415  13.599 -1.4193  1.4109  0.9120
  779MPD2     N11551   3.370   0.735  13.732 -0.0862 -0.2885  0.2803
  779MPD2    H511552   3.434   0.763  13.806 -2.0735  1.2797  1.4086
  779MPD2    N111553   3.315   0.338  13.986 -0.4223  0.4670 -0.3285
  779MPD2    H711554   3.396   0.376  14.035 -0.7265  1.2539 -0.4301
  780MPD2     C11555   3.444   0.271   1.109  0.2549  0.2861 -0.2956
  780MPD2    C111556   3.345   0.212   1.031  0.0859  0.2909 -0.8178
  780MPD2    C211557   3.334   0.244   0.901 -0.1681 -0.2982  0.1650
  780MPD2    C311558   3.419   0.334   0.842 -0.2824  0.0789  0.2194
  780MPD2    C411559   3.520   0.395   0.915  0.0034 -0.0453  0.1688
  780MPD2    C511560   3.530   0.367   1.054  0.1375  0.4510 -0.2788
  780MPD2     H11561   3.258   0.192   0.844 -2.0436  3.7452 -0.9682
  780MPD2    H111562   3.593   0.464   0.873 -0.2322  0.3116  0.3480
  780MPD2    H211563   3.464   0.232   1.207 -1.5802  1.3576  0.5045
  780MPD2    H311564   3.609   0.410   1.113  0.7207 -0.8498 -0.1060
  780MPD2     N11565   3.388   0.365   0.710  0.8838 -0.0690  0.4895
  780MPD2    H511566   3.324   0.309   0.653  0.6034 -0.1346  0.8731
  780MPD2    N111567   3.249   0.131   1.098  0.1301 -0.0798  0.3001
  780MPD2    H711568   3.269   0.112   1.196  0.4829 -1.2330  0.0133
  781MPD2     C11569   0.146   2.028  11.670  0.2770 -0.7113  0.7551
  781MPD2    C111570   0.054   2.129  11.699 -0.2280 -0.4829  0.4132
  781MPD2    C211571   4.719   2.197  11.597 -0.4376 -0.3152  0.1819
  781MPD2    C311572   0.028   2.181  11.472  0.1597 -0.0687  0.0709
  781MPD2    C411573   0.130   2.098  11.440  0.2827 -0.4638  0.4040
  781MPD2    C511574   0.187   2.020  11.539  0.1821 -0.3397 -0.3425
  781MPD2     H11575   4.631   2.255  11.621 -0.5484  0.0717 -1.1464
  781MPD2    H111576   0.143   2.068  11.337 -1.9904  0.0176 -0.0412
  781MPD2    H211577   0.194   1.960  11.739 -1.2816 -1.7794  0.7886
  781MPD2    H311578   0.259   1.943  11.516  1.2420  0.6218 -0.2089
  781MPD2     N11579   4.707   2.236  11.356 -0.4019 -0.3423 -0.2110
  781MPD2    H511580   0.009   2.205  11.267  0.6133  0.2542  0.0025
  781MPD2    N111581   0.001   2.145  11.829  0.5614 -0.3278 -0.2365
  781MPD2    H711582   4.650   2.198  11.838  0.4524 -0.0648 -2.7270
  782MPD2     C11583   2.557   2.930  10.254 -0.1094 -0.1535 -0.0846
  782MPD2    C111584   2.642   2.941  10.366  0.6078  0.7437  0.2889
  782MPD2    C211585   2.685   3.075  10.396 -0.4746  0.0608 -0.3478
  782MPD2    C311586   2.644   3.187  10.320 -0.0178  0.2457  0.2262
  782MPD2    C411587   2.552   3.169  10.216 -0.5458  0.6454  0.1521
  782MPD2    C511588   2.505   3.043  10.187  0.7799 -0.0376 -0.1716
  782MPD2     H11589   2.765   3.094  10.467 -2.6901  1.2914  1.8232
  782MPD2    H111590   2.510   3.249  10.156  1.0405  1.6455  0.3687
  782MPD2    H211591   2.518   2.835  10.218 -0.6013 -0.6635  1.8067
  782MPD2    H311592   2.428   3.028  10.112  0.3842 -1.1883  0.4616
  782MPD2     N11593   2.731   3.299  10.334  0.2164 -0.1847 -0.0138
  782MPD2    H511594   2.807   3.295  10.401  0.0927  1.0789  0.2172
  782MPD2    N111595   2.693   2.819  10.423 -0.6056 -0.0693 -0.7224
  782MPD2    H711596   2.660   2.731  10.385  0.5579 -0.3935 -0.9955
  783MPD2     C11597   2.307   2.165  10.671  0.1852 -0.0640  0.4510
  783MPD2    C111598   2.346   2.265  10.755  0.4291 -0.5330 -0.1060
  783MPD2    C211599   2.467   2.320  10.740  0.0589 -0.1727 -0.0068
  783MPD2    C311600   2.552   2.282  10.639 -0.1336 -0.1228 -0.5752
  783MPD2    C411601   2.517   2.181  10.554  0.6736 -1.1108  0.6735
  783MPD2    C511602   2.392   2.121  10.571  0.1364  0.4555  0.5979
  783MPD2     H11603   2.496   2.412  10.789  0.1626  0.3595 -1.0522
  783MPD2    H111604   2.583   2.151  10.473 -0.8834 -1.9848 -0.2705
  783MPD2    H211605   2.213   2.112  10.682  0.2311 -0.1835  0.2789
  783MPD2    H311606   2.374   2.044  10.497 -0.6289  0.6200  0.6110
  783MPD2     N11607   2.668   2.364  10.624  0.9503  0.2010  0.5555
  783MPD2    H511608   2.684   2.442  10.687  1.2746 -1.6375  2.7768
  783MPD2    N111609   2.249   2.315  10.850  0.3137  0.0582 -0.6334
  783MPD2    H711610   2.162   2.264  10.859 -0.2273  0.8114 -1.6636
  784MPD2     C11611   0.833   3.306   0.761 -0.3747 -0.9865  0.7540
  784MPD2    C111612   0.805   3.389   0.866 -0.7352  0.8481 -0.4748
  784MPD2    C211613   0.684   3.465   0.856 -0.1786 -1.3980  0.6714
  784MPD2    C311614   0.596   3.470   0.747 -0.3891  0.7391  0.1271
  784MPD2    C411615   0.636   3.385   0.643  0.3047 -0.5871 -0.0126
  784MPD2    C511616   0.750   3.302   0.649 -0.7271  0.0242 -0.3091
  784MPD2     H11617   0.650   3.538   0.928  1.1712  1.0384 -1.2003
  784MPD2    H111618   0.586   3.386   0.547  0.6787  0.6764 -0.1836
  784MPD2    H211619   0.924   3.247   0.751 -0.0734  0.1799 -3.2216
  784MPD2    H311620   0.787   3.252   0.560  0.2742 -0.1943  0.2303
  784MPD2     N11621   0.465   3.534   0.751  0.3128 -0.3103 -0.1046
  784MPD2    H511622   0.443   3.597   0.827  3.5600 -1.4955  1.7903
  784MPD2    N111623   0.883   3.394   0.985 -0.2224 -0.1827  0.2064
  784MPD2    H711624   0.860   3.450   1.066 -0.2085  0.6018 -0.3305
  785MPD2     C11625   4.497   2.530  10.159 -0.2117  0.4294  0.0092
  785MPD2    C111626   4.454   2.656  10.129 -0.4126 -0.2116  0.1019
  785MPD2    C211627   4.348   2.672  10.046 -0.3143  0.2483  0.2572
  785MPD2    C311628   4.292   2.569   9.970  0.9250 -0.4863 -0.1123
  785MPD2    C411629   4.350   2.443   9.992  0.1426  0.9084  0.1791
  785MPD2    C511630   4.448   2.430  10.080  0.3623 -0.5720 -0.2883
  785MPD2     H11631   4.320   2.772  10.015  0.3640 -0.1807 -1.7650
  785MPD2    H111632   4.323   2.348   9.946 -1.1392  1.1775  0.3715
  785MPD2    H211633   4.576   2.503  10.229  1.2836 -0.8525 -2.1623
  785MPD2    H311634   4.475   2.328  10.107 -1.0134 -0.6537  0.7486
  785MPD2     N11635   4.199   2.596   9.869 -0.6336  0.3588 -0.0129
  785MPD2    H511636   4.174   2.693   9.855 -0.3882  0.4100 -0.1001
  785MPD2    N111637   4.509   2.770  10.185  0.1567  0.0977  0.2979
  785MPD2    H711638   4.456   2.851  10.155  2.1110  0.7826 -1.3835
  786MPD2     C11639   4.103   0.041  14.408 -0.7676  0.2683  0.0828
  786MPD2    C111640   4.212   4.691  14.391  0.1361 -0.0975 -0.0799
  786MPD2    C211641   4.334   4.732  14.440 -0.4086 -0.4387  0.2379
  786MPD2    C311642   4.344   0.114  14.516  0.2988  0.0450  0.1162
  786MPD2    C411643   4.233   0.204  14.524  0.2647  0.1022 -0.0448
  786MPD2    C511644   4.111   0.163  14.477  0.0838  0.0194  0.0946
  786MPD2     H11645   4.414   4.661  14.424 -0.8467 -0.6995 -0.7815
  786MPD2    H111646   4.234   0.299  14.576  1.9614  0.0377  0.0311
  786MPD2    H211647   4.004   0.026  14.367 -0.6569 -0.6166  0.1398
  786MPD2    H311648   4.025   0.227  14.494 -0.7686 -1.1585  0.2337
  786MPD2     N11649   4.468   0.148  14.583  0.1749  0.2928  0.0818
  786MPD2    H511650   4.477   0.237  14.632  3.3401  0.2921 -0.5457
  786MPD2    N111651   4.200   4.570  14.323  0.5698 -0.2139 -0.3884
  786MPD2    H711652   4.285   4.513  14.320  0.4598 -0.2106 -2.8618
  787MPD2     C11653   4.426   4.115  14.667  1.0231 -0.2419  0.5365
  787MPD2    C111654   4.404   4.053  14.543  0.1670  0.0501 -0.7383
  787MPD2    C211655   4.481   3.941  14.508  0.0440  0.8258  0.6132
  787MPD2    C311656   4.578   3.891  14.594 -0.3306 -0.2189 -0.4179
  787MPD2    C411657   4.602   3.960  14.709  0.4532  0.8908 -0.5872
  787MPD2    C511658   4.525   4.067  14.748 -0.4693  0.2027  0.4476
  787MPD2     H11659   4.460   3.882  14.419  0.4530  1.9439 -0.2206
  787MPD2    H111660   4.677   3.923  14.778  1.7276  1.4991 -1.6366
  787MPD2    H211661   4.380   4.210  14.690  2.9141  0.9531 -0.5555
  787MPD2    H311662   4.531   4.116  14.844 -0.8634 -1.8865  1.5396
  787MPD2     N11663   4.651   3.777  14.553  0.0737 -0.3306  0.0828
  787MPD2    H511664   4.639   3.750  14.456 -1.3615 -1.0947  0.4657
  787MPD2    N111665   4.311   4.117  14.457 -0.5641 -0.4664 -0.0137
  787MPD2    H711666   4.278   4.207  14.489 -0.8416 -0.9056  0.9508
  788MPD2     C11667   1.634   3.382   0.893 -0.3446  0.2041 -0.1172
  788MPD2    C111668   1.658   3.296   0.784 -0.1834  0.0719 -0.0495
  788MPD2    C211669   1.680   3.342   0.650  0.2450  0.2426 -0.4379
  788MPD2    C311670   1.668   3.474   0.629  0.3452 -0.1857 -0.2503
  788MPD2    C411671   1.642   3.565   0.731  0.9578 -0.6917 -0.2466
  788MPD2    C511672   1.630   3.519   0.862  0.0212  0.1842 -0.1571
  788MPD2     H11673   1.688   3.270   0.570 -2.2537  0.0044 -0.4661
  788MPD2    H111674   1.640   3.672   0.716 -0.5165 -0.4495  1.7496
  788MPD2    H211675   1.615   3.359   0.997  1.1026 -0.0586  0.0982
  788MPD2    H311676   1.594   3.584   0.941 -0.6823 -0.1892 -0.1715
  788MPD2     N11677   1.659   3.520   0.491  0.1021  0.1157  0.2886
  788MPD2    H511678   1.628   3.615   0.471 -0.3370 -0.2263 -0.6456
  788MPD2    N111679   1.651   3.152   0.796  0.3321  0.1261  0.4574
  788MPD2    H711680   1.672   3.092   0.717 -1.5795  1.8826 -1.3857
  789MPD2     C11681   1.710   2.533  16.243  0.0130  0.0295  0.7831
  789MPD2    C111682   1.688   2.504  16.377 -0.1336 -0.4997 -0.3095
  789MPD2    C211683   1.646   2.599  16.461  0.5093 -0.1169 -0.3488
  789MPD2    C311684   1.630   2.726  16.414  0.1467  0.4191  0.2308
  789MPD2    C411685   1.668   2.755  16.287  0.2370  0.4705 -0.5751
  789MPD2    C511686   1.700   2.658  16.195 -0.3869  0.3207 -0.3789
  789MPD2     H11687   1.619   2.580  16.564 -1.0622 -2.8049 -1.2436
  789MPD2    H111688   1.658   2.857  16.253  2.7841  0.8497 -0.1839
  789MPD2    H211689   1.737   2.455  16.173 -1.3291 -1.8177  2.3100
  789MPD2    H311690   1.729   2.680  16.094 -1.1444  1.5984 -0.3129
  789MPD2     N11691   1.577   2.832  16.487 -0.3812  0.0111 -0.3603
  789MPD2    H511692   1.567   2.919  16.436 -1.0632  1.5551  2.4384
  789MPD2    N111693   1.706   2.382  16.439  0.6615 -0.3960  0.0826
  789MPD2    H711694   1.661   2.356  16.526 -0.7487 -0.0799 -0.5439
  790MPD2     C11695   2.605   4.233  13.591 -0.5358  0.2375 -0.0131
  790MPD2    C111696   2.518   4.133  13.629  0.1105 -0.4996 -0.2779
  790MPD2    C211697   2.437   4.072  13.531 -0.5930 -0.6512 -0.0084
  790MPD2    C311698   2.454   4.096  13.394 -0.0674  0.3462  0.0411
  790MPD2    C411699   2.544   4.193  13.360  0.2566  0.4321 -0.3084
  790MPD2    C511700   2.620   4.258  13.456  0.0427  0.2507 -0.3336
  790MPD2     H11701   2.376   3.987  13.558  1.1744 -1.9523 -0.0734
  790MPD2    H111702   2.567   4.218  13.257  0.8139 -0.2007 -0.3462
  790MPD2    H211703   2.654   4.301  13.660  1.2008 -0.3889 -0.6279
  790MPD2    H311704   2.693   4.332  13.427  1.7957 -0.1907  2.9726
  790MPD2     N11705   2.402   3.998  13.303 -0.1925  0.9814 -0.3581
  790MPD2    H511706   2.335   3.934  13.345 -0.5268  1.2092 -0.5470
  790MPD2    N111707   2.503   4.105  13.774 -0.8075 -0.1239 -0.4258
  790MPD2    H711708   2.569   4.152  13.835 -0.9602  1.1368 -1.2237
  791MPD2     C11709   1.826   3.910  13.091  0.5460 -0.0187  0.1624
  791MPD2    C111710   1.886   3.802  13.031 -0.0333  0.0498  0.1112
  791MPD2    C211711   1.816   3.679  13.006  0.3619  0.4557  0.0517
  791MPD2    C311712   1.677   3.674  13.036  1.0925 -0.1965 -0.1630
  791MPD2    C411713   1.618   3.790  13.095 -0.0105  0.2194  0.7770
  791MPD2    C511714   1.690   3.906  13.115  0.2883 -0.7392 -0.4996
  791MPD2     H11715   1.868   3.598  12.956  1.5144  2.0794 -1.4042
  791MPD2    H111716   1.514   3.788  13.126 -0.0643 -1.0033  0.5347
  791MPD2    H211717   1.881   3.998  13.122  2.0542 -0.1624 -2.0823
  791MPD2    H311718   1.647   3.995  13.158  1.9459 -0.6194  0.8988
  791MPD2     N11719   1.605   3.560  12.995  0.5037  0.1101  0.7502
  791MPD2    H511720   1.654   3.492  12.938  2.6018  2.7550 -0.5710
  791MPD2    N111721   2.024   3.814  13.010  0.6579 -0.0122 -0.4669
  791MPD2    H711722   2.070   3.902  13.032  0.2609 -0.2159  1.2213
  792MPD2     C11723   2.762   3.695  11.114  0.7964 -0.4828 -0.3093
  792MPD2    C111724   2.749   3.761  10.992 -0.8352 -0.0631  0.2183
  792MPD2    C211725   2.679   3.700  10.891  0.1008  0.6541 -0.3666
  792MPD2    C311726   2.605   3.588  10.915  0.0295 -0.7423  0.1256
  792MPD2    C411727   2.616   3.520  11.035  0.0972 -0.6764  0.3785
  792MPD2    C511728   2.700   3.573  11.134  0.5496 -0.0189 -0.5634
  792MPD2     H11729   2.666   3.739  10.790 -1.8614 -1.6493 -1.0140
  792MPD2    H111730   2.582   3.418  11.049  1.5829 -1.1607  0.4672
  792MPD2    H211731   2.828   3.731  11.192  1.6503  0.6278 -1.5514
  792MPD2    H311732   2.714   3.527  11.232  2.9973  2.0459  0.0486
  792MPD2     N11733   2.528   3.518  10.822  0.4778  0.5556 -0.1312
  792MPD2    H511734   2.493   3.427  10.850  1.3487 -0.7897 -3.3157
  792MPD2    N111735   2.834   3.876  10.975  0.1311  0.2549 -0.1875
  792MPD2    H711736   2.888   3.908  11.055 -1.1253 -1.5079  1.3590
  793MPD2     C11737   1.805   3.782  10.170 -0.4123  0.7464 -0.1956
  793MPD2    C111738   1.934   3.827  10.139  0.0090  0.0543  0.3763
  793MPD2    C211739   2.044   3.762  10.186  0.0359 -0.7070 -0.2461
  793MPD2    C311740   2.029   3.652  10.266 -0.4095  0.6144 -0.2646
  793MPD2    C411741   1.903   3.606  10.293  0.1435  0.2817 -0.4444
  793MPD2    C511742   1.797   3.669  10.248  0.7377 -0.1276  0.2459
  793MPD2     H11743   2.146   3.797  10.172 -0.5451  0.6513 -1.0884
  793MPD2    H111744   1.871   3.524  10.356  2.1575  0.6362  1.0502
  793MPD2    H211745   1.721   3.845  10.145 -0.2666  1.7889  1.9126
  793MPD2    H311746   1.700   3.631  10.276  0.1246  1.4066  0.1981
  793MPD2     N11747   2.142   3.584  10.325  0.6151  0.0219 -0.0589
  793MPD2    H511748   2.230   3.634  10.336 -1.2725  3.1866  0.5116
  793MPD2    N111749   1.952   3.943  10.067 -0.2144 -0.0202  0.0675
  793MPD2    H711750   2.042   3.988  10.086 -0.6640  1.5827 -1.6361
  794MPD2     C11751   2.741   3.093  16.752  0.0767  0.4389  0.1807
  794MPD2    C111752   2.616   3.052  16.783 -0.2773  0.3308 -0.2481
  794MPD2    C211753   2.522   3.035  16.681 -0.0120  0.2970  0.4161
  794MPD2    C311754   2.547   3.067  16.549 -0.1584 -0.2555 -0.2981
  794MPD2    C411755   2.674   3.096  16.519  0.3351  0.1847 -0.5080
  794MPD2    C511756   2.772   3.112  16.619  0.1126 -0.4776 -0.9568
  794MPD2     H11757   2.424   2.998  16.711  0.8770 -0.6180  2.1517
  794MPD2    H111758   2.699   3.116  16.416 -1.0371  0.3485 -0.8057
  794MPD2    H211759   2.806   3.118  16.835 -0.6976  0.2258  0.8532
  794MPD2    H311760   2.871   3.148  16.596  0.3747 -0.3347  0.4468
  794MPD2     N11761   2.458   3.076  16.453  0.4145  0.2032  0.2252
  794MPD2    H511762   2.499   3.083  16.361  2.6885 -0.5951  1.1681
  794MPD2    N111763   2.558   3.032  16.910 -0.7229  0.6842 -0.0872
  794MPD2    H711764   2.461   3.004  16.904 -1.4271  2.8827  0.8472
  795MPD2     C11765   0.144   0.838  13.812 -0.1694 -0.3957 -0.1789
  795MPD2    C111766   0.154   0.739  13.720  0.4182 -0.1042 -0.0944
  795MPD2    C211767   0.248   0.636  13.727  0.2437  0.0257  0.4045
  795MPD2    C311768   0.336   0.637  13.837  0.0112  0.0052 -0.0835
  795MPD2    C411769   0.317   0.733  13.930  0.3479 -0.0904  0.5434
  795MPD2    C511770   0.223   0.835  13.917  0.4304 -0.5010  0.2796
  795MPD2     H11771   0.268   0.570  13.643  0.5446 -0.3506  0.7782
  795MPD2    H111772   0.390   0.746  14.009  0.4736 -0.5270  0.4978
  795MPD2    H211773   0.081   0.927  13.808 -0.6845 -0.8538 -2.1996
  795MPD2    H311774   0.217   0.910  13.994 -0.6733 -1.4532  1.1239
  795MPD2     N11775   0.455   0.561  13.857 -0.0179  0.1749 -0.5556
  795MPD2    H511776   0.510   0.577  13.940  0.0096  2.8761 -1.1024
  795MPD2    N111777   0.079   0.738  13.600  0.7801 -0.5660  0.5440
  795MPD2    H711778   0.101   0.664  13.533 -2.2796 -0.2550 -0.8019
  796MPD2     C11779   4.298   1.852  15.711 -0.2698 -0.1157 -0.2842
  796MPD2    C111780   4.404   1.935  15.748 -0.3791  0.4986 -0.4790
  796MPD2    C211781   4.388   2.071  15.729  1.1937 -0.5789  0.0039
  796MPD2    C311782   4.267   2.121  15.672  0.8048 -0.2477 -0.8714
  796MPD2    C411783   4.168   2.034  15.640 -0.2327 -0.2747 -0.9279
  796MPD2    C511784   4.184   1.898  15.652 -0.3571  0.2940 -0.3122
  796MPD2     H11785   4.457   2.143  15.773  0.3434  0.3999 -0.2609
  796MPD2    H111786   4.071   2.057  15.597 -0.0492  2.3481  0.1071
  796MPD2    H211787   4.306   1.744  15.712  2.6751  0.1068  0.8484
  796MPD2    H311788   4.105   1.831  15.619 -1.5144  1.3767  0.2472
  796MPD2     N11789   4.260   2.266  15.675  0.0784 -0.2824  0.3961
  796MPD2    H511790   4.348   2.309  15.702  1.3460 -2.3664 -0.3741
  796MPD2    N111791   4.506   1.874  15.821 -0.5524 -0.0376 -0.3463
  796MPD2    H711792   4.482   1.777  15.839 -1.0571  0.0634 -0.4594
  797MPD2     C11793   0.248   2.220  17.080  0.0220  0.5555  0.1438
  797MPD2    C111794   0.265   2.356  17.083  0.1167  0.3067  0.3454
  797MPD2    C211795   0.197   2.434  16.997 -0.2985 -0.1754  0.0436
  797MPD2    C311796   0.105   2.380  16.907  0.4718 -0.6967 -0.4374
  797MPD2    C411797   0.088   2.243  16.902  0.1347 -0.1861 -0.0414
  797MPD2    C511798   0.156   2.169  16.991 -0.2956  0.1213 -0.3706
  797MPD2     H11799   0.211   2.541  17.003 -0.0428 -0.0623 -2.5861
  797MPD2    H111800   0.030   2.182  16.834  0.6083  0.0196 -0.6293
  797MPD2    H211801   0.299   2.151  17.147 -1.3081 -0.9690 -0.4142
  797MPD2    H311802   0.146   2.061  16.982  0.4857  0.2898 -3.3437
  797MPD2     N11803   0.048   2.465  16.805 -0.0965 -0.5822 -0.1177
  797MPD2    H511804   0.008   2.419  16.723 -0.4523 -0.5159  0.0187
  797MPD2    N111805   0.355   2.418  17.174 -0.1331  0.8322 -0.6859
  797MPD2    H711806   0.367   2.518  17.165 -3.7838  1.5030  1.9034
  798MPD2     C11807   0.143   3.096  17.101  0.3256  0.7499 -0.8052
  798MPD2    C111808   0.192   3.001  17.012 -0.7061  0.0970 -0.0924
  798MPD2    C211809   0.307   2.926  17.049  0.4438  0.1207 -0.2741
  798MPD2    C311810   0.370   2.937  17.172  1.1237  0.1977  0.0203
  798MPD2    C411811   0.314   3.032  17.259  0.1206  0.1538  0.4641
  798MPD2    C511812   0.205   3.104  17.219 -0.4155 -0.6336  0.8474
  798MPD2     H11813   0.325   2.839  16.987  0.5020 -0.3712  0.4281
  798MPD2    H111814   0.339   3.041  17.364  2.9324  0.4796 -0.2211
  798MPD2    H211815   0.052   3.146  17.069 -0.5448 -0.3319 -0.0040
  798MPD2    H311816   0.160   3.175  17.287 -0.5042  0.6608 -0.5610
  798MPD2     N11817   0.458   2.832  17.207  0.2531  0.1775  0.1657
  798MPD2    H511818   0.471   2.758  17.139 -1.6427 -0.2177  0.2334
  798MPD2    N111819   0.126   2.977  16.892  0.4836  0.8474 -0.7634
  798MPD2    H711820   0.029   3.006  16.889 -0.2339 -1.3974  1.0250
  799MPD2     C11821   4.088   3.630  14.045  0.2392  0.1112  0.1797
  799MPD2    C111822   4.030   3.525  13.981  0.0793 -0.3809  0.3907
  799MPD2    C211823   3.982   3.532  13.850  0.7035 -0.6322  0.0173
  799MPD2    C311824   4.023   3.640  13.773  0.7786 -0.2804 -0.0641
  799MPD2    C411825   4.079   3.748  13.843  0.1855 -0.6052  0.7703
  799MPD2    C511826   4.115   3.741  13.974 -0.6166 -0.5891 -0.0317
  799MPD2     H11827   3.922   3.452  13.809 -0.8644 -0.0073  1.0926
  799MPD2    H111828   4.093   3.837  13.782 -1.0438 -0.9149  0.0324
  799MPD2    H211829   4.113   3.634  14.151 -0.8774  0.6186  0.4231
  799MPD2    H311830   4.159   3.831  14.015 -0.3593 -0.8332  0.2302
  799MPD2     N11831   4.009   3.653  13.635  0.1696 -0.7412 -0.1727
  799MPD2    H511832   4.051   3.738  13.598  0.5350 -1.3020 -1.0454
  799MPD2    N111833   4.013   3.398  14.043  0.0315 -0.3815 -0.3245
  799MPD2    H711834   3.962   3.326  13.994 -0.4604  0.4302 -1.0017
  800MPD2     C11835   0.174   4.516  13.664 -0.2547 -0.0550  0.3699
  800MPD2    C111836   0.294   4.486  13.729 -0.3032 -0.0730 -0.3167
  800MPD2    C211837   0.373   4.378  13.678 -0.4545  0.6596  0.3390
  800MPD2    C311838   0.333   4.313  13.562  0.7727  0.1174 -0.0233
  800MPD2    C411839   0.216   4.353  13.499 -0.6758 -0.0612  0.0166
  800MPD2    C511840   0.136   4.448  13.548  0.3335  0.4381 -0.5827
  800MPD2     H11841   0.470   4.353  13.719 -1.0785 -1.4805  0.4630
  800MPD2    H111842   0.168   4.298  13.419 -0.2021  0.3236 -0.5248
  800MPD2    H211843   0.107   4.590  13.706  0.7189 -0.7195  3.1255
  800MPD2    H311844   0.057   4.490  13.488  0.4574  0.9590 -0.3805
  800MPD2     N11845   0.415   4.203  13.522  1.2871  0.7228  0.3945
  800MPD2    H511846   0.493   4.174  13.580 -1.1955 -0.3130  3.2519
  800MPD2    N111847   0.341   4.562  13.840  1.2507 -0.3808 -0.0247
  800MPD2    H711848   0.286   4.642  13.869  0.7834 -0.9371  0.6332
  801MPD2     C11849   0.263   0.446  14.154 -0.4033 -0.6689  0.2848
  801MPD2    C111850   0.223   0.316  14.142 -0.1264  0.3749  0.4652
  801MPD2    C211851   0.085   0.278  14.141  0.0467  0.2460 -0.0512
  801MPD2    C311852   4.719   0.372  14.146  0.2708 -0.2929  0.2930
  801MPD2    C411853   0.026   0.501  14.164  0.3374  0.1742  0.2669
  801MPD2    C511854   0.161   0.534  14.165  0.3048  0.4080 -0.0518
  801MPD2     H11855   0.065   0.172  14.126  1.0556 -0.2688  2.2681
  801MPD2    H111856   4.697   0.585  14.190  0.8421  0.8283 -0.6070
  801MPD2    H211857   0.364   0.484  14.162 -1.3187  2.0985 -1.2626
  801MPD2    H311858   0.180   0.640  14.181 -2.5212  0.4642  2.9326
  801MPD2     N11859   4.579   0.350  14.146  0.5349  0.1845  0.0420
  801MPD2    H511860   4.518   0.430  14.137 -0.5971 -0.6391  0.2965
  801MPD2    N111861   0.322   0.214  14.124  0.9566 -0.0716  0.0722
  801MPD2    H711862   0.284   0.128  14.087 -0.2633  0.2317  0.6103
  802MPD2     C11863   3.754   1.543   0.135  0.0967  0.4265 -0.2295
  802MPD2    C111864   3.798   1.466   0.242 -0.6603  0.4875 -0.0530
  802MPD2    C211865   3.904   1.378   0.234 -0.0904  0.3869  0.0493
  802MPD2    C311866   3.963   1.370   0.114  0.6942 -0.7571  0.2088
  802MPD2    C411867   3.923   1.445   0.008 -0.1208  0.6847 -0.2533
  802MPD2    C511868   3.819   1.533   0.016  0.5972  0.1708 -0.0735
  802MPD2     H11869   3.939   1.312   0.312 -0.3701  1.1979  0.8556
  802MPD2    H111870   3.964   1.416  17.650 -0.0407  0.3105 -0.1048
  802MPD2    H211871   3.665   1.603   0.135 -0.9103 -1.0590 -2.3949
  802MPD2    H311872   3.791   1.587  17.664 -0.4806 -0.0419  0.1337
  802MPD2     N11873   4.072   1.281   0.103 -0.5905 -0.4325 -0.1062
  802MPD2    H511874   4.078   1.221   0.185  0.4371 -1.1225 -0.6772
  802MPD2    N111875   3.735   1.475   0.371 -0.5789  0.1964 -0.1334
  802MPD2    H711876   3.773   1.413   0.442 -2.1890 -1.3045 -0.5719
  803MPD2     C11877   0.516   3.465  11.934  0.5790 -0.1482 -0.1556
  803MPD2    C111878   0.474   3.591  11.955 -0.4233  0.8187 -0.0428
  803MPD2    C211879   0.447   3.623  12.087  0.0845  0.1886 -0.1042
  803MPD2    C311880   0.458   3.525  12.188  0.3573 -0.0875 -0.4954
  803MPD2    C411881   0.497   3.398  12.157 -0.6151  0.3223 -0.4287
  803MPD2    C511882   0.527   3.365  12.030 -0.5806  0.1961 -0.0997
  803MPD2     H11883   0.399   3.715  12.117  1.3600  1.1145 -0.8953
  803MPD2    H111884   0.517   3.329  12.239  2.0958 -0.1080 -1.4388
  803MPD2    H211885   0.538   3.424  11.836 -0.6625  1.8310 -1.2540
  803MPD2    H311886   0.572   3.269  12.006  1.1701  0.6021  1.6157
  803MPD2     N11887   0.428   3.549  12.323  0.3718  0.2373  0.3579
  803MPD2    H511888   0.419   3.480  12.397  1.4440  0.0240  0.2972
  803MPD2    N111889   0.465   3.689  11.854  0.3557 -0.6658 -0.1221
  803MPD2    H711890   0.457   3.782  11.895  0.0571 -0.2950 -1.0190
  804MPD2     C11891   0.242   1.090  17.234 -0.4638  0.2433  0.2208
  804MPD2    C111892   0.305   0.974  17.257 -0.3710  0.0705 -0.3288
  804MPD2    C211893   0.433   0.978  17.322  0.1130  0.3144  0.7311
  804MPD2    C311894   0.499   1.093  17.345  0.1158  0.5047  0.3154
  804MPD2    C411895   0.429   1.209  17.322 -0.5848  0.1508 -0.1142
  804MPD2    C511896   0.305   1.211  17.263 -0.2286  0.3024 -0.3888
  804MPD2     H11897   0.482   0.882  17.338 -2.1640 -0.4392  3.0079
  804MPD2    H111898   0.476   1.302  17.354 -0.3131 -0.4700  1.2771
  804MPD2    H211899   0.137   1.089  17.206 -0.4013  1.3139 -0.0238
  804MPD2    H311900   0.257   1.306  17.244 -1.4965 -0.2511  0.0629
  804MPD2     N11901   0.624   1.097  17.408 -0.1107  0.4833  0.2749
  804MPD2    H511902   0.650   1.013  17.460  1.3218  0.0621 -1.1262
  804MPD2    N111903   0.240   0.850  17.214 -0.3277  0.5525 -0.5936
  804MPD2    H711904   0.161   0.865  17.153 -0.3871 -0.7336 -0.8312
  805MPD2     C11905   4.059   3.496  15.457  0.6703 -0.7329 -0.7667
  805MPD2    C111906   4.144   3.576  15.391 -0.2175 -0.9479  0.2024
  805MPD2    C211907   4.249   3.626  15.457 -0.3629  0.3314 -0.4316
  805MPD2    C311908   4.264   3.616  15.591 -0.8819 -0.7246  0.5311
  805MPD2    C411909   4.166   3.556  15.667 -0.2817 -0.6370 -0.9040
  805MPD2    C511910   4.072   3.489  15.593 -0.2529 -0.8036 -0.2885
  805MPD2     H11911   4.328   3.671  15.398  1.7756  2.5350  4.1159
  805MPD2    H111912   4.176   3.524  15.770  0.5679 -0.4025 -0.9168
  805MPD2    H211913   3.966   3.462  15.412 -1.2674  0.6179  2.2316
  805MPD2    H311914   3.994   3.429  15.639 -0.0056 -0.5341  0.4860
  805MPD2     N11915   4.392   3.650  15.648 -0.1452 -0.1561  0.5447
  805MPD2    H511916   4.470   3.679  15.589 -1.3032 -2.1619 -1.9818
  805MPD2    N111917   4.129   3.603  15.247 -0.3671  0.2014 -0.5067
  805MPD2    H711918   4.201   3.656  15.198  0.0227 -0.2519 -0.4278
  806MPD2     C11919   4.336   2.978   0.289 -0.0219  0.4631  0.1159
  806MPD2    C111920   4.306   3.103   0.333 -0.3474  0.0198  0.4306
  806MPD2    C211921   4.355   3.214   0.253 -0.3299 -0.7017 -0.5231
  806MPD2    C311922   4.419   3.192   0.133  0.0480 -0.7163  0.8903
  806MPD2    C411923   4.455   3.060   0.100  0.0573 -0.2216  0.0899
  806MPD2    C511924   4.405   2.967   0.176 -0.1638  0.0826 -0.1946
  806MPD2     H11925   4.341   3.315   0.290  0.0755 -0.1090 -1.9563
  806MPD2    H111926   4.499   3.038   0.003  0.4995 -0.5005  0.3531
  806MPD2    H211927   4.308   2.880   0.327  0.7550  0.6265  1.0883
  806MPD2    H311928   4.430   2.865   0.151 -1.1384 -0.8697  2.7855
  806MPD2     N11929   4.463   3.304   0.062 -0.0841  0.4824 -0.8599
  806MPD2    H511930   4.437   3.398   0.091 -0.6934 -0.0733  0.3759
  806MPD2    N111931   4.247   3.114   0.467 -0.4818  0.3060 -1.0937
  806MPD2    H711932   4.233   3.022   0.508 -0.0789 -0.0954 -1.8484
  807MPD2     C11933   4.160   2.697   1.097 -0.2132  0.4817  0.9197
  807MPD2    C111934   4.162   2.825   1.140  0.0070 -0.0746  1.1413
  807MPD2    C211935   4.142   2.846   1.275  0.1956  0.4830 -0.4804
  807MPD2    C311936   4.139   2.742   1.365 -0.2678  0.1354  0.7001
  807MPD2    C411937   4.148   2.614   1.320 -0.8991 -0.2401 -0.5011
  807MPD2    C511938   4.147   2.588   1.184 -0.2971  0.7352 -0.2097
  807MPD2     H11939   4.128   2.949   1.305 -1.4502 -0.0421  0.5247
  807MPD2    H111940   4.141   2.531   1.390 -0.9701  0.2597  0.0865
  807MPD2    H211941   4.166   2.681   0.990 -2.4001 -1.2075  1.0409
  807MPD2    H311942   4.141   2.487   1.144  1.0314 -0.1945  1.9141
  807MPD2     N11943   4.086   2.748   1.498 -0.5539 -0.0450 -0.0356
  807MPD2    H511944   4.059   2.658   1.536 -1.4833  0.1920 -0.1459
  807MPD2    N111945   4.163   2.944   1.061  0.2528  0.2191 -0.0095
  807MPD2    H711946   4.120   3.028   1.097 -1.8043 -0.6299 -0.5001
  808MPD2     C11947   4.623   4.299   9.646 -0.3682 -0.4256 -0.8197
  808MPD2    C111948   4.691   4.280   9.764 -0.1241  1.1465  0.2370
  808MPD2    C211949   0.070   4.355   9.798 -0.1982  0.1008  0.2800
  808MPD2    C311950   0.109   4.444   9.695  0.6337  0.0186 -0.0434
  808MPD2    C411951   0.056   4.450   9.571  1.2067  0.7166  0.0359
  808MPD2    C511952   4.679   4.377   9.545  0.5409  0.4654 -0.5937
  808MPD2     H11953   0.124   4.352   9.892  0.9646 -0.3354 -0.3978
  808MPD2    H111954   0.078   4.525   9.496  1.4617  1.9192  1.3168
  808MPD2    H211955   4.533   4.244   9.619 -2.4495  1.5992  2.0406
  808MPD2    H311956   4.616   4.400   9.460 -1.9113  0.5308  1.2334
  808MPD2     N11957   0.206   4.543   9.721  0.5106  0.7754 -0.1094
  808MPD2    H511958   0.256   4.585   9.643 -0.1887 -0.3879 -1.1989
  808MPD2    N111959   4.651   4.173   9.850  0.1402 -0.4982  0.1294
  808MPD2    H711960   4.564   4.128   9.824  0.1361 -1.9808  2.7365
  809MPD2     C11961   0.903   4.513   9.273  0.6875 -1.2616 -0.1361
  809MPD2    C111962   0.964   4.587   9.374  0.1282 -0.1767 -0.0381
  809MPD2    C211963   0.889   4.605   9.489 -0.0724  0.2225  0.0241
  809MPD2    C311964   0.760   4.556   9.496 -0.1579  0.4759 -0.2626
  809MPD2    C411965   0.704   4.485   9.392  0.4560  0.8303 -0.0175
  809MPD2    C511966   0.777   4.464   9.282  0.3207  0.3669  0.7427
  809MPD2     H11967   0.939   4.639   9.579  0.2581 -2.7140  0.9653
  809MPD2    H111968   0.602   4.447   9.394  0.8467 -0.1666  1.2982
  809MPD2    H211969   0.970   4.474   9.198 -2.5839 -3.0739 -2.0837
  809MPD2    H311970   0.744   4.388   9.212  0.1062  1.0427  0.0981
  809MPD2     N11971   0.672   4.580   9.604  0.1280  0.4049  0.1815
  809MPD2    H511972   0.577   4.549   9.588 -0.0776  1.4245 -0.5619
  809MPD2    N111973   1.105   4.624   9.375 -0.0163 -0.2580  0.8742
  809MPD2    H711974   1.140   4.673   9.456  0.3775 -0.7606  1.0076
  810MPD2     C11975   4.534   3.774  10.591  0.6405 -0.5625 -0.4036
  810MPD2    C111976   4.467   3.815  10.475  0.0455  0.2269 -0.5927
  810MPD2    C211977   4.497   3.939  10.421 -0.4926 -0.1837 -0.5587
  810MPD2    C311978   4.591   4.023  10.476 -0.3322 -0.3266 -0.5379
  810MPD2    C411979   4.670   3.976  10.580  0.5085 -0.1573 -0.0076
  810MPD2    C511980   4.641   3.849  10.636 -0.0240 -0.0689  0.5607
  810MPD2     H11981   4.432   3.965  10.339  0.5176  0.1229 -1.2585
  810MPD2    H111982   0.007   4.041  10.630 -1.2649 -1.1339  3.8306
  810MPD2    H211983   4.509   3.680  10.639  2.0716  0.1786  1.8392
  810MPD2    H311984   4.673   3.822  10.736  0.3293 -0.5614  0.3150
  810MPD2     N11985   4.619   4.159  10.425  0.4141  0.4463  0.7040
  810MPD2    H511986   4.681   4.220  10.477 -0.1786 -0.4036  2.4265
  810MPD2    N111987   4.367   3.730  10.419 -0.2412 -0.2889 -0.4386
  810MPD2    H711988   4.337   3.656  10.481 -1.5602 -0.0564 -0.7957
  811MPD2     C11989   3.624   3.747   9.892 -0.3023 -0.2289 -0.3248
  811MPD2    C111990   3.759   3.779   9.912 -0.2373  0.1588  0.5558
  811MPD2    C211991   3.811   3.890   9.842  0.2952  0.3549 -0.7422
  811MPD2    C311992   3.726   3.963   9.754  0.0813  0.2617 -0.2739
  811MPD2    C411993   3.594   3.918   9.737 -0.1095 -0.0991  0.6430
  811MPD2    C511994   3.545   3.823   9.815 -0.7042  0.3412  0.5610
  811MPD2     H11995   3.903   3.935   9.878 -0.7881  2.1931 -0.2963
  811MPD2    H111996   3.519   3.980   9.689  0.2335 -0.1146  0.1012
  811MPD2    H211997   3.583   3.661   9.943 -0.2489 -1.2333 -1.9753
  811MPD2    H311998   3.441   3.792   9.811 -0.9061  1.0160  0.4885
  811MPD2     N11999   3.780   4.081   9.700  0.8272  0.2059  0.1824
  811MPD2    H512000   3.877   4.106   9.717  0.1794  1.9871  1.2454
  811MPD2    N112001   3.828   3.701  10.003 -0.0239 -0.9899  0.0005
  811MPD2    H712002   3.788   3.619  10.047 -0.4169 -0.5079  0.5523
  812MPD2     C12003   3.177   3.689  11.763  0.7133 -0.9586  0.5152
  812MPD2    C112004   3.288   3.762  11.787  0.5907  0.3987  0.1352
  812MPD2    C212005   3.360   3.742  11.905  0.0625  0.2839  0.2893
  812MPD2    C312006   3.320   3.656  12.001  0.2872  0.1568 -0.0148
  812MPD2    C412007   3.200   3.584  11.971  0.0289 -0.2268 -0.0954
  812MPD2    C512008   3.137   3.602  11.853  0.4422 -0.1910  0.1726
  812MPD2     H12009   3.447   3.803  11.927  1.8394 -1.3431 -2.3017
  812MPD2    H112010   3.155   3.510  12.037 -0.7555 -0.4710 -0.8950
  812MPD2    H212011   3.112   3.704  11.677 -0.0485  0.1958  1.3032
  812MPD2    H312012   3.038   3.561  11.835  0.7826 -1.5518  1.4293
  812MPD2     N12013   3.392   3.647  12.122  0.3667 -0.2622 -0.3341
  812MPD2    H512014   3.479   3.699  12.133 -0.3082  0.6135  0.9383
  812MPD2    N112015   3.334   3.858  11.690  0.2042  0.4793  0.4918
  812MPD2    H712016   3.267   3.871  11.614  2.1583  2.2255 -0.9339
  813MPD2     C12017   2.031   1.213  12.997  0.0236  0.6530  0.2457
  813MPD2    C112018   2.110   1.150  13.092  0.2116  0.8012  0.1475
  813MPD2    C212019   2.066   1.131  13.220 -0.4289  0.4630 -0.1478
  813MPD2    C312020   1.941   1.181  13.257  0.4727 -0.3962 -1.3296
  813MPD2    C412021   1.853   1.226  13.156 -0.7289 -0.9490 -0.2308
  813MPD2    C512022   1.903   1.247  13.030  0.0660  0.1166 -0.0561
  813MPD2     H12023   2.124   1.089  13.301 -1.4994  1.6982  1.2589
  813MPD2    H112024   1.751   1.261  13.166 -0.4951 -1.2620  3.3518
  813MPD2    H212025   2.053   1.234  12.894 -1.5536  0.1920 -0.1861
  813MPD2    H312026   1.838   1.308  12.968 -0.4357 -0.2876  0.0800
  813MPD2     N12027   1.900   1.174  13.395 -0.7585 -0.3734 -0.6219
  813MPD2    H512028   1.970   1.171  13.469 -0.9303  1.1479 -0.3935
  813MPD2    N112029   2.242   1.107  13.049  0.3289 -0.4818 -0.4067
  813MPD2    H712030   2.269   1.121  12.952  1.8561  3.3175  0.5473
  814MPD2     C12031   2.980   2.247  12.418 -0.6011 -0.3094 -0.3171
  814MPD2    C112032   3.041   2.266  12.291  0.2371 -0.0863 -0.3622
  814MPD2    C212033   3.108   2.380  12.259  0.0658 -0.4342 -0.4413
  814MPD2    C312034   3.140   2.475  12.354  0.2982  0.4790  0.6397
  814MPD2    C412035   3.088   2.457  12.488 -0.6432 -0.7749  0.1425
  814MPD2    C512036   3.007   2.349  12.509 -0.2502  0.4008  0.3020
  814MPD2     H12037   3.154   2.389  12.162  0.1531 -0.0787 -0.3661
  814MPD2    H112038   3.091   2.530  12.568 -2.2930  0.1723 -0.6625
  814MPD2    H212039   2.909   2.172  12.449  1.1738 -1.1710  1.6534
  814MPD2    H312040   2.971   2.331  12.610 -0.4438 -0.3244  0.1042
  814MPD2     N12041   3.220   2.591  12.347  0.2856 -0.2346 -0.4124
  814MPD2    H512042   3.231   2.647  12.431 -1.7004  2.4135 -1.9366
  814MPD2    N112043   3.025   2.173  12.189 -0.1060  0.6348  0.3078
  814MPD2    H712044   3.055   2.199  12.096  0.6813 -2.3238 -0.2822
  815MPD2     C12045   3.624   4.699  12.220  0.3232  0.4421 -0.3988
  815MPD2    C112046   3.633   4.619  12.107  0.2034  0.6021  0.2518
  815MPD2    C212047   3.558   4.506  12.099  0.1782  0.0681  0.3482
  815MPD2    C312048   3.460   4.480  12.194  0.8826 -0.5235  0.6298
  815MPD2    C412049   3.450   4.560  12.302 -0.0484  0.3515  0.0124
  815MPD2    C512050   3.528   4.675  12.310  0.4719 -0.3289  0.1081
  815MPD2     H12051   3.565   4.439  12.015 -3.9907 -1.0675  0.9087
  815MPD2    H112052   3.381   4.537  12.382 -0.2984  2.0322  0.2833
  815MPD2    H212053   3.691   0.048  12.239  1.2200 -0.2917 -0.2986
  815MPD2    H312054   3.523   0.003  12.398 -0.1380  0.7584 -0.7011
  815MPD2     N12055   3.360   4.383  12.156  0.8457 -0.4569 -0.2579
  815MPD2    H512056   3.375   4.338  12.066 -3.4576 -0.4332 -0.9749
  815MPD2    N112057   3.743   4.629  12.013  0.3168 -0.5682 -0.2744
  815MPD2    H712058   3.741   4.557  11.941 -0.2100  0.2754 -1.0972
  816MPD2     C12059   3.158   4.477  17.312 -0.0195 -0.4134  0.1582
  816MPD2    C112060   3.226   4.594  17.350  0.4698 -1.2899  0.1123
  816MPD2    C212061   3.344   4.620  17.281 -0.4567 -0.0814  0.2919
  816MPD2    C312062   3.394   4.545  17.180 -0.2651  0.1699 -0.1058
  816MPD2    C412063   3.322   4.429  17.146 -0.2655 -0.0103 -0.4363
  816MPD2    C512064   3.208   4.400  17.215 -0.4351 -0.2167 -0.4823
  816MPD2     H12065   3.390   4.715  17.305 -1.5732  0.7178 -0.7645
  816MPD2    H112066   3.361   4.365  17.066  1.7653  1.3689 -0.5512
  816MPD2    H212067   3.061   4.461  17.359 -0.0832  0.0982  0.2095
  816MPD2    H312068   3.150   4.311  17.191  0.7391 -0.3538 -2.7986
  816MPD2     N12069   3.494   4.602  17.098 -0.3211 -0.2609  0.3478
  816MPD2    H512070   3.521   4.697  17.119 -1.6717  0.5986 -1.9018
  816MPD2    N112071   3.159   4.681  17.443  0.0657  0.0747  0.4039
  816MPD2    H712072   3.066   4.653  17.470 -0.2166 -0.7913 -1.4854
  817MPD2     C12073   3.783   2.004   9.836  0.8230 -0.1282 -0.1447
  817MPD2    C112074   3.725   1.894   9.901  0.4926  0.5089 -0.0268
  817MPD2    C212075   3.629   1.926   9.994 -0.2039 -0.5671 -0.7973
  817MPD2    C312076   3.578   2.055  10.000 -0.2898 -0.2945 -0.1387
  817MPD2    C412077   3.638   2.153   9.923  0.3103 -0.4471  0.6707
  817MPD2    C512078   3.742   2.131   9.844  0.3367  1.0124 -0.0127
  817MPD2     H12079   3.584   1.844  10.049  0.6945  1.1436  2.4477
  817MPD2    H112080   3.602   2.255   9.911 -0.2188 -0.9978 -2.3897
  817MPD2    H212081   3.867   1.982   9.772 -0.2164 -1.4990 -1.0315
  817MPD2    H312082   3.789   2.200   9.776 -1.0847  2.1376  0.1576
  817MPD2     N12083   3.463   2.075  10.085  0.0137  0.0617 -0.2787
  817MPD2    H512084   3.432   1.993  10.137  0.4165 -0.7985 -1.3896
  817MPD2    N112085   3.769   1.764   9.884  0.1742  0.1757 -0.0019
  817MPD2    H712086   3.725   1.693   9.943  1.4844  0.9276  1.8833
  818MPD2     C12087   1.858   1.520   9.935  0.0915 -0.3968 -1.0477
  818MPD2    C112088   1.945   1.543  10.044 -0.0546 -0.0507  0.0788
  818MPD2    C212089   2.082   1.509  10.034  0.2909 -0.0073  0.2242
  818MPD2    C312090   2.132   1.442   9.926  0.5656 -0.0958 -0.0141
  818MPD2    C412091   2.048   1.412   9.826  0.0522 -0.7097 -0.1886
  818MPD2    C512092   1.917   1.451   9.826 -0.5739 -0.1690  0.5141
  818MPD2     H12093   2.139   1.530  10.124 -3.0438  1.1229  2.0372
  818MPD2    H112094   2.088   1.363   9.737 -0.8680 -3.1031  0.7101
  818MPD2    H212095   1.756   1.556   9.934 -0.3454 -1.6652 -2.2354
  818MPD2    H312096   1.864   1.431   9.734  0.4726  1.0771 -0.3672
  818MPD2     N12097   2.268   1.411   9.897 -0.6665 -0.6007  0.2775
  818MPD2    H512098   2.293   1.365   9.810 -1.1947 -0.1838 -0.0928
  818MPD2    N112099   1.898   1.597  10.166  0.2936  0.1933 -0.5936
  818MPD2    H712100   1.974   1.631  10.224  0.3404  0.7192 -0.9617
  819MPD2     C12101   0.200   3.621  15.609 -0.3861 -0.2323  0.2715
  819MPD2    C112102   0.151   3.498  15.626  0.6643  0.5643  0.6970
  819MPD2    C212103   0.220   3.402  15.694 -0.4871 -0.0426  0.3034
  819MPD2    C312104   0.356   3.434  15.722 -0.0416 -0.7460  0.6782
  819MPD2    C412105   0.398   3.563  15.708 -0.2786 -0.4197 -0.0889
  819MPD2    C512106   0.317   3.662  15.658  0.4637 -0.1542  0.9034
  819MPD2     H12107   0.186   3.299  15.694 -0.6986  0.0202  2.4334
  819MPD2    H112108   0.503   3.582  15.730 -0.3174 -0.6696  0.3021
  819MPD2    H212109   0.141   3.691  15.550  0.0119 -0.0619  0.0781
  819MPD2    H312110   0.363   3.758  15.638  0.5790 -0.6225 -1.0251
  819MPD2     N12111   0.434   3.332  15.784 -0.2684  0.5331  0.8418
  819MPD2    H512112   0.401   3.238  15.763  2.0886  0.2787 -1.7918
  819MPD2    N112113   0.030   3.472  15.557 -0.6015  0.6012  1.2142
  819MPD2    H712114   4.730   3.540  15.491  1.1613  0.5438  0.2157
  820MPD2     C12115   4.439   3.451  14.677 -0.2881  0.0699  0.1789
  820MPD2    C112116   4.411   3.556  14.772  0.2796 -0.3624  0.4525
  820MPD2    C212117   4.449   3.546  14.900  0.7911 -0.2279 -0.5265
  820MPD2    C312118   4.491   3.422  14.945  0.3433  1.3229 -0.6223
  820MPD2    C412119   4.525   3.324  14.853  0.4621  0.0188 -0.1494
  820MPD2    C512120   4.501   3.341  14.721 -0.1971 -0.0289  0.2169
  820MPD2     H12121   4.449   3.625  14.975  0.5306 -2.0005  1.3239
  820MPD2    H112122   4.549   3.221  14.876  0.3138 -0.2905 -1.3767
  820MPD2    H212123   4.414   3.458  14.572  1.3680 -2.5669 -0.3802
  820MPD2    H312124   4.519   3.255  14.657 -1.1994  0.0080 -0.1160
  820MPD2     N12125   4.469   3.375  15.079  0.0865 -0.1256 -0.1880
  820MPD2    H512126   4.468   3.276  15.102 -0.2648  0.0304  0.4610
  820MPD2    N112127   4.330   3.657  14.719  0.1746  0.0274 -0.1887
  820MPD2    H712128   4.292   3.643  14.625 -0.0869 -1.4152  0.1255
  821MPD2     C12129   0.820   4.303  12.849 -0.1483 -0.6158  0.0130
  821MPD2    C112130   0.824   4.359  12.979  0.0089 -0.1382 -0.1824
  821MPD2    C212131   0.874   4.484  12.991 -0.3317  1.2926 -0.1807
  821MPD2    C312132   0.935   4.543  12.880 -0.4887  0.2005 -0.0962
  821MPD2    C412133   0.921   4.486  12.754  0.5058 -0.0644  0.2545
  821MPD2    C512134   0.859   4.368  12.737 -0.3180 -0.0637 -0.2902
  821MPD2     H12135   0.882   4.524  13.091 -0.5044  0.1467  0.2998
  821MPD2    H112136   0.972   4.542  12.677 -1.6017 -0.1260 -1.1888
  821MPD2    H212137   0.782   4.202  12.842  1.5902 -1.1017 -2.4585
  821MPD2    H312138   0.859   4.338  12.633  2.0192  1.9820 -0.8947
  821MPD2     N12139   1.016   4.658  12.891  0.1258 -0.0964 -0.5699
  821MPD2    H512140   1.048   4.705  12.807 -0.6465 -1.6662 -1.7601
  821MPD2    N112141   0.770   4.290  13.096 -0.4228  0.3332 -0.0548
  821MPD2    H712142   0.780   4.344  13.181 -1.6869  0.1270  0.2318
  822MPD2     C12143   0.999   0.118  15.677  0.2802 -0.3187  0.0125
  822MPD2    C112144   0.940   0.072  15.790 -0.1377 -0.6036 -0.6205
  822MPD2    C212145   0.875   0.161  15.870  0.6513 -0.4048 -0.9480
  822MPD2    C312146   0.850   0.290  15.830  1.1829 -0.0710 -0.3403
  822MPD2    C412147   0.883   0.332  15.711  0.4368  0.1981 -0.0037
  822MPD2    C512148   0.959   0.243  15.634  0.1356 -0.3413 -0.0711
  822MPD2     H12149   0.836   0.127  15.965  0.7256  0.6724 -0.5295
  822MPD2    H112150   0.870   0.431  15.668  0.0526 -0.3859 -1.2274
  822MPD2    H212151   1.075   0.060  15.628  0.6791  0.0417  0.2018
  822MPD2    H312152   1.010   0.286  15.549 -0.1551  0.5208  0.1885
  822MPD2     N12153   0.788   0.372  15.930  0.0781 -0.1941  0.5040
  822MPD2    H512154   0.759   0.327  16.017 -0.3332  3.4270  2.2172
  822MPD2    N112155   0.981   4.679  15.834  0.3868  0.2420  0.7428
  822MPD2    H712156   0.974   4.667  15.935  0.0803  0.5879  0.7618
  823MPD2     C12157   0.450   0.634  16.692 -0.0351  0.2131  0.5375
  823MPD2    C112158   0.484   0.552  16.590 -0.1190  0.5693 -0.0624
  823MPD2    C212159   0.487   0.412  16.621 -0.4531  0.1479  0.3781
  823MPD2    C312160   0.479   0.377  16.754 -0.6082  0.2430  1.1703
  823MPD2    C412161   0.442   0.468  16.856 -0.2915 -0.2739 -0.2475
  823MPD2    C512162   0.423   0.600  16.822 -0.7750  0.9725  0.9748
  823MPD2     H12163   0.497   0.336  16.544  1.2115  0.6271  0.1121
  823MPD2    H112164   0.431   0.438  16.960  1.1203 -0.7537 -0.2428
  823MPD2    H212165   0.427   0.739  16.675  4.3668  0.9754 -0.8294
  823MPD2    H312166   0.387   0.675  16.892 -1.5756  1.1099  0.4103
  823MPD2     N12167   0.513   0.244  16.794  0.1662 -0.8067 -0.3374
  823MPD2    H512168   0.491   0.225  16.891 -2.3828  0.1551 -0.7493
  823MPD2    N112169   0.524   0.596  16.464  0.2494  0.6943 -0.3924
  823MPD2    H712170   0.520   0.696  16.451  1.1830  0.6094 -1.2900
  824MPD2     C12171   1.147   3.802  15.813  0.4871 -0.0694  0.3622
  824MPD2    C112172   1.251   3.895  15.789 -0.9702 -0.1184 -0.2592
  824MPD2    C212173   1.378   3.850  15.771  0.0692  0.1568  0.7986
  824MPD2    C312174   1.410   3.713  15.748  0.0672 -0.2550 -0.1667
  824MPD2    C412175   1.305   3.631  15.743 -0.2503  0.0885 -0.0087
  824MPD2    C512176   1.182   3.673  15.783  0.2028  0.4013 -0.1524
  824MPD2     H12177   1.451   3.930  15.757  2.1877 -1.9384 -0.0924
  824MPD2    H112178   1.315   3.526  15.718  0.5059 -0.4109  2.3539
  824MPD2    H212179   1.049   3.846  15.828  0.5763 -0.1746  1.2269
  824MPD2    H312180   1.102   3.600  15.774  0.9521 -0.4782  0.2871
  824MPD2     N12181   1.544   3.680  15.736 -0.5615  0.2767 -0.0292
  824MPD2    H512182   1.609   3.756  15.756  0.3852 -0.9021  1.3993
  824MPD2    N112183   1.233   4.034  15.799  0.0816  0.3122  0.6819
  824MPD2    H712184   1.315   4.090  15.817  1.8466 -1.6619 -1.1389
  825MPD2     C12185   2.254   3.865  15.273  0.6254  0.3573 -0.0644
  825MPD2    C112186   2.148   3.900  15.356 -0.9923  0.6928 -0.6586
  825MPD2    C212187   2.131   4.039  15.381 -1.0675 -0.1016  0.2720
  825MPD2    C312188   2.225   4.124  15.339 -0.4123 -0.0163  0.6480
  825MPD2    C412189   2.335   4.080  15.267  0.5286 -0.5946  0.1822
  825MPD2    C512190   2.347   3.951  15.235 -0.2515 -0.5945  0.2994
  825MPD2     H12191   2.043   4.064  15.439  1.4663  0.2264  3.9798
  825MPD2    H112192   2.410   4.148  15.229 -0.9852  1.3057  0.5954
  825MPD2    H212193   2.262   3.767  15.227 -1.1493  1.0951 -1.9639
  825MPD2    H312194   2.431   3.916  15.176  1.5777  3.7797  0.3231
  825MPD2     N12195   2.207   4.262  15.347  0.0647 -0.1693 -0.0636
  825MPD2    H512196   2.275   4.321  15.300 -2.2349  1.8799 -0.8105
  825MPD2    N112197   2.058   3.797  15.400 -0.3423 -0.3809 -0.2523
  825MPD2    H712198   2.092   3.705  15.377  0.2902  0.0194 -0.9303
  826MPD2     C12199   1.331   3.745  13.410 -0.2907 -0.3883  0.2701
  826MPD2    C112200   1.437   3.819  13.444  0.4066 -0.2280  0.1807
  826MPD2    C212201   1.424   3.948  13.476  0.1101  0.0503  0.7414
  826MPD2    C312202   1.299   4.008  13.492  0.4493  0.1068  1.5770
  826MPD2    C412203   1.184   3.938  13.461  0.3339  0.3187 -0.0499
  826MPD2    C512204   1.205   3.809  13.419 -0.0154 -0.3278 -0.4967
  826MPD2     H12205   1.515   4.005  13.490  0.3956 -0.1589 -0.2018
  826MPD2    H112206   1.079   3.964  13.463  0.9531  2.7698  0.2535
  826MPD2    H212207   1.336   3.640  13.382  1.8884  0.1093 -1.2417
  826MPD2    H312208   1.122   3.742  13.398  0.6532 -2.2095  2.8404
  826MPD2     N12209   1.290   4.133  13.553 -0.2899  0.0992 -0.2283
  826MPD2    H512210   1.373   4.163  13.604 -1.5463  1.1550  1.2035
  826MPD2    N112211   1.567   3.751  13.447 -0.6109  0.5941  0.3379
  826MPD2    H712212   1.566   3.651  13.427  0.8155  0.1585  2.4363
  827MPD2     C12213   2.295   0.421  10.188 -0.3695 -0.6036 -0.2752
  827MPD2    C112214   2.274   0.461  10.315 -0.1751  0.0948 -0.0969
  827MPD2    C212215   2.145   0.472  10.365  0.5737  0.0509 -0.0576
  827MPD2    C312216   2.035   0.443  10.291 -0.0237 -0.8501 -0.4908
  827MPD2    C412217   2.060   0.399  10.158  0.0131 -0.6705 -0.3714
  827MPD2    C512218   2.187   0.389  10.110  0.4738 -0.4211 -0.3045
  827MPD2     H12219   2.132   0.496  10.470 -0.2895  1.3609 -0.4703
  827MPD2    H112220   1.980   0.368  10.091 -0.5982 -0.6830  0.3546
  827MPD2    H212221   2.396   0.408  10.152  0.0774  0.5240  0.5964
  827MPD2    H312222   2.207   0.371  10.005 -1.2060  0.1857 -0.7155
  827MPD2     N12223   1.909   0.477  10.353  0.8645 -0.7075 -0.0152
  827MPD2    H512224   1.921   0.522  10.443 -0.5156  1.6891 -1.0465
  827MPD2    N112225   2.391   0.478  10.393  0.0285 -0.0387  0.1593
  827MPD2    H712226   2.477   0.449  10.346 -0.8312 -0.6031 -1.0500
  828MPD2     C12227   1.335   4.699  12.128 -0.4738 -0.7835  0.1425
  828MPD2    C112228   1.207   4.697  12.088  0.7042  0.1045  0.3041
  828MPD2    C212229   1.161   4.587  12.002 -0.2711 -0.2988 -0.4639
  828MPD2    C312230   1.257   4.490  11.965  0.0185  0.0523  0.5687
  828MPD2    C412231   1.380   4.490  12.020  0.5605  0.1356 -0.5803
  828MPD2    C512232   1.415   4.593  12.103  0.4003 -0.3593  0.2165
  828MPD2     H12233   1.060   4.593  11.965 -0.5566  3.9396  1.0474
  828MPD2    H112234   1.443   4.404  12.003 -0.0744 -0.7996  1.7945
  828MPD2    H212235   1.372   0.048  12.186 -2.7696  0.2578  0.0777
  828MPD2    H312236   1.514   4.605  12.145  0.2479  2.1099 -0.1515
  828MPD2     N12237   1.229   4.388  11.870 -0.8622  0.2061  1.2040
  828MPD2    H512238   1.302   4.319  11.856 -1.4420  0.0610 -1.0476
  828MPD2    N112239   1.109   0.056  12.128  0.0812 -0.1987  0.0546
  828MPD2    H712240   1.019   0.057  12.081  0.0339  0.0447  0.1492
  829MPD2     C12241   0.436   0.536  11.773 -0.1922  1.2409 -0.8982
  829MPD2    C112242   0.387   0.465  11.884 -0.6191  0.1561 -0.6852
  829MPD2    C212243   0.474   0.400  11.968 -0.0336  0.8350 -0.1755
  829MPD2    C312244   0.612   0.401  11.946  0.0603  0.0362  0.2675
  829MPD2    C412245   0.660   0.470  11.834  0.1199 -0.1173  0.0293
  829MPD2    C512246   0.573   0.540  11.755  0.2841 -0.0960 -0.3804
  829MPD2     H12247   0.446   0.342  12.055  0.9329 -0.2754 -0.5933
  829MPD2    H112248   0.765   0.482  11.812  0.1584  0.5561  0.5803
  829MPD2    H212249   0.376   0.600  11.709 -1.7831  1.9969  1.3539
  829MPD2    H312250   0.603   0.599  11.669  0.0127  0.3710 -0.1530
  829MPD2     N12251   0.701   0.344  12.039  0.2015  0.0456 -0.3091
  829MPD2    H512252   0.798   0.366  12.021  0.3393 -0.7290 -0.5253
  829MPD2    N112253   0.252   0.490  11.916 -0.4428 -0.0976 -0.4085
  829MPD2    H712254   0.204   0.541  11.842 -0.2594 -0.5932 -0.8631
  830MPD2     C12255   1.205   3.066  15.909  0.8432 -0.3183  0.5715
  830MPD2    C112256   1.098   3.082  15.824 -0.2409  0.0176  0.1572
  830MPD2    C212257   1.125   3.145  15.706 -0.2996  0.1436 -0.3219
  830MPD2    C312258   1.261   3.190  15.671 -0.6617  0.6930  0.2957
  830MPD2    C412259   1.353   3.175  15.764 -0.7968  0.2540 -0.6377
  830MPD2    C512260   1.328   3.117  15.883  0.2740 -0.2676 -0.1151
  830MPD2     H12261   1.053   3.144  15.626  0.4649  2.8703 -1.0365
  830MPD2    H112262   1.453   3.215  15.748 -0.2870 -0.3832  0.9225
  830MPD2    H212263   1.192   3.015  16.004  1.3915 -0.2575  0.6814
  830MPD2    H312264   1.407   3.104  15.956 -0.9842  1.4469  1.5566
  830MPD2     N12265   1.309   3.255  15.547  0.0398  0.0799  0.4268
  830MPD2    H512266   1.406   3.283  15.545 -0.5597  2.1945  0.9116
  830MPD2    N112267   0.976   3.032  15.869 -0.5655 -0.4896 -0.9503
  830MPD2    H712268   0.960   3.020  15.968 -2.8367  1.1577 -1.1164
  831MPD2     C12269   1.049   0.414  16.302  0.1247  0.1430  0.4890
  831MPD2    C112270   1.049   0.302  16.217 -0.0977 -0.0783  0.3802
  831MPD2    C212271   0.936   0.218  16.219 -0.5564 -0.4564 -0.3543
  831MPD2    C312272   0.838   0.249  16.309  0.6134  0.1004  1.0114
  831MPD2    C412273   0.846   0.354  16.403  0.0223 -0.0066  0.0255
  831MPD2    C512274   0.950   0.447  16.398 -0.1778 -0.1787  0.1262
  831MPD2     H12275   0.929   0.131  16.155 -1.8852 -1.0152  0.5519
  831MPD2    H112276   0.762   0.371  16.470  0.0898  0.7643 -0.0820
  831MPD2    H212277   1.138   0.476  16.292  0.2576 -0.0556  0.4515
  831MPD2    H312278   0.947   0.545  16.444  0.7124 -0.9223  1.7710
  831MPD2     N12279   0.722   0.164  16.320 -0.1955 -0.2029 -0.0454
  831MPD2    H512280   0.667   0.197  16.399 -0.8933  0.8254 -0.9586
  831MPD2    N112281   1.152   0.284  16.132 -0.6471 -0.0765  0.1852
  831MPD2    H712282   1.227   0.352  16.129 -1.5071  0.9548  2.2161
  832MPD2     C12283   4.121   1.038  17.366  0.1768 -0.1758  0.6815
  832MPD2    C112284   4.100   1.141  17.270 -0.0221  0.1490 -0.8493
  832MPD2    C212285   4.013   1.120  17.163 -0.8224 -0.2769 -0.2790
  832MPD2    C312286   3.937   1.005  17.160  0.1258 -0.0405  0.7667
  832MPD2    C412287   3.974   0.904  17.239 -0.1743  0.4108 -0.6014
  832MPD2    C512288   4.055   0.921  17.348  0.3530  0.5108  0.0829
  832MPD2     H12289   3.982   1.211  17.113  0.5930  0.6306  0.4875
  832MPD2    H112290   3.923   0.809  17.234 -0.3142  0.4241  0.5223
  832MPD2    H212291   4.184   1.040  17.454 -0.7386 -2.0201  1.3831
  832MPD2    H312292   4.069   0.844  17.422  1.0024 -0.2916 -0.8865
  832MPD2     N12293   3.825   0.986  17.077  0.3716 -0.1313 -0.7074
  832MPD2    H512294   3.773   0.902  17.100  2.1065 -0.3845  2.3779
  832MPD2    N112295   4.187   1.255  17.285 -0.1866  0.2605  0.3335
  832MPD2    H712296   4.252   1.256  17.364 -1.8408  0.3526  1.6935
  833MPD2     C12297   0.692   2.653  12.612 -0.1480 -0.2760 -0.7667
  833MPD2    C112298   0.764   2.760  12.561  0.2403 -0.0297 -0.1713
  833MPD2    C212299   0.875   2.735  12.480 -0.0173  0.4915 -0.0102
  833MPD2    C312300   0.894   2.610  12.429 -0.2809 -0.1964 -0.3951
  833MPD2    C412301   0.829   2.497  12.478 -0.5794 -0.2033 -0.1003
  833MPD2    C512302   0.726   2.523  12.569 -0.6221  0.2244  0.0200
  833MPD2     H12303   0.933   2.819  12.443 -2.6259  1.1633 -2.5766
  833MPD2    H112304   0.845   2.397  12.438  0.4976 -0.1317  0.1484
  833MPD2    H212305   0.601   2.669  12.668  1.6018  2.3840  1.3264
  833MPD2    H312306   0.654   2.446  12.594  0.0431  0.2864  2.1393
  833MPD2     N12307   1.013   2.587  12.352  0.9481  0.4733  0.0381
  833MPD2    H512308   1.028   2.488  12.338 -0.3146  0.4548 -1.1576
  833MPD2    N112309   0.712   2.884  12.599  0.1206  0.6219  0.5700
  833MPD2    H712310   0.623   2.885  12.648 -0.3453 -2.1678 -0.2004
  834MPD2     C12311   1.478   1.854  11.900 -0.4710 -0.1522 -0.6588
  834MPD2    C112312   1.396   1.900  11.804 -0.0858 -0.1544  0.3931
  834MPD2    C212313   1.335   2.025  11.823 -0.3629 -1.3687 -0.4610
  834MPD2    C312314   1.354   2.096  11.939  0.2127 -0.4535 -0.2538
  834MPD2    C412315   1.446   2.045  12.032  0.3222 -0.3628 -0.1757
  834MPD2    C512316   1.510   1.929  12.010 -0.0769 -0.6313  0.5886
  834MPD2     H12317   1.259   2.052  11.751 -1.0591 -0.9050  0.4514
  834MPD2    H112318   1.467   2.097  12.125 -0.7835  0.3915 -0.3455
  834MPD2    H212319   1.534   1.762  11.900  0.6892  0.5468  3.9451
  834MPD2    H312320   1.576   1.894  12.089  0.1196  1.4159  1.3490
  834MPD2     N12321   1.269   2.204  11.963 -0.0517 -0.2530 -0.1221
  834MPD2    H512322   1.204   2.225  11.887  0.4915  0.7264 -0.3180
  834MPD2    N112323   1.363   1.814  11.699  0.0701  0.2597  0.5962
  834MPD2    H712324   1.374   1.715  11.715  2.3549  0.3822 -0.2693
  835MPD2     C12325   1.978   0.294  11.512  0.5356 -0.6821  0.5741
  835MPD2    C112326   1.894   0.223  11.594 -0.3798 -0.6039  0.0127
  835MPD2    C212327   1.938   0.109  11.662 -0.2375  0.7257 -0.2447
  835MPD2    C312328   2.064   0.058  11.639  0.2214  0.0662  0.0146
  835MPD2    C412329   2.148   0.130  11.564  0.0240 -0.3790  0.4110
  835MPD2    C512330   2.101   0.238  11.491  0.2153 -0.3125 -0.4763
  835MPD2     H12331   1.868   0.063  11.730 -0.8075  0.1932 -1.1992
  835MPD2    H112332   2.251   0.104  11.540 -0.3634 -1.0872 -0.4825
  835MPD2    H212333   1.945   0.389  11.472  1.5315 -0.8679 -0.6736
  835MPD2    H312334   2.165   0.296  11.426 -0.3071 -0.0189 -0.7263
  835MPD2     N12335   2.099   4.683  11.711 -0.1252 -0.0927  0.4132
  835MPD2    H512336   2.027   4.638  11.766  0.9086 -0.8826  1.1324
  835MPD2    N112337   1.762   0.269  11.624  0.3390  0.2473  0.2004
  835MPD2    H712338   1.714   0.207  11.688  1.1470 -1.8599 -1.2412
  836MPD2     C12339   1.546   4.310  11.642  0.2991 -0.5253  0.4921
  836MPD2    C112340   1.636   4.403  11.701 -0.2321  0.2147 -0.1879
  836MPD2    C212341   1.599   4.539  11.710  0.8317  0.0595  0.3015
  836MPD2    C312342   1.477   4.577  11.664  0.7684  0.5795 -0.0251
  836MPD2    C412343   1.398   4.479  11.595  0.1509 -0.4032  0.0317
  836MPD2    C512344   1.436   4.352  11.576  0.0029 -0.3706 -0.3641
  836MPD2     H12345   1.658   4.618  11.754 -1.5275  0.7099  2.2640
  836MPD2    H112346   1.302   4.514  11.558  1.0099  2.1768  0.2050
  836MPD2    H212347   1.578   4.208  11.632 -0.0483 -0.6885  1.0237
  836MPD2    H312348   1.377   4.277  11.523 -1.3368  0.0612  0.5268
  836MPD2     N12349   1.422   4.711  11.682  0.0219  0.1793  0.1145
  836MPD2    H512350   1.323   4.713  11.660  0.0131  2.1873  0.3343
  836MPD2    N112351   1.762   4.356  11.757 -0.1633  0.7489  0.3580
  836MPD2    H712352   1.776   4.256  11.746  1.7949  1.4883 -3.6055
  837MPD2     C12353   4.380   4.549   9.691  0.3883  0.2883  0.4213
  837MPD2    C112354   4.257   4.612   9.694 -0.0179  0.2612  0.3270
  837MPD2    C212355   4.252   0.008   9.729 -0.3814 -0.3285 -0.0689
  837MPD2    C312356   4.371   0.069   9.773  0.1737  0.2468  0.2585
  837MPD2    C412357   4.490   0.003   9.785 -0.2760  0.2568 -0.2467
  837MPD2    C512358   4.496   4.609   9.738  0.2279 -0.6535  0.2333
  837MPD2     H12359   4.164   0.070   9.720 -0.5731 -0.8854 -2.0079
  837MPD2    H112360   4.581   0.054   9.814 -1.0640  0.8597  1.1642
  837MPD2    H212361   4.398   4.451   9.650  1.4105  1.3025 -1.5568
  837MPD2    H312362   4.592   4.561   9.728 -0.2287 -1.7396  0.9750
  837MPD2     N12363   4.360   0.206   9.820  0.1662  0.6333  0.2868
  837MPD2    H512364   4.270   0.249   9.809  0.9605  1.9640 -0.9775
  837MPD2    N112365   4.132   4.553   9.654 -0.5075  0.7668  0.2126
  837MPD2    H712366   4.043   4.602   9.661  0.0272  1.6010  1.0646
  838MPD2     C12367   3.153   3.103  11.816 -0.4893 -0.0587 -0.1696
  838MPD2    C112368   3.055   3.050  11.735 -0.1168 -0.0610 -0.5347
  838MPD2    C212369   2.934   3.014  11.789 -1.0369  0.1033  0.3286
  838MPD2    C312370   2.915   3.017  11.926  0.0571  0.1191  0.1403
  838MPD2    C412371   3.000   3.100  11.993  0.3875 -0.8997  0.1375
  838MPD2    C512372   3.122   3.135  11.943  0.0428 -0.1081  0.6283
  838MPD2     H12373   2.859   2.978  11.720 -0.4787  0.5469 -0.5167
  838MPD2    H112374   2.976   3.122  12.097 -0.7134  1.0367 -0.5298
  838MPD2    H212375   3.255   3.126  11.786 -0.8024 -0.2733 -1.4298
  838MPD2    H312376   3.196   3.181  12.008  0.9373 -0.8548  0.1275
  838MPD2     N12377   2.798   2.969  11.993 -0.6035  0.8613  0.1350
  838MPD2    H512378   2.781   3.000  12.088  0.1305  0.6718  0.3284
  838MPD2    N112379   3.070   3.025  11.599 -0.0007 -0.2550 -0.1521
  838MPD2    H712380   2.987   2.984  11.558  0.4606 -0.8310 -0.5134
  839MPD2     C12381   2.532   2.523  11.162  0.7004 -0.0902  0.4586
  839MPD2    C112382   2.646   2.472  11.222  0.2673 -0.4504  0.6125
  839MPD2    C212383   2.759   2.557  11.230 -0.8115 -0.5259 -0.5155
  839MPD2    C312384   2.746   2.691  11.189  0.6233 -0.1884 -0.1734
  839MPD2    C412385   2.629   2.732  11.126  0.2674 -0.0004  0.3286
  839MPD2    C512386   2.521   2.650  11.128  0.4802  0.3792  0.6367
  839MPD2     H12387   2.855   2.515  11.257 -2.1917 -1.5656  2.7551
  839MPD2    H112388   2.617   2.834  11.092 -0.8166 -0.5651 -0.9809
  839MPD2    H212389   2.449   2.458  11.138 -0.0043  1.0294 -0.1421
  839MPD2    H312390   2.431   2.699  11.093 -0.3489 -1.0660  0.7660
  839MPD2     N12391   2.847   2.794  11.189 -0.1571 -0.2780 -0.2136
  839MPD2    H512392   2.826   2.882  11.144  0.8599 -1.4620 -3.0123
  839MPD2    N112393   2.657   2.333  11.257  0.1947 -0.1068 -0.5680
  839MPD2    H712394   2.743   2.289  11.285 -0.6914  0.2440  2.6712
  840MPD2     C12395   2.948   0.848  10.248 -0.0216  0.0749  0.4590
  840MPD2    C112396   2.976   0.753  10.340 -0.1671 -0.2162 -0.0843
  840MPD2    C212397   3.098   0.751  10.409 -0.3115 -0.0816  0.4780
  840MPD2    C312398   3.178   0.868  10.393  0.5451  0.2393  0.4953
  840MPD2    C412399   3.146   0.965  10.293 -0.3956  0.2671  0.1191
  840MPD2    C512400   3.022   0.959  10.227  0.0814  0.1325 -0.8096
  840MPD2     H12401   3.125   0.674  10.479  1.2709  0.0231 -0.0080
  840MPD2    H112402   3.208   1.051  10.274  0.1032 -0.3148 -0.9171
  840MPD2    H212403   2.863   0.848  10.181 -1.3549 -0.4013  2.1623
  840MPD2    H312404   2.989   1.040  10.163  1.5221 -0.9065 -2.8517
  840MPD2     N12405   3.288   0.889  10.469  0.0301 -0.5040  0.0596
  840MPD2    H512406   3.323   0.984  10.456 -0.0189 -0.4534  0.3035
  840MPD2    N112407   2.875   0.655  10.358 -0.4458 -0.5996 -0.4863
  840MPD2    H712408   2.780   0.677  10.327 -1.5557 -1.5289  2.2665
  841MPD2     C12409   2.453   0.091  14.507 -0.4074  0.1574 -0.5748
  841MPD2    C112410   2.510   0.213  14.463 -0.0317  0.6420 -0.5521
  841MPD2    C212411   2.556   0.301  14.555 -0.6639 -0.2466 -0.4422
  841MPD2    C312412   2.546   0.271  14.690  0.3535  0.0236  0.4464
  841MPD2    C412413   2.489   0.151  14.730  0.6070 -0.4985  0.1803
  841MPD2    C512414   2.438   0.061  14.639  0.4767 -0.2153  0.0091
  841MPD2     H12415   2.591   0.401  14.530 -0.4388  0.1115  1.3405
  841MPD2    H112416   2.473   0.130  14.835 -0.1447 -0.4044  0.0867
  841MPD2    H212417   2.396   0.032  14.436 -0.2314 -1.5656  0.7343
  841MPD2    H312418   2.399   4.698  14.665  0.3333 -0.2372 -0.2806
  841MPD2     N12419   2.595   0.366  14.781  0.7924  0.4146 -0.1136
  841MPD2    H512420   2.636   0.454  14.751 -0.8963  0.9192 -0.9423
  841MPD2    N112421   2.499   0.253  14.326  0.5372  0.9321 -0.2003
  841MPD2    H712422   2.530   0.347  14.302 -1.1191  1.8226  1.1818
  842MPD2     C12423   3.224   1.196  16.914 -0.1380  0.5309  0.9587
  842MPD2    C112424   3.099   1.143  16.886 -0.1133  0.0422 -0.0145
  842MPD2    C212425   3.028   1.068  16.987  0.3561  0.0381 -0.7924
  842MPD2    C312426   3.089   1.039  17.101 -0.0565 -0.4786  0.2316
  842MPD2    C412427   3.215   1.097  17.126 -0.0070 -0.6951  0.1389
  842MPD2    C512428   3.279   1.177  17.037  0.1091 -0.5003  0.8148
  842MPD2     H12429   2.941   1.009  16.961 -0.2089  0.3137  0.4512
  842MPD2    H112430   3.269   1.070  17.216  0.6530  0.4109  0.0784
  842MPD2    H212431   3.276   1.252  16.837 -3.3583 -0.3967 -1.9098
  842MPD2    H312432   3.380   1.214  17.051 -0.1503  1.4916 -2.4282
  842MPD2     N12433   3.042   0.969  17.213  0.0262 -0.1354  0.0165
  842MPD2    H512434   3.098   0.966  17.297 -0.3292 -0.1557  0.2548
  842MPD2    N112435   3.053   1.181  16.759 -0.5384 -0.4565 -0.2544
  842MPD2    H712436   3.114   1.231  16.694 -0.8428  0.6194  0.2821
  843MPD2     C12437   0.138   2.658  17.495 -0.3329  0.1035  0.6682
  843MPD2    C112438   0.214   2.565  17.569  0.0134 -0.1547 -0.1432
  843MPD2    C212439   0.323   2.610  17.641 -0.2565 -0.7705 -0.8768
  843MPD2    C312440   0.356   2.741  17.644 -0.4503 -0.5584  0.0799
  843MPD2    C412441   0.274   2.830  17.579  0.0162 -0.3935  0.2730
  843MPD2    C512442   0.164   2.789  17.506  0.4310  0.3991  0.1276
  843MPD2     H12443   0.385   2.543  17.699 -0.3956 -1.1982 -1.2167
  843MPD2    H112444   0.297   2.936  17.584  2.8150 -0.9920  0.0362
  843MPD2    H212445   0.055   2.628  17.432 -0.7453  1.8270  0.3912
  843MPD2    H312446   0.112   2.864  17.447 -1.4706  0.9895  2.5303
  843MPD2     N12447   0.474   2.783  17.706 -0.0148  0.5178 -0.1604
  843MPD2    H512448   0.496   2.882  17.703  2.3191  0.0327  1.5544
  843MPD2    N112449   0.179   2.428  17.556  0.5152 -0.5615 -0.1976
  843MPD2    H712450   0.116   2.397  17.482  0.8114  0.1079 -0.7340
  844MPD2     C12451   3.535   0.648  16.717 -0.1447 -0.7222 -0.4081
  844MPD2    C112452   3.570   0.733  16.617 -0.3434  0.7255 -0.1084
  844MPD2    C212453   3.698   0.800  16.617 -0.0927 -0.1511  0.5245
  844MPD2    C312454   3.788   0.780  16.720 -0.2877  0.0084 -0.9657
  844MPD2    C412455   3.749   0.698  16.821  0.5059 -0.5117  0.2372
  844MPD2    C512456   3.629   0.635  16.814  0.3878  0.0616  0.6945
  844MPD2     H12457   3.735   0.855  16.531 -0.9738  1.5828  1.2640
  844MPD2    H112458   3.808   0.683  16.910  0.7930 -1.4930 -0.1183
  844MPD2    H212459   3.446   0.585  16.710  0.0358 -0.6152 -3.3879
  844MPD2    H312460   3.609   0.566  16.895  2.2419 -0.4238  0.7294
  844MPD2     N12461   3.900   0.865  16.721  0.3077 -0.3210  0.5674
  844MPD2    H512462   3.912   0.923  16.639  1.9473 -0.1729  0.9126
  844MPD2    N112463   3.489   0.757  16.506 -0.5358  0.3870 -0.1533
  844MPD2    H712464   3.523   0.807  16.425 -0.6298 -0.4013 -0.6776
  845MPD2     C12465   3.976   1.804  16.764  0.5832  0.3271 -0.8695
  845MPD2    C112466   4.026   1.770  16.888 -0.4710  0.3340  0.4115
  845MPD2    C212467   4.066   1.637  16.900  0.8973 -0.1575  0.0022
  845MPD2    C312468   4.058   1.551  16.797  0.7524 -0.3618 -0.5702
  845MPD2    C412469   4.021   1.596  16.673  0.9256 -0.4271 -0.2239
  845MPD2    C512470   3.974   1.722  16.659  0.3877  0.0202 -0.6285
  845MPD2     H12471   4.079   1.606  17.003  0.4345 -1.7739 -0.4271
  845MPD2    H112472   4.007   1.529  16.589  0.3807 -0.6226  0.0202
  845MPD2    H212473   3.918   1.896  16.758  1.6004  1.1226  1.3546
  845MPD2    H312474   3.928   1.750  16.565  0.5450  1.8512 -0.1706
  845MPD2     N12475   4.093   1.420  16.818 -0.9359 -0.3376  0.3115
  845MPD2    H512476   4.131   1.404  16.911 -0.1726  1.9559  0.3784
  845MPD2    N112477   4.015   1.866  16.991 -0.3451 -0.1665  0.1674
  845MPD2    H712478   3.980   1.954  16.954 -0.0460 -0.4854 -0.8742
  846MPD2     C12479   0.793   2.246  13.746 -0.5147 -0.0803  0.1201
  846MPD2    C112480   0.653   2.262  13.750  0.1104 -0.1542  0.3520
  846MPD2    C212481   0.582   2.265  13.871  0.2225  0.5843  0.0074
  846MPD2    C312482   0.650   2.264  13.988  0.3381 -0.1059  0.2887
  846MPD2    C412483   0.787   2.270  13.992 -0.1282 -0.4176  0.4580
  846MPD2    C512484   0.855   2.254  13.871 -0.0039  0.5351 -0.1969
  846MPD2     H12485   0.474   2.252  13.872  0.4154 -0.9617  2.1403
  846MPD2    H112486   0.842   2.260  14.085 -0.8600  0.3390  0.9673
  846MPD2    H212487   0.855   2.249  13.658 -1.4583 -0.8899 -0.5769
  846MPD2    H312488   0.963   2.244  13.874  0.0443  0.7814 -1.0545
  846MPD2     N12489   0.571   2.250  14.107 -0.2729  0.1205  0.2136
  846MPD2    H512490   0.470   2.241  14.097 -0.1432 -0.3625 -0.6317
  846MPD2    N112491   0.572   2.282  13.630  0.4613 -0.0947  0.2839
  846MPD2    H712492   0.473   2.304  13.639  0.9902  1.3100  2.7093
  847MPD2     C12493   0.914   3.125  13.979  0.5423 -0.2681 -0.1291
  847MPD2    C112494   1.028   3.166  14.053  0.2913  0.0313  0.4366
  847MPD2    C212495   1.087   3.083  14.143 -0.1238  0.1383 -0.2566
  847MPD2    C312496   1.020   2.959  14.175 -0.1247  0.0285  0.3151
  847MPD2    C412497   0.903   2.927  14.107 -0.3751 -0.3507 -0.0288
  847MPD2    C512498   0.851   3.010  14.017  0.8354 -0.3160 -0.2119
  847MPD2     H12499   1.173   3.120  14.197 -0.5941  1.1587 -0.2004
  847MPD2    H112500   0.839   2.843  14.131 -0.2081 -0.4426  0.0952
  847MPD2    H212501   0.866   3.185  13.903 -0.5919 -0.1987  0.6409
  847MPD2    H312502   0.760   2.988  13.962  0.8445  0.3302 -0.4873
  847MPD2     N12503   1.071   2.896  14.284 -0.0274  0.1443  0.7615
  847MPD2    H512504   1.147   2.937  14.336  1.1429 -0.7691 -0.2171
  847MPD2    N112505   1.092   3.289  14.039  0.0420 -0.6427  1.0069
  847MPD2    H712506   1.176   3.292  14.096 -0.5947 -0.8866  1.9661
  848MPD2     C12507   3.390   1.234  16.376 -0.3900 -0.1661  0.4039
  848MPD2    C112508   3.479   1.277  16.476  0.3853  0.2704 -0.2194
  848MPD2    C212509   3.560   1.385  16.455  0.5272  0.5673 -0.0965
  848MPD2    C312510   3.540   1.460  16.339 -0.4876 -0.0821 -1.1948
  848MPD2    C412511   3.446   1.428  16.245  0.8457  0.6724  0.0273
  848MPD2    C512512   3.376   1.309  16.262  0.1651  0.4936  0.0990
  848MPD2     H12513   3.634   1.402  16.532 -1.3356 -1.8788  2.2432
  848MPD2    H112514   3.419   1.486  16.157 -1.9455  0.5469  0.7807
  848MPD2    H212515   3.319   1.152  16.380  0.5058 -0.9759 -0.4253
  848MPD2    H312516   3.290   1.286  16.200  0.0779 -1.0446  0.7736
  848MPD2     N12517   3.604   1.582  16.317  0.2982 -0.4564 -0.2132
  848MPD2    H512518   3.572   1.624  16.230 -0.6909  2.0856  1.3897
  848MPD2    N112519   3.498   1.204  16.597 -0.3369 -0.9258 -0.0412
  848MPD2    H712520   3.579   1.232  16.651 -0.9526  0.7326  0.0444
  849MPD2     C12521   2.655   1.250  14.548 -0.8168 -0.7288  0.0313
  849MPD2    C112522   2.785   1.216  14.522 -1.1016 -0.6198 -0.1908
  849MPD2    C212523   2.858   1.154  14.615 -0.1881  0.4313 -0.3512
  849MPD2    C312524   2.810   1.109  14.739 -1.2405  0.1354  0.7187
  849MPD2    C412525   2.682   1.147  14.770  0.6042 -0.1169 -0.1163
  849MPD2    C512526   2.610   1.216  14.677  0.2157  0.0257  1.2791
  849MPD2     H12527   2.964   1.143  14.594 -0.1842 -2.4076  1.1800
  849MPD2    H112528   2.645   1.143  14.871  0.3612  0.2277 -0.1903
  849MPD2    H212529   2.583   1.289  14.476 -0.5498  0.1987  0.2689
  849MPD2    H312530   2.507   1.221  14.709  0.6911 -0.1245  2.7952
  849MPD2     N12531   2.887   1.046  14.841 -0.2706  0.0261 -0.3990
  849MPD2    H512532   2.836   1.044  14.929  2.3883  1.7172  1.1753
  849MPD2    N112533   2.837   1.265  14.397 -0.0647 -0.3604  0.4861
  849MPD2    H712534   2.778   1.327  14.343 -0.5389 -1.1951  0.0568
  850MPD2     C12535   0.960   3.771  14.597 -0.4422  0.5663 -0.6038
  850MPD2    C112536   0.944   3.904  14.643 -0.7410  0.4113 -0.5082
  850MPD2    C212537   1.044   3.964  14.714 -0.2424 -0.5524 -0.7834
  850MPD2    C312538   1.147   3.890  14.757  0.6855 -0.2821 -0.6737
  850MPD2    C412539   1.157   3.759  14.718 -1.0573 -0.5874  0.0960
  850MPD2    C512540   1.066   3.697  14.641  0.4066  0.6922  0.5005
  850MPD2     H12541   1.047   4.071  14.730 -1.9035 -0.8563  1.5072
  850MPD2    H112542   1.242   3.704  14.755  0.2068  0.8568 -0.6645
  850MPD2    H212543   0.888   3.717  14.537 -1.5098  1.8630 -0.4812
  850MPD2    H312544   1.082   3.595  14.609 -1.3071  1.2058 -2.0220
  850MPD2     N12545   1.239   3.939  14.848 -0.3590  0.0413  0.6629
  850MPD2    H512546   1.313   3.878  14.881 -0.6802 -0.1246  1.0811
  850MPD2    N112547   0.825   3.970  14.603 -0.0460  0.4479 -1.1923
  850MPD2    H712548   0.776   3.930  14.523 -0.9609  1.5424 -1.1684
  851MPD2     C12549   1.099   4.067  15.352  0.1740 -0.1227  0.0508
  851MPD2    C112550   1.060   3.990  15.245  0.3173  0.2986 -0.3257
  851MPD2    C212551   1.138   3.882  15.214  0.6572 -0.2594 -0.2351
  851MPD2    C312552   1.250   3.847  15.288 -0.2861 -0.1850 -0.4400
  851MPD2    C412553   1.283   3.926  15.394 -0.2434 -0.4840 -0.4555
  851MPD2    C512554   1.205   4.031  15.433 -0.4328 -0.1385 -0.2266
  851MPD2     H12555   1.119   3.820  15.128  0.9541 -0.8451  0.1203
  851MPD2    H112556   1.361   3.904  15.466  0.2441 -0.2607 -0.9175
  851MPD2    H212557   1.051   4.160  15.379 -1.3271 -0.5395 -1.1896
  851MPD2    H312558   1.229   4.092  15.519  3.5260  0.4690 -1.7236
  851MPD2     N12559   1.316   3.725  15.252  0.6000  0.1636 -0.2383
  851MPD2    H512560   1.271   3.676  15.175 -2.0031  0.3959  1.1238
  851MPD2    N112561   0.954   4.035  15.167 -0.4524  0.4120 -0.3241
  851MPD2    H712562   0.919   4.128  15.186  1.5977  0.6812  2.2187
  852MPD2     C12563   4.454   2.496   9.211  0.2957 -0.1689 -0.3136
  852MPD2    C112564   4.472   2.591   9.315 -0.5660 -0.0371  0.8152
  852MPD2    C212565   4.597   2.655   9.339  0.4024 -0.1591  0.5958
  852MPD2    C312566   4.706   2.615   9.264 -0.8688 -0.2575  0.3564
  852MPD2    C412567   4.688   2.524   9.161 -0.2687  0.2242  0.4302
  852MPD2    C512568   4.563   2.471   9.139 -0.5964 -0.4898 -0.4622
  852MPD2     H12569   4.606   2.720   9.425 -0.3219 -0.1517  0.6680
  852MPD2    H112570   0.029   2.502   9.086 -1.6321 -1.1816 -0.5381
  852MPD2    H212571   4.355   2.470   9.176  0.3379 -1.5529  0.5866
  852MPD2    H312572   4.548   2.404   9.055 -0.8106 -1.2934  0.2123
  852MPD2     N12573   0.100   2.672   9.296 -0.8172  0.1412  0.2158
  852MPD2    H512574   0.091   2.758   9.350  3.5461 -0.0025  1.2463
  852MPD2    N112575   4.363   2.636   9.390  0.4646  0.7142 -0.0478
  852MPD2    H712576   4.377   2.725   9.437 -0.5018  1.1382 -0.5620
  853MPD2     C12577   2.715   1.149  12.644 -0.3874  0.6864  0.0833
  853MPD2    C112578   2.673   1.259  12.572 -0.1857 -0.0099 -0.1302
  853MPD2    C212579   2.750   1.283  12.459 -0.0220  0.6115  1.0156
  853MPD2    C312580   2.865   1.219  12.416 -0.1298  0.0828  0.1812
  853MPD2    C412581   2.900   1.115  12.494 -0.5071  0.5261  0.3584
  853MPD2    C512582   2.830   1.084  12.605 -0.6175 -0.4330 -0.1111
  853MPD2     H12583   2.712   1.369  12.406 -0.1136 -0.6724 -1.0023
  853MPD2    H112584   2.986   1.055  12.468 -1.0086 -0.6853  1.5128
  853MPD2    H212585   2.668   1.117  12.736  2.6531  0.3706  1.5517
  853MPD2    H312586   2.857   0.994  12.659 -0.0722  0.6960  1.4973
  853MPD2     N12587   2.929   1.236  12.294  0.5896  0.1172  0.5701
  853MPD2    H512588   3.006   1.172  12.274  2.5610  2.8833 -0.6671
  853MPD2    N112589   2.565   1.327  12.616  0.1678  0.0836 -0.3169
  853MPD2    H712590   2.522   1.304  12.705 -0.8059 -0.9855 -1.0781
  854MPD2     C12591   3.990   1.674  12.651 -0.7944 -0.0834  0.8514
  854MPD2    C112592   4.032   1.789  12.712 -0.2664  0.4270  0.0331
  854MPD2    C212593   4.143   1.791  12.800 -0.2811 -0.0955  0.0598
  854MPD2    C312594   4.229   1.683  12.800  0.3656  0.4150  0.5685
  854MPD2    C412595   4.196   1.573  12.717 -0.0002 -0.1526  0.6895
  854MPD2    C512596   4.079   1.568  12.643  0.3983  0.1762 -0.1099
  854MPD2     H12597   4.166   1.880  12.857  1.4611 -0.2052 -0.4506
  854MPD2    H112598   4.260   1.485  12.722  1.8931  1.0291 -2.5731
  854MPD2    H212599   3.906   1.673  12.583  1.0726 -2.9600 -1.4279
  854MPD2    H312600   4.046   1.476  12.596 -1.5898  0.4741  0.7107
  854MPD2     N12601   4.339   1.692  12.883 -0.0932 -0.1561  0.1120
  854MPD2    H512602   4.342   1.765  12.953 -0.6735 -2.3547  2.4332
  854MPD2    N112603   3.941   1.894  12.688 -0.7224 -0.0178 -0.0539
  854MPD2    H712604   3.875   1.883  12.612 -0.7436 -0.4733  0.0307
  855MPD2     C12605   4.154   1.406  13.531  1.0465  0.2740  0.0901
  855MPD2    C112606   4.282   1.360  13.544  0.4851  0.0999 -0.2912
  855MPD2    C212607   4.386   1.438  13.497 -0.1597 -0.2215 -0.6799
  855MPD2    C312608   4.356   1.550  13.415 -0.0686 -0.9389  0.4830
  855MPD2    C412609   4.229   1.601  13.411  0.3421 -0.4435  0.2064
  855MPD2    C512610   4.129   1.528  13.467  0.5370  0.1476 -0.0350
  855MPD2     H12611   4.484   1.394  13.503 -0.3820 -0.7753 -1.1161
  855MPD2    H112612   4.214   1.695  13.359 -1.6740 -1.0941 -0.3874
  855MPD2    H212613   4.073   1.338  13.556  1.7501  0.0140  1.6267
  855MPD2    H312614   4.023   1.553  13.467  0.6144  0.4702 -0.8870
  855MPD2     N12615   4.446   1.623  13.337  0.5587  0.3981 -0.2194
  855MPD2    H512616   4.402   1.697  13.283 -0.6349  0.6540  1.1097
  855MPD2    N112617   4.314   1.227  13.582  0.2637  0.0165  0.5232
  855MPD2    H712618   4.411   1.202  13.600  0.3015  0.0591  0.3790
  856MPD2     C12619   1.442   2.446  13.564  0.1772 -0.3794 -0.5030
  856MPD2    C112620   1.461   2.546  13.658  0.1764  0.2468 -0.3106
  856MPD2    C212621   1.387   2.660  13.649 -0.2859  0.2640 -0.8882
  856MPD2    C312622   1.286   2.675  13.551 -0.0728  0.1875  0.9328
  856MPD2    C412623   1.261   2.572  13.466  0.0681 -0.9652 -0.0732
  856MPD2    C512624   1.345   2.465  13.472 -0.0808  0.6152  0.2844
  856MPD2     H12625   1.392   2.735  13.727  0.8288  0.5479 -1.2285
  856MPD2    H112626   1.177   2.576  13.397 -0.3057 -0.5904  0.4005
  856MPD2    H212627   1.500   2.355  13.569  0.2704 -0.2320  1.0909
  856MPD2    H312628   1.327   2.378  13.409  0.9009  0.5373  0.1143
  856MPD2     N12629   1.202   2.790  13.544  0.0871 -0.7129 -0.1236
  856MPD2    H512630   1.117   2.783  13.488  1.0439  0.1150 -1.6730
  856MPD2    N112631   1.564   2.547  13.759  0.0287  0.4630  0.0779
  856MPD2    H712632   1.567   2.635  13.810 -1.9774  0.2991  0.4908
  857MPD2     C12633   3.226   4.528  13.073  0.0105  0.0768 -0.7492
  857MPD2    C112634   3.282   4.562  12.956 -0.0268  0.9548  0.1164
  857MPD2    C212635   3.372   4.668  12.961 -0.1519  0.2380 -0.2654
  857MPD2    C312636   3.397   0.009  13.077  0.1692  0.4794 -0.2096
  857MPD2    C412637   3.336   4.701  13.191  0.0511  0.3483  0.4218
  857MPD2    C512638   3.246   4.594  13.194 -0.1074 -0.1933  0.1754
  857MPD2     H12639   3.426   4.692  12.870 -0.6077 -0.3708 -0.7008
  857MPD2    H112640   3.360   0.017  13.284 -1.3281  1.2639  0.2741
  857MPD2    H212641   3.155   4.446  13.070 -0.6032  0.5909 -0.4257
  857MPD2    H312642   3.196   4.564  13.286 -0.4090 -0.9033 -0.2202
  857MPD2     N12643   3.489   0.112  13.069 -0.2641 -0.1497 -0.2100
  857MPD2    H512644   3.539   0.122  12.981  0.0821 -1.7478 -0.1946
  857MPD2    N112645   3.271   4.481  12.838 -0.4441  0.3453  0.1358
  857MPD2    H712646   3.348   4.496  12.772 -1.9392  1.7107 -1.2942
  858MPD2     C12647   3.858   3.606  16.493  0.5417  0.3158 -0.1635
  858MPD2    C112648   3.997   3.618  16.461 -0.0526 -0.1636  0.3162
  858MPD2    C212649   4.066   3.727  16.504 -0.3196 -0.1130  0.3730
  858MPD2    C312650   4.003   3.828  16.572 -0.0970  0.6563  1.2083
  858MPD2    C412651   3.866   3.812  16.603 -0.0855  0.0160 -0.8460
  858MPD2    C512652   3.796   3.699  16.563  0.2648  0.2688 -0.0888
  858MPD2     H12653   4.173   3.740  16.487 -0.2563 -1.3693 -0.1537
  858MPD2    H112654   3.813   3.873  16.675 -1.8347 -1.0386 -1.2132
  858MPD2    H212655   3.799   3.518  16.468  1.6021 -0.3762 -0.2342
  858MPD2    H312656   3.693   3.690  16.597 -0.0555  0.2670 -1.0647
  858MPD2     N12657   4.079   3.925  16.645  0.0226 -0.1291  0.3266
  858MPD2    H512658   4.015   3.975  16.707  1.4756  0.1303  1.6142
  858MPD2    N112659   4.060   3.520  16.382 -0.0316  0.0273  0.2497
  858MPD2    H712660   4.003   3.443  16.347  0.2971  0.1207 -0.4953
  859MPD2     C12661   2.978   1.002  15.261 -0.3490 -0.4471 -1.1571
  859MPD2    C112662   2.936   1.132  15.250 -0.1382  0.7101 -0.3775
  859MPD2    C212663   2.863   1.194  15.355  0.2336  0.0960 -0.4562
  859MPD2    C312664   2.843   1.125  15.471 -0.3051  0.5021  0.4087
  859MPD2    C412665   2.892   1.000  15.490 -0.4597  0.0131  0.6121
  859MPD2    C512666   2.967   0.941  15.386 -0.1536 -0.0202 -0.4709
  859MPD2     H12667   2.834   1.297  15.339 -0.8270 -0.1925 -0.4069
  859MPD2    H112668   2.855   0.945  15.576 -2.2824 -1.5189 -1.1240
  859MPD2    H212669   3.044   0.957  15.187  2.3131  0.1458  0.8915
  859MPD2    H312670   3.003   0.839  15.394  1.4651  0.6996  1.4466
  859MPD2     N12671   2.776   1.179  15.584  0.6628 -0.1623 -0.2076
  859MPD2    H512672   2.775   1.122  15.668 -1.5427  1.5837  0.9591
  859MPD2    N112673   2.968   1.211  15.138  0.5613 -0.1110 -0.4856
  859MPD2    H712674   3.044   1.175  15.081 -0.9435 -3.0625 -0.6088
  860MPD2     C12675   0.624   0.934  11.594  0.0749 -0.3056 -0.1396
  860MPD2    C112676   0.679   0.995  11.707  0.2002  0.6722  0.2354
  860MPD2    C212677   0.600   1.029  11.814 -0.1693 -0.0088 -0.0361
  860MPD2    C312678   0.470   1.010  11.804 -0.1064  0.2768 -0.4125
  860MPD2    C412679   0.412   0.948  11.695 -0.0690  0.5958  0.1841
  860MPD2    C512680   0.491   0.901  11.592 -0.3737 -0.2562 -0.1316
  860MPD2     H12681   0.645   1.066  11.906  1.5915 -1.2405 -0.4012
  860MPD2    H112682   0.306   0.928  11.698 -0.0931  0.6954 -0.0065
  860MPD2    H212683   0.677   0.893  11.509  1.4032  0.5785  0.2571
  860MPD2    H312684   0.456   0.847  11.505 -0.3628  0.3360 -0.4999
  860MPD2     N12685   0.388   1.047  11.919 -0.0346  0.5659 -0.5428
  860MPD2    H512686   0.444   1.103  11.984 -1.5370  0.2701  0.9878
  860MPD2    N112687   0.815   1.023  11.728  0.8106  0.1709 -0.0963
  860MPD2    H712688   0.852   1.076  11.806 -0.2846  1.1276 -0.2281
  861MPD2     C12689   4.232   4.146  10.618 -1.0047  0.1191  0.5074
  861MPD2    C112690   4.138   4.152  10.721 -0.2120 -0.0030  0.3978
  861MPD2    C212691   4.033   4.241  10.719  0.6004 -0.3816 -0.2371
  861MPD2    C312692   4.030   4.336  10.616  0.6465 -0.8047 -0.0579
  861MPD2    C412693   4.132   4.335  10.520  0.3638  1.0081 -0.4812
  861MPD2    C512694   4.221   4.232  10.517  0.1894  0.0096  1.1005
  861MPD2     H12695   3.955   4.221  10.791  3.1234  0.1112  2.6012
  861MPD2    H112696   4.128   4.412  10.445  0.3846 -0.5141 -2.0486
  861MPD2    H212697   4.317   4.079  10.623  0.8535  2.5896  2.3327
  861MPD2    H312698   4.308   4.242  10.452 -1.4367  0.2283 -1.0176
  861MPD2     N12699   3.934   4.437  10.606  0.1569  0.1794  0.6953
  861MPD2    H512700   3.939   4.501  10.527  0.6704 -1.1425 -0.3382
  861MPD2    N112701   4.146   4.070  10.831  0.3454 -0.1568  0.9020
  861MPD2    H712702   4.075   4.082  10.903 -0.3992 -1.1438  0.3222
  862MPD2     C12703   3.363   0.123  10.330 -0.2003 -0.9379  0.0522
  862MPD2    C112704   3.411   0.002  10.382 -0.4952 -0.6605 -0.2199
  862MPD2    C212705   3.352   4.623  10.340 -0.5487 -0.3964  0.0171
  862MPD2    C312706   3.243   4.616  10.257  0.3739 -0.2454  0.0516
  862MPD2    C412707   3.202   4.731  10.204 -1.0264  0.7754  0.3189
  862MPD2    C512708   3.260   0.114  10.237 -0.2723  0.0621 -0.5353
  862MPD2     H12709   3.391   4.537  10.393  0.6730  0.7005  0.9088
  862MPD2    H112710   3.125   4.723  10.129  0.0225 -1.8945 -0.4469
  862MPD2    H212711   3.395   0.223  10.359 -2.4421  0.1703 -1.2999
  862MPD2    H312712   3.218   0.206  10.198  2.3721  1.5238  0.0963
  862MPD2     N12713   3.174   4.497  10.219 -0.1747  0.2985 -0.0364
  862MPD2    H512714   3.082   4.503  10.178 -0.4833 -1.8289  0.3292
  862MPD2    N112715   3.537   4.728  10.459  0.2709 -0.4021  0.4662
  862MPD2    H712716   3.578   4.637  10.476 -1.1005 -1.0519  0.2811
  863MPD2     C12717   2.247   2.139  16.791 -0.7671  0.0050  0.4549
  863MPD2    C112718   2.292   2.264  16.767  0.5298  0.7555 -0.0917
  863MPD2    C212719   2.424   2.287  16.793 -0.0342 -0.2238  0.3928
  863MPD2    C312720   2.505   2.186  16.853  0.6820 -0.1692 -0.2638
  863MPD2    C412721   2.453   2.063  16.884 -0.0014 -0.8806  0.1939
  863MPD2    C512722   2.324   2.039  16.845  0.4392 -0.2189 -0.2249
  863MPD2     H12723   2.465   2.384  16.772 -0.7870 -0.2837 -1.3252
  863MPD2    H112724   2.518   1.984  16.919 -0.4743 -1.8702 -1.1692
  863MPD2    H212725   2.146   2.111  16.766  0.6150 -2.3401 -2.5423
  863MPD2    H312726   2.281   1.945  16.877  0.9810  0.1548  1.5746
  863MPD2     N12727   2.638   2.206  16.880 -0.1893  0.0440 -0.4659
  863MPD2    H512728   2.684   2.128  16.926 -1.7036 -0.5932 -0.0503
  863MPD2    N112729   2.204   2.363  16.725 -0.9129 -0.6605  0.6327
  863MPD2    H712730   2.109   2.329  16.719 -0.5383 -1.5315 -0.5096
  864MPD2     C12731   2.947   3.387  17.377 -0.3018  0.4094 -0.2035
  864MPD2    C112732   3.035   3.323  17.287  0.1813  0.1929  0.3069
  864MPD2    C212733   3.148   3.388  17.240  0.0095  0.1071  0.3482
  864MPD2    C312734   3.160   3.517  17.264  0.6147  0.3050 -0.2030
  864MPD2    C412735   3.076   3.588  17.349  0.2878  0.0740 -0.7035
  864MPD2    C512736   2.974   3.517  17.411  0.2172 -0.2260  0.8110
  864MPD2     H12737   3.228   3.337  17.187 -1.3702 -3.2003  1.4875
  864MPD2    H112738   3.084   3.696  17.356  0.9234  0.0519 -1.0494
  864MPD2    H212739   2.852   3.350  17.412  0.2870  0.2512  1.2570
  864MPD2    H312740   2.904   3.573  17.472  0.8670  0.6402  0.7540
  864MPD2     N12741   3.279   3.588  17.224 -0.2130 -0.3827 -0.0758
  864MPD2    H512742   3.274   3.688  17.241 -0.4812 -0.1290 -1.6250
  864MPD2    N112743   3.011   3.182  17.264  0.2780  0.0685 -0.3116
  864MPD2    H712744   2.935   3.140  17.316  2.1681  0.2662  2.5715
  865MPD2     C12745   3.540   3.943  16.355 -0.5028  0.4820 -0.5291
  865MPD2    C112746   3.473   3.834  16.411 -0.1685 -0.2482  0.8516
  865MPD2    C212747   3.468   3.831  16.554 -0.2922 -0.2212 -0.1822
  865MPD2    C312748   3.527   3.931  16.633 -0.7194  0.0332 -0.6199
  865MPD2    C412749   3.597   4.026  16.570 -0.1761 -0.3899  0.5015
  865MPD2    C512750   3.608   4.029  16.432  0.2774 -0.6959 -0.2015
  865MPD2     H12751   3.400   3.764  16.605 -0.4122 -0.6285 -0.8816
  865MPD2    H112752   3.655   4.103  16.621 -1.0483  0.3365  0.4004
  865MPD2    H212753   3.551   3.951  16.248  0.2325  0.6311 -0.4425
  865MPD2    H312754   3.657   4.115  16.387 -1.3696  0.1949 -0.2914
  865MPD2     N12755   3.539   3.917  16.771  0.1318 -0.1901  0.3522
  865MPD2    H512756   3.594   3.992  16.814 -1.1563 -0.6567  2.8237
  865MPD2    N112757   3.416   3.738  16.322  0.1208 -0.2020  0.3085
  865MPD2    H712758   3.424   3.753  16.222 -1.4023 -0.6149  0.1374
  866MPD2     C12759   0.117   4.078  11.006  0.7974  0.1593  0.5823
  866MPD2    C112760   0.080   4.151  10.893 -0.0756 -0.2891  0.3765
  866MPD2    C212761   4.683   4.189  10.880 -0.0258 -0.0449  0.0980
  866MPD2    C312762   4.604   4.191  10.994 -0.2504  0.2271  0.0681
  866MPD2    C412763   4.652   4.140  11.111 -0.2278  0.2597  0.3067
  866MPD2    C512764   0.042   4.090  11.119  0.1252 -0.5071 -0.2436
  866MPD2     H12765   4.645   4.210  10.782  0.5359  0.5849  0.0169
  866MPD2    H112766   4.598   4.153  11.204 -2.0904  0.4967 -0.8006
  866MPD2    H212767   0.221   4.058  11.029  1.0084  1.3193  0.6753
  866MPD2    H312768   0.088   4.060  11.212 -0.5579  0.5010  0.4162
  866MPD2     N12769   4.476   4.255  11.000 -0.5914 -0.1841  0.3393
  866MPD2    H512770   4.432   4.256  11.092  1.0126 -0.2946  1.1020
  866MPD2    N112771   0.192   4.171  10.801 -0.0196 -0.5052  0.0405
  866MPD2    H712772   0.286   4.135  10.815  0.7859  2.3183  1.7633
  867MPD2     C12773   1.687   3.452  16.111 -0.5417  0.1003  0.0041
  867MPD2    C112774   1.774   3.454  16.211  0.0575 -0.3350  0.0328
  867MPD2    C212775   1.760   3.554  16.307  0.2104 -0.1770  0.2329
  867MPD2    C312776   1.649   3.637  16.314  0.1792 -0.3293  0.6014
  867MPD2    C412777   1.559   3.624  16.210 -0.1271  0.4367 -0.5518
  867MPD2    C512778   1.572   3.536  16.113 -0.3108 -1.1856  0.1093
  867MPD2     H12779   1.843   3.574  16.374 -0.1007  1.9630 -0.0210
  867MPD2    H112780   1.477   3.695  16.214 -0.1035  0.4287  0.2055
  867MPD2    H212781   1.684   3.372  16.037 -0.1345 -0.7157  0.8695
  867MPD2    H312782   1.483   3.535  16.052 -0.9803  0.4050  1.0695
  867MPD2     N12783   1.632   3.735  16.417  0.5633 -0.4437  0.1706
  867MPD2    H512784   1.553   3.795  16.396  1.7179 -0.0128 -2.9313
  867MPD2    N112785   1.876   3.354  16.216  0.0761 -0.0161  0.0760
  867MPD2    H712786   1.876   3.293  16.135 -0.4292 -0.9240  0.7625
  868MPD2     C12787   3.247   3.493  12.996 -0.6679  0.4050  0.4918
  868MPD2    C112788   3.294   3.383  13.069 -0.4575 -1.4229  0.7609
  868MPD2    C212789   3.223   3.354  13.186 -1.0795 -0.5593  0.2316
  868MPD2    C312790   3.110   3.418  13.224  0.1356 -0.3027 -0.0703
  868MPD2    C412791   3.073   3.532  13.157 -0.6400  0.5793 -1.0116
  868MPD2    C512792   3.135   3.562  13.043 -0.2652  0.6592  0.2043
  868MPD2     H12793   3.253   3.271  13.248  2.4934  0.3322 -0.2924
  868MPD2    H112794   2.986   3.590  13.187 -0.2783  0.3729  0.4174
  868MPD2    H212795   3.280   3.526  12.899 -0.4379  1.0753  0.7993
  868MPD2    H312796   3.094   3.641  12.981 -3.2646  1.8589  3.7102
  868MPD2     N12797   3.046   3.376  13.341 -0.1699  0.6904  0.0283
  868MPD2    H512798   3.091   3.300  13.391 -0.7969 -0.2107 -0.7802
  868MPD2    N112799   3.398   3.316  13.011  0.1241  0.6934  0.5956
  868MPD2    H712800   3.416   3.337  12.913 -0.4362 -2.2400 -0.1428
  869MPD2     C12801   0.030   1.114   1.004  0.5434  0.7619 -0.1742
  869MPD2    C112802   0.012   1.112   0.865  0.4127  0.2197  0.6157
  869MPD2    C212803   0.119   1.119   0.779  0.7506 -0.4503  0.4977
  869MPD2    C312804   0.247   1.145   0.831  0.7316 -0.9397  0.8947
  869MPD2    C412805   0.260   1.133   0.966 -0.0436 -0.5821  0.5004
  869MPD2    C512806   0.157   1.135   1.052 -0.1822  0.0478  0.4428
  869MPD2     H12807   0.102   1.125   0.672  0.6398 -1.0211  0.4869
  869MPD2    H112808   0.357   1.141   1.014  0.1929  0.6297 -0.1820
  869MPD2    H212809   4.694   1.105   1.085 -0.9032 -0.1145 -1.5225
  869MPD2    H312810   0.175   1.128   1.159 -1.3917 -1.7878  0.5322
  869MPD2     N12811   0.356   1.157   0.743 -0.2967  0.7036 -0.2774
  869MPD2    H512812   0.449   1.149   0.785  0.7852  0.0982 -2.7692
  869MPD2    N112813   4.615   1.084   0.825 -0.1164  0.2140  0.4791
  869MPD2    H712814   4.544   1.070   0.896 -0.7104 -0.1569 -0.1904
  870MPD2     C12815   4.453   4.561   1.622 -0.2346 -0.7299  0.1788
  870MPD2    C112816   4.563   4.566   1.543 -0.0894 -0.1461 -0.3499
  870MPD2    C212817   4.573   4.671   1.457 -0.4140  0.2509  0.2678
  870MPD2    C312818   4.497   0.050   1.469  0.3736  0.0778  0.1505
  870MPD2    C412819   4.380   0.038   1.544  0.1903 -0.3998  1.4929
  870MPD2    C512820   4.362   4.660   1.622 -0.1698 -0.0521  0.8753
  870MPD2     H12821   4.652   4.674   1.383 -2.3044  0.5788 -1.7516
  870MPD2    H112822   4.305   0.116   1.549  0.0479 -0.4564  0.0847
  870MPD2    H212823   4.426   4.475   1.682  0.3977  0.2609  1.8660
  870MPD2    H312824   4.268   4.648   1.674 -0.4200  2.0476  0.8993
  870MPD2     N12825   4.517   0.156   1.379 -0.1756 -0.3283  0.2654
  870MPD2    H512826   4.600   0.151   1.320 -1.6162 -0.5986 -1.7563
  870MPD2    N112827   4.657   4.464   1.552  0.8463  0.1525 -0.2979
  870MPD2    H712828   4.636   4.390   1.619 -0.1257  1.2132  0.5748
  871MPD2     C12829   0.887   4.486  16.290 -0.4439  0.1760 -0.3165
  871MPD2    C112830   0.880   4.424  16.413 -0.6201  0.3469 -0.0046
  871MPD2    C212831   0.904   4.286  16.416 -0.2314  0.3554  0.2478
  871MPD2    C312832   0.922   4.214  16.304  0.5231 -0.0458  0.3657
  871MPD2    C412833   0.895   4.273  16.179 -1.3028  0.3975  0.1966
  871MPD2    C512834   0.889   4.407  16.175  0.0327 -0.3079  0.3083
  871MPD2     H12835   0.912   4.235  16.512 -1.1528  0.3837  0.3422
  871MPD2    H112836   0.894   4.225  16.082 -1.3207 -2.0228  1.3687
  871MPD2    H212837   0.878   4.593  16.278  0.5543  0.4292  1.2659
  871MPD2    H312838   0.884   4.462  16.081 -1.3752 -0.0446  0.5376
  871MPD2     N12839   0.942   4.075  16.321  0.3707  0.0403 -0.7702
  871MPD2    H512840   0.947   4.038  16.415 -1.3377  2.4452  0.2437
  871MPD2    N112841   0.839   4.506  16.524 -0.4579  0.0016  0.2757
  871MPD2    H712842   0.848   4.606  16.508 -0.0098  0.3244  2.4834
  872MPD2     C12843   1.615   1.556  13.337 -0.2659 -0.5358  0.0901
  872MPD2    C112844   1.653   1.675  13.396  0.1485  0.7367  0.8403
  872MPD2    C212845   1.573   1.719  13.502 -0.3182 -0.0028  0.3540
  872MPD2    C312846   1.449   1.670  13.530  0.3907 -0.0057  0.2750
  872MPD2    C412847   1.405   1.554  13.465 -0.0228  0.0375 -0.2066
  872MPD2    C512848   1.491   1.497  13.380 -0.4767 -0.0560  0.3712
  872MPD2     H12849   1.599   1.808  13.558 -1.8372  1.9700 -2.0829
  872MPD2    H112850   1.320   1.492  13.491 -2.0142  1.7305 -2.6568
  872MPD2    H212851   1.674   1.515  13.255  1.0778  0.8624  0.3497
  872MPD2    H312852   1.474   1.408  13.320  0.1917 -0.7821  1.2520
  872MPD2     N12853   1.369   1.740  13.628 -0.1293  0.6049  0.0592
  872MPD2    H512854   1.415   1.815  13.679  1.0067  2.0080 -3.0101
  872MPD2    N112855   1.768   1.745  13.358 -0.1630 -0.0858 -0.2265
  872MPD2    H712856   1.801   1.817  13.422  1.2669  0.1425 -1.2161
  873MPD2     C12857   3.575   1.182   0.891 -0.4644 -0.0775  0.8121
  873MPD2    C112858   3.481   1.175   1.000 -0.5615  0.1121 -0.3738
  873MPD2    C212859   3.412   1.056   1.014  0.1003 -0.0150 -0.5878
  873MPD2    C312860   3.440   0.945   0.935 -0.3846  0.4029  0.1495
  873MPD2    C412861   3.540   0.954   0.835  0.3107 -0.7714 -0.2646
  873MPD2    C512862   3.588   1.075   0.805  0.8877 -0.6343  0.4526
  873MPD2     H12863   3.340   1.054   1.095 -0.3793  0.6805 -1.0020
  873MPD2    H112864   3.558   0.885   0.753 -0.0290 -2.2810  0.9347
  873MPD2    H212865   3.618   1.281   0.875 -3.8424  0.9982 -1.6110
  873MPD2    H312866   3.664   1.087   0.729  1.3955  0.2175  1.0874
  873MPD2     N12867   3.370   0.819   0.947 -0.7864  0.2223 -0.0474
  873MPD2    H512868   3.398   0.752   0.876 -3.7762  0.6204 -1.5867
  873MPD2    N112869   3.469   1.282   1.086 -0.1151 -0.0057  0.0503
  873MPD2    H712870   3.541   1.353   1.082 -0.1664  0.0992  1.0048
  874MPD2     C12871   3.127   1.486  15.991 -0.3827  0.4427  0.7505
  874MPD2    C112872   3.111   1.541  16.121 -0.1215 -0.3785 -0.6597
  874MPD2    C212873   3.186   1.648  16.157 -0.3909  0.7595 -0.1956
  874MPD2    C312874   3.284   1.708  16.079  0.1623  0.6665  0.2107
  874MPD2    C412875   3.290   1.654  15.951 -0.3778 -0.3319  0.1950
  874MPD2    C512876   3.210   1.551  15.904 -0.5129  0.4094  0.7205
  874MPD2     H12877   3.163   1.689  16.255 -0.1579 -1.7863  0.9305
  874MPD2    H112878   3.355   1.701  15.878  1.0306 -0.9203  1.0741
  874MPD2    H212879   3.059   1.408  15.959 -3.1074  4.1704 -2.6100
  874MPD2    H312880   3.226   1.528  15.799 -1.0459  1.4622  0.4110
  874MPD2     N12881   3.372   1.807  16.131 -0.0847 -0.2998 -0.4261
  874MPD2    H512882   3.357   1.834  16.227 -3.6442 -0.5479 -0.9118
  874MPD2    N112883   3.027   1.467  16.209  0.2914 -0.2003 -0.2617
  874MPD2    H712884   2.968   1.394  16.170 -3.2263  1.8373  1.3037
  875MPD2     C12885   3.760   0.402  14.487 -0.1754  0.3089 -0.3679
  875MPD2    C112886   3.695   0.302  14.554 -0.7287 -0.1068 -0.0500
  875MPD2    C212887   3.759   0.258  14.671 -0.6641 -0.2519  0.5689
  875MPD2    C312888   3.873   0.324  14.723  0.0218  0.9797 -0.6129
  875MPD2    C412889   3.918   0.442  14.664  0.5959  0.7578 -0.0287
  875MPD2    C512890   3.873   0.464  14.536 -0.2204  0.0016  0.6000
  875MPD2     H12891   3.718   0.175  14.727 -0.4958 -0.9289 -0.3224
  875MPD2    H112892   4.012   0.483  14.699 -0.0693  0.6979  1.8084
  875MPD2    H212893   3.737   0.431  14.386  0.2585 -0.1363 -0.5980
  875MPD2    H312894   3.935   0.524  14.470 -0.2304 -1.1086 -0.4215
  875MPD2     N12895   3.946   0.275  14.837 -0.4062  0.5907 -0.4088
  875MPD2    H512896   4.017   0.336  14.876  1.1420  0.1878 -2.5891
  875MPD2    N112897   3.575   0.237  14.511  0.2630 -0.3306 -0.3267
  875MPD2    H712898   3.542   0.153  14.557  1.2284 -1.1210 -1.0752
  876MPD2     C12899   3.118   1.560  15.302 -0.2762  0.1861  0.2169
  876MPD2    C112900   3.241   1.507  15.333  0.4156 -0.1362 -0.0684
  876MPD2    C212901   3.262   1.411  15.427 -0.1302 -0.7370  0.3212
  876MPD2    C312902   3.157   1.370  15.503 -0.5729  0.7342 -0.4336
  876MPD2    C412903   3.035   1.420  15.475 -0.3582  0.3606 -0.4993
  876MPD2    C512904   3.012   1.512  15.377  0.3931 -0.7968  0.0883
  876MPD2     H12905   3.365   1.389  15.455 -0.0363  0.9257  1.2217
  876MPD2    H112906   2.943   1.394  15.527 -0.0183  0.4059  0.1124
  876MPD2    H212907   3.099   1.644  15.235 -2.1246 -0.1313  0.3339
  876MPD2    H312908   2.911   1.538  15.349  0.0621 -2.9958 -0.7644
  876MPD2     N12909   3.178   1.267  15.600 -0.1478 -0.2344  0.3845
  876MPD2    H512910   3.266   1.217  15.599  0.4695  0.8573 -0.1766
  876MPD2    N112911   3.348   1.570  15.263 -0.0707  0.1687 -0.7497
  876MPD2    H712912   3.326   1.642  15.195 -0.2295  1.5579  0.7626
  877MPD2     C12913   3.187   1.849  14.740  0.1708 -0.7236 -0.3006
  877MPD2    C112914   3.318   1.824  14.711 -1.1250 -0.2719  0.3434
  877MPD2    C212915   3.361   1.815  14.580 -0.1641  0.7758  0.0403
  877MPD2    C312916   3.273   1.826  14.480  0.0792 -0.1036 -0.5249
  877MPD2    C412917   3.139   1.847  14.505  0.4236 -0.3873 -0.4393
  877MPD2    C512918   3.102   1.866  14.631  0.6720 -0.0818  0.5259
  877MPD2     H12919   3.464   1.785  14.562 -0.0018  1.3227  0.0806
  877MPD2    H112920   3.061   1.855  14.431  1.0853  0.7287 -1.0070
  877MPD2    H212921   3.144   1.865  14.838 -1.5392  0.6772 -1.2871
  877MPD2    H312922   2.997   1.875  14.658  0.2241 -2.8746 -0.2659
  877MPD2     N12923   3.305   1.810  14.342  0.2987 -0.4313  0.0555
  877MPD2    H512924   3.228   1.823  14.277 -0.6069 -0.8589  1.0471
  877MPD2    N112925   3.419   1.810  14.805  0.8822  0.6708  0.4112
  877MPD2    H712926   3.516   1.811  14.773  0.2376  0.2117 -1.5409
  878MPD2     C12927   2.440   1.134  13.548  0.1095 -0.6932  0.1756
  878MPD2    C112928   2.568   1.117  13.510  0.3996 -0.5923  0.1221
  878MPD2    C212929   2.671   1.165  13.591  0.0520  0.4154 -0.5667
  878MPD2    C312930   2.651   1.228  13.711 -0.0595  0.5686 -0.1407
  878MPD2    C412931   2.518   1.244  13.748  0.3650  0.5663 -0.6359
  878MPD2    C512932   2.413   1.188  13.668  0.4044 -0.4888  0.2908
  878MPD2     H12933   2.774   1.146  13.562  0.4772  0.2589  1.0955
  878MPD2    H112934   2.486   1.286  13.842  1.3759 -2.2305  0.9542
  878MPD2    H212935   2.353   1.105  13.490  0.8901  0.4652 -1.5617
  878MPD2    H312936   2.309   1.205  13.695 -0.5586  0.7616 -4.0570
  878MPD2     N12937   2.763   1.267  13.787  0.4387  0.5275  0.0216
  878MPD2    H512938   2.852   1.228  13.757  0.1981  1.3546 -1.7421
  878MPD2    N112939   2.587   1.066  13.386  0.1375  0.3353  0.7957
  878MPD2    H712940   2.497   1.050  13.342  0.3344  1.4917 -0.0182
  879MPD2     C12941   3.242   1.708  17.375 -0.0396  0.7066  0.6507
  879MPD2    C112942   3.257   1.801  17.276 -0.4555  0.1875  0.3168
  879MPD2    C212943   3.220   1.758  17.147 -0.1960 -0.5701 -0.0440
  879MPD2    C312944   3.172   1.622  17.128 -0.2952 -0.0556  0.2305
  879MPD2    C412945   3.179   1.537  17.234 -0.6209  0.1596 -0.0007
  879MPD2    C512946   3.207   1.582  17.355 -0.3118  0.3866  0.1840
  879MPD2     H12947   3.233   1.829  17.066 -1.5059 -0.0428  0.2060
  879MPD2    H112948   3.180   1.430  17.220  0.7275  0.1536  0.0882
  879MPD2    H212949   3.280   1.742  17.470  0.3852 -0.5009  0.8972
  879MPD2    H312950   3.217   1.513  17.437  0.4981  1.0758  0.6662
  879MPD2     N12951   3.134   1.569  17.006  0.0045  0.3044 -0.6588
  879MPD2    H512952   3.092   1.477  16.999  0.3968  0.1147 -0.5176
  879MPD2    N112953   3.293   1.932  17.322 -0.3717 -0.5751  0.5155
  879MPD2    H712954   3.299   1.944  17.423  3.7348 -0.2660  0.2513
  880MPD2     C12955   4.597   4.159   0.118 -0.1352  0.0102 -0.3378
  880MPD2    C112956   4.655   4.217   0.229 -0.3324 -0.3382 -0.5328
  880MPD2    C212957   4.696   4.135   0.338  0.0238 -0.3444  0.1804
  880MPD2    C312958   4.684   3.997   0.328 -0.8901 -0.2288  0.1995
  880MPD2    C412959   4.626   3.938   0.217 -0.3197  0.4263 -0.4447
  880MPD2    C512960   4.591   4.020   0.111  0.1363  0.0002  0.1030
  880MPD2     H12961   0.005   4.179   0.426 -2.0956 -0.8877  1.4876
  880MPD2    H112962   4.614   3.831   0.210 -0.7337  0.4874 -0.6434
  880MPD2    H212963   4.553   4.215   0.035 -0.1564  1.3995  0.5977
  880MPD2    H312964   4.553   3.963   0.027  0.1479  0.3240 -0.1208
  880MPD2     N12965   4.731   3.917   0.437  0.0069 -0.0207 -0.3444
  880MPD2    H512966   0.030   3.970   0.517  0.6759 -1.2712  0.1945
  880MPD2    N112967   4.658   4.363   0.227 -0.5812  0.3475 -0.1235
  880MPD2    H712968   4.598   4.405   0.157 -0.6617  0.2162 -0.1335
  881MPD2     C12969   4.571   0.013  17.224  0.3959  0.0239  0.2289
  881MPD2    C112970   4.665   0.091  17.295 -0.3761  0.3562  0.1339
  881MPD2    C212971   4.666   0.083  17.432 -0.2810  0.4201 -0.2121
  881MPD2    C312972   4.593   4.722  17.496  0.0112  0.3438 -0.0700
  881MPD2    C412973   4.509   4.635  17.428  0.0295 -0.4827  0.1542
  881MPD2    C512974   4.503   4.645  17.293 -0.6069  0.3601 -0.3389
  881MPD2     H12975   4.723   0.156  17.489 -0.5279  0.1313  0.4116
  881MPD2    H112976   4.461   4.548  17.473 -2.3079  0.9119  0.3489
  881MPD2    H212977   4.555   0.012  17.117 -2.2935  1.9699  0.5978
  881MPD2    H312978   4.440   4.575  17.239  2.3274 -1.9364 -0.7806
  881MPD2     N12979   4.590   4.714  17.637 -0.4701 -0.1558  0.6367
  881MPD2    H512980   4.527   4.646  17.679 -1.4311 -0.8231 -1.8626
  881MPD2    N112981   4.725   0.195  17.222  0.4507 -0.5097 -0.1473
  881MPD2    H712982   4.692   0.216  17.129 -0.8638  0.0106  0.4234
  882MPD2     C12983   2.960   1.571  13.626  0.8168 -0.4028  0.7744
  882MPD2    C112984   2.959   1.619  13.758 -0.4044  0.6648  0.5154
  882MPD2    C212985   2.838   1.649  13.811  0.8921  0.1579 -0.1080
  882MPD2    C312986   2.716   1.625  13.743  0.3994 -0.6870  0.0451
  882MPD2    C412987   2.721   1.564  13.617  0.1662 -0.1232 -0.5035
  882MPD2    C512988   2.841   1.531  13.566 -1.0224  0.4448  0.3295
  882MPD2     H12989   2.835   1.691  13.911  3.3470 -0.4076  0.2078
  882MPD2    H112990   2.629   1.547  13.563 -0.4346 -1.5792  0.9615
  882MPD2    H212991   3.044   1.536  13.566 -0.3616  0.7553 -1.5324
  882MPD2    H312992   2.843   1.483  13.469 -2.3225  1.4852 -0.2096
  882MPD2     N12993   2.590   1.665  13.792 -0.1705 -0.2759 -0.0903
  882MPD2    H512994   2.525   1.647  13.716 -0.9234 -1.2080  0.7724
  882MPD2    N112995   3.088   1.636  13.820 -0.3515 -0.6803 -0.5597
  882MPD2    H712996   3.167   1.592  13.774  1.6800  3.8522 -1.5059
  883MPD2     C12997   0.131   1.552  15.790 -0.3957 -0.2740 -0.4318
  883MPD2    C112998   0.205   1.650  15.734  0.1496 -0.3524  0.2253
  883MPD2    C212999   0.306   1.716  15.807 -0.3685  1.0196  0.6048
  883MPD2    C313000   0.336   1.679  15.936 -0.1550  0.4526 -0.1105
  883MPD2    C413001   0.257   1.577  15.991  0.7418 -0.8700 -0.0337
  883MPD2    C513002   0.150   1.527  15.922 -0.0873  0.7289  0.0422
  883MPD2     H13003   0.366   1.790  15.756  0.7266 -0.6517 -0.5261
  883MPD2    H113004   0.269   1.540  16.092 -1.4408 -1.1256  0.1399
  883MPD2    H213005   0.050   1.508  15.732  1.0644 -2.5266 -0.7211
  883MPD2    H313006   0.088   1.454  15.974  0.8753 -0.4812 -0.4974
  883MPD2     N13007   0.433   1.745  16.013  0.5891 -0.6159 -0.8003
  883MPD2    H513008   0.483   1.818  15.963 -0.3173  1.0854  0.7809
  883MPD2    N113009   0.188   1.686  15.598  0.0930  0.1382  0.7261
  883MPD2    H713010   0.231   1.774  15.571 -1.5972  0.6555 -0.2639
  884MPD2     C13011   2.287   2.327  15.247  0.5832 -0.6750  0.5839
  884MPD2    C113012   2.236   2.347  15.123  0.3090  0.1904 -0.2704
  884MPD2    C213013   2.120   2.422  15.116 -0.6336  0.1010 -0.0059
  884MPD2    C313014   2.057   2.476  15.227 -0.2065  0.2005  0.3465
  884MPD2    C413015   2.109   2.447  15.352 -0.1304  0.4543 -0.0686
  884MPD2    C513016   2.227   2.377  15.362 -0.6455 -0.1568  0.3047
  884MPD2     H13017   2.078   2.432  15.017  1.8797  0.0636 -1.0771
  884MPD2    H113018   2.061   2.472  15.446  0.5564  0.5769  0.2524
  884MPD2    H213019   2.372   2.264  15.270  0.3513 -1.3040 -0.2722
  884MPD2    H313020   2.275   2.364  15.458 -0.5258 -1.5448  0.0582
  884MPD2     N13021   1.955   2.564  15.208 -0.1748 -0.5662  0.1037
  884MPD2    H513022   1.956   2.620  15.124  0.4642 -1.2087 -0.3158
  884MPD2    N113023   2.299   2.310  15.001  0.5013  0.1445 -0.2062
  884MPD2    H713024   2.235   2.327  14.924  0.5864 -0.1365 -0.3401
  885MPD2     C13025   0.239   3.081   0.221 -0.3625 -0.1922 -0.7005
  885MPD2    C113026   0.374   3.095   0.231 -0.1858  0.7844  0.5676
  885MPD2    C213027   0.447   3.145   0.123  0.1061  0.8210 -0.2438
  885MPD2    C313028   0.377   3.156   0.000 -0.6727 -0.0186  0.8375
  885MPD2    C413029   0.240   3.131  17.737 -0.8453 -0.0838 -0.3009
  885MPD2    C513030   0.168   3.090   0.110  0.1978 -0.4028 -0.0524
  885MPD2     H13031   0.553   3.166   0.130  0.7031 -2.2634 -0.1948
  885MPD2    H113032   0.180   3.144  17.647 -1.7706 -1.4067  0.1222
  885MPD2    H213033   0.188   3.069   0.316 -1.2485  2.0623 -0.8844
  885MPD2    H313034   0.060   3.077   0.107  0.3099 -1.4497  0.1947
  885MPD2     N13035   0.454   3.197  17.624 -0.3568 -0.6342 -0.2632
  885MPD2    H513036   0.555   3.204  17.636 -0.7706  2.5303  1.5469
  885MPD2    N113037   0.422   3.073   0.358  0.0113  0.0432  0.1908
  885MPD2    H713038   0.358   3.061   0.435  3.0297 -0.9885  2.5681
  886MPD2     C13039   1.556   1.281  15.244 -0.2254  0.5525 -0.0926
  886MPD2    C113040   1.673   1.314  15.307 -0.7113 -0.2172 -0.0476
  886MPD2    C213041   1.755   1.415  15.246 -0.4085 -1.0312 -0.5544
  886MPD2    C313042   1.707   1.482  15.128  0.4599 -0.5387 -0.1934
  886MPD2    C413043   1.585   1.453  15.079  1.0151  0.1446  0.5225
  886MPD2    C513044   1.510   1.359  15.141 -0.2055  0.3270  0.6878
  886MPD2     H13045   1.844   1.430  15.305 -2.5065  2.3964  1.7778
  886MPD2    H113046   1.535   1.510  15.001  2.1241 -0.1465 -0.4088
  886MPD2    H213047   1.495   1.207  15.294 -0.7200  0.8420 -0.2741
  886MPD2    H313048   1.412   1.329  15.105 -0.1375 -1.1211  1.7236
  886MPD2     N13049   1.782   1.579  15.058  0.1931  0.1258  0.7099
  886MPD2    H513050   1.740   1.617  14.973  1.0632  2.4641  1.3328
  886MPD2    N113051   1.723   1.251  15.422  0.1080  0.1968  0.1351
  886MPD2    H713052   1.814   1.276  15.459  0.6102  1.5756 -2.0108
  887MPD2     C13053   2.140   1.370  15.983  0.0165  0.2600 -0.3031
  887MPD2    C113054   2.109   1.352  15.850  0.0502 -0.0103  0.3718
  887MPD2    C213055   2.176   1.425  15.753  0.3400  0.2053  0.3905
  887MPD2    C313056   2.291   1.494  15.795  0.0053 -0.2576  0.3347
  887MPD2    C413057   2.317   1.518  15.932 -0.5799  0.3808 -0.0778
  887MPD2    C513058   2.243   1.450  16.021 -0.4274  0.1247 -0.4598
  887MPD2     H13059   2.153   1.405  15.649 -1.7428  0.1146  0.8688
  887MPD2    H113060   2.390   1.584  15.978  0.5517  0.0456 -1.3832
  887MPD2    H213061   2.094   1.308  16.059 -1.3549  1.7856  0.1083
  887MPD2    H313062   2.271   1.453  16.126 -1.2644  1.2644 -0.2667
  887MPD2     N13063   2.373   1.557  15.696 -0.1841  0.2187 -0.0353
  887MPD2    H513064   2.341   1.542  15.601  0.4759  0.4242 -0.2867
  887MPD2    N113065   2.010   1.267  15.798 -0.3357 -0.1189 -0.5043
  887MPD2    H713066   1.990   1.262  15.698  2.7795  0.0495 -1.1263
  888MPD2     C13067   4.181   1.222  14.836  0.2142 -0.0319 -0.1666
  888MPD2    C113068   4.145   1.267  14.963 -0.1080 -0.8695 -0.3959
  888MPD2    C213069   4.131   1.400  14.980  0.1809  0.5609  0.5148
  888MPD2    C313070   4.160   1.492  14.874 -0.0641  0.7130  0.2655
  888MPD2    C413071   4.198   1.442  14.754 -0.2689  0.1587  0.0458
  888MPD2    C513072   4.200   1.311  14.734 -0.6467  0.6211 -0.8902
  888MPD2     H13073   4.103   1.431  15.080 -0.2697  1.5253  0.0830
  888MPD2    H113074   4.227   1.499  14.666 -1.5400  1.0501  0.1901
  888MPD2    H213075   4.207   1.119  14.816  2.3162  0.3947  0.3353
  888MPD2    H313076   4.231   1.279  14.636 -0.2599 -0.8655 -0.2737
  888MPD2     N13077   4.168   1.627  14.903  0.0704  0.4535 -0.0033
  888MPD2    H513078   4.113   1.655  14.984  3.0216  0.6978  1.9256
  888MPD2    N113079   4.125   1.180  15.068 -0.1700  0.8025  0.5870
  888MPD2    H713080   4.110   1.219  15.161  1.6602  2.4275  0.2124
  889MPD2     C13081   3.310   0.729  12.831  0.2710  0.0041 -0.3173
  889MPD2    C113082   3.432   0.749  12.886 -0.5889 -0.9177 -0.4398
  889MPD2    C213083   3.457   0.875  12.932 -0.4924  0.0725  0.1012
  889MPD2    C313084   3.381   0.980  12.907 -0.1420  0.2024  0.2407
  889MPD2    C413085   3.267   0.964  12.833 -0.1337 -0.3154  0.3221
  889MPD2    C513086   3.232   0.835  12.801  0.0840  0.1465 -0.4422
  889MPD2     H13087   3.535   0.889  13.006 -0.3695  0.2638 -0.0643
  889MPD2    H113088   3.199   1.045  12.807  0.3911 -0.1210 -0.4408
  889MPD2    H213089   3.272   0.632  12.799 -2.0489  0.4315  1.1844
  889MPD2    H313090   3.138   0.816  12.751  0.0709  1.1890 -0.8179
  889MPD2     N13091   3.422   1.107  12.955 -0.3248  0.2770 -0.1078
  889MPD2    H513092   3.513   1.106  13.000  0.5121 -0.8313 -1.8200
  889MPD2    N113093   3.499   0.634  12.943 -0.2498  0.1943 -0.2096
  889MPD2    H713094   3.462   0.540  12.932 -0.9141  0.5840 -1.3357
  890MPD2     C13095   2.846   2.756  14.416 -0.3706 -0.2443 -1.1347
  890MPD2    C113096   2.978   2.777  14.415  0.1296  0.7576  0.0317
  890MPD2    C213097   3.073   2.679  14.454 -0.4766 -0.0561  1.2243
  890MPD2    C313098   3.017   2.567  14.512  0.1485 -0.0000  0.0026
  890MPD2    C413099   2.883   2.548  14.529 -0.3267 -0.4871 -0.5202
  890MPD2    C513100   2.798   2.643  14.481  0.4715  0.2862 -0.3502
  890MPD2     H13101   3.179   2.695  14.438 -1.2887  1.1985 -2.8218
  890MPD2    H113102   2.840   2.456  14.567  2.4791 -1.4647  0.2257
  890MPD2    H213103   2.773   2.827  14.378 -0.5289  0.4902  0.5367
  890MPD2    H313104   2.692   2.628  14.494  0.1191  3.7259  0.7977
  890MPD2     N13105   3.110   2.457  14.543 -0.0809  0.2372  0.0764
  890MPD2    H513106   3.207   2.469  14.517 -0.2970 -1.0371 -1.3442
  890MPD2    N113107   3.024   2.911  14.379  0.2791 -0.1316  0.3273
  890MPD2    H713108   2.949   2.974  14.352 -1.5299 -2.0583  0.8136
  891MPD2     C13109   1.203   0.775  16.746  0.0353  0.1713 -0.1767
  891MPD2    C113110   1.242   0.902  16.760  0.7940  0.3964  1.1307
  891MPD2    C213111   1.363   0.926  16.818 -0.7997  0.3561 -1.0012
  891MPD2    C313112   1.449   0.824  16.859 -0.7514 -0.8353  1.0048
  891MPD2    C413113   1.414   0.696  16.818 -0.7362  0.3622 -0.2384
  891MPD2    C513114   1.292   0.675  16.773 -0.2971 -0.7706 -0.0027
  891MPD2     H13115   1.391   1.026  16.850  0.2587  0.0510 -0.9520
  891MPD2    H113116   1.471   0.608  16.845 -0.2617  1.0190  0.9230
  891MPD2    H213117   1.100   0.757  16.719  0.2207 -1.3008  0.1434
  891MPD2    H313118   1.253   0.576  16.753 -1.8148 -0.2339  0.3141
  891MPD2     N13119   1.556   0.856  16.952  0.6591 -0.0947  0.5878
  891MPD2    H513120   1.573   0.955  16.968 -1.3864  0.2240  0.8010
  891MPD2    N113121   1.151   1.003  16.732 -0.3759 -0.4138  0.1905
  891MPD2    H713122   1.060   0.972  16.701 -1.4377  1.9458  0.9335
  892MPD2     C13123   2.335   2.272  14.529 -0.4332 -0.8360 -0.4388
  892MPD2    C113124   2.213   2.238  14.479  0.3724 -0.5513 -0.3820
  892MPD2    C213125   2.202   2.158  14.368  0.4155  0.1258  0.3704
  892MPD2    C313126   2.319   2.097  14.312  0.1293 -0.3078  0.4124
  892MPD2    C413127   2.439   2.147  14.357  0.2530 -0.0573 -0.0057
  892MPD2    C513128   2.449   2.237  14.462 -0.7481  0.3064 -0.0224
  892MPD2     H13129   2.104   2.122  14.339 -0.1328 -0.0550  2.4874
  892MPD2    H113130   2.529   2.100  14.317 -2.0128 -3.9516 -0.5810
  892MPD2    H213131   2.349   2.346  14.606  1.1062 -2.1293  0.5243
  892MPD2    H313132   2.543   2.274  14.502 -1.7410  4.7783 -1.7768
  892MPD2     N13133   2.330   1.992  14.220 -0.7291 -0.3788 -0.5473
  892MPD2    H513134   2.418   1.974  14.174 -0.8308  0.0192 -0.8970
  892MPD2    N113135   2.091   2.285  14.525 -0.0465  0.0392 -0.2247
  892MPD2    H713136   2.002   2.271  14.479  0.1857 -2.0172 -0.0372
  893MPD2     C13137   4.619   1.714   2.055  0.1224 -0.5544  0.2920
  893MPD2    C113138   4.536   1.678   1.951 -0.3377  0.1781  0.3719
  893MPD2    C213139   4.437   1.768   1.916  0.5112 -0.7066 -0.7961
  893MPD2    C313140   4.417   1.893   1.981 -0.5724  0.2504  0.3976
  893MPD2    C413141   4.497   1.922   2.090  0.2474 -0.3077 -0.2770
  893MPD2    C513142   4.598   1.828   2.121  0.8451 -0.7673  0.2449
  893MPD2     H13143   4.369   1.747   1.834 -2.7461 -1.4270  2.1205
  893MPD2    H113144   4.488   2.007   2.157 -0.7688  0.0059 -0.8152
  893MPD2    H213145   4.693   1.642   2.087 -0.0296  0.0196  1.9162
  893MPD2    H313146   4.648   1.844   2.216 -0.4243  1.6823  0.5115
  893MPD2     N13147   4.305   1.971   1.947 -0.4048 -0.2132  0.1340
  893MPD2    H513148   4.286   2.056   1.998  0.2897  0.0373 -0.0320
  893MPD2    N113149   4.562   1.556   1.883  0.0074 -0.0100 -0.4864
  893MPD2    H713150   4.638   1.497   1.913 -0.3827 -0.7845 -1.0197
  894MPD2     C13151   2.037   2.724   0.887  1.1367 -0.2465 -0.0058
  894MPD2    C113152   1.978   2.772   1.003 -0.0146 -0.3460  0.0185
  894MPD2    C213153   1.966   2.913   1.015  0.0295 -0.5474  0.4332
  894MPD2    C313154   1.993   2.990   0.904 -0.4569 -0.3302  0.1225
  894MPD2    C413155   2.051   2.939   0.793 -0.3566 -0.0056  0.1159
  894MPD2    C513156   2.066   2.806   0.787  0.3297 -0.5771  0.3068
  894MPD2     H13157   1.939   2.955   1.112 -0.2438 -0.2581  0.2317
  894MPD2    H113158   2.069   3.008   0.711  0.6090 -0.9452 -0.4644
  894MPD2    H213159   2.035   2.617   0.868  3.0260 -0.2782 -0.0557
  894MPD2    H313160   2.096   2.763   0.691  2.4450  1.6926 -0.0410
  894MPD2     N13161   1.966   3.126   0.929  0.0118 -0.7636 -0.4192
  894MPD2    H513162   1.956   3.154   1.026 -0.0664 -1.1939 -0.3028
  894MPD2    N113163   1.939   2.689   1.107  0.4350 -0.4641 -0.6584
  894MPD2    H713164   1.883   2.726   1.183  2.2436  0.6462  0.1423
  895MPD2     C13165   0.924   1.495  13.823 -1.0844 -0.5603 -0.2072
  895MPD2    C113166   0.931   1.433  13.704  0.0134  0.0300  0.0302
  895MPD2    C213167   1.038   1.352  13.673  0.5461 -0.0346 -0.2674
  895MPD2    C313168   1.152   1.343  13.757 -0.3825  0.3844 -0.5150
  895MPD2    C413169   1.153   1.414  13.885 -0.4542  0.1887  0.2199
  895MPD2    C513170   1.037   1.486  13.913  0.0237  0.0624  0.4128
  895MPD2     H13171   1.045   1.298  13.579  4.6707 -0.2141  0.1396
  895MPD2    H113172   1.237   1.414  13.953 -0.2958 -1.8221  0.0247
  895MPD2    H213173   0.846   1.566  13.849 -0.8710 -0.6038  0.5359
  895MPD2    H313174   1.030   1.536  14.009  0.1524  0.1582  0.3714
  895MPD2     N13175   1.260   1.276  13.694  0.9173 -0.0966 -0.0072
  895MPD2    H513176   1.246   1.214  13.615  0.9448 -1.5697  1.1527
  895MPD2    N113177   0.827   1.447  13.607  0.0723  0.2288 -0.0982
  895MPD2    H713178   0.851   1.409  13.516  2.9579 -2.4773  1.7854
  896MPD2     C13179   3.576   3.718   1.719  0.6292 -0.1721  0.4347
  896MPD2    C113180   3.565   3.715   1.584  0.1074  0.0202  0.7519
  896MPD2    C213181   3.455   3.642   1.534  0.3405 -0.0820  0.3943
  896MPD2    C313182   3.346   3.613   1.616  0.4223 -0.6294 -0.0285
  896MPD2    C413183   3.365   3.630   1.753 -0.8521 -0.5101  0.8439
  896MPD2    C513184   3.481   3.677   1.804  1.1689 -0.6487  0.6827
  896MPD2     H13185   3.430   3.631   1.429 -1.0495 -0.1802  0.7329
  896MPD2    H113186   3.290   3.596   1.824 -0.3534 -2.6676  0.3457
  896MPD2    H213187   3.667   3.750   1.767  0.4809  1.9801 -0.7250
  896MPD2    H313188   3.497   3.676   1.911  0.9609  2.6643  0.7337
  896MPD2     N13189   3.230   3.560   1.548 -0.5709 -0.4525 -0.2868
  896MPD2    H513190   3.241   3.534   1.450  3.4000  1.2922 -0.3140
  896MPD2    N113191   3.672   3.764   1.504  0.1467  0.2510 -0.1400
  896MPD2    H713192   3.737   3.822   1.556  2.8253 -0.8313 -2.2742
  897MPD2     C13193   4.676   0.091  10.441 -0.7410 -0.6431 -0.2719
  897MPD2    C113194   4.644   0.226  10.473 -0.7823 -0.0359  0.3420
  897MPD2    C213195   4.581   0.256  10.593  0.1241  0.4196 -0.3119
  897MPD2    C313196   4.557   0.149  10.680  0.5051 -0.2879 -0.3075
  897MPD2    C413197   4.609   0.024  10.656 -0.1429 -0.4051 -0.2658
  897MPD2    C513198   4.671   4.729  10.539 -0.2080  0.2130  0.0629
  897MPD2     H13199   4.531   0.350  10.615 -0.3431  0.2563 -0.6691
  897MPD2    H113200   4.611   4.678  10.728 -0.3365  1.3232  1.6812
  897MPD2    H213201   4.717   0.062  10.345  0.3242 -2.5400  0.7563
  897MPD2    H313202   4.690   4.628  10.506 -2.1201  0.1797 -0.9168
  897MPD2     N13203   4.480   0.175  10.802  0.3844  0.0699 -0.7614
  897MPD2    H513204   4.448   0.270  10.815 -2.4809 -0.6327 -2.8150
  897MPD2    N113205   4.686   0.325  10.382  0.0155  0.3619  0.4972
  897MPD2    H713206   0.001   0.302  10.297  1.8282 -0.8427  1.9001
  898MPD2     C13207   1.210   1.478   0.162 -0.5354 -0.3494 -0.6098
  898MPD2    C113208   1.337   1.454   0.211 -0.4835  0.2863  0.4355
  898MPD2    C213209   1.427   1.561   0.206 -0.2859 -0.7198 -0.1570
  898MPD2    C313210   1.389   1.687   0.159 -0.0301 -0.1282  0.4871
  898MPD2    C413211   1.265   1.709   0.102  0.0552  0.4295  0.0449
  898MPD2    C513212   1.175   1.604   0.108 -0.4423 -0.5673 -0.3222
  898MPD2     H13213   1.523   1.550   0.255  0.9214  0.8472 -2.1604
  898MPD2    H113214   1.237   1.803   0.058  0.7095  0.5300 -0.1597
  898MPD2    H213215   1.130   1.406   0.147  0.1493 -1.2922  0.3357
  898MPD2    H313216   1.074   1.613   0.068  0.3274  0.9613 -1.9230
  898MPD2     N13217   1.500   1.786   0.169  0.5869  0.3598  0.2851
  898MPD2    H513218   1.593   1.764   0.202  1.0361  1.0806 -0.4736
  898MPD2    N113219   1.379   1.324   0.245 -0.0010 -0.2476 -0.0128
  898MPD2    H713220   1.476   1.316   0.277  0.0605  0.6210  0.0442
  899MPD2     C13221   2.881   1.740  17.215 -0.5944 -0.8189 -0.1100
  899MPD2    C113222   2.930   1.860  17.255  0.3821 -0.1840 -0.5123
  899MPD2    C213223   2.916   1.893  17.391 -0.3999 -0.7826 -0.1680
  899MPD2    C313224   2.862   1.801  17.486  0.5332 -0.2572  0.4006
  899MPD2    C413225   2.819   1.675  17.445  0.7613 -0.3306  0.4187
  899MPD2    C513226   2.834   1.650  17.310  0.0494 -0.0924  0.0224
  899MPD2     H13227   2.960   1.986  17.424 -2.0014  0.3125 -1.1058
  899MPD2    H113228   2.775   1.601  17.510 -2.2780 -0.0125 -1.2479
  899MPD2    H213229   2.892   1.699  17.115 -0.2312 -4.4120  1.3773
  899MPD2    H313230   2.822   1.548  17.275 -0.2186 -0.3691  0.9436
  899MPD2     N13231   2.830   1.836  17.624  0.2948 -0.0010  0.2248
  899MPD2    H513232   2.779   1.769  17.681  0.3436 -0.6291 -0.4684
  899MPD2    N113233   2.955   1.956  17.152 -0.4149 -0.3169  0.1076
  899MPD2    H713234   2.936   1.936  17.054  0.7975  2.6830 -0.7427
  900MPD2     C13235   2.407   3.629  12.509 -0.3551 -0.6527 -0.3297
  900MPD2    C113236   2.319   3.546  12.568 -0.1503 -0.2865 -0.0150
  900MPD2    C213237   2.192   3.590  12.596  0.2419 -0.4765  0.7343
  900MPD2    C313238   2.160   3.722  12.575  0.2602  0.1227  0.2880
  900MPD2    C413239   2.249   3.811  12.515 -0.4604  0.6665 -0.9700
  900MPD2    C513240   2.373   3.758  12.487  0.0483 -0.6107 -0.1451
  900MPD2     H13241   2.122   3.526  12.648  0.0067  0.9717  2.2104
  900MPD2    H113242   2.233   3.917  12.499 -1.0823  0.8102  0.6409
  900MPD2    H213243   2.506   3.589  12.486  0.3519  0.7596  0.2482
  900MPD2    H313244   2.445   3.829  12.449 -0.3747 -0.1205 -0.0269
  900MPD2     N13245   2.032   3.764  12.609  0.1779  0.0422 -0.3015
  900MPD2    H513246   1.970   3.688  12.635 -2.6191  2.7624  1.0929
  900MPD2    N113247   2.363   3.413  12.589 -0.6888  0.1806  1.1157
  900MPD2    H713248   2.455   3.384  12.555  0.6412  3.2600  2.1383
  901MPD2     C13249   2.244   2.410  12.988  0.1474 -0.0654 -0.4337
  901MPD2    C113250   2.307   2.389  12.869  0.2557  0.3288 -0.0484
  901MPD2    C213251   2.328   2.494  12.787 -0.4215  0.3145  0.5932
  901MPD2    C313252   2.302   2.621  12.831 -0.2339  0.8649 -0.5102
  901MPD2    C413253   2.241   2.645  12.952  0.0500 -0.9359 -0.6271
  901MPD2    C513254   2.207   2.538  13.028  0.1700  0.3507  0.1986
  901MPD2     H13255   2.374   2.481  12.689 -0.7985  1.3994  0.2740
  901MPD2    H113256   2.209   2.737  13.000  2.9117 -1.0518  1.4935
  901MPD2    H213257   2.221   2.336  13.064 -0.5531  1.2772  0.6594
  901MPD2    H313258   2.156   2.553  13.122  1.8773  1.7740  0.8972
  901MPD2     N13259   2.328   2.729  12.749 -0.3728  0.2451  0.4010
  901MPD2    H513260   2.356   2.700  12.656  2.8276 -0.2535  1.5078
  901MPD2    N113261   2.319   2.255  12.830 -0.6242  0.4080 -0.5321
  901MPD2    H713262   2.288   2.185  12.897 -1.2132  0.1138 -1.1159
  902MPD2     C13263   1.225   1.142  12.438  0.5852  0.0583 -0.3651
  902MPD2    C113264   1.240   1.273  12.469  0.5401  0.0660  0.1041
  902MPD2    C213265   1.346   1.312  12.556 -0.0686 -0.4163  0.4976
  902MPD2    C313266   1.441   1.226  12.583 -0.5109 -0.2402  0.3894
  902MPD2    C413267   1.425   1.093  12.554  0.0331 -0.4298  0.0464
  902MPD2    C513268   1.321   1.051  12.480  0.2024  0.3335  0.2691
  902MPD2     H13269   1.363   1.417  12.574  0.6471 -0.3501 -0.5483
  902MPD2    H113270   1.497   1.015  12.577  1.4363  0.7111 -0.4889
  902MPD2    H213271   1.149   1.102  12.372  0.2553  0.6662 -0.3526
  902MPD2    H313272   1.319   0.945  12.457  0.5825  0.4355 -0.2144
  902MPD2     N13273   1.563   1.268  12.643  0.0347  0.3492  0.3542
  902MPD2    H513274   1.641   1.203  12.638 -0.7593 -0.5575 -0.0868
  902MPD2    N113275   1.152   1.370  12.410 -0.4782  0.6250  0.0072
  902MPD2    H713276   1.085   1.331  12.345 -2.0330  3.6819 -0.1681
  903MPD2     C13277   1.389   1.656  12.179  0.0521 -0.7500  0.0877
  903MPD2    C113278   1.467   1.549  12.184 -0.0072 -0.0216  0.2125
  903MPD2    C213279   1.435   1.438  12.110 -0.1608 -0.1244  0.1307
  903MPD2    C313280   1.323   1.442  12.026  0.0169 -0.0550  0.3189
  903MPD2    C413281   1.255   1.560  12.010  0.3022  0.2109  0.2280
  903MPD2    C513282   1.284   1.667  12.085  0.0383 -0.6457 -0.4109
  903MPD2     H13283   1.494   1.350  12.129 -0.6552 -0.8203 -1.4840
  903MPD2    H113284   1.166   1.577  11.950  1.0728  1.0917 -0.6755
  903MPD2    H213285   1.423   1.738  12.242 -2.9021  1.0479 -0.6483
  903MPD2    H313286   1.229   1.760  12.075  0.3294 -0.6744 -2.2371
  903MPD2     N13287   1.280   1.316  11.969  0.1476 -0.2772 -0.0078
  903MPD2    H513288   1.332   1.230  11.984  0.5732 -0.2482 -1.2874
  903MPD2    N113289   1.576   1.547  12.276 -0.3555 -0.1812 -0.2832
  903MPD2    H713290   1.585   1.632  12.331  1.1955 -3.2713  4.2088
  904MPD2     C13291   0.809   0.515  14.230  0.5974 -0.0502 -0.4059
  904MPD2    C113292   0.869   0.636  14.214 -0.3070  0.0933 -0.2213
  904MPD2    C213293   0.999   0.652  14.262  0.6845 -0.3704 -0.2833
  904MPD2    C313294   1.061   0.543  14.322 -0.2770  0.2923  0.7580
  904MPD2    C413295   0.999   0.422  14.335  0.4266  0.2694  0.5284
  904MPD2    C513296   0.868   0.405  14.289  0.1674  0.4740  0.5325
  904MPD2     H13297   1.059   0.742  14.251  1.8454 -1.3004 -1.4754
  904MPD2    H113298   1.048   0.341  14.387 -1.1092  0.4546  2.2700
  904MPD2    H213299   0.704   0.511  14.207  0.1434  0.0179  1.7013
  904MPD2    H313300   0.820   0.308  14.295 -0.3207  0.6759  0.0036
  904MPD2     N13301   1.202   0.560  14.346  0.0851  0.2886 -0.2516
  904MPD2    H513302   1.238   0.653  14.328  2.4285 -0.7545 -0.8645
  904MPD2    N113303   0.816   0.749  14.147 -0.2721 -0.4451  0.5009
  904MPD2    H713304   0.878   0.830  14.149  0.4346 -1.0278  3.1318
  905MPD2     C13305   0.836   0.684  13.498 -0.1554  0.1108 -1.0548
  905MPD2    C113306   0.841   0.817  13.538 -0.0150  0.1448  0.0035
  905MPD2    C213307   0.964   0.884  13.520 -0.5749 -0.6840 -0.6262
  905MPD2    C313308   1.070   0.808  13.471  0.7637  0.4832 -0.5049
  905MPD2    C413309   1.059   0.678  13.444 -0.5421 -0.4894 -0.0583
  905MPD2    C513310   0.947   0.612  13.454 -0.8192  0.6019  0.6910
  905MPD2     H13311   0.988   0.985  13.551 -0.9211 -0.6859 -0.3499
  905MPD2    H113312   1.157   0.631  13.436 -1.0452 -1.3379 -1.2317
  905MPD2    H213313   0.741   0.632  13.505 -0.0267  0.1251  0.9495
  905MPD2    H313314   0.947   0.508  13.424  1.0141  1.3955 -2.0532
  905MPD2     N13315   1.201   0.870  13.464  0.3940 -0.0747  0.2901
  905MPD2    H513316   1.273   0.804  13.437  2.5898  2.6200 -0.4322
  905MPD2    N113317   0.730   0.871  13.609  0.0629  0.2087  0.1689
  905MPD2    H713318   0.646   0.817  13.626 -0.8558  1.0734 -1.6549
  906MPD2     C13319   3.622   1.239  11.135  0.0914  0.6055  0.4648
  906MPD2    C113320   3.565   1.167  11.034 -0.0736  0.9011 -0.1416
  906MPD2    C213321   3.504   1.048  11.070 -0.5899  0.3600 -0.2939
  906MPD2    C313322   3.527   0.999  11.199 -0.1626  0.2358 -0.6848
  906MPD2    C413323   3.581   1.074  11.299 -0.3304  0.2383 -0.2508
  906MPD2    C513324   3.621   1.201  11.265  0.2906  0.0346 -0.4088
  906MPD2     H13325   3.449   0.994  10.994 -0.4044  0.2104 -0.3213
  906MPD2    H113326   3.584   1.041  11.402  0.8115  0.7602 -0.1075
  906MPD2    H213327   3.663   1.337  11.116 -0.2883  0.3281 -1.7839
  906MPD2    H313328   3.664   1.264  11.342  0.6285 -1.3109  0.5026
  906MPD2     N13329   3.501   0.862  11.227  0.1671  0.1226  0.2405
  906MPD2    H513330   3.523   0.834  11.322  0.5961  1.1684  0.4562
  906MPD2    N113331   3.578   1.226  10.910  0.0337  0.7261  0.4261
  906MPD2    H713332   3.606   1.323  10.913  1.6122  0.2926 -0.1047
  907MPD2     C13333   2.117   0.056  15.946  0.7560  0.3842 -0.4246
  907MPD2    C113334   2.183   4.681  15.902 -0.2634 -0.1839  0.5122
  907MPD2    C213335   2.226   4.583  15.988  0.9393 -0.2996 -0.1185
  907MPD2    C313336   2.217   4.601  16.128  0.0903  0.8133 -0.1159
  907MPD2    C413337   2.168   4.727  16.169 -0.4273 -0.1827 -0.0626
  907MPD2    C513338   2.109   0.078  16.080 -0.4592 -0.4795  0.5701
  907MPD2     H13339   2.266   4.491  15.946  0.8259 -0.8540  0.9856
  907MPD2    H113340   2.172   0.023  16.273  2.0625  2.2423 -0.9002
  907MPD2    H213341   2.067   0.128  15.882  0.9044  1.5566  0.7699
  907MPD2    H313342   2.066   0.170  16.116  0.7473 -0.2090  1.3087
  907MPD2     N13343   2.262   4.502  16.216  0.0192 -0.0623  0.1029
  907MPD2    H513344   2.297   4.420  16.168  0.2793  1.2319 -1.8861
  907MPD2    N113345   2.203   4.643  15.764 -0.1762  0.0519  0.2905
  907MPD2    H713346   2.239   4.551  15.741 -1.3082 -0.2877 -0.1146
  908MPD2     C13347   0.368   0.238   9.621 -0.9030 -0.2592 -0.4635
  908MPD2    C113348   0.239   0.224   9.657  0.0960 -0.1307  0.2304
  908MPD2    C213349   0.204   0.263   9.790  0.2316 -0.2052  0.2645
  908MPD2    C313350   0.283   0.329   9.878 -0.0616  0.0806 -0.5270
  908MPD2    C413351   0.413   0.343   9.831  0.5608  0.2279 -0.7865
  908MPD2    C513352   0.457   0.297   9.711 -0.4971  0.5244 -0.4442
  908MPD2     H13353   0.103   0.250   9.828 -0.0149 -0.0217 -0.3309
  908MPD2    H113354   0.486   0.408   9.879 -0.3216  1.5401 -1.2183
  908MPD2    H213355   0.396   0.211   9.520 -1.9627  0.9234 -1.0733
  908MPD2    H313356   0.559   0.322   9.682  0.0554  1.3077  2.1308
  908MPD2     N13357   0.231   0.387   9.996  0.5561 -0.3506  0.7626
  908MPD2    H513358   0.133   0.370  10.016  0.9624 -0.4367  2.6206
  908MPD2    N113359   0.154   0.182   9.557 -0.8645  0.4064 -0.3476
  908MPD2    H713360   0.198   0.147   9.471 -0.6403  1.2270 -0.5673
  909MPD2     C13361   0.725   3.286  11.199  0.6240  0.8765 -0.7948
  909MPD2    C113362   0.699   3.416  11.243 -0.0659  0.1642 -0.5798
  909MPD2    C213363   0.620   3.431  11.357 -0.4957 -0.0893  0.2748
  909MPD2    C313364   0.548   3.326  11.404  0.2649  0.7924  0.3034
  909MPD2    C413365   0.578   3.199  11.357  1.3407 -0.0007  0.0204
  909MPD2    C513366   0.663   3.178  11.256 -0.1270 -0.0259 -0.3142
  909MPD2     H13367   0.604   3.532  11.393  2.0678  0.4845 -0.2129
  909MPD2    H113368   0.521   3.115  11.395  1.6039 -0.2935 -0.2328
  909MPD2    H213369   0.798   3.270  11.120  1.0568  1.1154 -0.4440
  909MPD2    H313370   0.687   3.077  11.225 -1.3209 -0.4696  0.2151
  909MPD2     N13371   0.452   3.344  11.511  0.3476 -0.1637  0.1824
  909MPD2    H513372   0.449   3.437  11.552 -0.9218 -0.8542  1.6575
  909MPD2    N113373   0.765   3.530  11.190  0.1941 -0.0078  0.3083
  909MPD2    H713374   0.742   3.614  11.242  1.6889  1.0915 -0.7908
  910MPD2     C13375   1.653   0.370  16.014  0.2118  0.5275  0.1037
  910MPD2    C113376   1.700   0.268  15.938  0.4618  0.1000  0.4210
  910MPD2    C213377   1.691   0.281  15.799 -0.2447  0.3936 -0.5500
  910MPD2    C313378   1.641   0.396  15.740 -0.1480  0.1715 -0.1644
  910MPD2    C413379   1.603   0.496  15.827  0.1158  0.5740 -0.0192
  910MPD2    C513380   1.609   0.483  15.964  0.0987  0.3453  0.2249
  910MPD2     H13381   1.719   0.198  15.736 -0.5133 -1.5389  1.9104
  910MPD2    H113382   1.567   0.586  15.779 -0.1977 -0.5259 -1.8337
  910MPD2    H213383   1.644   0.360  16.121  1.5842  1.7379  0.3257
  910MPD2    H313384   1.567   0.556  16.033 -0.1898 -1.7374  2.2278
  910MPD2     N13385   1.620   0.411  15.601 -0.5825 -0.3962 -0.1595
  910MPD2    H513386   1.569   0.496  15.580 -2.3645 -1.7228 -1.1925
  910MPD2    N113387   1.747   0.145  15.991 -0.3110  0.4823  0.3229
  910MPD2    H713388   1.763   0.069  15.925  0.7360 -0.9475  2.2103
  911MPD2     C13389   4.237   0.873  16.455  0.8909 -0.1395 -0.0296
  911MPD2    C113390   4.317   0.979  16.478  0.4750  0.0936  0.2428
  911MPD2    C213391   4.284   1.108  16.441  0.5927 -0.2045 -0.3115
  911MPD2    C313392   4.164   1.131  16.387  0.0422  0.1083 -0.1498
  911MPD2    C413393   4.085   1.024  16.370 -0.4854 -0.1865  0.1868
  911MPD2    C513394   4.116   0.895  16.400  0.3927 -0.2176  0.3345
  911MPD2     H13395   4.356   1.187  16.456 -0.0024 -0.2397  2.6923
  911MPD2    H113396   3.982   1.036  16.337 -0.3319  2.1816  0.5117
  911MPD2    H213397   4.266   0.773  16.486  2.0723  0.5337  1.0003
  911MPD2    H313398   4.040   0.818  16.401 -1.3006  1.4547 -0.2676
  911MPD2     N13399   4.117   1.259  16.342  0.4704  0.4506 -0.7303
  911MPD2    H513400   4.020   1.264  16.315  0.8179  0.3012 -1.9999
  911MPD2    N113401   4.447   0.958  16.534 -0.0094 -0.4859  0.6586
  911MPD2    H713402   4.479   0.864  16.558  1.7257  0.3797  1.7552
  912MPD2     C13403   3.621   1.331  15.851  0.0645  0.2789  0.1194
  912MPD2    C113404   3.675   1.311  15.980 -0.2186  0.3379 -1.3647
  912MPD2    C213405   3.632   1.201  16.047  0.4311 -0.1544  0.4351
  912MPD2    C313406   3.542   1.111  16.001  0.2901  0.0594 -0.4947
  912MPD2    C413407   3.488   1.137  15.876 -0.0716 -0.7763  0.3821
  912MPD2    C513408   3.523   1.251  15.804 -0.2775  0.4955 -0.1836
  912MPD2     H13409   3.675   1.189  16.146  0.1690  0.8330  0.6732
  912MPD2    H113410   3.418   1.073  15.825  0.9419 -2.9682  1.7292
  912MPD2    H213411   3.651   1.414  15.789 -0.7035  0.1766 -0.3966
  912MPD2    H313412   3.483   1.273  15.706 -2.5120 -1.1686  0.3565
  912MPD2     N13413   3.511   1.002  16.085  0.5461  0.1250 -0.0002
  912MPD2    H513414   3.569   0.990  16.167 -0.9239  1.1357  1.1744
  912MPD2    N113415   3.762   1.404  16.035 -0.3943 -0.5951  0.0593
  912MPD2    H713416   3.765   1.488  15.978 -0.7183  0.2119  1.2443
  913MPD2     C13417   0.433   2.528  10.765 -0.1810  0.0906 -0.1206
  913MPD2    C113418   0.397   2.537  10.631 -0.5599  0.2630 -0.0938
  913MPD2    C213419   0.330   2.649  10.588  0.8251 -0.4877  0.5992
  913MPD2    C313420   0.289   2.741  10.684 -0.0112 -0.1954  0.4086
  913MPD2    C413421   0.305   2.721  10.819  0.0853 -0.0578  0.0381
  913MPD2    C513422   0.372   2.607  10.861 -0.2893 -0.7714 -0.1525
  913MPD2     H13423   0.288   2.662  10.489  0.9484 -1.2252  0.4517
  913MPD2    H113424   0.270   2.801  10.883  2.3600  1.9297 -1.1898
  913MPD2    H213425   0.502   2.448  10.790 -0.0717  0.4892  0.8396
  913MPD2    H313426   0.395   2.594  10.966 -1.0672 -2.5878 -0.2139
  913MPD2     N13427   0.223   2.859  10.646 -0.4718  0.3885 -0.2008
  913MPD2    H513428   0.181   2.911  10.723 -2.7874 -0.1195 -1.1065
  913MPD2    N113429   0.449   2.438  10.547 -0.2476 -0.3787 -0.0123
  913MPD2    H713430   0.517   2.372  10.583  0.5188  0.9950  1.0421
  914MPD2     C13431   2.563   2.256  12.011 -0.4428  0.8700  0.0092
  914MPD2    C113432   2.487   2.331  12.101  0.5973  0.2490  0.0989
  914MPD2    C213433   2.433   2.275  12.209 -0.7784 -0.0306  0.0545
  914MPD2    C313434   2.446   2.137  12.217  0.3853  0.0727 -0.4415
  914MPD2    C413435   2.514   2.065  12.127  0.2093  0.1878  0.1851
  914MPD2    C513436   2.582   2.126  12.026 -0.8683  0.1775  0.0738
  914MPD2     H13437   2.363   2.326  12.274 -1.7276 -0.1348 -0.8848
  914MPD2    H113438   2.510   1.956  12.124 -0.4766  0.1846  1.4009
  914MPD2    H213439   2.622   2.306  11.935  1.8928 -0.3458  1.0344
  914MPD2    H313440   2.629   2.072  11.946  0.4429  0.4211  0.6850
  914MPD2     N13441   2.385   2.079  12.328 -0.4140 -0.1361 -0.1434
  914MPD2    H513442   2.347   2.139  12.401  0.2678  0.1450 -0.0176
  914MPD2    N113443   2.482   2.469  12.075 -0.2150  0.2346 -0.3232
  914MPD2    H713444   2.534   2.507  11.997  0.3029  1.3947  0.5820
  915MPD2     C13445   0.026   2.590  15.095  0.0335  0.2729  0.0322
  915MPD2    C113446   4.669   2.562  15.188  0.6683 -0.9909 -0.2714
  915MPD2    C213447   4.707   2.563  15.319 -0.1611  0.7252  0.4319
  915MPD2    C313448   0.100   2.604  15.356 -0.3355  0.5969 -0.4635
  915MPD2    C413449   0.198   2.628  15.259 -0.7979  0.4077 -0.1292
  915MPD2    C513450   0.150   2.630  15.131 -0.4726 -0.0455  0.0820
  915MPD2     H13451   4.636   2.557  15.400  0.7991 -0.2131  1.2129
  915MPD2    H113452   0.305   2.637  15.274 -0.7704  0.2100 -0.2084
  915MPD2    H213453   4.734   2.572  14.991  0.8894  0.3988 -0.2085
  915MPD2    H313454   0.219   2.643  15.048  0.0900  2.2413  0.9060
  915MPD2     N13455   0.128   2.624  15.491 -0.3027 -0.1580  0.0211
  915MPD2    H513456   0.052   2.599  15.554  0.3088 -0.2745  0.7112
  915MPD2    N113457   4.542   2.519  15.142  0.2439 -0.5752 -0.1885
  915MPD2    H713458   4.531   2.516  15.041 -1.3106 -0.0840 -0.0377
  916MPD2     C13459   3.506   0.705  15.516  0.1943  0.1585 -0.9358
  916MPD2    C113460   3.412   0.684  15.617  0.9963  0.4605  0.2340
  916MPD2    C213461   3.446   0.581  15.703 -0.6750 -0.6391 -0.1751
  916MPD2    C313462   3.560   0.511  15.700  0.0827  0.2739  0.0978
  916MPD2    C413463   3.646   0.525  15.587  0.8412  0.1658  0.0761
  916MPD2    C513464   3.618   0.623  15.496  0.0199 -0.3193 -1.1635
  916MPD2     H13465   3.374   0.568  15.783 -1.2087 -2.2776 -0.9263
  916MPD2    H113466   3.739   0.470  15.581  0.0802 -0.9394 -1.7668
  916MPD2    H213467   3.506   0.792  15.451 -2.3252  1.3028  0.5814
  916MPD2    H313468   3.683   0.655  15.415  0.2235  4.6941  0.9405
  916MPD2     N13469   3.595   0.430  15.813 -0.4140 -0.1303 -0.5177
  916MPD2    H513470   3.538   0.437  15.896  0.3906 -0.2664  0.0472
  916MPD2    N113471   3.314   0.785  15.644  0.6153 -0.0808  0.4547
  916MPD2    H713472   3.325   0.880  15.610 -1.9888 -0.2679 -0.8735
  917MPD2     C13473   3.344   2.872  11.046  0.4534  0.0745 -0.5564
  917MPD2    C113474   3.409   2.934  11.146 -0.1117  0.3281 -0.1946
  917MPD2    C213475   3.447   3.065  11.129 -0.9181  0.7094  0.0140
  917MPD2    C313476   3.409   3.137  11.019  0.0604  0.2323 -0.3226
  917MPD2    C413477   3.343   3.066  10.917  0.0603 -0.3437 -0.3831
  917MPD2    C513478   3.313   2.935  10.930 -0.5913  0.5699 -0.5920
  917MPD2     H13479   3.517   3.118  11.192  0.3177  0.8231 -1.4588
  917MPD2    H113480   3.325   3.104  10.817  2.2937 -0.0440 -0.6762
  917MPD2    H213481   3.314   2.768  11.046 -1.3185  0.5871  0.6764
  917MPD2    H313482   3.272   2.871  10.853  0.5879 -0.4935 -0.3500
  917MPD2     N13483   3.437   3.270  11.005 -0.1260 -0.3529 -0.4007
  917MPD2    H513484   3.429   3.314  10.914  3.1351  0.0268 -0.4961
  917MPD2    N113485   3.422   2.860  11.270  0.5188 -0.5779  1.1019
  917MPD2    H713486   3.376   2.769  11.274  0.8088 -0.8393 -1.6151
  918MPD2     C13487   3.659   3.315  12.149 -0.5219  0.1097 -0.7566
  918MPD2    C113488   3.751   3.317  12.039  0.4299 -0.3505 -0.6183
  918MPD2    C213489   3.719   3.229  11.937 -0.5522  0.5983  0.5147
  918MPD2    C313490   3.611   3.147  11.940 -0.4476 -0.3297  0.0146
  918MPD2    C413491   3.525   3.153  12.045  0.0955  0.5871 -0.2788
  918MPD2    C513492   3.550   3.234  12.154  0.0486  0.6695 -0.0732
  918MPD2     H13493   3.789   3.221  11.854 -0.9443 -3.2091  0.5622
  918MPD2    H113494   3.427   3.108  12.049 -0.1930  1.3909  1.4090
  918MPD2    H213495   3.672   3.379  12.236  0.3766  0.4975 -1.1750
  918MPD2    H313496   3.483   3.223  12.239 -0.7234 -0.9410 -0.8957
  918MPD2     N13497   3.591   3.044  11.843  0.0804  0.8284  0.3715
  918MPD2    H513498   3.650   3.027  11.763  0.4402 -0.2492  0.8626
  918MPD2    N113499   3.878   3.387  12.043  0.0036  0.1293 -0.3213
  918MPD2    H713500   3.939   3.371  11.964  1.2019 -2.0443  1.0482
  919MPD2     C13501   4.348   2.103  11.924 -0.2681 -0.1032 -0.3791
  919MPD2    C113502   4.314   1.993  11.854 -0.9114  0.5560 -0.3283
  919MPD2    C213503   4.317   2.004  11.719 -0.0645 -0.0722  0.1132
  919MPD2    C313504   4.357   2.119  11.658  0.0652 -1.0643 -0.0747
  919MPD2    C413505   4.388   2.236  11.725  0.3132 -0.4682  0.0330
  919MPD2    C513506   4.393   2.224  11.858 -0.0891  0.6391  0.2193
  919MPD2     H13507   4.284   1.918  11.662  0.4946  0.3843 -0.9028
  919MPD2    H113508   4.420   2.324  11.671 -0.1381 -0.7521 -0.6930
  919MPD2    H213509   4.365   2.110  12.030 -0.1882 -0.0811 -0.3933
  919MPD2    H313510   4.417   2.310  11.919  0.2213  1.5659 -1.2134
  919MPD2     N13511   4.355   2.129  11.517  0.0592 -0.2260 -0.0675
  919MPD2    H513512   4.372   2.224  11.484  0.4485 -0.5163 -0.6894
  919MPD2    N113513   4.271   1.873  11.922  0.1801 -0.1070 -0.2025
  919MPD2    H713514   4.250   1.791  11.865  2.6536 -0.1175 -1.0961
  920MPD2     C13515   4.065   2.766  10.807 -0.1472 -0.8622  0.1962
  920MPD2    C113516   4.018   2.647  10.765  0.0719  0.3542  0.0341
  920MPD2    C213517   4.040   2.537  10.833  0.1343 -0.4307 -0.5019
  920MPD2    C313518   4.117   2.536  10.950  0.7639  0.0670 -0.1578
  920MPD2    C413519   4.176   2.652  10.984  0.2868  0.4312  0.2843
  920MPD2    C513520   4.152   2.767  10.913 -0.3914 -0.1726 -0.4496
  920MPD2     H13521   4.008   2.443  10.789  2.4176 -2.0766  1.4216
  920MPD2    H113522   4.238   2.673  11.070 -0.5796 -1.3134  1.3272
  920MPD2    H213523   4.050   2.857  10.751  0.0352 -1.8779 -1.5119
  920MPD2    H313524   4.216   2.850  10.941  0.5919 -0.9792 -0.3274
  920MPD2     N13525   4.150   2.413  11.004 -0.0096  0.5193 -0.3769
  920MPD2    H513526   4.100   2.335  10.963 -0.5378  0.3833  0.5190
  920MPD2    N113527   3.940   2.626  10.648  0.0200  0.0519 -0.0625
  920MPD2    H713528   3.910   2.532  10.622  0.8992  0.0688 -1.1337
  921MPD2     C13529   0.431   1.467  16.922 -0.3581  0.2472 -0.1925
  921MPD2    C113530   0.487   1.358  16.865 -1.0426  0.3376 -0.7976
  921MPD2    C213531   0.414   1.239  16.852  0.0915  0.2266  0.1216
  921MPD2    C313532   0.280   1.247  16.883  0.1846 -0.5947 -0.5190
  921MPD2    C413533   0.225   1.363  16.938 -0.0170  0.2286  0.1962
  921MPD2    C513534   0.302   1.471  16.959  0.2454  0.4085  0.1567
  921MPD2     H13535   0.466   1.152  16.815  1.3298  0.3185  1.6390
  921MPD2    H113536   0.120   1.356  16.963  0.2488  2.0410  1.7922
  921MPD2    H213537   0.488   1.557  16.943 -0.5557 -0.5190  3.6917
  921MPD2    H313538   0.270   1.564  17.006  2.4198  1.1231  0.2343
  921MPD2     N13539   0.192   1.136  16.864  0.2039  0.2229  0.3659
  921MPD2    H513540   0.091   1.144  16.874  0.1463  1.0969 -0.9954
  921MPD2    N113541   0.623   1.364  16.826  0.3834  0.1005  0.1783
  921MPD2    H713542   0.667   1.455  16.822 -0.6504  0.4817 -2.3027
  922MPD2     C13543   1.255   4.015  16.891  0.6059 -0.6136  0.3700
  922MPD2    C113544   1.180   4.063  16.993 -0.4313 -0.6417  0.3239
  922MPD2    C213545   1.071   3.985  17.034 -0.1258  0.1281 -0.0779
  922MPD2    C313546   1.037   3.865  16.967  0.1484  0.6289 -0.0837
  922MPD2    C413547   1.114   3.820  16.864  0.3068 -0.0116  0.0732
  922MPD2    C513548   1.225   3.897  16.831 -0.1219  0.2760  0.0953
  922MPD2     H13549   1.006   4.023  17.111 -0.0782  0.8358 -0.3843
  922MPD2    H113550   1.084   3.736  16.802  2.0685 -2.6914  2.8290
  922MPD2    H213551   1.344   4.066  16.857 -2.5314  4.6278 -0.0320
  922MPD2    H313552   1.283   3.872  16.743 -1.1509  2.0059 -1.0600
  922MPD2     N13553   0.927   3.799  17.019 -0.6679 -0.4750  0.4045
  922MPD2    H513554   0.864   3.846  17.083  0.0615  1.1144 -0.0446
  922MPD2    N113555   1.222   4.177  17.066 -0.0560 -0.1812 -0.2807
  922MPD2    H713556   1.156   4.211  17.136  0.6607 -1.7666  1.1670
  923MPD2     C13557   2.399   0.908   9.070 -0.2267  0.3509 -0.1283
  923MPD2    C113558   2.307   0.981   9.142 -0.1879  0.0926  0.3037
  923MPD2    C213559   2.357   1.087   9.223  0.0998  0.5552  0.6851
  923MPD2    C313560   2.488   1.115   9.233  0.4276  0.2967 -0.3764
  923MPD2    C413561   2.580   1.027   9.170  0.3101  0.0490  0.7635
  923MPD2    C513562   2.533   0.935   9.080 -0.5029 -0.7019  0.3090
  923MPD2     H13563   2.285   1.152   9.272 -1.9466 -1.6950  0.6768
  923MPD2    H113564   2.687   1.041   9.172  0.4374 -0.9448  0.9728
  923MPD2    H213565   2.374   0.849   8.983 -0.9366  1.6757 -0.8188
  923MPD2    H313566   2.596   0.880   9.012  1.8917  0.5070  1.5447
  923MPD2     N13567   2.550   1.212   9.318 -0.1014 -0.0952 -0.5304
  923MPD2    H513568   2.649   1.199   9.334 -0.4009 -1.8590 -0.1282
  923MPD2    N113569   2.168   0.946   9.148  0.5702  0.0595  0.1205
  923MPD2    H713570   2.145   0.863   9.096  0.2944  0.5598 -0.5586
  924MPD2     C13571   2.694   3.677  16.480 -0.1256  0.1946 -0.1290
  924MPD2    C113572   2.625   3.744  16.378 -0.2386 -0.1059 -0.0257
  924MPD2    C213573   2.626   3.879  16.372  1.2723 -0.0499 -0.2657
  924MPD2    C313574   2.690   3.958  16.468 -0.0036 -0.5764  0.0199
  924MPD2    C413575   2.749   3.896  16.575  0.6535  0.2817  0.1926
  924MPD2    C513576   2.751   3.758  16.577 -0.4210 -0.9147 -1.1117
  924MPD2     H13577   2.561   3.922  16.297  2.8757 -1.5241 -2.4981
  924MPD2    H113578   2.794   3.949  16.658  1.7178 -0.5900  0.1707
  924MPD2    H213579   2.703   3.569  16.476 -1.9645 -0.0259  2.2693
  924MPD2    H313580   2.789   3.698  16.659  0.3185 -1.0314 -1.5429
  924MPD2     N13581   2.672   4.097  16.486 -0.2254  0.1243  0.3252
  924MPD2    H513582   2.714   4.134  16.570  2.7525 -0.7049 -0.8263
  924MPD2    N113583   2.541   3.672  16.280 -0.1260  0.5588  0.1440
  924MPD2    H713584   2.482   3.730  16.221 -1.5657 -1.2944 -0.2523
  925MPD2     C13585   1.326   1.937  14.351  0.6525  0.0893 -0.2151
  925MPD2    C113586   1.202   1.977  14.311 -0.0123  0.6011  0.3042
  925MPD2    C213587   1.115   2.032  14.410  0.0006  1.6664 -0.1835
  925MPD2    C313588   1.156   2.049  14.540  0.9421  0.5731  0.5365
  925MPD2    C413589   1.281   2.011  14.572  0.3034 -0.4303 -0.6804
  925MPD2    C513590   1.367   1.955  14.482  0.0048  0.2422  0.1317
  925MPD2     H13591   1.019   2.074  14.382 -0.2204 -0.0057 -1.9428
  925MPD2    H113592   1.318   2.028  14.672  0.1249 -1.3415 -0.4613
  925MPD2    H213593   1.396   1.892  14.282  1.5134  1.5251 -0.3027
  925MPD2    H313594   1.467   1.935  14.517 -0.3548 -1.3193  0.2963
  925MPD2     N13595   1.087   2.116  14.641 -0.3632 -0.2654  0.4066
  925MPD2    H513596   1.140   2.123  14.728  1.6634  0.9624 -0.9324
  925MPD2    N113597   1.149   1.953  14.181 -0.4919 -0.2325  0.3921
  925MPD2    H713598   1.049   1.967  14.167 -0.9137 -2.7434  0.9414
  926MPD2     C13599   0.102   0.052  13.313  0.7182 -0.1325 -0.1397
  926MPD2    C113600   4.734   0.095  13.231  0.6928 -0.3313  0.1042
  926MPD2    C213601   0.028   0.193  13.139 -0.2418  0.4203  0.1838
  926MPD2    C313602   0.158   0.254  13.137  0.0120 -0.1633  0.2810
  926MPD2    C413603   0.253   0.192  13.213  0.5384 -0.2498  0.3408
  926MPD2    C513604   0.220   0.108  13.310 -0.0749  0.0064  0.5328
  926MPD2     H13605   4.685   0.219  13.069 -0.6222  1.1872  0.8865
  926MPD2    H113606   0.356   0.226  13.215  0.0701  1.2419 -0.8489
  926MPD2    H213607   0.092   4.706  13.385 -1.1638  0.4566  0.2758
  926MPD2    H313608   0.304   0.084  13.374 -0.4592 -2.0586  0.2641
  926MPD2     N13609   0.183   0.360  13.055  0.0312 -0.1576  0.1983
  926MPD2    H513610   0.269   0.411  13.069  0.2793 -0.1581 -1.3089
  926MPD2    N113611   4.606   0.036  13.231 -0.2654 -0.3827 -0.0889
  926MPD2    H713612   4.534   0.073  13.169  0.5038  0.5249 -0.4359
  927MPD2     C13613   3.894   2.335  17.609  0.6932 -0.9351  0.2682
  927MPD2    C113614   3.983   2.233  17.590  0.5002 -0.6236 -0.3265
  927MPD2    C213615   4.090   2.247  17.501 -0.6141  0.2142 -0.0627
  927MPD2    C313616   4.102   2.361  17.437  0.0025 -0.1412 -0.4444
  927MPD2    C413617   4.016   2.464  17.459 -1.2204 -0.0516 -0.3101
  927MPD2    C513618   3.913   2.453  17.545 -0.1757 -0.2419  0.3828
  927MPD2     H13619   4.161   2.168  17.476 -1.1427 -0.1199 -0.5213
  927MPD2    H113620   4.025   2.554  17.399 -1.4276 -1.0976 -1.9028
  927MPD2    H213621   3.820   2.318  17.686  0.9286 -1.1879  0.4393
  927MPD2    H313622   3.839   2.532  17.562 -0.7991 -1.2070  2.2002
  927MPD2     N13623   4.223   2.383  17.353 -0.3142  0.1549 -0.3921
  927MPD2    H513624   4.279   2.300  17.335  0.2994  0.7980 -1.4481
  927MPD2    N113625   3.965   2.116  17.664 -0.0781 -0.4028 -0.2837
  927MPD2    H713626   3.886   2.118  17.728  1.9833  0.2713  2.2466
  928MPD2     C13627   1.657   0.792   0.957 -1.1303  0.0949 -0.2620
  928MPD2    C113628   1.770   0.807   1.029  0.3970  0.2578 -0.1017
  928MPD2    C213629   1.882   0.742   0.970 -0.6339  0.1128 -0.2167
  928MPD2    C313630   1.868   0.662   0.856 -0.1715 -0.5866 -0.3813
  928MPD2    C413631   1.751   0.650   0.793 -0.4520 -0.3280  0.3544
  928MPD2    C513632   1.646   0.719   0.842  0.2248 -0.2966 -0.0904
  928MPD2     H13633   1.978   0.762   1.017 -0.6637  0.8472 -0.4701
  928MPD2    H113634   1.740   0.593   0.701 -2.5781  1.9576 -0.7937
  928MPD2    H213635   1.569   0.846   0.990  0.4222  1.4298  1.6555
  928MPD2    H313636   1.552   0.711   0.790  1.2033  0.0905 -1.9235
  928MPD2     N13637   1.984   0.601   0.795 -0.5966 -0.0649 -0.2625
  928MPD2    H513638   1.963   0.545   0.713  2.6518 -0.4902 -0.7965
  928MPD2    N113639   1.767   0.893   1.142 -0.1163 -0.4135 -0.7606
  928MPD2    H713640   1.679   0.937   1.167 -0.5642 -2.3478  1.0229
  929MPD2     C13641   2.457   1.203  10.652 -0.1199 -0.6838  0.3748
  929MPD2    C113642   2.361   1.231  10.555 -0.9221  0.4947  0.6143
  929MPD2    C213643   2.399   1.304  10.443  0.1137  0.1219  0.2256
  929MPD2    C313644   2.528   1.320  10.410  0.3679  0.2055 -0.4603
  929MPD2    C413645   2.625   1.283  10.508  0.0612  0.3342  0.0599
  929MPD2    C513646   2.585   1.231  10.627  0.2401 -0.0092 -0.8071
  929MPD2     H13647   2.328   1.339  10.370  0.9232 -3.4071 -2.2178
  929MPD2    H113648   2.733   1.290  10.498  0.2024  0.0904  1.3828
  929MPD2    H213649   2.430   1.166  10.750  2.6487 -3.3910  0.0953
  929MPD2    H313650   2.662   1.206  10.699 -0.7542 -0.8962 -0.0457
  929MPD2     N13651   2.566   1.364  10.280 -0.0882  0.7384  0.0227
  929MPD2    H513652   2.492   1.403  10.222 -1.9787 -2.3795  0.3480
  929MPD2    N113653   2.226   1.188  10.573 -0.4889  0.1022 -0.1660
  929MPD2    H713654   2.207   1.150  10.665  0.6526 -2.2483 -0.9125
  930MPD2     C13655   3.736   2.913  13.638  0.4044 -0.6737 -0.6309
  930MPD2    C113656   3.869   2.913  13.660 -0.1124 -0.1038 -0.3339
  930MPD2    C213657   3.948   2.829  13.589 -0.0827  0.4060  0.9375
  930MPD2    C313658   3.898   2.762  13.476 -0.8061  0.8843  0.4692
  930MPD2    C413659   3.764   2.775  13.447 -0.0278  0.0190 -0.4480
  930MPD2    C513660   3.686   2.839  13.537  0.7084 -0.4251  0.0651
  930MPD2     H13661   4.054   2.827  13.610 -0.1149  0.8921  1.1286
  930MPD2    H113662   3.727   2.728  13.356  1.1688 -2.5514  0.3889
  930MPD2    H213663   3.668   2.971  13.698  3.2404 -0.9043  2.7492
  930MPD2    H313664   3.578   2.838  13.524  0.6501  1.0972  0.3513
  930MPD2     N13665   3.991   2.721  13.378  0.3728 -0.2758  0.2428
  930MPD2    H513666   3.959   2.705  13.283  0.4654 -1.0033  0.3416
  930MPD2    N113667   3.924   3.005  13.752 -0.0970  0.0888 -0.1376
  930MPD2    H713668   3.878   3.095  13.755  0.9715  0.6010  0.4818
  931MPD2     C13669   4.356   1.455   0.190 -0.4923 -0.0142  0.3800
  931MPD2    C113670   4.276   1.535   0.275  0.2286 -0.4203  0.0896
  931MPD2    C213671   4.300   1.523   0.410 -0.5756  0.4762 -0.2233
  931MPD2    C313672   4.408   1.455   0.459 -0.2072  0.1601  0.4072
  931MPD2    C413673   4.476   1.369   0.373 -0.3072 -0.2709 -0.7216
  931MPD2    C513674   4.443   1.366   0.237 -0.8898  0.1108 -0.2699
  931MPD2     H13675   4.259   1.598   0.476  0.9411  1.3798 -0.3230
  931MPD2    H113676   4.550   1.299   0.411 -0.6958  0.2518  0.9615
  931MPD2    H213677   4.332   1.475   0.086 -0.5546 -1.4752  0.1040
  931MPD2    H313678   4.488   1.303   0.161  0.3121  1.0811 -0.3582
  931MPD2     N13679   4.440   1.460   0.599 -0.5604 -0.0236  0.1208
  931MPD2    H513680   4.537   1.436   0.617 -1.0693 -1.7202  0.6496
  931MPD2    N113681   4.187   1.627   0.223 -0.2768  0.2205 -0.3015
  931MPD2    H713682   4.186   1.641   0.122  0.4781 -1.6040 -0.5566
  932MPD2     C13683   1.211   1.066  11.373  0.1918 -0.1731  0.5345
  932MPD2    C113684   1.295   1.156  11.442 -0.4202  0.1403  0.4554
  932MPD2    C213685   1.389   1.103  11.527 -0.5524  0.7699 -0.2319
  932MPD2    C313686   1.410   0.965  11.536 -0.5834  0.1088 -0.5011
  932MPD2    C413687   1.322   0.877  11.480  0.4646  0.0716 -0.0354
  932MPD2    C513688   1.220   0.929  11.404  0.9630 -0.1556  0.2934
  932MPD2     H13689   1.456   1.169  11.580 -0.8222 -0.7181  1.9473
  932MPD2    H113690   1.323   0.770  11.497  0.8516 -0.0352 -0.7283
  932MPD2    H213691   1.128   1.085  11.305  0.1265  0.6146  0.8347
  932MPD2    H313692   1.156   0.860  11.350 -0.5897  1.4029  0.1409
  932MPD2     N13693   1.518   0.912  11.617  0.0217  0.5806 -0.4867
  932MPD2    H513694   1.564   0.976  11.682  0.7428 -0.1738 -0.2610
  932MPD2    N113695   1.289   1.294  11.416  0.6324 -0.0264 -0.7318
  932MPD2    H713696   1.218   1.338  11.358  2.4504  2.0672 -1.3975
  933MPD2     C13697   1.456   1.483   1.588  0.9133  0.7558  0.5717
  933MPD2    C113698   1.556   1.473   1.499 -0.0001 -0.3808 -0.2573
  933MPD2    C213699   1.551   1.560   1.384 -0.1887  0.0828  0.4322
  933MPD2    C313700   1.448   1.645   1.361  0.7440  0.4743  0.1177
  933MPD2    C413701   1.351   1.655   1.453 -0.1210  0.1469 -0.6385
  933MPD2    C513702   1.349   1.570   1.562 -0.2435  0.9279  0.0632
  933MPD2     H13703   1.635   1.562   1.316 -1.1707  1.1712 -0.7345
  933MPD2    H113704   1.276   1.733   1.456  0.6715  0.9124 -0.8668
  933MPD2    H213705   1.439   1.422   1.676  0.5259  0.6621  0.4304
  933MPD2    H313706   1.268   1.571   1.634  0.0982 -0.0623  0.4534
  933MPD2     N13707   1.455   1.711   1.239 -0.0202 -0.3094 -1.2738
  933MPD2    H513708   1.536   1.694   1.181  1.3712  0.5406  0.4276
  933MPD2    N113709   1.655   1.374   1.528 -0.0526  0.3391 -0.5820
  933MPD2    H713710   1.643   1.310   1.606  0.6674  1.0150  0.0764
  934MPD2     C13711   3.317   3.316   1.883  0.0407  0.4361 -0.0521
  934MPD2    C113712   3.379   3.276   1.771 -0.8401  0.3700  0.0029
  934MPD2    C213713   3.310   3.196   1.681  0.4376  0.6254  0.7991
  934MPD2    C313714   3.174   3.173   1.706 -0.6448  0.0091 -0.0185
  934MPD2    C413715   3.121   3.212   1.824 -0.0133 -0.1149 -0.1997
  934MPD2    C513716   3.192   3.275   1.912 -0.2784 -0.2861  0.0820
  934MPD2     H13717   3.367   3.159   1.597  0.2394 -0.3491  1.0998
  934MPD2    H113718   3.027   3.172   1.860  0.9248 -2.6296 -0.5236
  934MPD2    H213719   3.374   3.379   1.950 -0.5097  2.5411 -1.5463
  934MPD2    H313720   3.144   3.306   2.004 -2.3970 -0.1707 -1.0554
  934MPD2     N13721   3.087   3.109   1.617 -0.0537 -0.1976 -0.4126
  934MPD2    H513722   2.991   3.094   1.645 -0.7382  2.0611 -1.5674
  934MPD2    N113723   3.515   3.307   1.732  0.2349 -0.7349 -0.2402
  934MPD2    H713724   3.540   3.285   1.637  1.7105 -1.3443  0.2939
  935MPD2     C13725   3.274   2.276   1.199  0.2227  0.4035  0.3084
  935MPD2    C113726   3.132   2.281   1.207  0.3204  0.8296 -0.0694
  935MPD2    C213727   3.076   2.404   1.222  0.2807 -0.2605  0.2936
  935MPD2    C313728   3.155   2.516   1.233  0.1669 -0.3305 -0.1426
  935MPD2    C413729   3.292   2.511   1.219 -0.8389  0.6533 -0.1616
  935MPD2    C513730   3.351   2.388   1.205  0.0306 -0.1589 -0.2405
  935MPD2     H13731   2.968   2.413   1.214  0.4177  0.6601 -0.4877
  935MPD2    H113732   3.343   2.605   1.238 -0.8678  0.4545  0.8675
  935MPD2    H213733   3.327   2.183   1.184 -0.5123 -0.4896  3.1229
  935MPD2    H313734   3.459   2.373   1.209  0.1210  0.9148  1.3685
  935MPD2     N13735   3.097   2.640   1.249 -0.4746  0.0043  0.5038
  935MPD2    H513736   3.162   2.717   1.264 -0.0755 -0.0620 -0.8337
  935MPD2    N113737   3.049   2.173   1.174  0.8381  0.4437  0.3083
  935MPD2    H713738   2.949   2.188   1.176  0.8916  0.8077  0.1042
  936MPD2     C13739   1.883   4.373  13.193 -0.0697 -0.3515 -0.8391
  936MPD2    C113740   1.963   4.482  13.205  0.1390 -0.5980 -0.2590
  936MPD2    C213741   2.047   4.514  13.099 -0.0747  0.8421  0.1150
  936MPD2    C313742   2.034   4.449  12.975  0.2813  0.2845  0.0496
  936MPD2    C413743   1.954   4.335  12.966 -0.6330  0.2298 -0.3690
  936MPD2    C513744   1.877   4.308  13.074 -0.3346 -0.0751  0.0784
  936MPD2     H13745   2.120   4.594  13.104 -0.9515  1.5641  1.6079
  936MPD2    H113746   1.934   4.292  12.868 -1.0999 -2.3577  0.8585
  936MPD2    H213747   1.803   4.355  13.263 -0.6031 -0.3845 -1.4517
  936MPD2    H313748   1.799   4.232  13.066  0.5259 -0.8700 -0.7082
  936MPD2     N13749   2.110   4.489  12.863  0.5447 -0.0612 -0.1325
  936MPD2    H513750   2.130   4.420  12.791  2.1283 -0.1495  0.3967
  936MPD2    N113751   1.981   4.552  13.328  0.6738  0.3116  1.1684
  936MPD2    H713752   2.054   4.622  13.319  0.2538  0.8745  2.1065
  937MPD2     C13753   4.483   1.221  11.834 -0.1162  0.1410  0.2702
  937MPD2    C113754   4.411   1.322  11.780  0.5943 -0.1182 -0.6128
  937MPD2    C213755   4.459   1.363  11.654 -0.7261  0.2113 -0.0462
  937MPD2    C313756   4.541   1.280  11.577  0.1327 -0.0149 -0.5799
  937MPD2    C413757   4.596   1.171  11.635 -0.0558  0.3940 -0.4414
  937MPD2    C513758   4.571   1.141  11.770 -0.0914  0.8447 -0.2329
  937MPD2     H13759   4.409   1.439  11.596  2.0791  1.9830 -0.1600
  937MPD2    H113760   4.674   1.115  11.585 -0.5374  0.7148 -1.5666
  937MPD2    H213761   4.479   1.194  11.939  2.3635 -1.4605 -0.0667
  937MPD2    H313762   4.638   1.068  11.815 -1.4885 -1.0322 -1.1766
  937MPD2     N13763   4.554   1.312  11.442  0.1999 -0.4198  0.4419
  937MPD2    H513764   4.509   1.395  11.405 -1.2501 -2.0954 -1.5094
  937MPD2    N113765   4.340   1.420  11.854 -0.1242 -0.1516  0.1493
  937MPD2    H713766   4.320   1.504  11.801  1.8507  0.0823 -0.2268
  938MPD2     C13767   2.280   2.766   0.288 -0.0148 -0.6703  0.3276
  938MPD2    C113768   2.275   2.785   0.422  0.3586  0.3811  0.3073
  938MPD2    C213769   2.285   2.678   0.508  0.2917  0.1935 -0.1263
  938MPD2    C313770   2.293   2.550   0.459 -1.2161  0.0136 -0.0357
  938MPD2    C413771   2.317   2.530   0.323 -0.0100  0.1170 -0.7937
  938MPD2    C513772   2.309   2.637   0.240 -0.0123 -0.0502 -0.2666
  938MPD2     H13773   2.274   2.697   0.614  2.1226  2.5082 -0.3551
  938MPD2    H113774   2.337   2.431   0.283 -1.9027 -0.1634 -1.0643
  938MPD2    H213775   2.276   2.844   0.212 -0.1842 -1.0974 -0.0987
  938MPD2    H313776   2.323   2.601   0.139 -0.3362 -2.5514  0.5633
  938MPD2     N13777   2.270   2.437   0.541  0.0207 -0.3446 -0.3380
  938MPD2    H513778   2.257   2.353   0.486 -0.4359 -0.0325 -0.7129
  938MPD2    N113779   2.261   2.921   0.482 -0.3881  0.2473  0.6045
  938MPD2    H713780   2.294   2.928   0.578  0.4846  2.5848  0.1227
  939MPD2     C13781   3.402   3.241   0.509  0.1721  0.0450 -0.1426
  939MPD2    C113782   3.443   3.371   0.535  0.2441 -0.1326  0.7900
  939MPD2    C213783   3.486   3.446   0.428  0.0278  0.1411  0.5594
  939MPD2    C313784   3.491   3.388   0.303 -0.0616 -0.1892 -0.1224
  939MPD2    C413785   3.462   3.256   0.282  0.1519 -0.1230  0.1871
  939MPD2    C513786   3.411   3.185   0.383  0.1112  0.0941 -0.2139
  939MPD2     H13787   3.515   3.549   0.441 -0.2354  0.4316 -1.1165
  939MPD2    H113788   3.479   3.210   0.185 -1.1440 -2.2513  0.9598
  939MPD2    H213789   3.364   3.171   0.582  0.9313 -0.8543 -0.6006
  939MPD2    H313790   3.394   3.081   0.360  1.2761  0.1692 -1.3967
  939MPD2     N13791   3.549   3.470   0.198  0.4217 -0.1761  0.6414
  939MPD2    H513792   3.565   3.569   0.217  0.6409  0.2116 -1.6337
  939MPD2    N113793   3.421   3.422   0.659  0.1509  0.6199  0.0574
  939MPD2    H713794   3.375   3.365   0.728  0.0111  0.1514 -0.4219
  940MPD2     C13795   2.575   4.204  12.863 -0.2715  0.1993  0.8023
  940MPD2    C113796   2.706   4.235  12.848 -0.3350 -0.5969  0.1228
  940MPD2    C213797   2.774   4.199  12.742 -0.0474 -0.2585 -0.2980
  940MPD2    C313798   2.717   4.106  12.652  0.7963  0.0830 -0.0700
  940MPD2    C413799   2.585   4.063  12.681 -0.1154  0.3524  0.3327
  940MPD2    C513800   2.518   4.114  12.785 -0.9001 -0.5263 -0.3327
  940MPD2     H13801   2.880   4.224  12.737 -0.2889  0.7021 -0.5311
  940MPD2    H113802   2.523   4.008  12.611  0.2195  0.7500 -0.2712
  940MPD2    H213803   2.515   4.255  12.937 -0.4920 -0.5021  1.1064
  940MPD2    H313804   2.415   4.080  12.791 -0.6621 -1.3425 -0.8542
  940MPD2     N13805   2.785   4.044  12.545  0.3969 -0.1090  0.5872
  940MPD2    H513806   2.739   3.958  12.517  0.5823 -0.2174  0.6175
  940MPD2    N113807   2.774   4.314  12.944 -0.4921 -0.4397 -0.4144
  940MPD2    H713808   2.872   4.334  12.930 -0.5240  0.4488  0.6804
  941MPD2     C13809   1.299   4.351   9.507  0.1021 -0.5860 -0.7437
  941MPD2    C113810   1.390   4.280   9.583  0.0591  0.3530  0.1202
  941MPD2    C213811   1.355   4.163   9.641  0.1709  0.7858 -0.2772
  941MPD2    C313812   1.222   4.128   9.650 -0.4622 -0.0321  0.0510
  941MPD2    C413813   1.127   4.205   9.585  0.1582  0.0158 -0.1422
  941MPD2    C513814   1.165   4.319   9.509  0.4473  0.5297 -0.4315
  941MPD2     H13815   1.428   4.113   9.703  0.1815  0.7450 -0.3225
  941MPD2    H113816   1.023   4.176   9.595  0.1200  0.8133  1.8102
  941MPD2    H213817   1.325   4.447   9.465 -1.1814  0.3202  0.5639
  941MPD2    H313818   1.083   4.374   9.463  0.9045 -0.1499 -2.0431
  941MPD2     N13819   1.178   4.009   9.720  0.1082  0.2062 -0.2095
  941MPD2    H513820   1.079   3.991   9.731  0.9003 -3.6440  0.5926
  941MPD2    N113821   1.523   4.320   9.603 -0.1892 -0.1924 -0.3948
  941MPD2    H713822   1.577   4.270   9.673 -2.6647 -0.2927  1.4505
  942MPD2     C13823   1.089   0.240   9.188 -0.4797  0.1633 -0.2177
  942MPD2    C113824   1.193   0.331   9.184  0.2395  0.1385  0.1792
  942MPD2    C213825   1.199   0.437   9.270  0.1842 -0.8579  0.4396
  942MPD2    C313826   1.107   0.459   9.372  0.0271 -0.6152 -0.0594
  942MPD2    C413827   1.008   0.369   9.380  0.1825  0.8565 -0.0932
  942MPD2    C513828   1.003   0.261   9.291 -0.8936  0.5711 -0.7711
  942MPD2     H13829   1.285   0.503   9.264 -0.8992  0.6205  1.2269
  942MPD2    H113830   0.935   0.369   9.461  0.3520  1.5267  0.0616
  942MPD2    H213831   1.080   0.150   9.127  1.4180 -1.4716  1.9320
  942MPD2    H313832   0.915   0.197   9.300  0.3710 -1.1139 -0.5201
  942MPD2     N13833   1.108   0.559   9.473 -0.0592 -0.1414  0.1352
  942MPD2    H513834   1.039   0.567   9.546 -1.1918 -0.8559 -0.8600
  942MPD2    N113835   1.299   0.318   9.098  0.0103 -0.2295  0.1051
  942MPD2    H713836   1.360   0.398   9.090 -2.2678  1.5292  0.3371
  943MPD2     C13837   0.422   4.291  10.149  0.3123 -0.0177 -0.4794
  943MPD2    C113838   0.455   4.279  10.017 -0.7128 -0.5025  0.3636
  943MPD2    C213839   0.573   4.343   9.974 -0.6453  0.1330  0.3845
  943MPD2    C313840   0.655   4.405  10.067  0.4457  0.1113  0.1181
  943MPD2    C413841   0.616   4.421  10.195 -0.2379  0.0102 -0.2478
  943MPD2    C513842   0.501   4.364  10.234 -0.1788 -0.2102 -0.4898
  943MPD2     H13843   0.594   4.330   9.868  2.2372  0.4715  0.9286
  943MPD2    H113844   0.678   4.475  10.266  0.3626  0.8131 -1.3652
  943MPD2    H213845   0.326   4.254  10.183  1.6227 -1.2389  1.8892
  943MPD2    H313846   0.460   4.387  10.332  0.3769  0.5406 -0.4340
  943MPD2     N13847   0.790   4.454  10.048 -0.1527 -0.1983 -0.5736
  943MPD2    H513848   0.848   4.482  10.127  0.7020 -2.5437 -0.3902
  943MPD2    N113849   0.366   4.199   9.949 -0.9535  0.3412 -0.0713
  943MPD2    H713850   0.278   4.172   9.992 -0.2055  3.0279  3.1298
  944MPD2     C13851   0.648   2.770  11.084  0.2455  0.2198 -0.4878
  944MPD2    C113852   0.581   2.862  11.005 -0.2138  0.4893  0.5020
  944MPD2    C213853   0.462   2.927  11.042  0.3321  0.3586  0.4493
  944MPD2    C313854   0.423   2.904  11.168  0.5627 -0.2043  0.0808
  944MPD2    C413855   0.492   2.827  11.260 -0.1232 -0.1825  0.2850
  944MPD2    C513856   0.605   2.759  11.216  0.3776 -0.6179  0.4899
  944MPD2     H13857   0.403   2.985  10.972 -1.6722 -1.6732  0.4860
  944MPD2    H113858   0.455   2.803  11.358 -0.3572 -0.9137  0.0145
  944MPD2    H213859   0.732   2.713  11.047 -1.3773 -0.8038 -2.6366
  944MPD2    H313860   0.658   2.695  11.286 -0.1054 -2.9794 -1.3332
  944MPD2     N13861   0.313   2.989  11.214 -0.2977 -0.2420  0.5872
  944MPD2    H513862   0.286   3.068  11.156  0.4779  1.4154  2.4921
  944MPD2    N113863   0.633   2.867  10.877  0.3780  0.1943 -0.1681
  944MPD2    H713864   0.710   2.805  10.854 -0.9111 -1.3837 -0.2101
    1TMC1    C113865   2.700   4.013  14.825 -0.5042  0.3771 -0.3369
    1TMC1    C213866   2.672   3.952  14.704  0.0516  0.6350  0.3607
    1TMC1    C313867   2.642   3.822  14.708  0.1125  0.3491  0.2144
    1TMC1    C413868   2.718   3.935  14.941 -0.6472  0.1951 -0.3136
    1TMC1    C513869   2.683   3.801  14.935 -0.0361  0.3819 -0.4973
    1TMC1    C613870   2.645   3.743  14.817 -0.0455  0.5873  0.1961
    1TMC1     C13871   2.734   4.158  14.841  0.1512 -0.1461 -0.4761
    1TMC1     O13872   2.735   4.206  14.956  0.2742 -0.4183  0.2171
    1TMC1     H13873   2.631   4.011  14.622 -0.8669 -1.5132 -0.7389
    1TMC1    H113874   2.758   3.984  15.029 -1.9715  0.2538  0.2714
    1TMC1    H213875   2.625   3.637  14.806  2.7313  0.0838  0.0414
    1TMC1    C713876   2.685   3.731  15.057 -0.7078 -0.8133  0.3589
    1TMC1    C813877   2.567   3.778  14.596 -0.1092 -0.3428  0.2984
    1TMC1    O113878   2.746   3.776  15.155 -0.8379 -0.5917  0.2195
    1TMC1    O213879   2.567   3.835  14.490 -0.2065 -0.5050 -0.4369
    1TMC1    O313880   2.570   3.660  15.066 -0.0477 -0.0551 -0.3766
    1TMC1    H313881   2.503   3.655  14.995  1.7224 -1.5792 -1.9481
    1TMC1    O513882   2.464   3.708  14.636 -0.0746  0.0005 -0.4318
    1TMC1    H513883   2.460   3.676  14.729  1.1076 -2.1775 -1.1251
    2MPD2     C13884   2.775   4.635  14.637  0.2104  0.0289 -0.6786
    2MPD2    C113885   2.807   4.540  14.540 -0.2677 -0.2302 -0.5785
    2MPD2    C213886   2.799   4.403  14.571 -0.0704  0.4111 -0.3532
    2MPD2    C313887   2.761   4.356  14.700  0.0726 -0.1678  1.2425
    2MPD2    C413888   2.736   4.455  14.794 -0.4639  0.0986  0.2407
    2MPD2    C513889   2.738   4.590  14.761 -0.4150 -0.6136  0.2526
    2MPD2     H13890   2.823   4.329  14.495  1.7879  0.2335  0.4205
    2MPD2    H113891   2.706   4.425  14.894  0.0708 -0.1806  0.3142
    2MPD2    H213892   2.783   0.008  14.625  0.6048 -0.1177 -1.7386
    2MPD2    H313893   2.711   4.653  14.845  1.2151 -1.3426  1.3262
    2MPD2     N13894   2.764   4.219  14.720  0.2383  0.2471 -0.0241
    2MPD2    H513895   2.775   4.161  14.637 -0.4300 -1.5113  1.1221
    2MPD2    N113896   2.854   4.584  14.413 -0.1619  0.0518 -0.3335
    2MPD2    H713897   2.861   4.684  14.397 -0.4188  0.2139  0.5685
    3TMC2    C113898   2.935   4.582  14.198 -0.4059 -0.2961 -0.2331
    3TMC2    C213899   2.886   4.709  14.185  0.1895 -0.3020  0.5306
    3TMC2    C313900   2.879   0.034  14.067 -0.4648  0.3487  0.0045
    3TMC2    C413901   2.966   4.511  14.086  0.4729  0.4097 -1.1491
    3TMC2    C513902   2.962   4.575  13.971  0.5043 -0.0310 -0.0482
    3TMC2    C613903   2.930   4.707  13.954  0.4760 -0.7926  0.3915
    3TMC2     C13904   2.912   4.502  14.315 -0.0644 -0.5569 -0.0246
    3TMC2     O13905   2.951   4.387  14.318 -0.4796  0.1998 -0.1615
    3TMC2     H13906   2.849   0.027  14.272 -1.2016  0.5158 -0.5705
    3TMC2    H113907   2.996   4.407  14.090  0.2636  0.3662 -0.7489
    3TMC2    H213908   2.936   0.026  13.860  0.0982 -0.3309  0.6304
    3TMC2    C713909   3.042   4.522  13.868  0.2125  0.5785  1.0025
    3TMC2    C813910   2.810   0.160  14.053  0.2777  0.7671  0.2776
    3TMC2    O113911   3.035   4.404  13.836 -0.0172  0.0149 -0.3791
    3TMC2    O213912   2.802   0.245  14.138  0.4430 -0.1909 -0.4450
    3TMC2    O513913   2.762   0.163  13.931 -0.4105 -0.4936  0.0605
    3TMC2    H513914   2.761   0.075  13.888 -0.0420  0.6419 -2.2551
    4TMC2    C113915   3.707   0.458  13.603 -0.3247 -0.4160  0.5143
    4TMC2    C213916   3.831   0.445  13.657 -0.0814  0.3857 -0.4615
    4TMC2    C313917   3.866   0.327  13.709  0.2853  0.4831 -0.5985
    4TMC2    C413918   3.616   0.355  13.606 -0.4250  0.1930  0.7998
    4TMC2    C513919   3.656   0.234  13.660  0.1104 -0.1908  0.0590
    4TMC2    C613920   3.776   0.224  13.721 -0.1349 -0.4120  0.4283
    4TMC2     C13921   3.670   0.586  13.544 -0.1156  0.0264  0.4560
    4TMC2     O13922   3.739   0.681  13.579  0.2806 -0.3474  0.2735
    4TMC2     H13923   3.909   0.518  13.637 -0.0991  0.2501 -1.0182
    4TMC2    H113924   3.518   0.365  13.561  0.5789  2.1896 -0.9083
    4TMC2    H213925   3.811   0.131  13.764  0.7776 -0.6904 -0.9252
    4TMC2    C713926   3.557   0.144  13.715  0.8503  1.1576  0.3824
    4TMC2    C813927   4.000   0.329  13.762  0.5454  0.0181  0.3914
    4TMC2    O113928   3.541   0.152  13.839  0.3009 -0.4189 -0.0309
    4TMC2    O213929   4.054   0.433  13.796  0.3194 -1.1844 -0.4584
    4TMC2    O513930   4.067   0.231  13.706  0.1065 -0.7219  0.1798
    4TMC2    H513931   4.016   0.161  13.660 -0.6434 -0.1026  0.0846
    5MPD2     C13932   3.381   0.897  13.261 -0.1647  0.4192  0.0727
    5MPD2    C113933   3.306   0.786  13.284 -0.4025 -0.5587  0.2985
    5MPD2    C213934   3.374   0.676  13.334  0.3545  0.0551 -0.1343
    5MPD2    C313935   3.509   0.687  13.376  0.0904 -0.2420 -0.1863
    5MPD2    C413936   3.584   0.803  13.350  0.0584  0.2084  0.1033
    5MPD2    C513937   3.512   0.908  13.298  0.2488 -0.7521 -0.1806
    5MPD2     H13938   3.321   0.583  13.355 -0.6751  0.7878  0.5376
    5MPD2    H113939   3.688   0.820  13.372  0.2900 -1.0566 -0.0215
    5MPD2    H213940   3.349   0.989  13.213 -1.3055 -0.1820 -0.2946
    5MPD2    H313941   3.552   1.005  13.272  1.6214 -0.7188  2.0908
    5MPD2     N13942   3.564   0.582  13.452 -0.3038 -0.4452 -0.5290
    5MPD2    H513943   3.508   0.497  13.458  1.3270 -1.4985 -0.1103
    5MPD2    N113944   3.170   0.775  13.251  0.0966 -0.0363  0.1741
    5MPD2    H713945   3.134   0.681  13.264  0.5310 -0.2860 -0.4359
    6MPD1     C13946   1.235   1.117  13.017  1.1579  0.3534 -0.1055
    6MPD1    C113947   1.244   1.020  13.110  0.4235 -0.1251  0.8954
    6MPD1    C213948   1.372   0.968  13.122 -0.6087 -0.6295  0.2316
    6MPD1    C313949   1.484   1.011  13.046  0.3778 -0.0224  0.0760
    6MPD1    C413950   1.469   1.103  12.951 -0.2697 -0.3346 -0.0728
    6MPD1    C513951   1.343   1.157  12.936 -0.5179  0.5933 -0.3120
    6MPD1     H13952   1.396   0.894  13.197  0.9720  0.3338  0.6766
    6MPD1    H113953   1.546   1.130  12.880 -1.4156  0.6389 -0.9592
    6MPD1    H213954   1.142   1.168  12.994  0.0285 -1.2322  0.9748
    6MPD1    H313955   1.329   1.230  12.857  0.2407 -1.3700 -2.2649
    6MPD1     N13956   1.612   0.959  13.045  0.2427 -0.0073  0.6266
    6MPD1    H513957   1.682   0.991  12.980  2.1064  1.2433  3.2245
    6MPD1    N113958   1.132   0.976  13.181  0.2841  0.1739  0.7019
    6MPD1    H613959   1.057   1.045  13.180 -0.7016 -0.9074  0.1338
    6MPD1    H713960   1.154   0.934  13.271  1.0576  1.3413  1.0577
    7MPD2     C13961   2.292   0.726  13.580  0.5544 -0.0140  0.1905
    7MPD2    C113962   2.298   0.678  13.449 -0.2509  0.5179  0.1885
    7MPD2    C213963   2.415   0.649  13.394 -0.1659 -0.3317 -0.2099
    7MPD2    C313964   2.533   0.671  13.459  0.2448  0.7604  0.0692
    7MPD2    C413965   2.528   0.709  13.591 -0.0216 -0.4256  0.1414
    7MPD2    C513966   2.409   0.738  13.651 -0.3296  0.6390 -0.1589
    7MPD2     H13967   2.424   0.609  13.293  1.4885 -2.9438  0.9505
    7MPD2    H113968   2.621   0.726  13.644  0.9424 -0.6454 -1.4762
    7MPD2    H213969   2.198   0.744  13.630  0.2767 -1.8347  0.3209
    7MPD2    H313970   2.413   0.763  13.757  1.4685  0.6488 -0.2359
    7MPD2     N13971   2.667   0.664  13.393 -0.2816  0.8540  0.4198
    7MPD2    H513972   2.748   0.661  13.454 -1.5002  1.1231  2.0344
    7MPD2    N113973   2.184   0.678  13.363  0.3084  0.8400 -0.6032
    7MPD2    H713974   2.204   0.645  13.269  0.0526 -0.3148 -0.2507
    8TMC3    C113975   2.827   0.639  13.229 -0.5046  0.4188 -0.6523
    8TMC3    C213976   2.903   0.748  13.264 -0.6145 -0.3253  0.6242
    8TMC3    C313977   2.964   0.812  13.158 -0.3965 -0.4585  0.0442
    8TMC3    C413978   2.821   0.596  13.101 -0.3810  1.0103 -0.1474
    8TMC3    C513979   2.875   0.675  13.002 -0.0062  0.8375 -0.6134
    8TMC3    C613980   2.932   0.791  13.031  0.6476  0.0100  0.4745
    8TMC3     C13981   2.686   0.636  13.262 -0.3545  0.8178 -0.2801
    8TMC3     O13982   2.606   0.621  13.173 -0.4606  0.4353 -0.2858
    8TMC3     H13983   2.911   0.789  13.364 -0.4027  1.8482 -0.2764
    8TMC3    H113984   2.777   0.499  13.082 -2.7439  1.8265  1.0769
    8TMC3    H213985   2.988   0.841  12.953 -1.4901  2.5815  0.5554
    8TMC3    C713986   2.793   0.673  12.879  0.3484  0.6987 -0.2703
    8TMC3    C813987   3.095   0.869  13.187 -0.5673  0.0412 -0.5298
    8TMC3    O113988   2.839   0.739  12.788 -0.1212  0.0943  0.6879
    8TMC3    O213989   3.116   0.979  13.141 -0.2823 -0.4066 -0.4707
    9TMC3    C113990   1.800   0.838  13.126 -0.4482 -0.2223 -0.2942
    9TMC3    C213991   1.870   0.853  13.011  0.3749 -0.8509 -0.0301
    9TMC3    C313992   2.008   0.833  13.027 -0.5013  0.2129  0.9713
    9TMC3    C413993   1.859   0.797  13.245  0.6489 -0.5758 -0.1067
    9TMC3    C513994   1.999   0.775  13.254 -0.0364 -0.2621  1.3389
    9TMC3    C613995   2.072   0.802  13.146 -0.5354  0.8019  0.2164
    9TMC3     C13996   1.652   0.865  13.138 -0.0845 -0.5767  0.6302
    9TMC3     O13997   1.594   0.817  13.237  0.5283  0.4682 -0.3598
    9TMC3     H13998   1.830   0.891  12.917 -2.7905 -1.7518  0.9752
    9TMC3    H113999   1.791   0.781  13.328  1.8968 -1.4979  0.7448
    9TMC3    H214000   2.179   0.813  13.158 -0.4091  1.1968 -1.2381
    9TMC3    C714001   2.063   0.739  13.379  0.3752  0.6199 -0.2684
    9TMC3    C814002   2.093   0.830  12.910 -0.0360  0.5112  0.5039
    9TMC3    O114003   2.011   0.760  13.486  1.0727  0.1275 -0.0868
    9TMC3    O214004   2.054   0.891  12.806 -0.0736 -0.2857  0.0821
   10MPD2     C14005   2.553   0.723  12.703  0.3507  0.3427 -0.0700
   10MPD2    C114006   2.551   0.699  12.841  0.1037  0.0386 -0.3294
   10MPD2    C214007   2.437   0.711  12.910 -0.1730 -0.6317 -0.6157
   10MPD2    C314008   2.324   0.761  12.845  0.2888 -0.1415 -0.4410
   10MPD2    C414009   2.327   0.803  12.716  0.0959 -0.5818  0.0645
   10MPD2    C514010   2.441   0.774  12.640 -0.5453 -0.0087 -0.1976
   10MPD2     H14011   2.437   0.682  13.014  1.8508  0.5857 -0.2797
   10MPD2    H114012   2.234   0.845  12.679 -1.0520 -0.9589  2.5291
   10MPD2    H214013   2.643   0.706  12.645  0.7297  1.5561  0.1603
   10MPD2    H314014   2.451   0.798  12.535 -0.5051 -2.5425 -0.7747
   10MPD2     N14015   2.218   0.778  12.930 -0.0224  0.1195 -0.2620
   10MPD2    H514016   2.227   0.740  13.024 -2.7876  3.5343  1.3608
   10MPD2    N114017   2.666   0.660  12.914  0.4430  0.1516 -0.6612
   10MPD2    H714018   2.649   0.634  13.011  0.9735 -0.6976 -0.7999
   11MPD2     C14019   3.225   4.496  13.638 -0.1898 -0.2678 -0.0217
   11MPD2    C114020   3.226   4.607  13.725  0.4955 -0.5341  0.1815
   11MPD2    C214021   3.318   4.707  13.720 -0.1030  0.2802  0.1534
   11MPD2    C314022   3.416   4.700  13.621  0.1792  1.3735 -0.0354
   11MPD2    C414023   3.421   4.589  13.540  0.4522 -0.1256  0.1029
   11MPD2    C514024   3.326   4.484  13.546  0.4643  0.5371 -0.9542
   11MPD2     H14025   3.316   0.058  13.785 -0.2417  0.7954 -0.5266
   11MPD2    H114026   3.496   4.580  13.462 -0.8162 -0.7949 -1.0269
   11MPD2    H214027   3.162   4.408  13.651 -3.1601  2.0216  1.0999
   11MPD2    H314028   3.343   4.396  13.486 -1.0870 -1.4625  1.5474
   11MPD2     N14029   3.518   0.059  13.614  0.3588  0.1841 -0.0773
   11MPD2    H514030   3.578   0.050  13.533  1.4665  1.9311  0.5511
   11MPD2    N114031   3.131   4.617  13.822 -0.6499  0.7025  0.5984
   11MPD2    H714032   3.130   4.705  13.873 -1.2685  1.5043 -0.7930
    1MPD1     C14033   1.672   1.866  17.143 -0.0582  0.2698 -0.1926
    1MPD1    C114034   1.723   1.761  17.064 -0.0836  0.6126 -0.3148
    1MPD1    C214035   1.785   1.657  17.135  0.6180 -0.1870  0.2179
    1MPD1    C314036   1.789   1.649  17.268 -0.5423 -0.4335 -0.1980
    1MPD1    C414037   1.747   1.760  17.338  0.2001 -0.0915  0.4092
    1MPD1    C514038   1.690   1.868  17.277  0.2520 -0.3699  0.1211
    1MPD1     H14039   1.831   1.577  17.078  0.4797  1.1456 -1.7391
    1MPD1    H114040   1.762   1.774  17.445 -1.2436  0.6720  0.5036
    1MPD1    H214041   1.613   1.950  17.109  0.7737  0.3881 -1.3280
    1MPD1    H314042   1.640   1.944  17.337 -0.4547 -0.2248 -0.6536
    1MPD1     N14043   1.864   1.559  17.339 -0.2949  0.2414  0.2106
    1MPD1    H514044   1.894   1.580  17.434  2.2414 -0.0760 -0.5094
    1MPD1    N114045   1.726   1.765  16.926 -0.1434  0.3433  0.1326
    1MPD1    H614046   1.733   1.669  16.895  0.4471  0.5372 -0.3252
    1MPD1    H714047   1.640   1.808  16.891  0.3953  0.8199 -0.5983
    2MPD1     C14048   2.546   1.410   0.311  0.3452  0.1317 -0.3874
    2MPD1    C114049   2.540   1.282   0.243 -0.5582 -0.3749  0.2426
    2MPD1    C214050   2.465   1.269   0.127  0.0636  0.6404 -0.1272
    2MPD1    C314051   2.406   1.384   0.070 -0.7580  0.3757  0.0473
    2MPD1    C414052   2.412   1.507   0.138 -0.5463 -0.4025  0.0037
    2MPD1    C514053   2.475   1.516   0.265  0.4154  0.2563 -0.2788
    2MPD1     H14054   2.465   1.178   0.068 -3.5618  0.8772 -0.5238
    2MPD1    H114055   2.376   1.595   0.087 -0.8681 -0.7786 -0.4252
    2MPD1    H214056   2.610   1.425   0.397 -1.3015 -1.9082  1.1795
    2MPD1    H314057   2.482   1.611   0.317 -2.2739 -0.0426  0.6457
    2MPD1     N14058   2.339   1.362  17.686 -0.7568  0.4563  0.3640
    2MPD1    H514059   2.349   1.265  17.658  0.1222  0.7262 -0.2439
    2MPD1    N114060   2.629   1.186   0.286 -0.6482  0.4705 -0.5700
    2MPD1    H614061   2.609   1.095   0.245 -0.0337 -1.1555  2.7476
    2MPD1    H714062   2.616   1.180   0.387 -0.0970 -2.1996 -0.6486
    3TMC3    C114063   2.211   1.392  17.486  0.5777 -0.2424  0.1369
    3TMC3    C214064   2.264   1.277  17.439 -0.3365  0.5900  0.2739
    3TMC3    C314065   2.182   1.211  17.351 -0.3960 -0.4674 -1.0030
    3TMC3    C414066   2.093   1.446  17.453  0.2653 -0.1597  0.3515
    3TMC3    C514067   2.025   1.375  17.362  0.1932  0.2742  0.2429
    3TMC3    C614068   2.056   1.257  17.315 -0.5321 -0.2927 -0.3304
    3TMC3     C14069   2.282   1.453  17.603  0.2477 -0.2444  0.8335
    3TMC3     O14070   2.277   1.574  17.611  0.6019 -0.1682 -0.2778
    3TMC3     H14071   2.359   1.227  17.451  0.2873  1.7911  0.3509
    3TMC3    H114072   2.062   1.542  17.493 -2.2344 -0.1233 -1.6830
    3TMC3    H214073   1.986   1.193  17.261 -1.2787 -0.0223  0.3111
    3TMC3    C714074   1.911   1.437  17.292 -0.1902  0.4942  0.2371
    3TMC3    C814075   2.256   1.146  17.245 -0.6169  0.3427 -0.3788
    3TMC3    O114076   1.861   1.368  17.202 -0.8140  0.2474  0.7061
    3TMC3    O214077   2.359   1.094  17.283  0.2612 -0.2409 -0.7556
    4MPD1     C14078   2.445   1.117  16.768  0.3718 -0.6824  0.7149
    4MPD1    C114079   2.364   1.223  16.785  0.2593 -0.1657  0.2506
    4MPD1    C214080   2.290   1.233  16.891  0.2871  0.0739 -0.1627
    4MPD1    C314081   2.305   1.152  17.002 -0.9762  0.3404 -0.4179
    4MPD1    C414082   2.403   1.057  16.998 -0.3031  0.0552  0.0627
    4MPD1    C514083   2.477   1.049  16.886  0.3724 -0.3036  0.4092
    4MPD1     H14084   2.204   1.299  16.894  0.9524  0.9644 -1.0945
    4MPD1    H114085   2.437   0.996  17.081  2.5226 -0.3097 -1.3692
    4MPD1    H214086   2.503   1.102  16.678 -2.4540  1.7691 -1.5638
    4MPD1    H314087   2.544   0.964  16.890 -0.0110 -0.6493 -0.4100
    4MPD1     N14088   2.222   1.177  17.119 -0.2887  0.3796 -0.0099
    4MPD1    H514089   2.151   1.250  17.115  0.7373  1.2591 -1.8739
    4MPD1    N114090   2.315   1.296  16.675  0.4473  0.2778 -0.0304
    4MPD1    H614091   2.380   1.292  16.596  1.3871 -0.5688  0.7866
    4MPD1    H714092   2.285   1.391  16.697 -1.2148 -0.1381 -0.5207
    1TCq1    O114093   2.360   1.248  12.275  0.1569 -0.1778  0.1377
    1TCq1    C114094   2.230   1.252  12.249  0.2573  0.5042  0.2986
    1TCq1    O214095   2.156   1.346  12.271 -0.0959  0.3232  0.1294
    1TCq1    C214096   2.218   1.182  12.118  0.1041  0.2426  0.4943
    1TCq1    C314097   2.302   1.081  12.093  0.2673  0.2799  0.4371
    1TCq1    C414098   2.300   1.029  11.967 -0.3402  0.0125 -0.1875
    1TCq1    C514099   2.201   1.067  11.877  1.0141 -0.0215  0.9206
    1TCq1    C614100   2.116   1.166  11.915 -0.0076 -0.4948 -0.1962
    1TCq1    C714101   2.123   1.230  12.033 -0.3505  0.4211  0.2256
    1TCq1    C814102   2.011   1.210  11.826 -0.3426  0.2253  0.3558
    1TCq1    O414103   1.920   1.268  11.882 -0.1341  0.3811  0.1887
    1TCq1    C914104   2.341   0.887  11.946 -0.1070 -0.4425  0.2360
    1TCq1    O514105   2.405   0.846  12.049  0.2246  0.0417 -0.2243
    1TCq1    O614106   2.290   0.818  11.855 -0.2644 -0.0193  0.5652
    1TCq1    H114107   2.415   1.195  12.213  2.1159  0.7966  1.0481
    1TCq1    H214108   2.321   1.009  12.172  1.4313 -0.4024 -0.4677
    1TCq1    H314109   2.202   1.008  11.787 -0.2983 -0.4903  1.2044
    1TCq1    H414110   2.054   1.307  12.066 -2.0283 -0.5075 -1.1487
    2MPD1     C14111   1.728   1.113  11.384  0.4673 -0.0944  0.1834
    2MPD1    C114112   1.850   1.047  11.383 -0.1632  0.1141 -0.1067
    2MPD1    C214113   1.940   1.071  11.487 -0.4277  0.2807 -0.2303
    2MPD1    C314114   1.915   1.147  11.598  0.2092  0.0271 -0.0632
    2MPD1    C414115   1.793   1.208  11.607  0.0871 -0.0041 -0.4287
    2MPD1    C514116   1.705   1.191  11.502  0.1557 -1.0058  0.1633
    2MPD1     H14117   2.041   1.031  11.480 -0.7734 -0.6959  0.3356
    2MPD1    H114118   1.754   1.275  11.683  1.5045 -2.0564  2.1036
    2MPD1    H214119   1.657   1.108  11.302  1.0047 -2.4027 -0.1357
    2MPD1    H314120   1.618   1.256  11.509  0.8051 -0.1614  0.4479
    2MPD1     N14121   2.017   1.148  11.700  0.0539  0.8635 -0.2860
    2MPD1    H514122   2.107   1.112  11.670  0.1145 -0.5673  1.6263
    2MPD1    N114123   1.889   0.983  11.269 -0.3436 -0.3727  0.3641
    2MPD1    H614124   1.806   0.938  11.230 -0.5637  1.0460 -0.7899
    2MPD1    H714125   1.956   0.912  11.298 -0.3899 -1.7469 -2.9128
    1TMC1    C114126   2.309   2.852   1.162  0.4192  0.2160 -0.0416
    1TMC1    C214127   2.306   2.720   1.189  0.4446  0.3799  0.1857
    1TMC1    C314128   2.351   2.632   1.094 -0.2185  0.0957  0.4692
    1TMC1    C414129   2.358   2.897   1.045 -0.7590  0.1381  0.3834
    1TMC1    C514130   2.400   2.798   0.950  1.1541 -0.0804 -0.7752
    1TMC1    C614131   2.390   2.663   0.970  1.1638  0.0230 -0.1525
    1TMC1     C14132   2.234   2.949   1.235  0.4854  0.6466 -0.6346
    1TMC1     O14133   2.221   3.054   1.182 -0.1704 -0.1212  0.5014
    1TMC1     H14134   2.268   2.684   1.284 -0.4149  0.6561 -0.0457
    1TMC1    H114135   2.361   2.999   1.009  0.7734  0.0346  0.2470
    1TMC1    H214136   2.435   2.596   0.897  0.6928 -0.5335  0.0615
    1TMC1    C714137   2.441   2.846   0.817 -1.0041  0.1531 -0.9214
    1TMC1    C814138   2.329   2.486   1.126 -0.2559 -0.3564  0.3387
    1TMC1    O114139   2.369   2.911   0.747  0.0897 -0.8069  0.3399
    1TMC1    O214140   2.346   2.442   1.239  0.1154 -0.8323  0.1200
    1TMC1    O314141   2.544   2.764   0.776  0.0445  0.2824 -0.6522
    1TMC1    H314142   2.591   2.722   0.851 -0.2317  0.4041 -0.4082
    1TMC1    O514143   2.337   2.416   1.016 -0.1833  0.2819  0.3207
    1TMC1    H514144   2.316   2.473   0.938 -0.3174  0.4594  0.4872
    2MPD1     C14145   1.940   3.139   1.615  0.4605 -0.1319  0.1971
    2MPD1    C114146   1.985   3.021   1.658  0.2455  0.1901  0.6076
    2MPD1    C214147   2.062   2.945   1.570 -0.4126 -0.5897  0.2485
    2MPD1    C314148   2.088   2.990   1.440  0.1132  0.3756  0.1494
    2MPD1    C414149   2.039   3.111   1.406  0.0247  0.2342 -0.1569
    2MPD1    C514150   1.973   3.189   1.494 -0.0595  0.2598 -0.1649
    2MPD1     H14151   2.088   2.845   1.600  0.2035 -0.8218 -1.0517
    2MPD1    H114152   2.062   3.154   1.310 -2.3615 -1.1792 -1.3653
    2MPD1    H214153   1.873   3.200   1.675  0.4751  0.6268 -0.5416
    2MPD1    H314154   1.934   3.283   1.457  0.8556  0.5198 -0.4481
    2MPD1     N14155   2.166   2.904   1.350 -0.7412 -0.2624 -0.2573
    2MPD1    H514156   2.191   2.811   1.383 -0.2023 -0.0568 -0.0903
    2MPD1    N114157   1.936   2.958   1.778  0.6908  0.1159  0.6345
    2MPD1    H614158   1.903   3.009   1.859 -0.8529  0.4198 -0.1840
    2MPD1    H714159   2.002   2.886   1.808  1.0477  0.0666 -0.2531
    1MPD1     C14160   3.615   0.411  12.015  0.5772  0.2058 -0.0168
    1MPD1    C114161   3.619   0.517  12.098  0.1781 -0.4806 -0.0847
    1MPD1    C214162   3.701   0.622  12.061 -0.3293  0.1827 -0.5727
    1MPD1    C314163   3.773   0.625  11.944 -0.2906 -0.7404  0.0941
    1MPD1    C414164   3.772   0.513  11.865 -0.0223  0.1966 -0.3650
    1MPD1    C514165   3.687   0.410  11.895 -0.4356 -0.5669 -0.2645
    1MPD1     H14166   3.696   0.717  12.113 -3.3665 -0.3554  0.1356
    1MPD1    H114167   3.826   0.507  11.771 -0.5887 -0.6877 -0.6358
    1MPD1    H214168   3.556   0.325  12.044 -0.5234  1.3034  0.9764
    1MPD1    H314169   3.671   0.329  11.825  0.4122 -0.0291 -1.0781
    1MPD1     N14170   3.842   0.744  11.917 -0.4330 -0.3704 -0.1164
    1MPD1    H514171   3.861   0.807  11.994 -0.0473 -0.0899 -0.4435
    1MPD1    N114172   3.557   0.521  12.222  0.1770  0.4112 -0.2317
    1MPD1    H614173   3.531   0.616  12.247  0.4155  0.0899  1.2159
    1MPD1    H714174   3.470   0.468  12.216 -0.7704  1.9940 -0.3783
    2MPD1     C14175   3.278   1.908   9.736 -0.1090  0.5593 -0.2008
    2MPD1    C114176   3.385   1.831   9.721 -0.3021 -1.1928 -0.1032
    2MPD1    C214177   3.412   1.742   9.825 -0.0145  0.3392  0.3334
    2MPD1    C314178   3.326   1.727   9.934 -0.8828  0.0273 -0.1862
    2MPD1    C414179   3.205   1.791   9.934  0.4252  0.9212 -0.4240
    2MPD1    C514180   3.182   1.878   9.832 -0.0440 -0.9383  0.2878
    2MPD1     H14181   3.507   1.690   9.823 -0.5100 -0.5314 -0.6162
    2MPD1    H114182   3.132   1.790  10.014  1.5851  3.0962  0.6773
    2MPD1    H214183   3.258   1.989   9.667  0.3562  0.7685 -0.0891
    2MPD1    H314184   3.095   1.943   9.839  0.3920 -0.2835 -0.3911
    2MPD1     N14185   3.370   1.655  10.050 -0.7127 -0.1687 -0.1335
    2MPD1    H514186   3.305   1.644  10.127 -1.6349 -0.6735 -0.9882
    2MPD1    N114187   3.479   1.863   9.622 -0.2556  0.6695 -0.1559
    2MPD1    H614188   3.542   1.937   9.653  1.0521 -0.3716 -0.2957
    2MPD1    H714189   3.432   1.907   9.544  1.1409  0.2167 -1.2554
    3MPD1     C14190   3.378   0.818   9.923 -0.4402  0.2824 -0.1616
    3MPD1    C114191   3.339   0.936   9.866 -0.4009 -0.5130  0.0072
    3MPD1    C214192   3.373   1.050   9.943  0.1158  0.4601  0.6786
    3MPD1    C314193   3.405   1.044  10.076  0.2305 -0.3376  0.0244
    3MPD1    C414194   3.410   0.919  10.138 -0.6737  0.3240 -0.1435
    3MPD1    C514195   3.410   0.809  10.056  0.1188  0.6351  0.3544
    3MPD1     H14196   3.352   1.150   9.907  3.0472  0.5604 -0.7627
    3MPD1    H114197   3.431   0.906  10.243 -1.5027  2.9401  0.3434
    3MPD1    H214198   3.362   0.730   9.862 -0.0491  1.3519 -1.8092
    3MPD1    H314199   3.399   0.713  10.104  0.3165  1.1692  1.4509
    3MPD1     N14200   3.454   1.157  10.144  0.2607  0.1086  0.2182
    3MPD1    H514201   3.474   1.234  10.081 -0.0593 -0.8750 -1.0890
    3MPD1    N114202   3.311   0.948   9.731  0.0372 -0.8205 -0.7820
    3MPD1    H614203   3.256   0.865   9.713 -1.2772 -0.3556  1.1744
    3MPD1    H714204   3.251   1.029   9.723  0.4658 -0.5348 -1.1316
    4MPD2     C14205   3.873   1.477  11.802 -0.2366 -0.9085 -0.2251
    4MPD2    C114206   3.970   1.399  11.740  0.0372  0.7937 -0.1308
    4MPD2    C214207   4.018   1.436  11.619 -0.0856 -0.2040 -0.1906
    4MPD2    C314208   3.974   1.552  11.556  0.2406  0.8437  0.4265
    4MPD2    C414209   3.875   1.626  11.622 -0.2931  0.0691  0.1235
    4MPD2    C514210   3.822   1.586  11.740  0.0860  0.4110  0.1028
    4MPD2     H14211   4.089   1.365  11.579  2.1354 -0.0508  3.4498
    4MPD2    H114212   3.851   1.725  11.584 -1.1098 -0.3077 -0.3529
    4MPD2    H214213   3.833   1.452  11.900 -1.5331 -0.2662 -0.5908
    4MPD2    H314214   3.753   1.648  11.795 -2.7149 -0.7395 -2.1274
    4MPD2     N14215   4.009   1.600  11.425 -0.1455  0.0233 -1.4589
    4MPD2    H514216   3.982   1.692  11.392 -0.3976 -0.5437 -2.8681
    4MPD2    N114217   4.039   1.293  11.798 -1.2327  0.2566 -0.0688
    4MPD2    H714218   4.101   1.248  11.730  0.5792  0.7553  1.2444
    5TMC3    C114219   4.043   1.083  11.890  0.3798  0.0596  0.5515
    5TMC3    C214220   3.947   0.989  11.871  0.0772  0.3748  0.0227
    5TMC3    C314221   3.973   0.886  11.786  0.2875  0.4622 -0.1701
    5TMC3    C414222   4.167   1.066  11.843 -0.3554  0.0256 -1.3534
    5TMC3    C514223   4.191   0.963  11.757  0.5505  0.2492  0.3349
    5TMC3    C614224   4.092   0.877  11.717  0.4187  0.2008 -0.1778
    5TMC3     C14225   3.995   1.225  11.912 -0.9940  0.3334  0.1148
    5TMC3     O14226   3.895   1.242  11.982 -0.3609 -0.2602  0.0345
    5TMC3     H14227   3.845   1.022  11.889  0.4828  1.1880  0.8477
    5TMC3    H114228   4.244   1.139  11.864  0.0373 -0.1662 -2.1267
    5TMC3    H214229   4.104   0.803  11.639  0.0808 -1.4798  1.3864
    5TMC3    C714230   4.244   1.022  11.637 -0.2230 -0.7330  0.1267
    5TMC3    C814231   3.900   0.767  11.790 -0.2506  0.5251  0.4700
    5TMC3    O114232   4.207   1.136  11.628 -0.2873 -0.0541  0.1356
    5TMC3    O214233   3.912   0.696  11.689 -0.0738 -0.1243  0.4066
    6TMC3    C114234   3.489   1.522  10.197 -0.4018 -0.2857  0.5823
    6TMC3    C214235   3.545   1.392  10.199 -0.5525  0.5525  0.1265
    6TMC3    C314236   3.508   1.316  10.302 -0.4872 -0.2498  0.6511
    6TMC3    C414237   3.418   1.571  10.302 -0.1601 -0.1476  0.6347
    6TMC3    C514238   3.399   1.496  10.408 -0.4517 -0.0348 -0.6856
    6TMC3    C614239   3.441   1.371  10.412  0.2350 -0.3707  0.2639
    6TMC3     C14240   3.483   1.582  10.068 -0.2997  0.0143  0.3299
    6TMC3     O14241   3.583   1.564  10.002  0.8240 -0.7164 -0.0499
    6TMC3     H14242   3.601   1.358  10.113 -1.3033  1.5450 -0.7689
    6TMC3    H114243   3.380   1.672  10.292 -1.7946 -0.7706  0.6335
    6TMC3    H214244   3.426   1.310  10.501 -0.9202  0.5578  0.6983
    6TMC3    C714245   3.384   1.569  10.534  0.3519  0.4321 -0.0733
    6TMC3    C814246   3.468   1.179  10.281 -0.0330  0.1228 -0.0197
    6TMC3    O114247   3.343   1.684  10.523  0.0690  0.0072 -0.2556
    6TMC3    O214248   3.419   1.114  10.371  0.0015 -0.5528 -0.8028
    7MPD2     C14249   4.377   1.033  11.146  0.3202  0.2066 -0.3655
    7MPD2    C114250   4.306   1.122  11.222 -0.5853 -0.3029  0.2474
    7MPD2    C214251   4.294   1.101  11.355  0.2546  0.3249 -0.3786
    7MPD2    C314252   4.344   0.979  11.415 -0.1837 -0.0991 -0.2874
    7MPD2    C414253   4.395   0.883  11.334 -0.3849  0.5252  0.2722
    7MPD2    C514254   4.432   0.918  11.204  0.3036 -0.3418  0.1410
    7MPD2     H14255   4.233   1.171  11.410 -0.1249  0.7016 -1.2814
    7MPD2    H114256   4.428   0.788  11.375 -0.3755  0.2325 -0.4279
    7MPD2    H214257   4.397   1.050  11.041 -0.7386  1.4164 -0.3737
    7MPD2    H314258   4.486   0.842  11.150  0.4167 -0.6635  0.7168
    7MPD2     N14259   4.317   0.942  11.548 -0.1586  0.0429  0.1546
    7MPD2    H514260   4.343   0.849  11.579 -1.0218 -0.4491 -0.6189
    7MPD2    N114261   4.249   1.243  11.174 -0.0352  0.4743 -0.3071
    7MPD2    H714262   4.198   1.303  11.237 -0.5517  0.3811 -0.6336
    8TMC3    C114263   4.183   1.411  11.039  0.6786 -0.0001  0.3917
    8TMC3    C214264   4.070   1.410  10.969 -0.4326  0.2942  0.2237
    8TMC3    C314265   3.976   1.501  11.014 -0.0471 -0.2409  0.4076
    8TMC3    C414266   4.204   1.487  11.150 -0.1390 -0.5307  0.0530
    8TMC3    C514267   4.106   1.568  11.203 -0.4592  0.2326 -0.4264
    8TMC3    C614268   3.991   1.571  11.132 -0.9208  0.0324  0.2562
    8TMC3     C14269   4.236   1.276  11.042  0.1299  0.1648  0.4085
    8TMC3     O14270   4.277   1.223  10.939  0.1184  0.0458  0.3119
    8TMC3     H14271   4.069   1.360  10.873 -0.2353 -1.6184  1.2096
    8TMC3    H114272   4.303   1.499  11.192 -1.5415  1.6783  2.7386
    8TMC3    H214273   3.903   1.616  11.176 -0.7877 -0.6651  1.2337
    8TMC3    C714274   4.081   1.524  11.339 -0.1748  0.3542  0.3941
    8TMC3    C814275   3.843   1.500  10.948 -0.1603  0.3208 -0.1794
    8TMC3    O114276   4.131   1.415  11.365 -0.0925 -0.1514  0.2204
    8TMC3    O214277   3.818   1.398  10.880 -0.2540 -0.0443 -0.1792
    9MPD2     C14278   3.553   1.742  10.978 -0.0494 -0.3258  0.5890
    9MPD2    C114279   3.627   1.628  10.933 -0.1008 -0.9825 -0.0257
    9MPD2    C214280   3.579   1.549  10.837  0.4630  0.1851 -0.2792
    9MPD2    C314281   3.464   1.587  10.765 -0.3231  0.0443  1.0575
    9MPD2    C414282   3.390   1.695  10.810  0.1721 -0.2223 -0.2353
    9MPD2    C514283   3.432   1.767  10.920  0.2688  0.4041  1.4641
    9MPD2     H14284   3.633   1.473  10.782 -0.9342 -1.9968  1.3506
    9MPD2    H114285   3.291   1.703  10.766 -0.0660  0.9799  0.5432
    9MPD2    H214286   3.588   1.818  11.046 -0.0118  1.8383 -1.8376
    9MPD2    H314287   3.381   1.862  10.937  0.5467  0.5239  1.6302
    9MPD2     N14288   3.437   1.512  10.649 -0.4453 -0.5585 -0.4218
    9MPD2    H514289   3.487   1.425  10.633 -0.1002 -0.5528  0.6256
    9MPD2    N114290   3.763   1.610  10.978  0.3861  0.4967 -0.6073
    9MPD2    H714291   3.810   1.689  11.022 -0.5615  1.6717 -1.7136
    1MPD1     C14292   4.173   0.175   1.196 -0.2190  0.4067  0.1346
    1MPD1    C114293   4.162   0.307   1.153  0.0842 -0.9780 -0.6540
    1MPD1    C214294   4.202   0.348   1.026  0.1285 -0.0779 -0.1351
    1MPD1    C314295   4.246   0.259   0.934 -0.4422  0.1025 -0.1405
    1MPD1    C414296   4.253   0.128   0.964 -0.0698  0.0910 -0.7111
    1MPD1    C514297   4.223   0.095   1.094  0.0297  0.4578  0.4579
    1MPD1     H14298   4.199   0.452   0.996  0.1527  0.0789  0.3991
    1MPD1    H114299   4.278   0.049   0.894  0.0454 -0.1616 -0.3872
    1MPD1    H214300   4.153   0.136   1.295  0.1113  1.2366  0.5268
    1MPD1    H314301   4.246   4.727   1.116  0.8168  0.4083 -0.5452
    1MPD1     N14302   4.282   0.304   0.811 -0.5942  0.5734  0.1781
    1MPD1    H514303   4.308   0.235   0.741  0.7563  0.5036  0.7621
    1MPD1    N114304   4.128   0.404   1.237 -0.5883 -0.1028 -0.1547
    1MPD1    H614305   4.071   0.467   1.181  0.6570 -0.0747 -1.3906
    1MPD1    H714306   4.077   0.375   1.320 -0.7321 -2.3962 -1.0462
    2TMC2    C114307   4.327   0.536   0.418  0.4666 -0.2839  0.0396
    2TMC2    C214308   4.291   0.434   0.343  0.1437 -0.0095  0.1677
    2TMC2    C314309   4.243   0.323   0.407  0.0790  0.3315 -0.0249
    2TMC2    C414310   4.327   0.532   0.558  0.0853 -0.1893 -0.1706
    2TMC2    C514311   4.279   0.423   0.617  0.6122 -0.3179 -0.0609
    2TMC2    C614312   4.238   0.315   0.543  0.1819  0.0144  0.4188
    2TMC2     C14313   4.394   0.645   0.362 -0.1272  0.3972  0.1566
    2TMC2     O14314   4.381   0.754   0.420 -0.2818  0.0598  0.1594
    2TMC2     H14315   4.283   0.433   0.235  0.3356  0.3057  0.1500
    2TMC2    H114316   4.376   0.619   0.600  2.9093 -2.5594  1.5151
    2TMC2    H214317   4.196   0.230   0.596 -0.1620 -1.2949 -1.9625
    2TMC2    C714318   4.273   0.426   0.764  1.1354 -0.1781  0.5617
    2TMC2    C814319   4.232   0.203   0.326 -0.1890  0.4016 -0.7204
    2TMC2    O114320   4.275   0.537   0.819  0.3074 -0.3311  0.3704
    2TMC2    O214321   4.200   0.214   0.206  0.1138  0.0651 -0.2451
    2TMC2    O514322   4.318   0.108   0.379  0.3388  0.2471 -0.0462
    2TMC2    H514323   4.341   0.130   0.472  1.9280 -3.1378  0.3775
    3MPD1     C14324   4.683   0.877  17.736 -0.3059  0.1863  0.9660
    3MPD1    C114325   4.642   0.749  17.689  0.4937  0.4027 -0.4637
    3MPD1    C214326   4.560   0.675   0.036 -0.1204  0.0239  0.0145
    3MPD1    C314327   4.519   0.720   0.158 -0.0085 -0.2018  0.3529
    3MPD1    C414328   4.554   0.849   0.193  0.7487 -0.8533  0.6014
    3MPD1    C514329   4.629   0.928   0.110  0.4778 -0.3117  0.5913
    3MPD1     H14330   4.540   0.575  17.736  0.4303 -0.8314  1.9951
    3MPD1    H114331   4.511   0.886   0.285  0.8249  0.7198  0.0013
    3MPD1    H214332   0.020   0.941  17.686  0.9958 -1.6796  0.4174
    3MPD1    H314333   4.655   1.026   0.149  0.8482  0.5517 -1.8259
    3MPD1     N14334   4.435   0.630   0.235  0.0239 -0.4353  0.4785
    3MPD1    H514335   4.422   0.536   0.198  1.9733  0.0410 -1.4321
    3MPD1    N114336   4.713   0.701  17.580  0.3306 -0.1829  0.2921
    3MPD1    H614337   4.652   0.637  17.529  1.1373 -1.8146  1.3672
    3MPD1    H714338   0.015   0.772  17.518 -0.0238  1.0311  1.4817
    1TMC1    C114339   2.176   4.315  13.912 -0.5409 -0.1342  0.8947
    1TMC1    C214340   2.036   4.321  13.928  0.4399 -0.0829 -0.8508
    1TMC1    C314341   1.962   4.338  13.818 -0.4621 -0.1583  0.2364
    1TMC1    C414342   2.236   4.325  13.787  0.2523 -0.3843 -0.0100
    1TMC1    C514343   2.156   4.330  13.678 -0.2753  0.4410 -0.1244
    1TMC1    C614344   2.016   4.340  13.689 -0.1545  0.0757 -0.0175
    1TMC1     C14345   2.250   4.342  14.027  0.4466 -0.0862 -0.4304
    1TMC1     O14346   2.366   4.379  14.004 -0.6190  0.5322  0.1554
    1TMC1     H14347   1.982   4.341  14.020  0.5441 -1.4404 -0.4902
    1TMC1    H114348   2.343   4.308  13.789  0.3314  0.0338 -0.4826
    1TMC1    H214349   1.953   4.359  13.604  0.8552 -2.1525 -1.2649
    1TMC1    C714350   2.207   4.336  13.544 -0.5895 -0.1837 -0.2047
    1TMC1    C814351   1.823   4.350  13.836 -0.0807  0.1548  0.0069
    1TMC1    O114352   2.156   4.283  13.446  0.1924  0.6720 -0.0779
    1TMC1    O214353   1.747   4.386  13.747  0.1931  0.2087  0.0527
    1TMC1    O314354   2.307   4.423  13.534 -0.0494  0.5283  0.1185
    1TMC1    H314355   2.318   4.478  13.614 -0.6848 -0.0077  0.5768
    1TMC1    O514356   1.791   4.252  13.921 -0.0895 -0.2725 -0.1513
    1TMC1    H514357   1.859   4.214  13.981  1.5329  0.9433 -1.2106
    2MPD2     C14358   2.360   4.358  14.304  0.7665 -0.0329  0.0072
    2MPD2    C114359   2.248   4.285  14.273  0.0495 -0.0249  0.0194
    2MPD2    C214360   2.210   4.186  14.364 -0.5316 -0.6936  0.2258
    2MPD2    C314361   2.268   4.180  14.485 -0.0534 -1.2060 -0.5617
    2MPD2    C414362   2.381   4.254  14.514 -0.0051 -0.0261 -0.5967
    2MPD2    C514363   2.429   4.344  14.425 -0.0445  0.1335  0.5775
    2MPD2     H14364   2.129   4.120  14.334 -0.7921 -0.3047  0.0733
    2MPD2    H114365   2.447   4.252  14.601 -1.0546 -0.3752  0.2014
    2MPD2    H214366   2.397   4.440  14.244 -2.6547  1.8643  0.5257
    2MPD2    H314367   2.513   4.401  14.464 -0.4826 -0.7209  2.7930
    2MPD2     N14368   2.219   4.083  14.573  0.0098  0.0115  0.2535
    2MPD2    H514369   2.148   4.019  14.537  0.3883 -0.9326  1.1792
    2MPD2    N114370   2.192   4.291  14.146  0.3670 -0.1657 -0.5841
    2MPD2    H714371   2.111   4.229  14.147 -0.3541  0.7753 -0.4905
    3TCq1    O114372   1.854   3.801  14.605 -0.7391 -0.2499  0.0832
    3TCq1    C114373   1.865   3.799  14.741  0.9549  0.2726  0.2917
    3TCq1    O214374   1.804   3.725  14.815 -0.4169 -0.4383  0.2606
    3TCq1    C214375   2.005   3.811  14.755  0.4424  0.2855 -0.6907
    3TCq1    C314376   2.071   3.719  14.830  0.2677 -0.2220 -0.3107
    3TCq1    C414377   2.204   3.738  14.860 -0.7008  0.4096 -0.1892
    3TCq1    C514378   2.266   3.851  14.823 -0.4588 -0.0779 -0.1724
    3TCq1    C614379   2.197   3.951  14.756  0.4505 -0.0497 -0.2747
    3TCq1    C714380   2.063   3.932  14.723 -0.3258  0.1829  0.1550
    3TCq1    C814381   2.265   4.064  14.700  0.4069  0.1465  0.0737
    3TCq1    O414382   2.364   4.106  14.759  0.1162 -0.5434 -0.1140
    3TCq1    C914383   2.277   3.636  14.927 -0.3453  0.1214 -0.2710
    3TCq1    O514384   2.210   3.549  14.993  0.0193  0.3281 -0.5559
    3TCq1    O614385   2.398   3.633  14.893  0.1581  0.5289  0.1195
    3TCq1    H114386   1.934   3.828  14.556 -0.0805  1.9670  2.3817
    3TCq1    H214387   2.022   3.625  14.852  2.4771 -1.5689 -1.2114
    3TCq1    H314388   2.370   3.867  14.846 -0.2539  0.0537 -1.1856
    3TCq1    H414389   1.997   3.998  14.667 -1.8429 -1.0267  0.5358
    1MPD2     C14390   1.190   0.680  14.759  0.3636 -0.3092 -0.6374
    1MPD2    C114391   1.126   0.569  14.715  0.2411  0.1190 -0.5743
    1MPD2    C214392   1.199   0.448  14.706 -0.1283  0.0013  1.1493
    1MPD2    C314393   1.334   0.444  14.738  0.6163 -0.1330  0.7573
    1MPD2    C414394   1.399   0.549  14.787 -0.4437  0.3198 -0.0144
    1MPD2    C514395   1.323   0.668  14.791 -0.2884 -0.1738 -0.3055
    1MPD2     H14396   1.160   0.351  14.680  1.8679 -0.6408  0.5769
    1MPD2    H114397   1.503   0.550  14.820  0.3631 -0.4664 -2.5051
    1MPD2    H214398   1.137   0.772  14.779  0.3836 -0.3294 -0.4939
    1MPD2    H314399   1.377   0.746  14.844 -0.5647 -1.3700  1.7016
    1MPD2     N14400   1.383   0.313  14.733  0.5535  0.2021 -0.2200
    1MPD2    H514401   1.321   0.246  14.689  0.2913  0.9342 -0.9695
    1MPD2    N114402   0.984   0.577  14.699 -0.2488 -0.3392 -0.1979
    1MPD2    H714403   0.934   0.665  14.701  0.8791  0.2738  0.8677
    2TMC3    C114404   0.770   0.492  14.677 -0.0947 -0.9422 -0.3198
    2TMC3    C214405   0.696   0.385  14.704  1.0441  0.0244 -0.2302
    2TMC3    C314406   0.596   0.334  14.631  0.1785  0.2500  0.3326
    2TMC3    C414407   0.732   0.570  14.570  0.1529  0.0828 -0.3157
    2TMC3    C514408   0.619   0.528  14.501  0.3406 -0.6612  0.0099
    2TMC3    C614409   0.557   0.406  14.525  0.0114 -0.2084  0.3095
    2TMC3     C14410   0.912   0.463  14.686 -0.7251 -0.0766 -0.2288
    2TMC3     O14411   0.937   0.346  14.711 -0.0021 -0.1299  0.1438
    2TMC3     H14412   0.719   0.342  14.801  1.4740  1.3379  0.2387
    2TMC3    H114413   0.809   0.636  14.531  1.1746 -1.5234 -1.0330
    2TMC3    H214414   0.479   0.366  14.461 -0.1637 -1.2072  1.1349
    2TMC3    C714415   0.534   0.629  14.442 -0.6196 -0.3197  0.0454
    2TMC3    C814416   0.627   0.195  14.590  0.3471 -0.5121  0.6485
    2TMC3    O114417   0.420   0.591  14.407  0.0937 -0.0902  0.7628
    2TMC3    O214418   0.559   0.129  14.514 -0.5843 -0.0535 -0.3480
    3TCq1    O114419   0.525   1.826  14.416  0.0121 -0.0599 -0.4948
    3TCq1    C114420   0.660   1.809  14.400  0.3571 -0.0353  0.6340
    3TCq1    O214421   0.742   1.900  14.404 -0.1497  0.2488 -0.1858
    3TCq1    C214422   0.684   1.671  14.447 -0.3291 -0.6498  0.8850
    3TCq1    C314423   0.787   1.637  14.532 -0.4017  0.0688 -0.8162
    3TCq1    C414424   0.798   1.511  14.577  0.4847 -0.0010 -0.0942
    3TCq1    C514425   0.712   1.415  14.540  0.8025  0.0026  0.1471
    3TCq1    C614426   0.628   1.444  14.433 -0.0513  0.6043 -0.9062
    3TCq1    C714427   0.607   1.569  14.389  0.4460 -0.0484 -0.2975
    3TCq1    C814428   0.534   1.347  14.389 -0.3866  0.0349 -0.0127
    3TCq1    O414429   0.444   1.380  14.314 -0.2335  0.1533  0.5020
    3TCq1    C914430   0.901   1.467  14.663  0.6935 -0.7553  0.0331
    3TCq1    O514431   0.971   1.557  14.712 -0.2619  0.1714 -0.5191
    3TCq1    O614432   0.903   1.347  14.699 -0.1814  0.2831  0.0366
    3TCq1    H114433   0.475   1.742  14.430  0.3597 -0.3477 -0.9898
    3TCq1    H214434   0.857   1.715  14.559  0.5998 -0.6547 -1.3355
    3TCq1    H314435   0.710   1.319  14.590  1.8380 -0.7161 -1.1794
    3TCq1    H414436   0.536   1.595  14.311  1.1533 -0.6913 -1.1551
    4MPD2     C14437   0.420   1.104  14.275 -0.1947  0.5371 -0.4943
    4MPD2    C114438   0.520   1.106  14.367  0.4785  0.2794  0.0913
    4MPD2    C214439   0.569   0.989  14.426 -0.1957  0.1971 -0.0195
    4MPD2    C314440   0.526   0.869  14.393 -0.1862  0.3026  1.1881
    4MPD2    C414441   0.426   0.859  14.300  0.3932 -0.3861 -0.2593
    4MPD2    C514442   0.365   0.977  14.249  0.2588 -0.2661 -0.6344
    4MPD2     H14443   0.639   0.993  14.508  0.3802  0.1658 -0.5071
    4MPD2    H114444   0.376   0.766  14.276  1.5104 -0.7243 -1.2449
    4MPD2    H214445   0.367   1.190  14.236 -1.1819  1.1406  2.2165
    4MPD2    H314446   0.277   0.964  14.186 -1.0912 -1.4448  1.4852
    4MPD2     N14447   0.580   0.754  14.446 -0.1909  0.3146  0.7352
    4MPD2    H514448   0.663   0.770  14.503  1.5804  1.9912 -2.2806
    4MPD2    N114449   0.576   1.222  14.417 -0.1643 -0.5068 -0.4269
    4MPD2    H714450   0.661   1.198  14.469 -0.1934 -2.8513 -1.4531
    5TMC2    C114451   1.360   4.690  14.726  0.5032 -0.5922  0.1085
    5TMC2    C214452   1.402   4.627  14.840  0.4816  0.1565 -0.0222
    5TMC2    C314453   1.516   4.678  14.909  0.4616  0.7277 -0.4697
    5TMC2    C414454   1.431   0.068  14.683 -0.9164 -0.0856  0.0103
    5TMC2    C514455   1.524   0.126  14.759 -0.1685  0.3153  0.4993
    5TMC2    C614456   1.568   0.063  14.872 -0.7504  0.7435  0.3850
    5TMC2     C14457   1.221   4.721  14.715 -0.1001  0.7043 -0.0293
    5TMC2     O14458   1.201   0.089  14.658  0.6851 -0.9944  0.0570
    5TMC2     H14459   1.354   4.542  14.887 -0.4466  1.3090  1.1457
    5TMC2    H114460   1.420   0.116  14.587 -0.3485  0.2329  0.1045
    5TMC2    H214461   1.651   0.101  14.931  2.0175  0.5535 -3.3366
    5TMC2    C714462   1.507   0.272  14.777 -0.0864  0.1925 -0.2255
    5TMC2    C814463   1.568   4.628  15.032  0.0758  0.1776  0.4994
    5TMC2    O114464   1.592   0.334  14.846 -0.2458  0.0995 -0.2874
    5TMC2    O214465   1.643   4.685  15.104  0.0136 -0.2197  0.7607
    5TMC2    O514466   1.546   4.495  15.038 -0.2440  0.4018  0.3293
    5TMC2    H514467   1.512   4.454  14.956  1.2788 -0.0730 -0.0695
    6MPD2     C14468   0.735   4.653  14.599 -0.0134  0.4794  0.5865
    6MPD2    C114469   0.808   0.030  14.638  0.5814  0.2028  0.2223
    6MPD2    C214470   0.934   0.021  14.682  0.0891 -0.0310  0.0862
    6MPD2    C314471   0.996   4.628  14.695 -0.0382 -0.0188  0.1596
    6MPD2    C414472   0.922   4.516  14.667  0.7270 -0.6948  0.1098
    6MPD2    C514473   0.791   4.534  14.620  0.2857 -0.3262  0.3004
    6MPD2     H14474   0.991   0.110  14.706  0.8651 -0.4473 -0.2275
    6MPD2    H114475   0.970   4.419  14.666  0.9636 -0.6181  4.0607
    6MPD2    H214476   0.630   4.662  14.573 -0.2428 -1.4168  0.8558
    6MPD2    H314477   0.730   4.448  14.595 -1.6014  1.5159 -1.3918
    6MPD2     N14478   1.133   4.615  14.727 -0.1635  0.6455 -0.2079
    6MPD2    H514479   1.159   4.521  14.757 -0.7234  0.2317 -1.0309
    6MPD2    N114480   0.750   0.162  14.640  0.0512  0.0482  0.2720
    6MPD2    H714481   0.818   0.235  14.656 -0.6479  0.6982  0.2781
  945NH4     N114482   3.350   3.267  16.873 -0.4275  0.5720 -0.0425
  945NH4     H214483   3.261   3.317  16.889  0.1532  1.4565  0.4350
  945NH4     H314484   3.376   3.278  16.772  0.1953 -3.9125 -0.3801
  945NH4     H414485   3.330   3.169  16.900  1.6725  0.2618  0.3993
  945NH4     H514486   3.420   3.316  16.932  1.1784  0.8238 -2.1363
  946SOD     NA14487   1.645   4.341  13.558  0.2740  0.5251  0.0826
  947SOD     NA14488   2.138   1.157  16.553  0.0371  0.0272 -0.2054
  948SOD     NA14489   0.561   1.477  13.914  0.1742  0.2472  0.6139
  949SOD     NA14490   2.330   2.251  16.225 -0.0847 -0.1063 -0.2691
  950SOD     NA14491   3.055   4.589  12.410 -0.2602 -0.0278 -0.1048
  951SOD     NA14492   0.380   3.546   5.616 -0.1559  0.1824  0.0516
  952SOD     NA14493   0.331   4.040   7.458 -0.0707  0.3556 -0.0589
  953SOL     OW14494   3.977   2.626   7.242  0.1664  0.1109 -0.1636
  953SOL    HW114495   3.934   2.706   7.272 -1.4668 -0.3218 -1.3434
  953SOL    HW214496   4.056   2.621   7.296  0.5057 -0.7845 -0.7415
  954SOL     OW14497   0.665   1.777   2.906 -0.0625 -0.0074  0.3718
  954SOL    HW114498   0.743   1.723   2.898 -1.8030 -1.9422 -3.6630
  954SOL    HW214499   0.625   1.743   2.986 -1.1572  1.0987  0.3021
  955SOL     OW14500   4.514   2.831   7.754 -0.0722  0.2485  0.1784
  955SOL    HW114501   4.457   2.872   7.690 -0.3632  2.6561  1.9826
  955SOL    HW214502   4.594   2.857   7.709  0.9314 -1.9056  0.6959
  956SOL     OW14503   2.901   1.255   5.605  0.2684 -0.1327 -0.2653
  956SOL    HW114504   2.826   1.209   5.566  0.6588  1.7707 -3.1895
  956SOL    HW214505   2.960   1.179   5.604 -2.0686 -1.9471 -0.6103
  957SOL     OW14506   1.781   4.193   0.331  0.4173 -0.1873 -0.2801
  957SOL    HW114507   1.794   4.243   0.412 -0.1371  0.1620 -0.4014
  957SOL    HW214508   1.846   4.233   0.274 -0.9311  0.8017 -1.1296
  958SOL     OW14509   2.548   4.588  15.082  0.3366 -0.1256 -0.6505
  958SOL    HW114510   2.516   4.669  15.122 -0.3083  0.1376 -1.6945
  958SOL    HW214511   2.475   4.576  15.020 -2.0378  0.0107  2.0893
  959SOL     OW14512   1.972   0.686   8.104  0.1697 -0.2687  0.0426
  959SOL    HW114513   2.006   0.658   8.019 -0.6785  1.4857 -0.8788
  959SOL    HW214514   1.876   0.682   8.095 -0.0205 -0.9645  2.2312
  960SOL     OW14515   1.988   2.451  10.674 -0.3002 -0.3202 -0.0881
  960SOL    HW114516   1.976   2.360  10.703 -0.9722 -0.7891 -1.8404
  960SOL    HW214517   2.010   2.434  10.583 -0.3781  1.0320 -0.3572
  961SOL     OW14518   2.185   3.578   1.856 -0.6075  0.6180 -0.1947
  961SOL    HW114519   2.249   3.640   1.891  1.4001 -1.3895 -0.2842
  961SOL    HW214520   2.232   3.501   1.823 -1.1211 -0.1275  0.7945
  962SOL     OW14521   0.726   2.844   7.163 -0.2244 -0.3111  0.2576
  962SOL    HW114522   0.696   2.769   7.215  2.2274  0.0214  2.1563
  962SOL    HW214523   0.640   2.881   7.145  0.4774  1.0673 -0.2827
  963SOL     OW14524   2.679   1.914   7.299  0.1944 -0.3640  0.0771
  963SOL    HW114525   2.731   1.861   7.359 -2.3182 -1.2671  1.4487
  963SOL    HW214526   2.744   1.976   7.265  1.0453 -1.3730 -0.1071
  964SOL     OW14527   0.583   1.120   4.186  0.4417 -0.2476  0.4746
  964SOL    HW114528   0.503   1.133   4.133  0.9850  1.3102  0.0367
  964SOL    HW214529   0.546   1.091   4.269 -0.8013  0.3961  0.1585
  965SOL     OW14530   1.595   0.983  11.081 -0.2733  0.7549  0.2197
  965SOL    HW114531   1.614   0.890  11.096 -3.0276  0.1917  0.0634
  965SOL    HW214532   1.670   1.001  11.023 -0.7703 -1.4932 -1.1341
  966SOL     OW14533   2.791   2.280   1.131 -0.5846  0.2410  0.0755
  966SOL    HW114534   2.732   2.209   1.104 -1.0027 -0.4832  2.8297
  966SOL    HW214535   2.736   2.332   1.189  1.4865  3.5940 -0.9770
  967SOL     OW14536   2.224   0.100   2.587 -0.4312  0.0602  0.3298
  967SOL    HW114537   2.186   0.183   2.557  0.9980  0.8454  0.6765
  967SOL    HW214538   2.187   0.033   2.530 -2.2014  2.5532 -1.4602
  968SOL     OW14539   1.653   0.052   2.575  0.1024 -0.2740  0.4764
  968SOL    HW114540   1.589   0.124   2.571  0.5696  0.1922  1.2862
  968SOL    HW214541   1.723   0.079   2.517 -0.1278  1.6170  1.0591
  969SOL     OW14542   0.473   1.995   7.070 -0.0434  0.0447  0.1648
  969SOL    HW114543   0.405   2.062   7.064 -0.4988 -0.3781  0.6152
  969SOL    HW214544   0.508   2.016   7.156 -0.5575  0.2869  0.3163
  970SOL     OW14545   3.083   0.686  17.451  0.1550  0.2955 -0.1820
  970SOL    HW114546   3.095   0.683  17.546  0.2342 -0.3125 -0.2128
  970SOL    HW214547   3.098   0.781  17.444 -1.9703  0.7474  1.1807
  971SOL     OW14548   1.087   0.137   5.097 -0.1531  0.0411  0.0827
  971SOL    HW114549   1.131   0.221   5.085  2.8263 -1.4923  0.3323
  971SOL    HW214550   1.113   0.135   5.190  0.5097 -1.8521 -0.1413
  972SOL     OW14551   3.641   2.539   0.027  0.4676 -0.2302 -0.0916
  972SOL    HW114552   3.629   2.445   0.037 -2.5717  0.0808 -0.6714
  972SOL    HW214553   3.564   2.572   0.074 -0.3747  0.6967 -2.1313
  973SOL     OW14554   1.154   4.265  12.568  0.4966 -0.2614  0.3024
  973SOL    HW114555   1.095   4.190  12.563  1.0608 -0.6950  0.1586
  973SOL    HW214556   1.164   4.268  12.663  1.4900  0.0864  0.1850
  974SOL     OW14557   4.357   1.922   8.789 -0.1734 -0.1321 -0.2626
  974SOL    HW114558   4.338   1.834   8.756 -0.3324 -0.1173 -0.2099
  974SOL    HW214559   4.423   1.962   8.732  0.3292  2.3756  2.0349
  975SOL     OW14560   3.092   4.573   0.462 -0.2990  0.4424 -0.9887
  975SOL    HW114561   3.041   4.528   0.395 -3.2085 -0.0447  1.5614
  975SOL    HW214562   3.097   4.501   0.524  1.1083  1.8122  0.4838
  976SOL     OW14563   4.259   0.285  14.864 -0.2511  0.4272  0.5012
  976SOL    HW114564   4.236   0.203  14.820 -3.4422  1.8908 -0.5330
  976SOL    HW214565   4.338   0.249  14.905  0.4472 -0.7315 -1.8744
  977SOL     OW14566   2.997   2.544   3.111  0.2150  0.6244  0.3490
  977SOL    HW114567   2.936   2.585   3.049 -0.0757  0.4525  0.5230
  977SOL    HW214568   3.020   2.467   3.059  1.1649 -0.3432  2.2326
  978SOL     OW14569   0.525   1.404  11.324 -0.1144 -0.0629 -0.3995
  978SOL    HW114570   0.473   1.448  11.391  2.9000  1.6927  0.7894
  978SOL    HW214571   0.484   1.318  11.312  0.7291 -0.8194  2.2045
  979SOL     OW14572   4.657   2.710   0.256 -0.0906 -0.1921  0.2846
  979SOL    HW114573   4.683   2.684   0.168  0.8348  0.7907  0.2696
  979SOL    HW214574   4.702   2.638   0.300 -0.5286 -1.5030 -1.4252
  980SOL     OW14575   3.739   2.430   0.326 -0.0586 -0.0354 -0.3196
  980SOL    HW114576   3.694   2.402   0.246  1.0870  1.5600 -1.5390
  980SOL    HW214577   3.801   2.360   0.344 -0.4908  0.0650  1.4785
  981SOL     OW14578   0.281   0.062   8.025  0.2171 -0.2172  0.1832
  981SOL    HW114579   0.247   0.108   7.948  2.8634 -0.5606 -1.1825
  981SOL    HW214580   0.258   4.705   8.011 -2.6036  0.6438 -0.9647
  982SOL     OW14581   0.615   2.156   6.561  0.0893 -0.0836  0.4334
  982SOL    HW114582   0.691   2.144   6.505 -0.8201 -0.7933 -0.6570
  982SOL    HW214583   0.552   2.154   6.488 -0.9497 -1.9223  1.3760
  983SOL     OW14584   2.559   1.477  15.230 -0.1352  0.1029 -0.1490
  983SOL    HW114585   2.619   1.414  15.270 -1.2358 -0.7569  0.1809
  983SOL    HW214586   2.546   1.438  15.143 -3.9185 -0.2521  0.5491
  984SOL     OW14587   2.914   4.690   6.846 -0.1737  0.3413 -0.2864
  984SOL    HW114588   2.965   4.624   6.894 -0.9391 -0.3732 -0.4599
  984SOL    HW214589   2.969   0.034   6.853  0.5030 -0.3595  2.6089
  985SOL     OW14590   1.643   2.082  15.778 -0.2749  0.5393 -0.5834
  985SOL    HW114591   1.573   2.083  15.713  0.1781  1.8977 -1.0418
  985SOL    HW214592   1.701   2.015  15.742 -0.2251  1.3463 -1.9872
  986SOL     OW14593   3.024   2.246  12.845  0.4991  0.3221  0.1506
  986SOL    HW114594   2.939   2.285  12.865  0.0564 -1.4787  1.7700
  986SOL    HW214595   3.084   2.320  12.839  2.4223 -1.1745  0.8109
  987SOL     OW14596   0.532   3.971  15.872  0.6310  0.3159  0.1934
  987SOL    HW114597   0.612   4.016  15.900  0.7080  0.8753 -0.9429
  987SOL    HW214598   0.550   3.892  15.821 -0.9178  0.6165 -0.8015
  988SOL     OW14599   1.430   3.068  13.894 -0.4398  0.4631 -0.3973
  988SOL    HW114600   1.394   3.015  13.822  1.2662  1.5124 -2.0178
  988SOL    HW214601   1.462   3.143  13.845  2.5966  1.9002  3.7994
  989SOL     OW14602   3.199   0.950  17.461  0.5084  0.0677  0.2479
  989SOL    HW114603   3.291   0.923  17.450  0.5750 -0.5991  2.4538
  989SOL    HW214604   3.201   1.036  17.504 -0.0579  0.8891 -1.3525
  990SOL     OW14605   4.370   3.451   5.352  0.3993 -0.1820  0.2145
  990SOL    HW114606   4.360   3.546   5.352  1.8914 -0.0233  0.2552
  990SOL    HW214607   4.460   3.442   5.384 -0.1837  2.9724  2.7450
  991SOL     OW14608   0.969   2.927   3.346 -0.6626  0.3066 -0.1605
  991SOL    HW114609   0.976   2.917   3.441  0.0900 -0.6795 -0.3303
  991SOL    HW214610   1.019   3.007   3.333  1.3043 -0.8664  0.1912
  992SOL     OW14611   3.159   1.795   7.696  0.3595  0.4271  0.5229
  992SOL    HW114612   3.187   1.707   7.670 -1.0894  0.1132 -0.0303
  992SOL    HW214613   3.210   1.804   7.776  1.7630 -1.7771 -0.1217
  993SOL     OW14614   3.602   4.629   2.528 -0.1760 -0.2243  0.1078
  993SOL    HW114615   3.662   4.676   2.586 -0.4696 -1.2533  1.2373
  993SOL    HW214616   3.621   4.542   2.562 -2.3793 -0.1297  1.6425
  994SOL     OW14617   0.779   4.069   5.923  0.1865 -0.0500  0.4621
  994SOL    HW114618   0.777   4.009   5.849  0.4044 -1.3876  1.5438
  994SOL    HW214619   0.734   4.144   5.886  1.1572  1.3993  2.1985
  995SOL     OW14620   4.435   4.733  15.107  0.0392 -0.1922 -0.2708
  995SOL    HW114621   4.458   0.085  15.072 -1.5970  0.7367  0.9682
  995SOL    HW214622   4.484   4.668  15.058  2.7133  0.5086  1.4641
  996SOL     OW14623   1.420   4.235   7.180 -0.3070  0.8778  0.5652
  996SOL    HW114624   1.504   4.209   7.141 -0.9282 -1.1511  0.5814
  996SOL    HW214625   1.365   4.177   7.127 -1.5750  1.6517  1.0641
  997SOL     OW14626   1.314   0.251   0.573  0.4877 -0.2693 -0.9357
  997SOL    HW114627   1.262   0.228   0.496 -2.1673  2.5676 -0.0057
  997SOL    HW214628   1.353   0.328   0.531 -0.3754  0.6767 -0.0166
  998SOL     OW14629   4.603   3.835   8.166 -0.4881  0.1730 -0.3900
  998SOL    HW114630   4.625   3.804   8.078 -0.3336  0.1050 -0.3272
  998SOL    HW214631   4.510   3.858   8.155 -0.3826  1.1082  0.5969
  999SOL     OW14632   1.075   1.337   1.852 -0.1808 -0.3834  0.2550
  999SOL    HW114633   1.049   1.428   1.841 -0.2484 -0.2999  1.1060
  999SOL    HW214634   1.056   1.303   1.765 -1.0150  0.7173  0.0110
 1000SOL     OW14635   4.336   3.726  12.073  0.3243  0.4480 -0.4524
 1000SOL    HW114636   4.419   3.694  12.036  0.8732  1.4426 -0.0706
 1000SOL    HW214637   4.294   3.757  11.994 -0.5451 -1.8354 -0.8734
 1001SOL     OW14638   2.069   4.718  13.874  0.1002 -0.0084  0.0933
 1001SOL    HW114639   2.050   0.021  13.960  0.0040  2.0560 -0.8333
 1001SOL    HW214640   1.983   4.727  13.834  0.2804  1.2342 -0.0124
 1002SOL     OW14641   4.384   3.448  10.909 -0.3711  0.2779  0.1119
 1002SOL    HW114642   4.342   3.363  10.921 -0.4215  0.4175  0.8760
 1002SOL    HW214643   4.438   3.460  10.987  1.9210 -0.7958 -1.2944
 1003SOL     OW14644   2.129   3.260  13.368  0.5359  0.5953  0.7177
 1003SOL    HW114645   2.070   3.279  13.295  2.3961  3.0132 -0.1485
 1003SOL    HW214646   2.204   3.315  13.346  1.2604 -0.8333 -0.3779
 1004SOL     OW14647   4.325   2.294  12.196 -0.0180  0.8907  0.0241
 1004SOL    HW114648   4.264   2.332  12.133 -0.8670 -0.9136 -0.2315
 1004SOL    HW214649   4.266   2.256  12.261  1.7887  0.6894  1.5637
 1005SOL     OW14650   2.581   1.644   9.221 -0.1361 -0.3636 -0.4937
 1005SOL    HW114651   2.581   1.618   9.129  1.1716  0.0199 -0.6047
 1005SOL    HW214652   2.636   1.579   9.264  1.3183 -0.9386 -3.2497
 1006SOL     OW14653   1.847   2.297   2.890 -0.8181  0.5720  0.3732
 1006SOL    HW114654   1.784   2.305   2.818 -0.3260  1.9848  0.0921
 1006SOL    HW214655   1.794   2.277   2.966  0.3314 -1.0025  0.7584
 1007SOL     OW14656   1.296   3.518   5.900  0.1513  0.6053  0.2777
 1007SOL    HW114657   1.351   3.581   5.946 -0.1683  1.2789 -0.2616
 1007SOL    HW214658   1.320   3.443   5.955 -1.0683  0.8345  1.0986
 1008SOL     OW14659   0.660   0.481  13.032 -0.1301 -0.0981 -0.6616
 1008SOL    HW114660   0.630   0.493  12.942 -1.1401  3.7062  0.1876
 1008SOL    HW214661   0.694   0.568  13.050 -0.8999  0.7452 -3.2338
 1009SOL     OW14662   0.885   0.336   8.946 -0.1998 -0.3356  0.4528
 1009SOL    HW114663   0.961   0.394   8.950 -0.6815  0.2569  1.0193
 1009SOL    HW214664   0.908   0.260   8.891  0.1821  0.0631  0.0612
 1010SOL     OW14665   0.043   0.924   5.346 -0.4640 -0.1875 -0.0294
 1010SOL    HW114666   0.084   0.841   5.320 -1.0774  0.2973 -2.4776
 1010SOL    HW214667   0.120   0.963   5.387  0.0943 -1.0348 -0.2605
 1011SOL     OW14668   4.059   0.799   2.387  0.2584  0.3371 -0.9136
 1011SOL    HW114669   4.016   0.739   2.327  0.4243 -1.6437  0.9517
 1011SOL    HW214670   3.981   0.826   2.437  0.7563 -1.5146  0.8607
 1012SOL     OW14671   1.412   0.795  15.813 -0.1372 -0.0257 -0.0210
 1012SOL    HW114672   1.451   0.870  15.859 -1.6487  1.7310 -1.6171
 1012SOL    HW214673   1.357   0.827  15.742  0.5560  2.3427  0.4802
 1013SOL     OW14674   3.560   3.406  10.500 -0.3628 -0.0310  0.1085
 1013SOL    HW114675   3.650   3.432  10.479 -0.9431  0.2435 -2.0063
 1013SOL    HW214676   3.528   3.402  10.410 -0.4562 -0.4807  0.1602
 1014SOL     OW14677   3.222   3.064   0.057 -0.2721  0.3501  0.1210
 1014SOL    HW114678   3.136   3.050   0.016  0.4066  1.1056 -1.5492
 1014SOL    HW214679   3.252   3.143   0.012  1.3288 -0.6358 -0.5441
 1015SOL     OW14680   1.488   0.461   2.099  0.5393 -0.7370 -0.7192
 1015SOL    HW114681   1.475   0.534   2.159 -1.9669 -1.3643 -0.4993
 1015SOL    HW214682   1.566   0.491   2.054 -0.0687  0.5014 -0.9348
 1016SOL     OW14683   4.180   2.977  13.386 -0.7261 -0.0891  0.7639
 1016SOL    HW114684   4.187   3.062  13.430  0.1872 -0.3388  1.1054
 1016SOL    HW214685   4.089   2.973  13.358 -0.6768 -0.4373  0.6540
 1017SOL     OW14686   3.905   4.255   3.003  0.2600  0.3739 -0.8012
 1017SOL    HW114687   3.941   4.344   3.002 -0.1128  0.5497  1.5871
 1017SOL    HW214688   3.948   4.202   2.936  1.1583  0.2906 -0.1602
 1018SOL     OW14689   3.855   4.530   8.362 -0.4673 -0.3697  0.0893
 1018SOL    HW114690   3.886   4.456   8.310 -0.4637 -1.0031  0.9889
 1018SOL    HW214691   3.841   4.480   8.443 -2.8212 -1.0422 -0.7107
 1019SOL     OW14692   1.723   3.327   2.678 -0.0408  0.0035  1.0695
 1019SOL    HW114693   1.728   3.396   2.744 -1.6859 -2.4529  3.7048
 1019SOL    HW214694   1.812   3.291   2.682 -0.3761 -0.9760 -0.3671
 1020SOL     OW14695   4.527   3.463   2.486 -0.0431 -0.0243 -0.5217
 1020SOL    HW114696   4.493   3.468   2.575  1.8360 -0.0918  0.2219
 1020SOL    HW214697   4.606   3.410   2.502  0.3809  1.3437  1.8736
 1021SOL     OW14698   0.880   4.261   3.029 -0.1238  0.1248 -0.1487
 1021SOL    HW114699   0.935   4.332   3.062 -1.5913  0.5979  1.2671
 1021SOL    HW214700   0.830   4.236   3.107  0.2453 -0.1961 -0.0127
 1022SOL     OW14701   2.785   4.408   7.443 -0.0495 -0.2583  0.0338
 1022SOL    HW114702   2.711   4.405   7.504  1.1965  0.9950  1.6394
 1022SOL    HW214703   2.779   4.498   7.412  1.0519 -0.6007 -1.1818
 1023SOL     OW14704   1.008   1.370   1.028  0.1999  0.8325 -0.9110
 1023SOL    HW114705   1.081   1.432   1.024  1.1814 -0.3016 -0.4264
 1023SOL    HW214706   1.028   1.311   0.956  0.4883 -1.8748  1.3844
 1024SOL     OW14707   1.442   2.791  15.971  0.3987 -0.5370 -0.0759
 1024SOL    HW114708   1.438   2.698  15.991  0.5068  0.0140  2.4936
 1024SOL    HW214709   1.369   2.796  15.909  0.9920 -0.4588 -0.7775
 1025SOL     OW14710   1.732   4.238  17.231 -0.6495  0.2720 -0.2582
 1025SOL    HW114711   1.664   4.203  17.288 -0.6890  0.4599 -0.1902
 1025SOL    HW214712   1.731   4.173  17.161 -2.5485  0.1902 -0.1747
 1026SOL     OW14713   0.938   3.630   2.957 -0.2407 -0.2336  0.5023
 1026SOL    HW114714   0.931   3.606   2.864 -4.2703 -2.7994  1.4863
 1026SOL    HW214715   0.973   3.545   2.985  0.5972 -0.0583 -0.0101
 1027SOL     OW14716   3.122   1.667  10.978 -0.0907  0.0819  0.1696
 1027SOL    HW114717   3.167   1.700  11.056  1.3149  0.2633 -0.7089
 1027SOL    HW214718   3.029   1.658  10.997 -0.5190  0.6580 -1.6060
 1028SOL     OW14719   0.182   3.926  17.326  1.0149  0.4512 -0.0768
 1028SOL    HW114720   0.109   3.865  17.322  1.6917 -0.2677 -1.1081
 1028SOL    HW214721   0.132   4.006  17.307  0.4409  0.1980  0.3616
 1029SOL     OW14722   4.170   1.044   8.924 -0.0523 -0.3855  0.1326
 1029SOL    HW114723   4.238   1.006   8.980  0.2170  1.1914  0.8856
 1029SOL    HW214724   4.146   1.120   8.977  0.4274 -1.1648  1.4732
 1030SOL     OW14725   2.874   0.150   8.729  0.9882  0.2584 -0.1799
 1030SOL    HW114726   2.790   0.104   8.734  1.2901 -0.3819 -1.0182
 1030SOL    HW214727   2.894   0.151   8.822  1.3097  0.7570 -0.2557
 1031SOL     OW14728   1.013   3.067   1.777 -0.3237  0.7703  0.0231
 1031SOL    HW114729   1.045   3.092   1.690  0.1024  2.6992  0.7404
 1031SOL    HW214730   1.062   2.986   1.791 -0.4742  0.5232 -0.8759
 1032SOL     OW14731   4.563   2.573  14.851 -0.6902 -0.6826 -0.4704
 1032SOL    HW114732   4.547   2.668  14.845 -0.8736 -0.7791 -1.6313
 1032SOL    HW214733   4.637   2.560  14.792 -2.4418 -2.0192 -2.3528
 1033SOL     OW14734   3.008   3.879   2.122 -0.6519  0.2900  0.2982
 1033SOL    HW114735   3.040   3.935   2.192  1.4069 -0.8974  0.3090
 1033SOL    HW214736   3.036   3.926   2.043  1.4075 -0.7482  0.4199
 1034SOL     OW14737   1.427   3.113   0.030 -0.3308  0.5069  0.1993
 1034SOL    HW114738   1.369   3.070  17.705 -1.2199 -1.3803  2.2945
 1034SOL    HW214739   1.442   3.194  17.720 -1.5404 -1.2687 -3.1375
 1035SOL     OW14740   1.908   0.071  12.813  0.6120  0.0078  0.3541
 1035SOL    HW114741   1.977   0.019  12.854 -0.5724 -2.0084 -0.2381
 1035SOL    HW214742   1.912   0.159  12.852  0.5189 -0.1439  0.7090
 1036SOL     OW14743   0.549   0.173   8.087 -0.0336 -0.7333 -0.1109
 1036SOL    HW114744   0.476   0.118   8.058  0.1190 -0.7490 -0.4784
 1036SOL    HW214745   0.545   0.161   8.181 -0.9774 -0.7794 -0.1625
 1037SOL     OW14746   1.272   2.048   3.865  0.4730  0.0305  0.1570
 1037SOL    HW114747   1.341   2.112   3.885 -1.7545  2.0460  1.4569
 1037SOL    HW214748   1.264   2.005   3.950 -0.8200 -0.0649 -0.0119
 1038SOL     OW14749   0.257   2.698   6.023 -0.4207 -0.0107 -0.4699
 1038SOL    HW114750   0.194   2.769   6.011 -2.1668 -1.8077 -2.0029
 1038SOL    HW214751   0.339   2.747   6.014  0.6805 -0.8941  4.3536
 1039SOL     OW14752   0.724   3.904   8.526 -0.3875 -0.0462  0.3392
 1039SOL    HW114753   0.754   3.866   8.444 -1.1749  1.4480 -0.6611
 1039SOL    HW214754   0.803   3.941   8.565  0.7631 -1.3959 -0.7542
 1040SOL     OW14755   1.006   1.723   8.112  0.5761  0.0216  0.2749
 1040SOL    HW114756   1.068   1.653   8.135  1.3184  1.0864  1.5374
 1040SOL    HW214757   1.038   1.798   8.162  1.7477 -0.1559 -0.2138
 1041SOL     OW14758   1.871   1.993   8.308  0.3824 -0.2315 -0.0475
 1041SOL    HW114759   1.814   1.923   8.278  1.8123 -0.1721 -2.9091
 1041SOL    HW214760   1.956   1.949   8.317 -0.2501 -1.6387 -0.9754
 1042SOL     OW14761   2.928   4.290   8.284 -0.1330 -0.6809 -0.3249
 1042SOL    HW114762   2.860   4.269   8.348  1.5023  1.3713  2.0896
 1042SOL    HW214763   2.883   4.279   8.200  1.2312  2.6909 -1.4772
 1043SOL     OW14764   1.692   1.997  11.649  0.1771  0.6550 -0.0923
 1043SOL    HW114765   1.692   1.980  11.555 -1.2775 -2.2559  0.4406
 1043SOL    HW214766   1.684   1.910  11.689 -1.1347 -0.2499 -2.3779
 1044SOL     OW14767   2.567   2.142   2.368 -0.0061 -0.0589  0.0675
 1044SOL    HW114768   2.543   2.225   2.327 -0.6535  0.2411  1.0301
 1044SOL    HW214769   2.490   2.091   2.345 -1.0170  2.0764 -1.2686
 1045SOL     OW14770   1.123   1.680  13.008  0.2399  0.2803  0.3178
 1045SOL    HW114771   1.185   1.630  12.953 -1.9092 -0.9518 -0.9788
 1045SOL    HW214772   1.187   1.717  13.069  0.4453 -1.2078  1.0049
 1046SOL     OW14773   0.718   4.463  13.348  0.1586 -0.1124  0.7198
 1046SOL    HW114774   0.765   4.540  13.380 -0.3705  0.1032  0.9763
 1046SOL    HW214775   0.633   4.506  13.340  0.7082  0.8092 -0.2587
 1047SOL     OW14776   3.389   0.570   8.115  0.8424  0.0241  0.0486
 1047SOL    HW114777   3.432   0.649   8.146  0.5434 -0.0604  0.6791
 1047SOL    HW214778   3.312   0.602   8.067  2.0416  0.0648 -1.8562
 1048SOL     OW14779   2.368   3.947   6.570 -0.2104  0.4977 -0.6078
 1048SOL    HW114780   2.435   3.942   6.638 -1.4033 -1.3089  0.4349
 1048SOL    HW214781   2.318   4.028   6.577 -2.3293 -0.8146 -0.6660
 1049SOL     OW14782   0.303   3.898  11.364  0.1718  0.4418 -1.0802
 1049SOL    HW114783   0.245   3.836  11.320  1.7371 -2.2107  0.5804
 1049SOL    HW214784   0.376   3.889  11.302 -0.0333 -0.8518 -1.1363
 1050SOL     OW14785   3.917   3.320   6.940  0.7249 -0.7004  0.5087
 1050SOL    HW114786   3.942   3.242   6.988  0.9949 -1.5497 -1.0064
 1050SOL    HW214787   3.946   3.304   6.850 -1.0745 -2.5648  0.2569
 1051SOL     OW14788   2.831   4.658   1.425 -0.1797 -0.7742  0.0522
 1051SOL    HW114789   2.747   4.657   1.380 -0.8973  2.0338  1.3654
 1051SOL    HW214790   2.844   0.018   1.429  0.0300 -0.8320  0.6912
 1052SOL     OW14791   1.355   2.415   5.095 -0.1085  0.9584  0.4613
 1052SOL    HW114792   1.394   2.414   5.182  0.5154  1.8188  0.1873
 1052SOL    HW214793   1.366   2.321   5.085  0.7340  1.0764  0.3559
 1053SOL     OW14794   3.504   2.729   5.219 -0.5899  0.1286 -0.0275
 1053SOL    HW114795   3.467   2.673   5.151 -1.3563  2.0744 -1.1940
 1053SOL    HW214796   3.596   2.739   5.194 -0.1995  2.7161  2.4210
 1054SOL     OW14797   2.384   2.345   2.744 -0.4209 -0.5580  0.2448
 1054SOL    HW114798   2.340   2.304   2.820  0.9650 -1.2417  0.6829
 1054SOL    HW214799   2.413   2.268   2.695  3.3356  1.3756 -0.5630
 1055SOL     OW14800   1.128   0.190   2.008 -0.2002 -0.7721  0.5677
 1055SOL    HW114801   1.217   0.188   2.043 -1.6135 -3.3285  3.9642
 1055SOL    HW214802   1.072   0.240   2.068 -0.1435  0.1812 -0.1783
 1056SOL     OW14803   1.202   0.733  12.617 -0.8107  0.2946  0.7512
 1056SOL    HW114804   1.289   0.747  12.654  0.2624 -1.3640 -1.1358
 1056SOL    HW214805   1.213   0.669  12.547  0.1283  1.2728  0.0048
 1057SOL     OW14806   0.177   1.137   4.832 -0.4234  0.1647 -0.2617
 1057SOL    HW114807   0.210   1.172   4.915 -1.2430  1.6066 -0.5361
 1057SOL    HW214808   0.128   1.214   4.802 -0.1346  0.7346  0.7411
 1058SOL     OW14809   1.224   4.587   0.269 -0.1860  0.3318  0.1668
 1058SOL    HW114810   1.203   4.593   0.362 -0.3036  0.7831  0.1088
 1058SOL    HW214811   1.298   4.648   0.271 -0.1292  0.2844 -0.5218
 1059SOL     OW14812   0.911   1.139   9.089  0.3283  0.2124 -0.4597
 1059SOL    HW114813   0.897   1.140   9.184  0.8556  0.0960 -0.3760
 1059SOL    HW214814   1.001   1.171   9.079  0.6837 -1.1768 -1.7838
 1060SOL     OW14815   1.846   4.563  11.470  0.3451 -0.1703  0.6645
 1060SOL    HW114816   1.826   4.657  11.464  2.2679  0.3330  2.0931
 1060SOL    HW214817   1.814   4.543  11.558  2.2658 -1.4963  1.0439
 1061SOL     OW14818   4.533   0.618   1.868  0.2310  0.0367 -0.2665
 1061SOL    HW114819   4.590   0.573   1.806 -1.5287  0.3849 -2.1320
 1061SOL    HW214820   4.447   0.594   1.835 -1.0721  0.9275  2.4798
 1062SOL     OW14821   1.011   1.602   1.792 -0.1040 -0.0593 -0.4674
 1062SOL    HW114822   1.014   1.664   1.719  2.4537 -2.4558 -2.3957
 1062SOL    HW214823   0.984   1.670   1.854  0.4716 -0.4351  0.1968
 1063SOL     OW14824   3.018   2.294  11.932 -0.0802 -0.3683  0.2959
 1063SOL    HW114825   3.017   2.385  11.903 -1.2348 -0.7099 -0.7043
 1063SOL    HW214826   2.934   2.266  11.896  0.4029 -1.1255 -0.2437
 1064SOL     OW14827   3.637   0.184   7.595 -0.2258  0.1063  0.1603
 1064SOL    HW114828   3.609   0.230   7.674 -0.5776 -0.1439  0.1801
 1064SOL    HW214829   3.727   0.216   7.587  0.9338 -3.5478 -1.6793
 1065SOL     OW14830   0.946   3.609   4.735  0.2402  0.3283 -0.5148
 1065SOL    HW114831   0.937   3.670   4.661  3.4094  1.2083 -0.1862
 1065SOL    HW214832   0.897   3.659   4.800  0.1573 -0.0335 -0.2973
 1066SOL     OW14833   2.262   2.509   1.802  0.1958  0.4625  0.2047
 1066SOL    HW114834   2.302   2.580   1.751  0.0022 -0.4629 -1.2354
 1066SOL    HW214835   2.332   2.482   1.861 -0.1373 -0.7754  0.0339
 1067SOL     OW14836   3.891   1.697   5.544  0.6992 -0.6355 -0.2344
 1067SOL    HW114837   3.816   1.700   5.484 -0.4104  1.8643  1.2848
 1067SOL    HW214838   3.943   1.624   5.509 -0.5199 -1.0231 -1.2569
 1068SOL     OW14839   0.217   3.382   4.644 -0.1873  0.1176  0.1943
 1068SOL    HW114840   0.304   3.369   4.682  0.7929  2.8068 -1.0885
 1068SOL    HW214841   0.220   3.316   4.575 -2.4182  0.9003 -0.6461
 1069SOL     OW14842   4.509   1.803   1.332  0.7182  0.0426  0.4999
 1069SOL    HW114843   4.484   1.711   1.322 -0.8082  0.8086 -2.6658
 1069SOL    HW214844   4.502   1.803   1.427 -0.8570  1.3685  0.3934
 1070SOL     OW14845   3.888   2.106   9.487 -0.2618 -0.5661 -0.0092
 1070SOL    HW114846   3.860   2.026   9.442 -1.0448  1.6804 -3.5866
 1070SOL    HW214847   3.974   2.121   9.447 -0.8667 -0.0867 -1.1334
 1071SOL     OW14848   3.215   0.104   3.264 -0.1623  0.1608 -0.1689
 1071SOL    HW114849   3.183   0.015   3.278  2.3942 -0.2984  2.7287
 1071SOL    HW214850   3.152   0.148   3.320 -0.7656 -1.2748  0.2788
 1072SOL     OW14851   4.236   1.596   9.681  0.2223 -0.6338 -0.1388
 1072SOL    HW114852   4.255   1.661   9.614 -1.0960  1.9268  1.9506
 1072SOL    HW214853   4.250   1.514   9.633  0.6591  0.0467 -1.1514
 1073SOL     OW14854   4.413   1.055   7.348  0.0928 -0.2380 -0.2748
 1073SOL    HW114855   4.383   1.094   7.266  2.5699 -0.0393 -1.0830
 1073SOL    HW214856   4.456   0.978   7.311 -1.9419 -1.2398 -0.5353
 1074SOL     OW14857   2.337   2.836   9.150 -0.0180  0.2882 -0.3074
 1074SOL    HW114858   2.347   2.930   9.163  0.4346  0.5345 -2.4449
 1074SOL    HW214859   2.427   2.807   9.138 -0.8361 -2.0476 -0.8170
 1075SOL     OW14860   3.259   3.614   6.612  0.0135 -0.0671 -0.1416
 1075SOL    HW114861   3.320   3.683   6.639 -0.3954 -0.0690  0.7764
 1075SOL    HW214862   3.292   3.536   6.657  1.4555 -0.2756 -1.5595
 1076SOL     OW14863   3.098   2.683   7.208 -0.0847 -0.2686  0.1745
 1076SOL    HW114864   3.020   2.684   7.152 -0.4850 -0.3376  0.7245
 1076SOL    HW214865   3.170   2.654   7.153 -0.2655 -1.7618  0.7217
 1077SOL     OW14866   0.293   0.122  14.445 -0.3590 -0.4798  0.0562
 1077SOL    HW114867   0.388   0.127  14.449 -0.2746 -2.0984  0.1303
 1077SOL    HW214868   0.281   0.056  14.377 -0.5434  1.3771 -1.7084
 1078SOL     OW14869   0.203   1.308   8.154 -0.4267  0.3026  0.1802
 1078SOL    HW114870   0.131   1.297   8.216  0.1585 -0.0771  0.8011
 1078SOL    HW214871   0.236   1.398   8.160  1.7058 -0.4580  0.0365
 1079SOL     OW14872   3.056   1.947  14.202  0.0087 -0.1611 -0.3070
 1079SOL    HW114873   3.100   2.030  14.186 -0.1872  0.1214  0.5753
 1079SOL    HW214874   3.036   1.903  14.120  0.7141 -3.1623  1.1513
 1080SOL     OW14875   4.479   3.908   3.247 -0.1493  0.0769 -0.2259
 1080SOL    HW114876   4.571   3.879   3.252 -0.5182 -0.9072  0.9163
 1080SOL    HW214877   4.488   3.987   3.194  0.4485 -0.6753 -1.2486
 1081SOL     OW14878   1.781   2.524   7.155 -0.3063  0.2684 -0.3489
 1081SOL    HW114879   1.764   2.608   7.197 -4.0326 -1.2289  1.1815
 1081SOL    HW214880   1.872   2.509   7.180 -0.6130  0.3253  0.7721
 1082SOL     OW14881   4.511   4.654   4.727 -0.4728 -0.0947  0.0183
 1082SOL    HW114882   4.542   4.602   4.802  2.3543  1.3746 -0.1361
 1082SOL    HW214883   4.465   4.731   4.761 -0.4092  0.3406 -0.8897
 1083SOL     OW14884   1.372   2.718   7.656 -0.1330  0.0193  0.1816
 1083SOL    HW114885   1.431   2.643   7.649 -0.6804 -0.2831 -1.1545
 1083SOL    HW214886   1.346   2.720   7.564  3.5975 -2.1001 -0.9463
 1084SOL     OW14887   4.406   4.552  14.743  0.2394 -0.4641 -0.1411
 1084SOL    HW114888   4.468   4.549  14.816  1.8557 -1.7147 -1.5841
 1084SOL    HW214889   4.460   4.581  14.670  2.4393 -0.5014  1.4857
 1085SOL     OW14890   1.709   2.219  17.459 -0.1690 -0.0418  0.1702
 1085SOL    HW114891   1.712   2.289  17.524 -1.4814  1.6209 -1.5544
 1085SOL    HW214892   1.621   2.226  17.423 -0.2974 -2.4682  0.0616
 1086SOL     OW14893   2.478   2.257   3.891  0.4924 -0.5718 -0.4346
 1086SOL    HW114894   2.536   2.250   3.816  1.0560  0.8010 -0.1310
 1086SOL    HW214895   2.423   2.179   3.887 -2.2938  1.3884 -0.2868
 1087SOL     OW14896   3.117   2.941   7.107  0.1991 -0.3674  0.2606
 1087SOL    HW114897   3.165   2.921   7.027 -0.9903  1.9395 -0.9985
 1087SOL    HW214898   3.123   2.851   7.139 -2.3888 -1.0658 -1.2374
 1088SOL     OW14899   1.453   0.250   2.531  0.7075 -0.1375  0.3258
 1088SOL    HW114900   1.423   0.296   2.453 -1.0180 -0.6110  0.6981
 1088SOL    HW214901   1.371   0.224   2.573 -0.8622  4.1109 -0.1136
 1089SOL     OW14902   4.735   3.623   6.494  0.2092 -0.3879 -0.1569
 1089SOL    HW114903   4.661   3.565   6.514  1.0606 -1.3773  0.1169
 1089SOL    HW214904   0.037   3.642   6.580  1.0495  2.5699 -1.1915
 1090SOL     OW14905   2.834   0.399   3.085  0.6177 -0.2989 -0.1976
 1090SOL    HW114906   2.848   0.304   3.078  1.3575 -0.1528 -0.7627
 1090SOL    HW214907   2.922   0.437   3.091 -0.3693  2.0781 -0.9769
 1091SOL     OW14908   0.313   0.870  17.638 -0.3834  0.0050 -0.9898
 1091SOL    HW114909   0.300   0.775  17.644  2.5874 -0.3178  0.8116
 1091SOL    HW214910   0.346   0.876  17.549  2.3388  0.1907  0.0321
 1092SOL     OW14911   0.180   0.758   1.234  0.3429  0.0518 -0.5314
 1092SOL    HW114912   0.159   0.665   1.242  1.1410 -0.1379 -0.5751
 1092SOL    HW214913   0.095   0.800   1.232  0.9293  1.2471 -0.4979
 1093SOL     OW14914   3.618   3.350   3.855 -0.5063  0.2585 -0.0408
 1093SOL    HW114915   3.591   3.263   3.887 -0.1197  0.3927  0.6456
 1093SOL    HW214916   3.710   3.330   3.837 -0.2643  0.8879  0.5250
 1094SOL     OW14917   4.563   4.010  12.425  0.4090 -0.0322  0.2406
 1094SOL    HW114918   4.572   4.098  12.388  3.1741 -1.1528 -1.7391
 1094SOL    HW214919   4.487   4.022  12.481  1.2653  0.1366  1.3611
 1095SOL     OW14920   0.789   0.383   8.445 -0.2279 -0.1210  0.1673
 1095SOL    HW114921   0.732   0.319   8.487  0.5562 -0.3108  0.9448
 1095SOL    HW214922   0.748   0.466   8.467 -0.8628 -0.4938  0.3862
 1096SOL     OW14923   1.497   2.051   3.478 -0.1627 -0.2347 -0.0523
 1096SOL    HW114924   1.559   1.977   3.482 -2.2200 -2.0356 -1.3955
 1096SOL    HW214925   1.429   2.019   3.538 -0.2559  1.4854  0.7361
 1097SOL     OW14926   2.661   4.614   0.272  0.6074 -0.4318  0.0635
 1097SOL    HW114927   2.587   4.621   0.212  0.8392  0.2257 -0.1452
 1097SOL    HW214928   2.643   4.700   0.309 -2.6470 -0.9950 -0.1543
 1098SOL     OW14929   3.073   4.441   5.087 -0.6925  0.3022 -0.2357
 1098SOL    HW114930   3.144   4.377   5.095 -2.6422 -1.7318  0.9369
 1098SOL    HW214931   3.025   4.423   5.168  2.5445 -0.9165  1.3606
 1099SOL     OW14932   2.967   3.859   4.997  0.6935  0.0680 -0.2926
 1099SOL    HW114933   2.880   3.850   5.037 -0.2460  3.6065 -1.5945
 1099SOL    HW214934   2.946   3.804   4.922  2.6970  3.1444 -3.0865
 1100SOL     OW14935   0.567   1.821   2.251  0.5297 -0.6202  0.2000
 1100SOL    HW114936   0.567   1.911   2.283  0.3697 -0.8040  0.7238
 1100SOL    HW214937   0.551   1.770   2.331  1.2114  0.3011  0.9196
 1101SOL     OW14938   2.032   3.264   2.404  0.7880 -0.0464 -0.3218
 1101SOL    HW114939   1.983   3.326   2.350  0.8800 -1.1447 -1.6726
 1101SOL    HW214940   1.976   3.191   2.377  2.9119 -2.0067  0.5297
 1102SOL     OW14941   4.508   4.151   4.166 -0.1778  0.4033  0.6642
 1102SOL    HW114942   4.589   4.105   4.143  1.6401  3.0089  1.7711
 1102SOL    HW214943   4.524   4.159   4.260 -0.8580 -2.3484  0.9887
 1103SOL     OW14944   2.702   0.526  14.100  0.3987  0.0126 -0.0320
 1103SOL    HW114945   2.710   0.431  14.104 -0.1213 -0.1240 -2.0860
 1103SOL    HW214946   2.775   0.549  14.157 -0.7282  1.6366  0.7580
 1104SOL     OW14947   1.328   0.113  14.279  0.2185 -0.5880 -0.3020
 1104SOL    HW114948   1.316   0.201  14.314 -3.4775 -1.5168  0.7420
 1104SOL    HW214949   1.251   0.074  14.319 -0.5339 -1.6204 -2.7861
 1105SOL     OW14950   3.987   1.505  13.136  0.3952  0.3538  0.8922
 1105SOL    HW114951   3.936   1.585  13.124  1.9804  1.0085 -1.4544
 1105SOL    HW214952   4.049   1.531  13.204 -0.4683  0.5117  1.6345
 1106SOL     OW14953   2.561   2.124   2.958  0.0309  0.4095 -0.0902
 1106SOL    HW114954   2.615   2.189   3.003 -0.6677  0.8800  0.0718
 1106SOL    HW214955   2.471   2.156   2.969 -1.2288 -1.8842 -3.6330
 1107SOL     OW14956   4.475   0.029   8.089 -0.3077 -0.0799 -0.2032
 1107SOL    HW114957   4.550   4.709   8.110 -0.2332 -0.4482 -1.3977
 1107SOL    HW214958   4.476   0.026   7.993  0.8327  1.6998 -0.2477
 1108SOL     OW14959   0.877   3.010   1.229  0.2330  0.2456  0.1645
 1108SOL    HW114960   0.793   3.027   1.186  0.3759  2.7534  0.8953
 1108SOL    HW214961   0.910   2.950   1.162 -1.4088 -2.1120  1.4332
 1109SOL     OW14962   3.573   1.857   7.227 -0.1708  0.5023  0.0426
 1109SOL    HW114963   3.658   1.813   7.224  0.2956  1.4287 -0.4536
 1109SOL    HW214964   3.514   1.788   7.199 -1.0219  1.0553  0.4944
 1110SOL     OW14965   4.413   0.605  11.060  0.0226  0.2251 -0.8343
 1110SOL    HW114966   4.487   0.664  11.047  0.6611 -0.2801  0.5636
 1110SOL    HW214967   4.343   0.647  11.009 -1.8162 -0.7465  0.8944
 1111SOL     OW14968   0.703   3.958   1.531 -0.0534 -0.1706  0.4598
 1111SOL    HW114969   0.615   3.991   1.547 -0.3930 -0.5563 -0.6534
 1111SOL    HW214970   0.685   3.864   1.536 -1.2366  0.0341 -0.0286
 1112SOL     OW14971   3.755   1.194  12.725 -0.1331 -0.9603  0.2902
 1112SOL    HW114972   3.750   1.180  12.820  1.9611 -0.4437  0.4666
 1112SOL    HW214973   3.849   1.187  12.712  0.0198 -0.5694  1.1629
 1113SOL     OW14974   4.134   0.154   3.128  0.8217 -0.2928  0.3122
 1113SOL    HW114975   4.117   0.152   3.034 -2.9623  1.5298  0.9704
 1113SOL    HW214976   4.084   0.078   3.159 -0.6220 -0.3256 -2.1185
 1114SOL     OW14977   3.238   2.962  15.166 -0.0302 -0.2199 -0.0740
 1114SOL    HW114978   3.162   2.907  15.147  2.2696 -3.7957  1.0909
 1114SOL    HW214979   3.318   2.912  15.148 -0.6235 -1.5331  0.9571
 1115SOL     OW14980   1.955   4.203  17.413  0.0976  0.4650 -0.2090
 1115SOL    HW114981   1.897   4.196  17.338  0.5150 -0.6239 -0.4347
 1115SOL    HW214982   1.926   4.280  17.461  0.3088 -0.8889  2.1167
 1116SOL     OW14983   3.688   3.957   9.269  0.1806 -0.2583 -0.6476
 1116SOL    HW114984   3.709   4.049   9.250 -2.0221  1.0228  3.0202
 1116SOL    HW214985   3.764   3.916   9.229 -0.6731 -0.5695 -1.9364
 1117SOL     OW14986   1.828   4.010   8.895 -0.0135 -0.0200  0.0635
 1117SOL    HW114987   1.908   3.965   8.919 -0.9742 -1.4387  0.6114
 1117SOL    HW214988   1.871   4.094   8.877  1.6497 -0.4836  1.8589
 1118SOL     OW14989   3.231   0.160  17.098 -0.0832  0.0765 -0.4844
 1118SOL    HW114990   3.264   0.193  17.015  1.7226 -1.3012 -0.3213
 1118SOL    HW214991   3.278   0.231  17.144 -0.1294  0.5327 -1.1466
 1119SOL     OW14992   3.114   1.243   7.886  0.0325 -0.1342  0.4190
 1119SOL    HW114993   3.204   1.213   7.886  0.0207 -0.1648 -0.3518
 1119SOL    HW214994   3.080   1.203   7.967  0.2224  0.5931  0.8596
 1120SOL     OW14995   1.932   2.881   0.238  0.2041 -0.6122 -0.4025
 1120SOL    HW114996   2.006   2.923   0.282 -0.1710 -0.2316 -0.1331
 1120SOL    HW214997   1.947   2.894   0.144  0.5397  0.0151 -0.2588
 1121SOL     OW14998   4.121   4.675   3.486  0.1633 -0.6514 -0.0703
 1121SOL    HW114999   4.050   4.662   3.548  1.1976  3.7650  1.9908
 1121SOL    HW215000   4.201   4.693   3.536  0.9747 -0.6137 -1.3737
 1122SOL     OW15001   3.880   3.172   9.667  0.3918  0.0964  0.1403
 1122SOL    HW115002   3.931   3.166   9.747  0.7449  0.8492 -0.0288
 1122SOL    HW215003   3.816   3.241   9.687  0.0960 -0.0599 -0.2525
 1123SOL     OW15004   3.054   2.007  12.752  0.2538 -0.2937 -0.7870
 1123SOL    HW115005   2.984   2.018  12.688 -0.0632  1.8362 -0.0694
 1123SOL    HW215006   3.056   2.099  12.778  0.8168 -0.5943  0.2476
 1124SOL     OW15007   4.542   0.537  11.332  0.4328  0.1160  0.1557
 1124SOL    HW115008   4.537   0.475  11.259 -0.6649 -1.9323  1.9830
 1124SOL    HW215009   4.588   0.609  11.288  1.1258 -0.4639 -0.0604
 1125SOL     OW15010   1.425   3.154   7.258 -0.0767  0.1053  0.4010
 1125SOL    HW115011   1.383   3.085   7.207 -0.4309  1.2469 -0.8233
 1125SOL    HW215012   1.467   3.210   7.193 -0.6751  0.5687  0.4179
 1126SOL     OW15013   3.031   2.153   5.109  0.0673  0.0195  0.1686
 1126SOL    HW115014   3.116   2.175   5.072 -0.3885 -1.0577 -1.5671
 1126SOL    HW215015   3.028   2.178   5.201 -0.6572  0.3927  0.0475
 1127SOL     OW15016   2.921   2.512   6.623 -0.1471  0.2599  0.7239
 1127SOL    HW115017   2.943   2.604   6.611 -0.9339  0.0234 -2.5631
 1127SOL    HW215018   2.829   2.512   6.597 -0.6287  0.2126  2.3900
 1128SOL     OW15019   0.296   4.072   5.673 -0.0398  0.3690 -0.0184
 1128SOL    HW115020   0.214   4.031   5.646  0.1689  0.4012 -0.6843
 1128SOL    HW215021   0.314   4.040   5.762  0.6372  0.4957 -0.1108
 1129SOL     OW15022   2.172   4.076  10.286  0.6836 -0.5148 -0.5613
 1129SOL    HW115023   2.154   4.070  10.379  3.6605 -4.5352 -0.2120
 1129SOL    HW215024   2.267   4.074  10.295  0.4315  1.9458  2.5840
 1130SOL     OW15025   4.210   0.497   8.333 -0.2813  0.2301  0.2945
 1130SOL    HW115026   4.154   0.494   8.255 -0.1200  0.1456  0.1818
 1130SOL    HW215027   4.226   0.403   8.342  0.2841  0.6060  3.0415
 1131SOL     OW15028   3.707   2.558   4.007 -0.2491  0.3142  0.0231
 1131SOL    HW115029   3.670   2.480   3.966 -1.7948  0.8240  0.4440
 1131SOL    HW215030   3.792   2.519   4.025 -1.1217 -0.5399  2.3739
 1132SOL     OW15031   2.903   2.721  14.985  0.3954  0.2474  0.1519
 1132SOL    HW115032   2.822   2.708  14.936  0.1811  0.5547  0.4295
 1132SOL    HW215033   2.967   2.698  14.917 -0.8000 -0.9643 -0.5478
 1133SOL     OW15034   3.487   0.818   9.428 -0.6078 -0.1750 -0.4258
 1133SOL    HW115035   3.582   0.810   9.431 -0.5820  0.6444  0.9933
 1133SOL    HW215036   3.467   0.777   9.512 -0.7037 -0.5250 -0.6213
 1134SOL     OW15037   2.982   1.377   3.271 -0.0783  0.0437 -0.3725
 1134SOL    HW115038   3.002   1.418   3.355 -2.0102  0.8813 -0.3091
 1134SOL    HW215039   2.973   1.286   3.299  0.1266  0.5052  1.2337
 1135SOL     OW15040   2.856   4.616  10.082 -0.2304 -0.0155 -0.2292
 1135SOL    HW115041   2.764   4.642  10.075 -0.3954 -0.8598 -1.1843
 1135SOL    HW215042   2.880   4.600   9.991  1.2271  0.4151  0.0768
 1136SOL     OW15043   0.726   0.133  11.737  0.7219 -0.4726  0.0327
 1136SOL    HW115044   0.815   0.141  11.703  1.6401 -0.2972  2.4887
 1136SOL    HW215045   0.746   0.067  11.803  2.3105 -1.5294 -1.5023
 1137SOL     OW15046   3.739   3.676   6.927  0.1280  0.2356 -0.0077
 1137SOL    HW115047   3.806   3.653   6.862  0.6809 -1.9027  1.3395
 1137SOL    HW215048   3.668   3.702   6.868  0.7932  0.5389 -0.6789
 1138SOL     OW15049   1.674   1.404   8.735  0.2837  0.2474  0.5116
 1138SOL    HW115050   1.693   1.339   8.803 -1.5205 -1.0220 -0.2013
 1138SOL    HW215051   1.661   1.487   8.782  0.7050  1.3883 -1.4113
 1139SOL     OW15052   1.379   2.558   6.252  0.3089  0.7167  0.0651
 1139SOL    HW115053   1.409   2.482   6.301  1.7630  1.7161  0.7268
 1139SOL    HW215054   1.341   2.607   6.325 -0.2026 -0.8375  0.8396
 1140SOL     OW15055   0.812   4.718  11.987  0.1225  0.2033 -0.5204
 1140SOL    HW115056   0.817   4.679  11.900  1.4605  0.6105 -0.6277
 1140SOL    HW215057   0.745   4.663  12.029  1.8375 -0.4442  1.3780
 1141SOL     OW15058   2.001   0.292   8.649  0.4566 -0.5901 -0.6373
 1141SOL    HW115059   2.065   0.255   8.710 -0.2250 -1.0787 -0.2169
 1141SOL    HW215060   2.055   0.299   8.570 -0.5216  1.3484 -1.1332
 1142SOL     OW15061   2.939   1.103   2.467  0.1557  0.0205 -0.0680
 1142SOL    HW115062   2.923   1.068   2.555  0.5977  1.6763  0.6606
 1142SOL    HW215063   2.966   1.023   2.422 -1.3804 -1.4764  1.6955
 1143SOL     OW15064   4.711   3.031  16.381 -0.4313 -0.7427  0.2242
 1143SOL    HW115065   4.655   2.988  16.445  0.7358 -3.0847 -0.3277
 1143SOL    HW215066   4.645   3.064  16.320  0.6844 -0.4079 -0.7936
 1144SOL     OW15067   4.655   0.761   0.987  0.2679 -0.3728 -0.0998
 1144SOL    HW115068   4.629   0.813   1.063  0.0771 -2.2591  1.1496
 1144SOL    HW215069   4.732   0.808   0.955 -0.0621 -0.6934 -1.3378
 1145SOL     OW15070   0.260   2.303   1.662 -0.2230 -0.7653  0.2151
 1145SOL    HW115071   0.312   2.308   1.581 -1.4421  2.0756 -0.4229
 1145SOL    HW215072   0.185   2.270   1.613 -0.2436 -2.0689  1.1450
 1146SOL     OW15073   0.399   3.650   1.164  0.3070 -0.3631 -0.9663
 1146SOL    HW115074   0.485   3.690   1.176  0.5228 -1.5661  1.4787
 1146SOL    HW215075   0.430   3.561   1.148 -1.3614 -0.7646 -1.9091
 1147SOL     OW15076   2.620   2.886   1.786  0.2882  0.3877 -0.0294
 1147SOL    HW115077   2.547   2.894   1.725  0.9408  1.9036 -0.6300
 1147SOL    HW215078   2.687   2.832   1.744 -1.2580 -0.3299 -1.5626
 1148SOL     OW15079   1.352   0.447   5.343  0.0506  0.3439 -0.6052
 1148SOL    HW115080   1.402   0.478   5.419 -0.1602 -0.6798 -0.0565
 1148SOL    HW215081   1.373   0.516   5.280 -1.5682  1.1985 -0.2135
 1149SOL     OW15082   0.605   2.758   6.688 -0.2105  0.5979 -0.0127
 1149SOL    HW115083   0.548   2.682   6.700  1.8707 -0.9841 -0.1570
 1149SOL    HW215084   0.550   2.827   6.725 -2.8168 -2.2579  1.5555
 1150SOL     OW15085   3.621   4.447  10.349 -0.2259 -0.3899  0.0313
 1150SOL    HW115086   3.551   4.402  10.302 -1.5026 -1.7051  3.2567
 1150SOL    HW215087   3.693   4.385  10.340 -0.8334 -0.5089 -4.2219
 1151SOL     OW15088   0.595   3.468   4.225 -0.3472 -0.2438 -0.2638
 1151SOL    HW115089   0.578   3.473   4.319 -0.9347 -0.9983 -0.3293
 1151SOL    HW215090   0.690   3.480   4.220 -0.5570  1.1892 -0.8273
 1152SOL     OW15091   2.608   1.044   8.567  0.0711  0.2492  0.2300
 1152SOL    HW115092   2.653   1.080   8.644  0.2423 -0.8199  0.6255
 1152SOL    HW215093   2.674   1.068   8.502 -0.0589 -0.5110 -0.1826
 1153SOL     OW15094   1.576   3.729   7.846  0.6448  0.2053  0.2672
 1153SOL    HW115095   1.615   3.649   7.880 -0.9359 -1.1467 -1.1325
 1153SOL    HW215096   1.658   3.757   7.804  0.5358  0.2103  0.0595
 1154SOL     OW15097   0.091   3.024   1.963 -0.4165 -0.2524  0.6433
 1154SOL    HW115098   0.177   3.015   2.004 -0.3120  0.6348  0.6236
 1154SOL    HW215099   0.046   3.079   2.027 -0.7755  2.2578 -1.7594
 1155SOL     OW15100   0.105   0.328  12.371 -0.2148  0.5381  0.1637
 1155SOL    HW115101   0.138   0.258  12.316  0.5864 -0.3051  1.7426
 1155SOL    HW215102   0.161   0.322  12.448  0.7906 -2.5352 -0.8103
 1156SOL     OW15103   3.879   2.644   0.079 -0.0587  0.4680  0.0026
 1156SOL    HW115104   3.792   2.627   0.043  0.2577 -1.2529  0.0476
 1156SOL    HW215105   3.843   2.675   0.163 -0.9592  0.7263 -0.4751
 1157SOL     OW15106   0.113   4.620   1.927 -1.0080  0.0850  0.0673
 1157SOL    HW115107   0.091   4.527   1.917 -1.0935  0.0618  0.4965
 1157SOL    HW215108   0.187   4.624   1.866 -2.1816  0.3028 -1.3443
 1158SOL     OW15109   4.482   1.007   2.215 -0.2933 -0.1290 -0.0052
 1158SOL    HW115110   4.470   1.089   2.167 -0.7854 -0.5518 -0.6041
 1158SOL    HW215111   4.566   0.981   2.178 -0.6796 -0.3344 -0.7374
 1159SOL     OW15112   1.353   1.602  14.513 -0.3427  0.7615 -0.5026
 1159SOL    HW115113   1.380   1.625  14.602 -1.2730 -2.8216  0.6981
 1159SOL    HW215114   1.261   1.624  14.522 -0.6241 -1.0312  1.0667
 1160SOL     OW15115   0.990   0.812  13.900  0.6954 -0.1852 -0.2326
 1160SOL    HW115116   0.956   0.724  13.882 -0.3820  0.0995  0.3681
 1160SOL    HW215117   1.027   0.787  13.985  1.3481 -2.7250 -1.2917
 1161SOL     OW15118   0.146   2.194  15.822 -0.1103 -0.8030  0.2345
 1161SOL    HW115119   0.130   2.278  15.867  3.4290 -0.6958  1.2525
 1161SOL    HW215120   0.056   2.164  15.813 -0.4704  0.7809 -1.5742
 1162SOL     OW15121   3.192   1.562   8.037  0.0102 -0.3104  0.6387
 1162SOL    HW115122   3.217   1.470   8.043  3.1146  0.3928 -1.9813
 1162SOL    HW215123   3.240   1.588   7.958 -0.5703  0.2911  0.4790
 1163SOL     OW15124   3.581   1.142   9.423 -0.0472 -0.0079 -0.3666
 1163SOL    HW115125   3.491   1.111   9.436 -0.2415  0.4108 -0.7023
 1163SOL    HW215126   3.624   1.063   9.455  0.1314 -0.0016 -0.5905
 1164SOL     OW15127   3.437   2.961   6.982  0.2663 -0.3781 -0.1852
 1164SOL    HW115128   3.402   2.958   7.071  0.2758 -1.0166 -0.2043
 1164SOL    HW215129   3.361   3.000   6.939 -0.8123 -1.7176  0.5104
 1165SOL     OW15130   0.698   1.052   5.445  0.0930  0.4964 -0.3963
 1165SOL    HW115131   0.715   1.143   5.422  0.2791  0.5326 -0.1124
 1165SOL    HW215132   0.788   1.035   5.471  0.5043  2.3256 -0.6455
 1166SOL     OW15133   4.293   4.355   4.567 -0.7029  0.4311 -0.0087
 1166SOL    HW115134   4.243   4.411   4.508 -0.2721  0.9365  0.1013
 1166SOL    HW215135   4.383   4.382   4.548 -0.5053  0.8180  1.4782
 1167SOL     OW15136   2.963   4.613  12.019  0.1364  0.5354  0.7242
 1167SOL    HW115137   2.904   4.624  11.944 -0.3304  0.8491  1.1322
 1167SOL    HW215138   3.027   4.678  11.989  1.2825 -1.3414 -0.9102
 1168SOL     OW15139   2.021   1.263   8.331  0.4724  0.9320 -0.0813
 1168SOL    HW115140   1.998   1.178   8.295  2.9040  0.0781  0.4215
 1168SOL    HW215141   1.953   1.267   8.398 -1.8553  2.2659 -2.5145
 1169SOL     OW15142   2.211   4.481  16.866  0.8928 -0.0612  0.1005
 1169SOL    HW115143   2.214   4.575  16.848 -1.8304 -0.2184 -1.3016
 1169SOL    HW215144   2.122   4.466  16.832  0.5802 -2.1208  1.7805
 1170SOL     OW15145   2.982   3.010   3.662 -0.1503 -0.4639 -0.0808
 1170SOL    HW115146   2.990   3.084   3.603  1.0466  1.7475  2.9069
 1170SOL    HW215147   3.075   3.001   3.684 -0.1045 -1.6242 -0.7615
 1171SOL     OW15148   1.981   2.916   5.255  0.0886  0.4734  0.2446
 1171SOL    HW115149   2.071   2.941   5.274  0.6175 -2.1628  1.2606
 1171SOL    HW215150   1.978   2.951   5.166  2.5308  0.7657  0.2794
 1172SOL     OW15151   4.575   2.232   3.323 -0.1181 -0.3817  0.2590
 1172SOL    HW115152   4.585   2.326   3.316 -1.6328 -0.3492 -1.5362
 1172SOL    HW215153   4.550   2.206   3.234  0.2321  0.3302 -0.0410
 1173SOL     OW15154   3.601   3.198   5.508  0.4681  0.1839  0.3993
 1173SOL    HW115155   3.561   3.187   5.421 -0.6832  2.8546  0.5710
 1173SOL    HW215156   3.517   3.213   5.553  0.1188  1.8220 -0.7705
 1174SOL     OW15157   2.834   3.603   2.687 -0.0598  0.5684  0.4680
 1174SOL    HW115158   2.739   3.601   2.699 -0.0847  2.0483  0.5816
 1174SOL    HW215159   2.839   3.699   2.688  2.2194  0.4582  0.1793
 1175SOL     OW15160   0.282   1.742  10.098 -0.1430 -0.0369 -0.2088
 1175SOL    HW115161   0.299   1.774  10.187  1.3769  2.0330 -1.2490
 1175SOL    HW215162   0.355   1.784  10.055 -0.9281  2.3832  0.8321
 1176SOL     OW15163   1.640   3.451   3.147  0.6040  0.2624 -0.5800
 1176SOL    HW115164   1.602   3.479   3.063  0.0069 -0.1034 -0.4328
 1176SOL    HW215165   1.710   3.392   3.119  0.9505  0.5001 -0.2157
 1177SOL     OW15166   0.083   3.340   4.920  0.1474  0.0166  0.2881
 1177SOL    HW115167   0.129   3.340   4.836 -1.7430  0.1646 -0.7376
 1177SOL    HW215168   0.021   3.408   4.894  0.5724 -0.0089 -0.7992
 1178SOL     OW15169   1.327   3.982   6.389 -0.1585  0.7064  0.1152
 1178SOL    HW115170   1.239   3.960   6.358  0.3183  1.1742 -1.6005
 1178SOL    HW215171   1.314   4.076   6.384 -0.5812  0.7358  1.8590
 1179SOL     OW15172   2.067   0.323  11.921  0.1272  0.4326 -0.3513
 1179SOL    HW115173   2.056   0.256  11.854 -2.6332  1.2616 -0.7288
 1179SOL    HW215174   2.163   0.327  11.926  0.1641 -0.7964  0.0298
 1180SOL     OW15175   0.082   1.613   4.936 -0.4802  0.9139 -0.1583
 1180SOL    HW115176   0.175   1.629   4.923 -0.6477  0.2540 -2.3432
 1180SOL    HW215177   0.084   1.617   5.031 -1.3805  0.2966 -0.1111
 1181SOL     OW15178   1.657   2.277   2.682  0.1822 -0.0799 -0.2664
 1181SOL    HW115179   1.649   2.259   2.588  1.3154 -0.5223 -0.2725
 1181SOL    HW215180   1.577   2.228   2.701  0.2213  0.7200  1.9327
 1182SOL     OW15181   2.609   2.493   2.598  0.0696 -0.4146 -0.8795
 1182SOL    HW115182   2.531   2.465   2.647 -0.0230 -0.9841 -1.3505
 1182SOL    HW215183   2.640   2.410   2.563  0.5989  0.2741 -2.0138
 1183SOL     OW15184   4.698   4.355  16.587 -0.3005 -0.8455  0.1161
 1183SOL    HW115185   4.729   4.442  16.564  0.8375 -1.9252 -2.3775
 1183SOL    HW215186   0.047   4.311  16.576 -0.3528 -0.4250 -1.8424
 1184SOL     OW15187   2.808   0.426  14.357  0.3194 -0.6232  0.2681
 1184SOL    HW115188   2.810   0.413  14.452 -3.5825 -2.9400  0.0598
 1184SOL    HW215189   2.827   0.341  14.318 -1.0540 -1.6779  1.8678
 1185SOL     OW15190   4.227   2.180   6.784 -0.4487 -0.4186 -0.3755
 1185SOL    HW115191   4.302   2.198   6.727 -0.8624 -1.1577 -1.1341
 1185SOL    HW215192   4.269   2.152   6.866 -0.2825  2.1561  0.4279
 1186SOL     OW15193   3.480   0.152   2.783  0.5161 -0.1506 -0.0605
 1186SOL    HW115194   3.573   0.133   2.769  1.0201  2.3077 -0.0305
 1186SOL    HW215195   3.472   0.146   2.878  2.5035  0.8238  0.1840
 1187SOL     OW15196   1.953   4.287   5.852  0.0922 -0.1251 -0.0312
 1187SOL    HW115197   2.030   4.336   5.825  0.8471 -2.5337 -2.3178
 1187SOL    HW215198   1.906   4.265   5.771 -0.5367 -0.5266  0.4408
 1188SOL     OW15199   1.005   2.913  15.489  0.3141  0.2730 -0.1505
 1188SOL    HW115200   1.099   2.927  15.501  0.3673 -0.0502 -0.1808
 1188SOL    HW215201   0.959   2.946  15.566 -2.1672 -0.0887 -1.4568
 1189SOL     OW15202   0.051   0.095   7.051 -0.2418 -0.8186  0.1204
 1189SOL    HW115203   4.725   0.105   6.977  0.3950  0.5355 -0.2071
 1189SOL    HW215204   0.140   0.119   7.027 -1.2053  3.4808  0.8689
 1190SOL     OW15205   0.490   0.876  17.020  0.3843  0.4073  0.0854
 1190SOL    HW115206   0.411   0.900  17.070 -0.4810  0.5441 -1.3306
 1190SOL    HW215207   0.548   0.947  17.047  0.2838  0.6721 -0.3968
 1191SOL     OW15208   4.666   1.991   8.032 -0.2486 -0.0350  0.5121
 1191SOL    HW115209   4.632   1.979   7.943 -0.0025  1.9324  0.1379
 1191SOL    HW215210   4.720   2.070   8.029 -3.6137  2.1895 -2.2182
 1192SOL     OW15211   4.683   2.028   9.959  0.6570 -0.2467 -0.7172
 1192SOL    HW115212   0.021   2.042  10.020  1.0964 -3.5111 -0.5079
 1192SOL    HW215213   4.685   2.106   9.903 -0.2441  0.9133  0.8441
 1193SOL     OW15214   2.155   2.615   9.195 -0.3199 -0.2625  0.0108
 1193SOL    HW115215   2.215   2.688   9.180 -0.8865 -0.0827 -1.4140
 1193SOL    HW215216   2.094   2.669   9.246 -0.0416  1.1465 -1.1502
 1194SOL     OW15217   2.251   3.687   6.545  0.0685 -0.4271 -0.8435
 1194SOL    HW115218   2.336   3.647   6.522 -0.3599 -1.2290 -1.0309
 1194SOL    HW215219   2.276   3.778   6.560  0.2556 -0.8152  1.1846
 1195SOL     OW15220   2.613   2.699   9.139  0.2326  0.4810 -0.1568
 1195SOL    HW115221   2.625   2.607   9.164 -1.9758  0.1025 -0.4894
 1195SOL    HW215222   2.623   2.704   9.044  0.9320  1.5509 -0.0236
 1196SOL     OW15223   0.483   3.820  13.046 -0.0667  0.1164  0.0594
 1196SOL    HW115224   0.409   3.880  13.033  1.3585  1.6996 -0.6698
 1196SOL    HW215225   0.547   3.866  12.992  0.6193 -2.2436 -1.1053
 1197SOL     OW15226   1.158   3.683   0.990  0.4589  0.0411  0.1515
 1197SOL    HW115227   1.222   3.741   0.949 -0.0661  0.4515 -0.0810
 1197SOL    HW215228   1.206   3.600   0.983  0.8727  0.2106  0.9009
 1198SOL     OW15229   2.179   2.696   2.064  0.0211  0.5672  0.2564
 1198SOL    HW115230   2.236   2.655   2.130  2.0640  1.2170 -1.1128
 1198SOL    HW215231   2.096   2.685   2.111  0.7898 -2.6106  0.9292
 1199SOL     OW15232   3.452   4.313   7.378  0.7677  0.1921 -0.0089
 1199SOL    HW115233   3.472   4.357   7.296  0.6631 -0.9074 -0.6263
 1199SOL    HW215234   3.432   4.380   7.443  0.4673  0.3203 -0.2372
 1200SOL     OW15235   1.286   2.278   1.348  0.2791  0.1983  0.1425
 1200SOL    HW115236   1.307   2.198   1.395 -1.9392 -0.8918 -0.7224
 1200SOL    HW215237   1.336   2.341   1.399  2.5656 -1.0376 -0.6121
 1201SOL     OW15238   1.334   1.221   1.879 -0.0537 -0.2204  0.2564
 1201SOL    HW115239   1.254   1.271   1.890 -0.3696 -0.6152 -0.2503
 1201SOL    HW215240   1.377   1.249   1.960 -1.5427  0.1909  0.8956
 1202SOL     OW15241   0.738   2.314  11.258  0.0866  0.1240 -0.2080
 1202SOL    HW115242   0.687   2.387  11.293  2.0136  0.3141  2.2306
 1202SOL    HW215243   0.736   2.251  11.331  0.5048 -1.5724 -1.6432
 1203SOL     OW15244   2.334   4.594   7.144  0.1944  0.2221  0.1125
 1203SOL    HW115245   2.428   4.586   7.131 -0.6428 -2.9742 -3.9134
 1203SOL    HW215246   2.301   4.567   7.058  1.6671 -2.9278  0.5666
 1204SOL     OW15247   1.978   3.979   1.149  0.1241  0.1737 -0.0169
 1204SOL    HW115248   1.951   3.890   1.128 -1.3901  1.0983 -2.0250
 1204SOL    HW215249   1.902   4.024   1.112  0.3351  0.1869 -0.4321
 1205SOL     OW15250   0.792   3.393  12.268  0.4606 -0.2509 -0.1942
 1205SOL    HW115251   0.807   3.474  12.218  1.1400 -1.6721 -2.2613
 1205SOL    HW215252   0.833   3.340  12.200 -1.2359 -1.8636  0.0592
 1206SOL     OW15253   1.207   3.673   5.277  0.5849 -0.6577  0.1541
 1206SOL    HW115254   1.210   3.587   5.233 -0.0572  1.0862 -3.3421
 1206SOL    HW215255   1.154   3.662   5.355  0.3029 -1.7781 -0.1890
 1207SOL     OW15256   1.934   3.009  15.963 -0.2187 -0.4655  0.0096
 1207SOL    HW115257   1.973   2.946  16.023  2.3845  0.2970 -0.8922
 1207SOL    HW215258   1.870   2.960  15.912 -0.1812  0.8535 -1.3203
 1208SOL     OW15259   1.609   1.132   8.435 -0.6020  0.0657 -0.1361
 1208SOL    HW115260   1.617   1.154   8.342 -2.0196 -1.0163 -0.5122
 1208SOL    HW215261   1.607   1.037   8.430  1.4700  0.0090  0.1797
 1209SOL     OW15262   2.702   0.611   5.158 -0.1908  0.1712 -0.1865
 1209SOL    HW115263   2.761   0.592   5.086  0.6082 -1.9823  1.0215
 1209SOL    HW215264   2.769   0.640   5.220  0.9265  1.3745 -1.9713
 1210SOL     OW15265   1.881   3.301   3.039 -0.0560  0.5793  0.2425
 1210SOL    HW115266   1.903   3.395   3.039  1.2086  0.2907 -1.2346
 1210SOL    HW215267   1.954   3.270   3.093  1.2336 -1.5038 -2.6706
 1211SOL     OW15268   1.041   4.175   8.414  0.0044  0.1660  0.3402
 1211SOL    HW115269   0.946   4.186   8.406  0.0941 -0.3851 -1.3680
 1211SOL    HW215270   1.070   4.175   8.323 -1.0856 -0.8176 -0.0031
 1212SOL     OW15271   3.195   4.708   6.291 -0.3831  0.3975  0.4072
 1212SOL    HW115272   3.111   4.727   6.250 -1.2280 -1.8696  1.0550
 1212SOL    HW215273   3.167   4.674   6.376  0.8771  0.7181  0.9564
 1213SOL     OW15274   4.135   2.584   1.844  0.2682  0.4880 -0.4338
 1213SOL    HW115275   4.121   2.521   1.774 -1.3905  3.2090 -2.5860
 1213SOL    HW215276   4.143   2.517   1.912  0.8844  0.7133 -0.2838
 1214SOL     OW15277   2.662   0.453   5.983 -0.0669 -0.3317 -0.1299
 1214SOL    HW115278   2.566   0.453   5.985 -0.0807 -0.3396 -0.6711
 1214SOL    HW215279   2.668   0.540   6.021 -1.5890 -0.4904  0.5065
 1215SOL     OW15280   1.949   0.386  16.367 -0.4289 -0.0417 -0.2988
 1215SOL    HW115281   1.971   0.308  16.416 -1.6263 -0.8641 -1.0637
 1215SOL    HW215282   1.884   0.363  16.300 -1.6281 -2.6741  1.7994
 1216SOL     OW15283   0.670   0.631   7.660  0.8141  0.8239  0.1115
 1216SOL    HW115284   0.692   0.708   7.713  1.7410 -0.1807  1.1717
 1216SOL    HW215285   0.640   0.671   7.578 -1.3082 -2.3529 -0.6580
 1217SOL     OW15286   3.808   2.806   4.699 -0.2768  0.9060 -0.0827
 1217SOL    HW115287   3.893   2.850   4.696  0.3609 -0.4607 -2.2865
 1217SOL    HW215288   3.757   2.860   4.639  1.2794  0.7439 -1.5583
 1218SOL     OW15289   3.760   2.478   9.330 -0.0701 -0.2635  0.5923
 1218SOL    HW115290   3.807   2.552   9.291 -1.0718  1.8568  3.3248
 1218SOL    HW215291   3.783   2.406   9.273 -0.5134  0.4743 -0.5220
 1219SOL     OW15292   2.630   3.373   3.741 -0.2730  0.2600  0.7420
 1219SOL    HW115293   2.592   3.430   3.807 -0.1878  0.7269  0.3900
 1219SOL    HW215294   2.660   3.298   3.792 -0.0882 -0.6481 -0.6753
 1220SOL     OW15295   0.601   3.031  16.386 -0.0778 -0.3342  0.2060
 1220SOL    HW115296   0.557   3.114  16.404 -0.2503 -0.1451 -1.0719
 1220SOL    HW215297   0.693   3.054  16.395 -0.2125  0.1651  0.2745
 1221SOL     OW15298   2.817   3.254  11.577 -0.3972  0.6305 -0.1730
 1221SOL    HW115299   2.844   3.174  11.531  1.3995  0.5657  1.0013
 1221SOL    HW215300   2.887   3.317  11.562 -0.5729  0.9129  0.1868
 1222SOL     OW15301   3.025   1.123   5.000 -0.5237 -0.2682 -0.6483
 1222SOL    HW115302   2.968   1.106   4.925  1.6786 -0.8854 -2.1755
 1222SOL    HW215303   3.021   1.218   5.006  0.7979 -0.2362 -0.3485
 1223SOL     OW15304   3.409   1.952  15.761  0.1354  0.0777  0.7405
 1223SOL    HW115305   3.481   2.005  15.728 -0.2233 -0.2059 -0.4775
 1223SOL    HW215306   3.455   1.920  15.839  0.2138  0.5402  0.8881
 1224SOL     OW15307   4.419   4.556  15.311  0.6972  0.6806  0.4258
 1224SOL    HW115308   4.407   4.635  15.259  0.9419  1.1698  1.1128
 1224SOL    HW215309   4.431   4.491  15.242  2.6712  0.7669  0.6949
 1225SOL     OW15310   2.124   1.737   4.990  0.3980  0.4947 -0.0467
 1225SOL    HW115311   2.062   1.774   4.926 -2.2169 -2.0648  1.0020
 1225SOL    HW215312   2.197   1.796   4.972 -0.3396  1.2005 -0.7454
 1226SOL     OW15313   2.377   1.769   8.311 -0.4010  0.0159  0.0744
 1226SOL    HW115314   2.432   1.844   8.334 -2.2842 -0.0221  4.7813
 1226SOL    HW215315   2.419   1.697   8.359 -1.3727 -0.8778 -0.4095
 1227SOL     OW15316   1.556   2.526  12.100 -0.6170 -0.1636 -0.1083
 1227SOL    HW115317   1.517   2.490  12.021 -1.9654 -0.8261  0.8516
 1227SOL    HW215318   1.547   2.621  12.089  0.0302 -0.0351  0.4430
 1228SOL     OW15319   1.467   1.988  13.705  0.2542  0.2364 -0.9112
 1228SOL    HW115320   1.419   2.066  13.733 -0.3936 -0.5100  0.0576
 1228SOL    HW215321   1.540   1.989  13.767 -0.0792 -0.1105 -0.5164
 1229SOL     OW15322   0.007   3.530   1.841  0.2902  0.3247 -0.3680
 1229SOL    HW115323   0.069   3.483   1.786 -0.6914  0.6273 -1.7086
 1229SOL    HW215324   0.057   3.603   1.878  1.1868 -1.1110  1.2843
 1230SOL     OW15325   3.953   3.079   2.413 -0.6775  0.0016 -0.1713
 1230SOL    HW115326   3.919   3.030   2.487 -1.0145  0.3119 -0.1239
 1230SOL    HW215327   3.884   3.143   2.396 -2.5874 -1.3898  2.5060
 1231SOL     OW15328   3.495   1.669   6.841  0.0484  0.2480  0.0743
 1231SOL    HW115329   3.570   1.678   6.782  0.9121 -2.2952  0.7864
 1231SOL    HW215330   3.451   1.604   6.786 -2.4983  2.6240 -0.6923
 1232SOL     OW15331   0.313   4.397   9.257 -0.1810  0.0922 -0.3165
 1232SOL    HW115332   0.338   4.412   9.166 -2.9269  1.8488 -0.7632
 1232SOL    HW215333   0.234   4.450   9.259  0.6899  1.3298  2.2066
 1233SOL     OW15334   3.871   2.728   5.709 -0.4070  0.3301 -0.3170
 1233SOL    HW115335   3.935   2.719   5.638  0.9241 -1.3410  1.1244
 1233SOL    HW215336   3.840   2.818   5.699  1.9474  1.3951  1.9397
 1234SOL     OW15337   4.729   0.129  16.936 -0.1230 -0.0440 -0.2370
 1234SOL    HW115338   4.729   0.040  16.901 -0.0251  0.3315 -1.2052
 1234SOL    HW215339   4.656   0.164  16.886  0.7005  0.4232 -1.1096
 1235SOL     OW15340   1.361   4.523  11.273 -0.1845 -0.1000 -0.3029
 1235SOL    HW115341   1.430   4.575  11.232 -1.0224  1.4704  0.2713
 1235SOL    HW215342   1.374   4.434  11.240 -0.5115  0.3971 -1.7812
 1236SOL     OW15343   1.215   4.486   4.183  0.1102  0.5836  0.0260
 1236SOL    HW115344   1.302   4.449   4.169  1.1828  3.2890 -0.5065
 1236SOL    HW215345   1.237   4.552   4.248 -0.1905  0.4306  0.2821
 1237SOL     OW15346   3.660   3.730  12.076 -0.7236 -0.0913  0.4125
 1237SOL    HW115347   3.734   3.745  12.017  0.4183  0.7132  2.0260
 1237SOL    HW215348   3.713   3.688  12.144 -3.1243  0.9585  2.9459
 1238SOL     OW15349   0.728   0.140   7.308  0.3184  0.0972  0.2940
 1238SOL    HW115350   0.757   0.110   7.222  0.0995  1.1519 -0.1480
 1238SOL    HW215351   0.714   0.052   7.344  0.3642 -0.0333 -0.0033
 1239SOL     OW15352   3.351   2.358  13.307  0.2113  0.1141  0.0927
 1239SOL    HW115353   3.289   2.380  13.237  1.2039  0.0906 -0.7785
 1239SOL    HW215354   3.386   2.443  13.334 -1.0071  0.9186 -0.8212
 1240SOL     OW15355   2.306   0.289   3.833 -0.0384 -0.4169  0.0965
 1240SOL    HW115356   2.249   0.338   3.774 -0.0385 -2.2569 -1.4523
 1240SOL    HW215357   2.247   0.253   3.899 -0.6939 -0.1542 -0.3462
 1241SOL     OW15358   1.964   4.447  10.165  0.3706 -0.6063 -0.0825
 1241SOL    HW115359   1.906   4.487  10.100  2.0224  0.2783 -1.0159
 1241SOL    HW215360   1.922   4.475  10.247 -0.5363  0.2098 -0.8278
 1242SOL     OW15361   2.830   4.255  16.694  0.3041  0.0084 -0.2986
 1242SOL    HW115362   2.793   4.342  16.681 -2.9898 -1.2397  0.6850
 1242SOL    HW215363   2.870   4.235  16.609  1.6415 -0.5636  0.4483
 1243SOL     OW15364   1.746   0.301   1.824 -0.1247  0.1505  0.5242
 1243SOL    HW115365   1.762   0.364   1.754  0.0254  1.7542  1.9876
 1243SOL    HW215366   1.654   0.318   1.844  0.3553  2.1206  1.0795
 1244SOL     OW15367   2.150   0.889   8.255 -0.5195 -0.4122 -0.4469
 1244SOL    HW115368   2.209   0.950   8.210 -0.1890 -0.7721 -0.5002
 1244SOL    HW215369   2.111   0.835   8.186 -1.3385 -1.5549  0.9185
 1245SOL     OW15370   3.619   1.075   0.383  0.2225  0.1321  0.1551
 1245SOL    HW115371   3.552   1.105   0.444  0.0113 -1.6028  0.7777
 1245SOL    HW215372   3.563   1.005   0.350  2.3473 -1.5048 -0.0340
 1246SOL     OW15373   2.035   3.927   7.040  0.0022  0.1791 -0.3949
 1246SOL    HW115374   2.061   3.958   7.127  0.1081 -0.0925 -0.3323
 1246SOL    HW215375   2.045   3.834   7.059  2.1986  0.0421 -2.1855
 1247SOL     OW15376   0.193   3.064   6.100 -0.1901 -0.7611  0.4683
 1247SOL    HW115377   0.126   2.996   6.093 -1.1706  0.1257  1.2459
 1247SOL    HW215378   0.234   3.035   6.181  2.1796  2.5329  0.4614
 1248SOL     OW15379   0.652   3.316   7.722 -0.5947  0.0790 -0.1656
 1248SOL    HW115380   0.654   3.277   7.809  1.8535  0.1965 -0.1735
 1248SOL    HW215381   0.744   3.340   7.727 -0.4246 -0.3556 -1.2945
 1249SOL     OW15382   0.095   1.671   2.840 -0.7182 -0.0798 -0.1270
 1249SOL    HW115383   0.141   1.719   2.770 -0.7816  0.8665  0.4787
 1249SOL    HW215384   0.011   1.716   2.836 -0.8863 -0.3411  0.4567
 1250SOL     OW15385   1.543   1.350   7.610  0.1835  0.0658  0.0234
 1250SOL    HW115386   1.488   1.415   7.567  2.4277  1.7481 -0.3161
 1250SOL    HW215387   1.548   1.381   7.700 -2.1771 -0.5960  0.3685
 1251SOL     OW15388   2.161   3.350   5.305 -0.3030  0.1134 -0.5838
 1251SOL    HW115389   2.199   3.321   5.222 -0.6662 -0.0647 -0.6886
 1251SOL    HW215390   2.128   3.264   5.334  2.3957 -1.0423 -0.9636
 1252SOL     OW15391   4.496   4.628  16.310  0.4739  0.1633  0.0804
 1252SOL    HW115392   4.408   4.662  16.294  0.4284 -0.2472 -0.5642
 1252SOL    HW215393   4.497   4.559  16.243  0.6899  1.1692 -0.9322
 1253SOL     OW15394   2.714   0.802  14.471  0.6261 -0.4958  0.2446
 1253SOL    HW115395   2.676   0.881  14.509  1.2370 -0.7290  1.3473
 1253SOL    HW215396   2.718   0.831  14.380 -1.8528 -0.0260  0.2800
 1254SOL     OW15397   0.200   2.049   6.734  0.1666 -0.1029 -0.0766
 1254SOL    HW115398   0.233   1.998   6.808 -1.5439 -1.6750 -0.4133
 1254SOL    HW215399   0.110   2.034   6.762  0.3834 -1.2339  0.0161
 1255SOL     OW15400   4.199   2.186  10.285  0.1389 -0.0139 -0.4645
 1255SOL    HW115401   4.284   2.163  10.247  0.3730  0.7623 -0.4173
 1255SOL    HW215402   4.143   2.197  10.209 -0.4601 -0.1730 -0.0418
 1256SOL     OW15403   3.370   1.494   3.479  0.8467 -0.3029 -0.3380
 1256SOL    HW115404   3.335   1.467   3.394 -0.9327  1.6339 -0.1945
 1256SOL    HW215405   3.458   1.522   3.453  0.9032 -0.4970 -0.3594
 1257SOL     OW15406   2.541   1.404   4.436  0.7136 -0.0334  0.6418
 1257SOL    HW115407   2.557   1.496   4.457  2.2348 -0.4263  1.1899
 1257SOL    HW215408   2.612   1.362   4.484  0.2737 -0.2800  1.0769
 1258SOL     OW15409   3.755   3.332   3.529 -0.6332  0.6299 -0.2368
 1258SOL    HW115410   3.671   3.366   3.500  0.1276  0.7907 -2.2623
 1258SOL    HW215411   3.780   3.281   3.452 -2.4133 -0.0789 -0.3519
 1259SOL     OW15412   2.955   0.215  14.833  0.0220  0.8252 -0.4154
 1259SOL    HW115413   2.971   0.235  14.925  1.8705  0.4620 -0.6389
 1259SOL    HW215414   2.960   0.121  14.852  0.9275  0.9746  0.1314
 1260SOL     OW15415   2.289   4.217   2.524 -0.1035 -0.2802 -0.1832
 1260SOL    HW115416   2.194   4.226   2.533 -0.0559 -0.5351  0.6113
 1260SOL    HW215417   2.307   4.123   2.525 -0.6534 -0.3974 -2.1034
 1261SOL     OW15418   3.795   0.523   4.548 -0.2759  0.1773  0.4837
 1261SOL    HW115419   3.801   0.603   4.600  1.4561  0.5549 -0.2880
 1261SOL    HW215420   3.845   0.548   4.470  0.1032  1.4971  1.1591
 1262SOL     OW15421   0.848   2.078  16.777  0.2612 -0.1053 -0.2707
 1262SOL    HW115422   0.917   2.035  16.728 -0.3470  2.7250 -3.6549
 1262SOL    HW215423   0.880   2.169  16.777  1.4356 -0.5246 -0.8928
 1263SOL     OW15424   3.571   2.301   4.284 -0.1653  0.0518  1.2359
 1263SOL    HW115425   3.547   2.378   4.335  0.7210  0.5072  0.9559
 1263SOL    HW215426   3.662   2.311   4.259  0.0286 -2.5754  0.9188
 1264SOL     OW15427   3.721   1.642   5.336 -0.4557 -0.0453  0.3961
 1264SOL    HW115428   3.653   1.683   5.283  0.4104  1.3292  0.3475
 1264SOL    HW215429   3.790   1.620   5.273 -0.7898 -0.2431  0.1030
 1265SOL     OW15430   0.963   2.846   5.019  0.6304 -0.0292 -0.2184
 1265SOL    HW115431   0.995   2.886   4.938  0.6535 -0.2293 -0.3076
 1265SOL    HW215432   0.867   2.853   5.014  0.4275 -1.5630  1.5183
 1266SOL     OW15433   4.159   3.892   0.499  0.0022  0.0630 -0.2235
 1266SOL    HW115434   4.216   3.945   0.444  0.1882 -2.2987 -2.3033
 1266SOL    HW215435   4.161   3.818   0.438  2.1125  0.2088 -0.3098
 1267SOL     OW15436   2.837   0.082   3.077 -0.2689 -0.3186  0.2947
 1267SOL    HW115437   2.892   0.084   2.999  1.0768  2.6676  1.3131
 1267SOL    HW215438   2.831   4.724   3.098  0.8105 -0.1217  1.5330
 1268SOL     OW15439   1.517   4.157  17.397 -0.3596  0.0529  0.2033
 1268SOL    HW115440   1.526   4.096  17.471  0.3557  1.2939  1.1392
 1268SOL    HW215441   1.434   4.203  17.413  1.0333  2.4809  0.4479
 1269SOL     OW15442   2.237   4.310   6.059  0.5223  0.2535 -0.6280
 1269SOL    HW115443   2.316   4.258   6.045 -0.2792 -1.0568 -0.2948
 1269SOL    HW215444   2.265   4.397   6.031 -1.1916  1.0333  0.0297
 1270SOL     OW15445   2.820   2.258  13.534 -0.4151 -0.4505  0.2105
 1270SOL    HW115446   2.909   2.256  13.501 -0.4453 -0.5815  0.1400
 1270SOL    HW215447   2.800   2.352  13.533  1.8216  0.0545  1.8130
 1271SOL     OW15448   4.452   4.657   3.990 -0.0447 -0.1211 -0.2554
 1271SOL    HW115449   4.493   4.570   3.987 -0.8186 -0.5122  0.5243
 1271SOL    HW215450   4.514   4.701   4.049  0.9737  0.4330 -1.7483
 1272SOL     OW15451   2.805   0.663   3.971  0.9073 -0.0725 -0.0840
 1272SOL    HW115452   2.884   0.612   3.990  1.3455  0.9545  0.8600
 1272SOL    HW215453   2.753   0.616   3.907  0.1493  0.4853  0.1317
 1273SOL     OW15454   2.678   3.411   9.399 -0.5137  0.7959 -0.5432
 1273SOL    HW115455   2.619   3.425   9.473  2.0417 -1.6163  1.9099
 1273SOL    HW215456   2.674   3.318   9.381 -1.1230  0.6189  0.5479
 1274SOL     OW15457   3.753   1.510   5.859 -0.2068 -0.4687  0.6018
 1274SOL    HW115458   3.665   1.478   5.875 -0.5789 -0.6354 -1.8675
 1274SOL    HW215459   3.780   1.489   5.770  3.5001 -0.3850  1.6699
 1275SOL     OW15460   1.111   2.471   5.912  0.2212 -0.2070 -0.5706
 1275SOL    HW115461   1.116   2.543   5.849  0.4872  0.2377 -0.0375
 1275SOL    HW215462   1.020   2.484   5.941  0.2969 -0.1937 -0.3420
 1276SOL     OW15463   1.699   3.206  13.759  0.1328  0.2553 -0.1394
 1276SOL    HW115464   1.701   3.137  13.693  3.0986 -2.1339  2.4480
 1276SOL    HW215465   1.727   3.166  13.841  0.0364 -1.8880 -1.1716
 1277SOL     OW15466   1.608   2.928  13.579 -0.1542 -0.1587 -0.0217
 1277SOL    HW115467   1.512   2.920  13.582 -0.1976  0.1963 -0.4491
 1277SOL    HW215468   1.608   2.856  13.515  0.3622  1.6900 -2.0954
 1278SOL     OW15469   0.986   4.198   2.494  0.2208 -0.0354 -0.6782
 1278SOL    HW115470   1.019   4.125   2.546 -0.3627  0.2893  0.1647
 1278SOL    HW215471   0.936   4.160   2.422 -0.8303 -0.6018  0.3308
 1279SOL     OW15472   2.960   3.667   7.285  0.5513 -0.0747 -1.0035
 1279SOL    HW115473   2.964   3.757   7.254 -0.0912 -0.0605 -1.0518
 1279SOL    HW215474   3.049   3.646   7.314  0.0586 -2.8172 -1.4852
 1280SOL     OW15475   2.578   3.829   0.774  0.1558 -0.5333 -0.5942
 1280SOL    HW115476   2.665   3.846   0.739  0.9571  0.4291  1.8929
 1280SOL    HW215477   2.592   3.745   0.817 -1.5535 -1.0061 -0.9381
 1281SOL     OW15478   4.530   1.678   7.888  0.4119  0.1492  0.2923
 1281SOL    HW115479   4.539   1.698   7.981  1.3201  1.5529 -0.0877
 1281SOL    HW215480   4.529   1.582   7.885  3.0002  0.1249 -0.3047
 1282SOL     OW15481   0.747   1.162  10.816  0.2274 -0.1429  0.6112
 1282SOL    HW115482   0.667   1.202  10.782  1.1366  0.9312 -0.2767
 1282SOL    HW215483   0.815   1.213  10.772 -0.8513 -1.0894 -2.2048
 1283SOL     OW15484   4.695   2.294   0.023 -0.0541  0.1053 -0.7768
 1283SOL    HW115485   4.623   2.338   0.067 -0.4317 -1.5144  0.2123
 1283SOL    HW215486   0.026   2.363   0.036  0.4059 -0.8918  2.0363
 1284SOL     OW15487   0.448   3.104   7.681 -0.0769 -0.0145  0.5346
 1284SOL    HW115488   0.483   3.056   7.756  0.6144  0.4792  0.5238
 1284SOL    HW215489   0.531   3.114   7.635 -0.3634 -2.4312 -0.5386
 1285SOL     OW15490   4.251   0.042   4.422 -0.6591 -0.2299  0.1032
 1285SOL    HW115491   4.178   0.102   4.434  1.0735  2.4001 -2.4531
 1285SOL    HW215492   4.255   0.026   4.327 -2.1502 -1.3690  0.2262
 1286SOL     OW15493   4.208   0.756  15.831  0.0886  0.0740  0.0672
 1286SOL    HW115494   4.199   0.838  15.784 -0.6214 -0.0913 -0.0792
 1286SOL    HW215495   4.179   0.778  15.920  1.3117  0.1175  0.4609
 1287SOL     OW15496   4.067   4.067   9.394 -0.0076  0.0519  0.6918
 1287SOL    HW115497   4.051   4.047   9.486  1.0773 -1.7268  0.4917
 1287SOL    HW215498   4.163   4.068   9.395 -0.0203  1.5879  1.0270
 1288SOL     OW15499   3.432   0.289   9.119  0.0941 -0.0230  0.5401
 1288SOL    HW115500   3.505   0.227   9.112 -1.1589 -1.4049 -0.2795
 1288SOL    HW215501   3.415   0.306   9.026  1.3694 -0.6112  0.1925
 1289SOL     OW15502   3.425   3.919   9.376  0.1544 -0.4809 -0.7614
 1289SOL    HW115503   3.515   3.950   9.384 -0.7871  2.0340  0.0964
 1289SOL    HW215504   3.426   3.824   9.360  1.7992 -0.6906  0.5918
 1290SOL     OW15505   3.829   0.460   9.116  0.0317 -0.0987  0.4287
 1290SOL    HW115506   3.808   0.408   9.039  0.7427  1.6306 -0.9051
 1290SOL    HW215507   3.743   0.502   9.125 -0.8397 -1.5950 -0.8067
 1291SOL     OW15508   2.384   1.989   1.126  0.0502 -0.8066  0.5846
 1291SOL    HW115509   2.398   1.964   1.218  1.3250  0.7185  0.8185
 1291SOL    HW215510   2.301   1.941   1.123 -0.2045 -0.4689  2.1030
 1292SOL     OW15511   2.339   1.382  14.387  0.0961 -0.3807  0.5952
 1292SOL    HW115512   2.304   1.305  14.344 -2.3115  0.6845  0.6699
 1292SOL    HW215513   2.421   1.379  14.338 -0.5233 -2.2276 -0.3045
 1293SOL     OW15514   1.158   2.625   8.048  0.4666  0.2176  0.0057
 1293SOL    HW115515   1.195   2.684   8.113  3.7438 -1.0897 -0.6781
 1293SOL    HW215516   1.221   2.555   8.030 -1.0896 -0.9750 -0.8904
 1294SOL     OW15517   3.367   1.675  11.576 -0.5097  0.4564  0.6976
 1294SOL    HW115518   3.309   1.733  11.624 -1.1012  0.2997  0.1846
 1294SOL    HW215519   3.321   1.680  11.492  1.4994 -0.1760 -0.4258
 1295SOL     OW15520   2.978   3.391   8.743 -0.2461 -0.0118 -0.1356
 1295SOL    HW115521   2.906   3.338   8.709  0.4360  0.3549 -2.1894
 1295SOL    HW215522   3.040   3.381   8.671  1.0245  1.1023  0.7932
 1296SOL     OW15523   2.668   0.377   3.463  0.0470  0.2046  0.2052
 1296SOL    HW115524   2.734   0.443   3.444 -2.0335  1.9727 -0.8841
 1296SOL    HW215525   2.610   0.385   3.388 -1.6046  1.7717  1.6431
 1297SOL     OW15526   4.090   4.654   2.406 -0.1168 -0.3365  0.2971
 1297SOL    HW115527   4.165   4.650   2.346 -0.2559  0.4725  0.0713
 1297SOL    HW215528   4.025   4.601   2.361 -2.3753  1.8886  0.9350
 1298SOL     OW15529   0.476   2.426  11.136  0.4117  0.5126 -0.1444
 1298SOL    HW115530   0.493   2.424  11.230 -0.1200 -0.4663 -0.0731
 1298SOL    HW215531   0.385   2.456  11.134  1.1933  2.8855  0.4926
 1299SOL     OW15532   1.745   3.584   2.830 -0.9137 -0.1892 -0.1991
 1299SOL    HW115533   1.764   3.619   2.743 -1.3579  0.6219  0.0263
 1299SOL    HW215534   1.790   3.652   2.881  1.6313 -1.2705 -1.0017
 1300SOL     OW15535   2.547   4.576  14.035 -0.2195 -0.3382  0.6326
 1300SOL    HW115536   2.501   4.624  14.105  1.3022  0.3290  1.1650
 1300SOL    HW215537   2.483   4.505  14.028  0.5318 -0.8799 -0.7400
 1301SOL     OW15538   2.069   4.468   6.938  0.1631  0.4598 -0.6113
 1301SOL    HW115539   2.031   4.401   6.881 -0.2301 -0.0876  0.2913
 1301SOL    HW215540   1.989   4.514   6.965 -1.1720 -1.6042 -1.0664
 1302SOL     OW15541   3.135   1.655   2.214  0.3846 -0.1479  0.3184
 1302SOL    HW115542   3.088   1.708   2.150  2.6961  0.5582 -0.8052
 1302SOL    HW215543   3.108   1.565   2.196  0.7395 -0.4764  1.4830
 1303SOL     OW15544   1.457   3.669   3.006  0.5449 -0.3434  0.5087
 1303SOL    HW115545   1.420   3.600   2.952  1.2090  0.1243 -0.5478
 1303SOL    HW215546   1.475   3.726   2.931 -1.1299 -0.4502  0.0205
 1304SOL     OW15547   1.442   2.089   2.720  0.0227  0.1747  0.0194
 1304SOL    HW115548   1.374   2.136   2.768  0.3852  0.6065  0.1030
 1304SOL    HW215549   1.392   2.031   2.663  0.6133  2.3087 -2.6644
 1305SOL     OW15550   3.840   2.208   3.839  0.5991  0.2666  0.6684
 1305SOL    HW115551   3.862   2.116   3.825  1.3619  0.4364  0.7785
 1305SOL    HW215552   3.928   2.241   3.854  0.7440 -0.0913  0.5862
 1306SOL     OW15553   3.899   0.193   0.969  0.2057 -0.0357  0.5748
 1306SOL    HW115554   3.928   0.250   1.040 -0.4280 -1.2339  1.7949
 1306SOL    HW215555   3.837   0.142   1.021 -0.7649  0.8734  0.3154
 1307SOL     OW15556   2.093   3.758   6.766 -0.4130  0.1774 -0.0015
 1307SOL    HW115557   2.131   3.700   6.701  0.0451 -0.3970  0.7802
 1307SOL    HW215558   2.170   3.795   6.809  0.4155  2.3203 -3.3482
 1308SOL     OW15559   1.687   0.914   2.414  0.4505 -0.6527  0.0568
 1308SOL    HW115560   1.603   0.930   2.370  0.7309 -0.5492 -0.4383
 1308SOL    HW215561   1.727   0.988   2.369 -0.3029  0.4813  1.2667
 1309SOL     OW15562   3.565   4.661  15.861  0.3485 -0.2379  0.6645
 1309SOL    HW115563   3.512   4.730  15.821  0.0104 -2.8933 -3.4190
 1309SOL    HW215564   3.504   4.588  15.874 -1.0572  0.5867 -1.4254
 1310SOL     OW15565   0.645   0.488  10.793 -0.0644  0.0425  0.4940
 1310SOL    HW115566   0.732   0.525  10.800 -2.0402  4.7900 -0.1028
 1310SOL    HW215567   0.593   0.564  10.767  0.2094  0.3560  0.8771
 1311SOL     OW15568   4.622   2.962  15.426 -0.3657 -0.2710  0.3198
 1311SOL    HW115569   4.690   2.983  15.491 -0.6331  0.8113  0.2496
 1311SOL    HW215570   4.543   2.976  15.478 -0.6982 -3.0765  0.5688
 1312SOL     OW15571   2.521   2.452   3.271  0.5882  0.4739  0.4298
 1312SOL    HW115572   2.598   2.420   3.320  0.4587  0.1132  0.3935
 1312SOL    HW215573   2.534   2.547   3.275 -1.5121  0.8193 -1.3806
 1313SOL     OW15574   3.185   1.528   7.707  0.0184  0.3102  0.2791
 1313SOL    HW115575   3.232   1.483   7.777 -0.5777  0.0905  0.5357
 1313SOL    HW215576   3.094   1.498   7.701  0.0091 -0.1195  2.5121
 1314SOL     OW15577   1.389   0.465   6.454 -0.1959  0.2736 -0.1842
 1314SOL    HW115578   1.434   0.387   6.423 -0.0968 -0.5031  1.9382
 1314SOL    HW215579   1.307   0.420   6.470 -1.4338  1.7405 -2.4030
 1315SOL     OW15580   0.772   3.268  15.507  0.2876 -0.2480  0.3036
 1315SOL    HW115581   0.793   3.197  15.567  1.3121  0.4889  0.8233
 1315SOL    HW215582   0.834   3.340  15.516  0.1748 -0.2253  0.8918
 1316SOL     OW15583   3.632   4.219   4.655  0.0007  0.2994 -0.5899
 1316SOL    HW115584   3.713   4.211   4.606  0.8829 -0.4803  1.0062
 1316SOL    HW215585   3.659   4.227   4.746  1.3113  1.3966 -1.0906
 1317SOL     OW15586   2.659   1.941  15.051 -0.1493 -0.0773  0.2529
 1317SOL    HW115587   2.672   1.848  15.071 -0.4279 -0.3616 -0.8843
 1317SOL    HW215588   2.566   1.952  15.071  0.3580  0.0095  2.4985
 1318SOL     OW15589   3.362   1.126   5.648  0.1838  0.0779 -0.0320
 1318SOL    HW115590   3.395   1.038   5.628  0.5931 -0.3703  2.7026
 1318SOL    HW215591   3.440   1.179   5.631 -0.1534  1.2848  2.3052
 1319SOL     OW15592   3.488   3.151   5.257  0.0667 -0.4504 -0.1641
 1319SOL    HW115593   3.466   3.232   5.210  0.1064 -0.5583 -0.3712
 1319SOL    HW215594   3.527   3.103   5.184 -1.9171 -2.7019  0.2679
 1320SOL     OW15595   3.864   0.355   7.589  0.0784  0.4462 -0.2970
 1320SOL    HW115596   3.954   0.324   7.593  0.9102  2.9095  0.0237
 1320SOL    HW215597   3.877   0.447   7.567  0.0387  0.5101 -0.0557
 1321SOL     OW15598   3.711   0.665   5.593  0.3790 -0.1527 -0.2387
 1321SOL    HW115599   3.803   0.637   5.596  0.1341 -0.7797  1.4826
 1321SOL    HW215600   3.690   0.658   5.500  0.6372 -2.3253 -0.1458
 1322SOL     OW15601   1.868   2.927  13.683 -0.5088  0.2437 -0.0561
 1322SOL    HW115602   1.774   2.912  13.685 -0.1319 -2.1357 -0.5044
 1322SOL    HW215603   1.905   2.898  13.767 -0.1819 -0.8718 -0.5884
 1323SOL     OW15604   3.839   1.868   0.617  0.3300 -0.1310 -0.1991
 1323SOL    HW115605   3.907   1.802   0.628 -0.4339 -1.0377 -0.9386
 1323SOL    HW215606   3.841   1.902   0.706  1.2610 -2.8032  0.7864
 1324SOL     OW15607   1.905   4.222   7.436  0.4884 -0.2992 -0.1202
 1324SOL    HW115608   1.968   4.191   7.501  0.9719  1.4123  0.2222
 1324SOL    HW215609   1.956   4.277   7.377  1.4597 -0.7825  0.2646
 1325SOL     OW15610   0.297   1.779   2.656 -0.2035 -1.0256 -0.2295
 1325SOL    HW115611   0.289   1.874   2.662 -1.6163 -1.0840 -1.2823
 1325SOL    HW215612   0.391   1.784   2.638 -0.2556  2.1235  0.3104
 1326SOL     OW15613   0.233   3.665   5.135  0.3942  0.1965 -0.6218
 1326SOL    HW115614   0.264   3.577   5.153 -1.3006 -0.1798  0.4788
 1326SOL    HW215615   0.236   3.678   5.041 -0.8404 -4.7853 -1.3070
 1327SOL     OW15616   3.037   2.231   8.936  0.0621  0.3745  0.1221
 1327SOL    HW115617   3.091   2.152   8.933 -0.2436  0.0590  3.3928
 1327SOL    HW215618   3.072   2.268   9.017  1.9652  1.3580 -1.1494
 1328SOL     OW15619   1.600   4.570   4.961 -0.0951  0.4430 -0.1507
 1328SOL    HW115620   1.618   4.628   5.036 -0.2951  0.6396 -0.2576
 1328SOL    HW215621   1.684   4.571   4.915  0.4165 -3.2119  0.6449
 1329SOL     OW15622   2.335   0.848  14.333 -0.0339  0.1907  0.3931
 1329SOL    HW115623   2.367   0.773  14.283 -1.7924 -0.1706 -0.1768
 1329SOL    HW215624   2.357   0.920  14.274  1.6912 -1.7854 -1.3938
 1330SOL     OW15625   2.797   4.346   5.549  0.3773 -0.3450 -0.3453
 1330SOL    HW115626   2.855   4.397   5.606 -0.6643  0.4120  0.0231
 1330SOL    HW215627   2.780   4.266   5.598  0.0440  0.4320  0.8032
 1331SOL     OW15628   2.625   1.210   7.999 -0.4903 -0.6450 -0.8853
 1331SOL    HW115629   2.683   1.185   8.071 -0.3794 -0.6237 -0.9665
 1331SOL    HW215630   2.631   1.305   8.003 -1.6734 -0.7028  2.2610
 1332SOL     OW15631   0.553   4.256  15.360  0.0921 -0.3149 -0.4818
 1332SOL    HW115632   0.556   4.352  15.364 -1.2656 -0.2468 -1.2533
 1332SOL    HW215633   0.460   4.238  15.374 -1.0581  4.6941 -1.4865
 1333SOL     OW15634   0.661   2.405   2.431  0.0145 -0.1198 -0.0260
 1333SOL    HW115635   0.735   2.356   2.467 -0.6526  0.9195  2.7453
 1333SOL    HW215636   0.651   2.466   2.504  3.7197 -0.1697  0.5519
 1334SOL     OW15637   4.068   3.900   7.740  0.0517 -0.1381 -0.1467
 1334SOL    HW115638   4.115   3.824   7.774  0.3432 -0.0842 -0.4252
 1334SOL    HW215639   4.108   3.966   7.796 -1.3341  1.5226 -1.1335
 1335SOL     OW15640   3.520   2.579   3.357 -0.3506  0.1853 -0.3737
 1335SOL    HW115641   3.510   2.556   3.450 -0.1899  0.8917 -0.1806
 1335SOL    HW215642   3.613   2.559   3.350 -0.6826 -1.7495  0.7706
 1336SOL     OW15643   1.170   1.878   8.285  0.7526  0.0769  0.3884
 1336SOL    HW115644   1.264   1.896   8.286  0.9158 -0.7885  0.0709
 1336SOL    HW215645   1.147   1.889   8.377  2.1436 -0.6585  0.8151
 1337SOL     OW15646   1.270   4.050   8.757 -0.3193 -0.3300 -0.8547
 1337SOL    HW115647   1.250   4.081   8.669 -0.9287 -0.8922 -0.9118
 1337SOL    HW215648   1.365   4.038   8.753 -0.4243 -1.3862 -0.1951
 1338SOL     OW15649   3.381   4.675   6.809 -0.2630  0.2206 -0.1473
 1338SOL    HW115650   3.407   4.584   6.818 -1.6280 -0.0611  0.7447
 1338SOL    HW215651   3.456   4.707   6.758  1.8690 -1.3785  2.0141
 1339SOL     OW15652   0.553   4.491   5.349 -0.1280 -0.1315  0.5113
 1339SOL    HW115653   0.556   4.539   5.431  2.2627 -0.1854  0.4474
 1339SOL    HW215654   0.478   4.434   5.368 -1.7778  2.1134  0.7188
 1340SOL     OW15655   3.758   3.977   6.050  0.2165 -0.4233 -0.0403
 1340SOL    HW115656   3.669   4.014   6.051  0.8065  0.9481  0.6146
 1340SOL    HW215657   3.755   3.927   6.131 -0.6908  0.3608  0.4139
 1341SOL     OW15658   2.370   2.690  12.452 -0.4554 -0.1192 -0.2667
 1341SOL    HW115659   2.447   2.634  12.455 -0.5928 -0.2706  0.4772
 1341SOL    HW215660   2.324   2.638  12.386  1.3807  0.0627 -1.6860
 1342SOL     OW15661   2.182   0.027   1.151  0.2647 -0.0950  0.2933
 1342SOL    HW115662   2.134   4.733   1.228  0.4901 -2.6246 -0.4763
 1342SOL    HW215663   2.266   4.723   1.176 -0.2555 -1.6921 -0.4201
 1343SOL     OW15664   4.023   4.443  12.583  0.4716  0.2391  0.3047
 1343SOL    HW115665   4.059   4.458  12.671 -3.1250  1.0400  1.6228
 1343SOL    HW215666   4.067   4.365  12.548  0.1550  0.4143 -0.4775
 1344SOL     OW15667   2.114   2.860   7.472 -0.0049  0.5130  0.0754
 1344SOL    HW115668   2.205   2.889   7.466  0.3198 -0.4359  0.4594
 1344SOL    HW215669   2.073   2.917   7.537 -0.0027  2.4659 -1.6710
 1345SOL     OW15670   2.067   2.367   2.799 -0.6626 -0.3522  0.1799
 1345SOL    HW115671   1.980   2.350   2.836  0.0660  0.4390  2.2789
 1345SOL    HW215672   2.113   2.294   2.841 -0.1525 -1.5640 -2.5101
 1346SOL     OW15673   1.753   4.733   7.230  0.1555  0.0090 -0.1255
 1346SOL    HW115674   1.810   0.060   7.184  0.4357  0.6836  1.1282
 1346SOL    HW215675   1.739   0.050   7.309  1.9085  1.2537 -0.6267
 1347SOL     OW15676   3.964   4.447   1.980 -0.5455 -0.3930 -0.5774
 1347SOL    HW115677   4.059   4.439   1.991 -0.8425 -0.3679  2.0552
 1347SOL    HW215678   3.946   4.541   1.980  0.8838 -0.1163 -0.0559
 1348SOL     OW15679   1.025   0.888   8.070  0.1127 -0.4120  0.2115
 1348SOL    HW115680   0.929   0.895   8.065  0.2315  0.2093 -1.3750
 1348SOL    HW215681   1.054   0.904   7.980 -0.3121  2.3416  0.5716
 1349SOL     OW15682   4.283   0.469  11.374  0.2417 -0.3793  0.1093
 1349SOL    HW115683   4.242   0.505  11.453 -1.5180 -1.8816 -0.1345
 1349SOL    HW215684   4.369   0.512  11.378 -0.8500  1.8799 -0.7429
 1350SOL     OW15685   2.460   2.179   5.508  0.5194  0.0962  0.9941
 1350SOL    HW115686   2.491   2.125   5.581 -0.8652 -1.6681  0.2556
 1350SOL    HW215687   2.468   2.103   5.451 -0.5429 -0.0357  1.0146
 1351SOL     OW15688   2.403   3.949   6.281 -0.0468 -0.4510 -0.4032
 1351SOL    HW115689   2.380   3.932   6.373 -1.9139 -0.7095 -0.9235
 1351SOL    HW215690   2.471   3.885   6.261 -0.0008  0.0126 -1.7143
 1352SOL     OW15691   1.669   1.963   4.603 -0.4761  0.2929 -0.1614
 1352SOL    HW115692   1.586   1.968   4.652 -1.2796 -0.7925 -1.3966
 1352SOL    HW215693   1.668   1.868   4.591 -2.0079  0.3827 -0.7723
 1353SOL     OW15694   3.061   4.321   7.991  0.5816  0.1370  0.4137
 1353SOL    HW115695   3.128   4.366   7.939  1.1120  0.7654  1.6411
 1353SOL    HW215696   3.114   4.308   8.069 -2.6383  0.4153  2.6192
 1354SOL     OW15697   1.492   2.233   6.791  0.3244 -0.1256 -0.7010
 1354SOL    HW115698   1.399   2.256   6.800  0.2228  0.3169 -3.0212
 1354SOL    HW215699   1.516   2.211   6.881  0.3300 -2.2962 -1.2256
 1355SOL     OW15700   0.761   4.235   2.647  0.2044  0.0888 -0.0134
 1355SOL    HW115701   0.834   4.221   2.586 -1.3394 -1.2738 -1.5381
 1355SOL    HW215702   0.776   4.170   2.715  1.3195 -0.9456 -1.2627
 1356SOL     OW15703   0.220   0.374   0.766 -0.1941 -0.0600  1.0749
 1356SOL    HW115704   0.225   0.314   0.693  0.8722  0.6478  0.5703
 1356SOL    HW215705   0.127   0.397   0.761 -0.4603 -1.3674  0.1938
 1357SOL     OW15706   4.062   4.111  15.191 -0.3641  0.5124 -0.1573
 1357SOL    HW115707   4.029   4.200  15.181  0.4216  0.8247  0.0229
 1357SOL    HW215708   4.147   4.111  15.148 -1.2623  0.5537 -1.9377
 1358SOL     OW15709   0.652   4.726  13.212 -0.4981 -0.5945 -0.2707
 1358SOL    HW115710   0.719   4.715  13.279  0.0784  1.3340 -0.5201
 1358SOL    HW215711   0.658   0.085  13.191 -0.2513 -0.5160  0.1464
 1359SOL     OW15712   1.585   0.460   3.245  0.0853 -0.4876  0.2413
 1359SOL    HW115713   1.544   0.517   3.181  1.6317 -0.0956 -0.4064
 1359SOL    HW215714   1.589   0.374   3.203 -1.4593 -1.1057  1.3464
 1360SOL     OW15715   0.435   3.600   8.830  0.0928 -0.1218  0.0542
 1360SOL    HW115716   0.353   3.580   8.875  1.4456 -0.1716  2.5026
 1360SOL    HW215717   0.486   3.638   8.901 -0.3728  0.0774  0.2767
 1361SOL     OW15718   2.770   0.465   5.482 -0.0788 -0.0080  0.6714
 1361SOL    HW115719   2.814   0.381   5.495 -1.1029 -0.7144 -0.4673
 1361SOL    HW215720   2.697   0.432   5.429 -2.1057  2.4353  1.9246
 1362SOL     OW15721   0.026   0.380   2.800 -0.3554 -0.8023  0.0950
 1362SOL    HW115722   4.704   0.310   2.766 -0.4832 -1.1914  1.1292
 1362SOL    HW215723   4.725   0.462   2.764 -0.0869 -0.2484  1.0951
 1363SOL     OW15724   1.922   0.206   1.507 -0.5018  0.4653  0.2101
 1363SOL    HW115725   1.850   0.142   1.509 -1.3022  1.3196 -1.5956
 1363SOL    HW215726   1.878   0.284   1.473 -0.6953  0.9433  1.5460
 1364SOL     OW15727   4.659   2.655   3.647 -0.2545 -0.0438  0.0744
 1364SOL    HW115728   4.577   2.697   3.671  0.7187  1.0913  1.4442
 1364SOL    HW215729   4.684   2.720   3.581 -1.3877 -0.7004 -0.9867
 1365SOL     OW15730   2.941   3.039   4.188  0.1964 -0.5443  0.2370
 1365SOL    HW115731   2.949   2.944   4.192 -0.0214 -0.4712  2.6058
 1365SOL    HW215732   2.917   3.052   4.096  1.4619  1.1608  0.1388
 1366SOL     OW15733   0.133   1.817   8.148  0.3861  0.2865 -0.2918
 1366SOL    HW115734   0.063   1.860   8.098 -0.5805 -0.3593  0.5104
 1366SOL    HW215735   0.124   1.850   8.238 -1.0359 -1.1181  0.0819
 1367SOL     OW15736   1.982   3.724   2.924 -0.3725 -0.3128 -0.0048
 1367SOL    HW115737   1.900   3.772   2.939 -0.7061 -0.6185 -0.8424
 1367SOL    HW215738   2.016   3.724   3.014 -0.4854 -1.1131  0.0317
 1368SOL     OW15739   1.048   4.483   5.898 -0.3667 -0.1218 -0.4834
 1368SOL    HW115740   1.020   4.507   5.810 -1.0866 -0.0764 -0.2426
 1368SOL    HW215741   1.050   4.566   5.945  0.2278  0.0959 -0.8964
 1369SOL     OW15742   3.255   4.315   5.672 -0.1145 -0.6332  0.2431
 1369SOL    HW115743   3.251   4.327   5.578 -1.7993 -1.2449  0.2417
 1369SOL    HW215744   3.182   4.373   5.694 -1.8337 -2.1704 -1.5669
 1370SOL     OW15745   3.874   4.575   6.508  0.1727  0.2040  0.2747
 1370SOL    HW115746   3.821   4.512   6.458 -0.3170  2.2291 -1.7406
 1370SOL    HW215747   3.957   4.554   6.464 -0.5489  0.2432 -1.1068
 1371SOL     OW15748   4.516   4.665   6.268  0.4430 -0.7900  0.0679
 1371SOL    HW115749   4.503   0.025   6.264 -1.6539 -1.1150 -0.5123
 1371SOL    HW215750   4.435   4.625   6.298 -0.2216 -1.4051 -2.5437
 1372SOL     OW15751   4.515   0.206   4.145 -0.1500  0.3420 -0.0520
 1372SOL    HW115752   4.567   0.130   4.118 -0.9892 -0.1428 -0.2934
 1372SOL    HW215753   4.577   0.240   4.209  0.2408  1.3731 -0.9816
 1373SOL     OW15754   1.206   0.475   7.958 -0.4538  0.0203 -0.1993
 1373SOL    HW115755   1.181   0.437   7.873  0.7040  0.8764 -0.9134
 1373SOL    HW215756   1.292   0.436   7.974 -0.3023  0.7971  0.8816
 1374SOL     OW15757   4.514   4.011   8.586  0.4791  0.3070 -0.0422
 1374SOL    HW115758   4.525   4.105   8.597 -1.5416  0.5867 -0.3882
 1374SOL    HW215759   4.589   3.987   8.532 -0.0250 -1.8816  0.2335
 1375SOL     OW15760   2.528   0.945  13.873  0.3087 -0.0474 -0.5133
 1375SOL    HW115761   2.503   0.943  13.965 -0.5020  0.8065 -0.7156
 1375SOL    HW215762   2.474   1.020  13.851  0.5975  0.4910  0.5998
 1376SOL     OW15763   3.739   1.010  11.607 -0.1008  0.2125 -0.3384
 1376SOL    HW115764   3.675   0.991  11.677 -1.1053  1.3249 -0.9572
 1376SOL    HW215765   3.710   0.949  11.539  2.8626  0.8164 -2.1034
 1377SOL     OW15766   4.215   2.530   4.694  0.2399  0.1161 -0.3651
 1377SOL    HW115767   4.151   2.495   4.756  1.6558 -2.0434 -0.1299
 1377SOL    HW215768   4.265   2.583   4.755  0.2664  1.1196 -1.2585
 1378SOL     OW15769   3.939   1.023  12.896  0.0344  0.0291  0.3978
 1378SOL    HW115770   3.969   1.112  12.880  0.7577  0.0479  1.8970
 1378SOL    HW215771   4.028   0.988  12.901  1.5796  3.8407 -0.2016
 1379SOL     OW15772   2.551   3.830   9.310 -0.5211 -0.9513 -0.5017
 1379SOL    HW115773   2.629   3.776   9.298 -0.8479 -0.8284 -3.0731
 1379SOL    HW215774   2.533   3.846   9.218 -0.5002 -3.3414 -0.9178
 1380SOL     OW15775   3.239   4.389   5.385 -0.1244  0.3632  0.3565
 1380SOL    HW115776   3.283   4.307   5.361 -1.7262 -0.7999  1.3260
 1380SOL    HW215777   3.148   4.360   5.380  0.2426 -0.7566  0.0436
 1381SOL     OW15778   2.613   2.355   1.310  0.0484 -0.7423 -0.1473
 1381SOL    HW115779   2.579   2.271   1.340 -1.7729  0.3335  0.7932
 1381SOL    HW215780   2.535   2.390   1.268 -0.9337 -1.8688  0.7423
 1382SOL     OW15781   3.586   4.041   7.562 -0.0938 -0.1390  0.2743
 1382SOL    HW115782   3.617   4.120   7.517  0.3148 -0.2752  0.3229
 1382SOL    HW215783   3.496   4.057   7.590 -0.1693 -0.9996  0.5076
 1383SOL     OW15784   1.326   2.928   3.622 -0.0153 -0.7160  0.2129
 1383SOL    HW115785   1.374   3.010   3.621 -1.7631  0.3136 -0.4013
 1383SOL    HW215786   1.350   2.893   3.536 -3.3947 -1.3726 -0.4962
 1384SOL     OW15787   4.587   1.453   9.236 -0.6151  0.2113  0.2506
 1384SOL    HW115788   4.568   1.477   9.327  3.1456 -0.8380  1.3465
 1384SOL    HW215789   4.658   1.516   9.219  0.2781 -0.4612  1.4000
 1385SOL     OW15790   4.502   1.190   4.962  0.0696 -0.0433  0.0395
 1385SOL    HW115791   4.475   1.208   4.871 -1.5473 -1.0279  0.3147
 1385SOL    HW215792   4.553   1.109   4.958 -0.0316  0.0222 -2.5056
 1386SOL     OW15793   1.808   0.420   7.192  0.0599 -0.7545 -0.0615
 1386SOL    HW115794   1.771   0.343   7.235 -0.1042 -0.2627  0.6687
 1386SOL    HW215795   1.811   0.403   7.098  1.7563 -1.6314  0.1463
 1387SOL     OW15796   4.270   4.664   8.396  0.0111  0.0154  0.6259
 1387SOL    HW115797   4.353   4.666   8.349 -0.2547  1.3574  0.2105
 1387SOL    HW215798   4.284   4.586   8.450 -0.9476 -0.5542  0.0566
 1388SOL     OW15799   1.015   0.766  11.044  0.3200  0.5710 -0.0203
 1388SOL    HW115800   1.072   0.695  11.074  1.0059  1.2258  0.2227
 1388SOL    HW215801   0.979   0.797  11.127 -2.6778  0.2203 -1.2023
 1389SOL     OW15802   0.683   4.307   2.123 -0.4022  0.4127 -0.4115
 1389SOL    HW115803   0.668   4.365   2.198  2.0081  2.1597 -1.2676
 1389SOL    HW215804   0.773   4.328   2.097 -0.8166 -1.0512 -2.9189
 1390SOL     OW15805   1.925   0.057   4.428  0.3557 -0.0026 -0.6406
 1390SOL    HW115806   1.865   0.094   4.363  0.2696 -0.3020 -0.7325
 1390SOL    HW215807   1.944   0.130   4.488  0.9748 -0.3987 -0.3594
 1391SOL     OW15808   2.959   1.575  15.728 -0.2219  0.6938  0.1623
 1391SOL    HW115809   2.998   1.490  15.748  0.7150  0.9011 -0.8162
 1391SOL    HW215810   2.985   1.589  15.637  0.1509  1.0267  0.3195
 1392SOL     OW15811   0.749   4.700  11.256  0.5304 -0.2251  0.1017
 1392SOL    HW115812   0.756   0.042  11.312 -0.8257  1.4260 -1.9658
 1392SOL    HW215813   0.669   4.718  11.206  1.3968  2.4899 -0.3095
 1393SOL     OW15814   2.295   2.277   2.242 -0.2777  0.2149  0.2702
 1393SOL    HW115815   2.266   2.216   2.175  0.6402  0.0106  0.0508
 1393SOL    HW215816   2.247   2.247   2.319 -2.1473 -1.8935 -1.7363
 1394SOL     OW15817   1.844   2.232   7.219  0.0000 -0.0826  0.1138
 1394SOL    HW115818   1.880   2.316   7.189 -2.1670  0.3027 -1.4018
 1394SOL    HW215819   1.919   2.191   7.262  0.0650  0.4093  0.4739
 1395SOL     OW15820   4.145   2.593   8.327  0.3939  0.2618 -0.6265
 1395SOL    HW115821   4.091   2.561   8.399 -0.0487  3.2728  0.3978
 1395SOL    HW215822   4.198   2.659   8.373 -2.0701 -0.5803  3.4064
 1396SOL     OW15823   2.965   0.836   8.591  0.0916 -0.0429 -0.7886
 1396SOL    HW115824   2.940   0.862   8.680  0.5610  0.7004 -0.8735
 1396SOL    HW215825   3.047   0.882   8.574  1.2077 -1.7712 -0.1765
 1397SOL     OW15826   0.607   4.418  15.630 -0.2390  0.1486 -0.0162
 1397SOL    HW115827   0.583   4.473  15.556 -2.0256  0.0352  0.4776
 1397SOL    HW215828   0.530   4.432  15.685  0.2855  2.3620  0.1453
 1398SOL     OW15829   1.348   4.531   4.459 -0.1617 -0.0647  0.0350
 1398SOL    HW115830   1.278   4.505   4.518 -0.3476  0.0413 -0.1410
 1398SOL    HW215831   1.385   4.600   4.513 -1.1509  1.3476 -1.1022
 1399SOL     OW15832   2.023   0.488   7.351  0.3675 -0.2532  0.3512
 1399SOL    HW115833   1.953   0.479   7.287  1.8020 -1.2232 -1.0861
 1399SOL    HW215834   2.021   0.397   7.382  0.1193 -0.5849 -0.6605
 1400SOL     OW15835   4.700   1.521   3.798 -0.2811 -0.1606 -0.6789
 1400SOL    HW115836   4.674   1.590   3.737 -0.7196  0.0075 -0.2894
 1400SOL    HW215837   0.049   1.561   3.821  0.5064 -1.6658 -0.8953
 1401SOL     OW15838   2.048   3.577  15.206 -0.2285 -0.4696 -0.5529
 1401SOL    HW115839   2.106   3.577  15.130  1.3384  0.2977  0.6369
 1401SOL    HW215840   2.036   3.482  15.207  0.3455 -0.5568 -2.2073
 1402SOL     OW15841   2.753   3.445   6.136  0.4300 -0.1791  0.3611
 1402SOL    HW115842   2.689   3.500   6.181 -0.1853 -0.4136 -0.2204
 1402SOL    HW215843   2.714   3.358   6.143  0.3453 -0.0767  1.1422
 1403SOL     OW15844   3.605   4.431   9.116  0.0638 -0.2796 -0.0157
 1403SOL    HW115845   3.551   4.507   9.135 -0.9257 -0.6336 -1.3507
 1403SOL    HW215846   3.555   4.366   9.166 -0.7073  1.3261  1.2952
 1404SOL     OW15847   0.331   4.606   6.909  0.8278 -0.0878  0.2151
 1404SOL    HW115848   0.408   4.648   6.946  0.6271 -0.5654  1.1910
 1404SOL    HW215849   0.370   4.518   6.908  2.1959  0.5207  1.0929
 1405SOL     OW15850   2.247   0.929   6.166 -0.6385 -0.1867  0.4863
 1405SOL    HW115851   2.199   1.009   6.186 -0.4690 -0.3516  1.5646
 1405SOL    HW215852   2.216   0.910   6.078  0.4959 -1.5299  0.3724
 1406SOL     OW15853   1.225   2.139   6.893 -0.4610 -0.3315  0.0490
 1406SOL    HW115854   1.213   2.067   6.832  0.3769  1.2548 -1.9946
 1406SOL    HW215855   1.167   2.207   6.859 -0.0640  0.2723  0.5601
 1407SOL     OW15856   0.954   2.171   2.857  0.0686  0.4418 -0.5365
 1407SOL    HW115857   0.975   2.095   2.910  3.8238  1.8729 -0.0018
 1407SOL    HW215858   0.915   2.235   2.917 -1.0005  0.2785 -1.0505
 1408SOL     OW15859   2.562   1.242   3.034 -0.5288 -0.0724  0.3799
 1408SOL    HW115860   2.564   1.158   3.080 -1.2877  0.1063  0.7356
 1408SOL    HW215861   2.559   1.308   3.103  1.1026 -0.0017  0.3830
 1409SOL     OW15862   2.052   1.046   7.050 -0.3896  0.1249  0.1036
 1409SOL    HW115863   2.126   1.030   7.109  0.2507 -1.4070 -1.1335
 1409SOL    HW215864   2.093   1.036   6.964 -1.3857 -0.8075 -0.2530
 1410SOL     OW15865   1.728   0.020   1.494  0.2173  0.0072  0.0008
 1410SOL    HW115866   1.730   4.676   1.548 -0.2273 -0.4721 -0.6839
 1410SOL    HW215867   1.667   0.067   1.551 -0.8530 -0.4482 -0.7856
 1411SOL     OW15868   0.911   4.100   0.495 -0.7382 -0.3012  0.2848
 1411SOL    HW115869   0.817   4.115   0.495 -0.8470 -0.9354 -0.7046
 1411SOL    HW215870   0.924   4.074   0.403 -0.5408 -0.9101  0.4855
 1412SOL     OW15871   2.318   3.432  13.258 -0.4181  0.6908  0.4231
 1412SOL    HW115872   2.276   3.439  13.172  0.9860  0.9511 -0.2355
 1412SOL    HW215873   2.405   3.466  13.238 -1.4145  2.3510 -1.0900
 1413SOL     OW15874   3.931   1.220  11.255  0.0229 -0.2624  0.2159
 1413SOL    HW115875   3.969   1.167  11.324  0.7034  0.2078  0.1979
 1413SOL    HW215876   3.919   1.301  11.304 -0.3097  0.9421 -1.8402
 1414SOL     OW15877   1.296   3.930  17.616 -0.0114 -0.1644  0.3054
 1414SOL    HW115878   1.385   3.956  17.592 -0.6799  0.3509 -1.5885
 1414SOL    HW215879   1.313   3.843  17.652  0.3278  0.7054  2.2518
 1415SOL     OW15880   1.849   2.505   4.870  0.3178  0.3594  0.2751
 1415SOL    HW115881   1.842   2.490   4.775  0.9610 -0.7279  0.4007
 1415SOL    HW215882   1.815   2.421   4.898  1.9528 -0.8251 -1.2855
 1416SOL     OW15883   4.524   0.392   6.962 -0.0556  0.2452 -0.6386
 1416SOL    HW115884   4.468   0.469   6.969 -0.8677 -0.4948  1.3857
 1416SOL    HW215885   4.520   0.364   6.871  0.9305  0.5852 -0.7813
 1417SOL     OW15886   3.005   3.531   8.410 -0.2515 -0.5531  0.2767
 1417SOL    HW115887   3.067   3.584   8.461  1.6071 -0.7414 -1.7537
 1417SOL    HW215888   3.046   3.445   8.413 -2.7147 -1.7188 -0.4525
 1418SOL     OW15889   3.689   1.637   6.645  0.1263 -0.5279  0.0327
 1418SOL    HW115890   3.726   1.554   6.617 -0.0451 -0.8854  0.8911
 1418SOL    HW215891   3.624   1.662   6.580 -0.7732  0.0197  1.1376
 1419SOL     OW15892   2.202   1.526   5.521  0.3817  0.1992 -0.2966
 1419SOL    HW115893   2.145   1.593   5.559 -0.3572 -1.1264  0.9029
 1419SOL    HW215894   2.242   1.487   5.598 -0.8289  0.9602  0.7199
 1420SOL     OW15895   0.618   1.663   6.616 -0.2842  0.5832  0.1947
 1420SOL    HW115896   0.526   1.686   6.602 -1.1340 -0.8124  3.5385
 1420SOL    HW215897   0.654   1.683   6.530 -0.5782  0.4065  0.0293
 1421SOL     OW15898   3.018   3.641   4.344  0.4533  0.7160  0.3220
 1421SOL    HW115899   3.098   3.589   4.336 -0.0815 -0.0155 -0.3071
 1421SOL    HW215900   3.014   3.662   4.251 -3.7002  2.9674  0.9813
 1422SOL     OW15901   1.371   3.231  14.144  0.2282 -0.0454  0.8502
 1422SOL    HW115902   1.383   3.184  14.062  0.9403  1.1779  0.2525
 1422SOL    HW215903   1.461   3.256  14.167  1.7688 -2.1777 -3.0008
 1423SOL     OW15904   2.024   3.524   3.962  0.5621 -0.0315  0.1442
 1423SOL    HW115905   2.065   3.505   4.046  0.6263 -0.3727  0.0371
 1423SOL    HW215906   1.957   3.456   3.961  1.2186 -0.6400 -3.6347
 1424SOL     OW15907   0.465   2.864   8.237 -0.5223 -0.2355  0.2606
 1424SOL    HW115908   0.418   2.946   8.222 -1.8551 -0.5965  2.5976
 1424SOL    HW215909   0.557   2.890   8.239 -0.3175 -0.8222 -1.2665
 1425SOL     OW15910   3.557   3.018   5.980 -0.2893  0.5637  0.2597
 1425SOL    HW115911   3.642   3.041   5.943 -0.6250 -1.8226 -1.9859
 1425SOL    HW215912   3.577   2.925   5.989  1.2202  1.1037  2.5755
 1426SOL     OW15913   0.453   4.077  10.931 -0.4399  0.4038 -0.4133
 1426SOL    HW115914   0.536   4.038  10.959 -0.5091  0.3895 -0.2224
 1426SOL    HW215915   0.401   3.997  10.941  1.0517 -0.6372 -1.0195
 1427SOL     OW15916   1.950   0.525  15.114 -0.2974 -0.1699 -0.4159
 1427SOL    HW115917   1.885   0.455  15.108 -0.8601  0.4247 -1.3115
 1427SOL    HW215918   1.933   0.549  15.206 -2.1222  0.5851 -0.9352
 1428SOL     OW15919   4.257   0.970   8.605 -0.0577  0.2202 -0.0064
 1428SOL    HW115920   4.280   1.023   8.529 -0.8780 -0.0978 -0.4762
 1428SOL    HW215921   4.291   0.882   8.588 -2.5000 -1.0727  1.7610
 1429SOL     OW15922   2.681   2.090  16.226  0.0139 -0.9160 -0.5702
 1429SOL    HW115923   2.749   2.128  16.170 -1.6128  3.2368  0.2781
 1429SOL    HW215924   2.701   1.997  16.216  1.2510 -0.7152  0.0122
 1430SOL     OW15925   1.079   0.472  10.670 -0.6346  0.3099 -0.3497
 1430SOL    HW115926   1.128   0.464  10.588  2.8821 -1.9390  1.9755
 1430SOL    HW215927   1.037   0.386  10.665 -0.3517  0.1670 -0.2209
 1431SOL     OW15928   2.648   4.239   9.749 -0.0810  0.6353  0.2190
 1431SOL    HW115929   2.562   4.213   9.715 -0.7870  2.0704  0.9177
 1431SOL    HW215930   2.705   4.226   9.673 -1.0150  0.1135 -0.3908
 1432SOL     OW15931   1.528   3.205   5.520  0.4746  0.5409 -0.4895
 1432SOL    HW115932   1.581   3.160   5.585  0.8672 -0.3775 -1.4511
 1432SOL    HW215933   1.504   3.130   5.466  2.4310  0.2353 -0.9040
 1433SOL     OW15934   3.032   0.180   2.856  0.2936  0.0548 -0.2426
 1433SOL    HW115935   3.105   0.234   2.826  0.3822  0.7132  1.1871
 1433SOL    HW215936   2.965   0.196   2.789  0.7034 -0.0058 -0.6722
 1434SOL     OW15937   0.661   4.666  15.858  0.3471  0.1232  0.1827
 1434SOL    HW115938   0.699   4.678  15.945 -1.0152 -1.3947  0.9826
 1434SOL    HW215939   0.659   4.572  15.843  1.8075 -0.2830  2.5913
 1435SOL     OW15940   1.336   2.626  11.112  0.5161 -0.2627  0.7853
 1435SOL    HW115941   1.376   2.681  11.044 -1.7345  0.6153  0.1647
 1435SOL    HW215942   1.252   2.672  11.107  0.7680  0.3143  1.9539
 1436SOL     OW15943   3.871   3.130  14.834 -0.5512  0.1355  0.4321
 1436SOL    HW115944   3.849   3.085  14.916  0.3612  0.2257  0.7354
 1436SOL    HW215945   3.948   3.177  14.868 -0.8932  1.7029 -0.9740
 1437SOL     OW15946   3.252   2.340   8.434  0.0440  0.5967  0.1586
 1437SOL    HW115947   3.329   2.385   8.400  0.5547  0.2829  0.9009
 1437SOL    HW215948   3.229   2.382   8.517 -1.4246  2.0649 -0.9922
 1438SOL     OW15949   3.196   1.569   0.293  0.7581 -0.2797 -0.0414
 1438SOL    HW115950   3.235   1.657   0.293  0.4557 -0.1436 -1.3100
 1438SOL    HW215951   3.220   1.529   0.210 -1.2030  1.0360 -1.2361
 1439SOL     OW15952   2.637   3.490  11.483 -0.2125  0.5531  0.3578
 1439SOL    HW115953   2.651   3.544  11.561  2.1597 -0.6100  0.7494
 1439SOL    HW215954   2.696   3.418  11.506  2.3796  2.0468 -1.5861
 1440SOL     OW15955   3.506   0.531   5.221 -0.3432  0.0119  0.1350
 1440SOL    HW115956   3.475   0.618   5.197  1.3771 -0.1010 -2.4676
 1440SOL    HW215957   3.519   0.493   5.134 -1.4489  0.3074 -0.1564
 1441SOL     OW15958   2.382   3.166   5.884  0.2908 -0.6289  0.0236
 1441SOL    HW115959   2.388   3.107   5.808  1.2777 -1.5974  0.8551
 1441SOL    HW215960   2.408   3.253   5.853  0.2847 -0.5580  0.2203
 1442SOL     OW15961   4.141   2.343   0.937 -0.1578  0.0751 -0.2747
 1442SOL    HW115962   4.146   2.367   0.844  1.0440 -1.4730 -0.6133
 1442SOL    HW215963   4.099   2.258   0.922  0.2769  0.0357 -1.2788
 1443SOL     OW15964   2.120   0.614   5.773  0.4070 -0.5058  0.2379
 1443SOL    HW115965   2.155   0.571   5.695  0.9829 -0.4942  0.4931
 1443SOL    HW215966   2.025   0.605   5.772  0.2765  0.9026  0.3635
 1444SOL     OW15967   0.477   3.308   5.119  0.4548 -0.5145  0.2858
 1444SOL    HW115968   0.403   3.310   5.179  0.3476  0.4256  0.1157
 1444SOL    HW215969   0.551   3.306   5.180  0.3357  1.7103  0.5037
 1445SOL     OW15970   4.146   3.087   1.925 -0.3525 -0.1896  0.0428
 1445SOL    HW115971   4.193   3.004   1.917 -0.6983 -0.4600  0.9200
 1445SOL    HW215972   4.152   3.104   2.019 -1.9355 -0.8258  0.2400
 1446SOL     OW15973   0.039   1.470  12.478  0.5381  0.5506 -0.1238
 1446SOL    HW115974   0.126   1.511  12.480  1.5368 -1.4665 -1.4467
 1446SOL    HW215975   4.708   1.537  12.463  1.5322  1.1330 -1.9085
 1447SOL     OW15976   2.619   4.507   7.066 -0.4108  0.2386  0.1965
 1447SOL    HW115977   2.637   4.598   7.040 -0.2567  0.2709  0.4202
 1447SOL    HW215978   2.650   4.467   6.984 -0.9796  0.1836  0.0019
 1448SOL     OW15979   0.590   0.334   0.621  0.9466  0.3929  0.1307
 1448SOL    HW115980   0.504   0.290   0.622  0.7084  0.8665  0.3671
 1448SOL    HW215981   0.643   0.268   0.665 -0.2668 -1.6424 -1.4188
 1449SOL     OW15982   4.564   1.397   8.530  0.2106 -0.4089 -0.0416
 1449SOL    HW115983   4.626   1.431   8.594  0.8149 -0.8171 -0.4121
 1449SOL    HW215984   4.619   1.341   8.475 -1.8223 -2.4233  0.0058
 1450SOL     OW15985   1.922   0.528   0.186 -0.1226 -0.2481 -0.2391
 1450SOL    HW115986   1.926   0.504   0.094 -0.0470 -0.9798 -0.0483
 1450SOL    HW215987   1.991   0.471   0.220 -1.2786 -1.5682 -0.0697
 1451SOL     OW15988   0.974   2.301   9.013  0.4126  0.2590  0.7432
 1451SOL    HW115989   0.908   2.267   9.074  1.8128 -0.2206  1.9927
 1451SOL    HW215990   0.970   2.231   8.947  1.3536  1.1765 -0.2859
 1452SOL     OW15991   3.309   1.679   8.652  0.1316 -0.3550 -0.2364
 1452SOL    HW115992   3.370   1.743   8.688 -1.7918 -0.1936  2.7534
 1452SOL    HW215993   3.337   1.687   8.561 -0.9183  0.5265 -0.4730
 1453SOL     OW15994   0.621   1.273   5.087 -0.0948 -0.1028  0.0608
 1453SOL    HW115995   0.694   1.309   5.137  0.5727 -2.1659  0.5586
 1453SOL    HW215996   0.632   1.178   5.090  0.4473 -0.0444 -0.0917
 1454SOL     OW15997   0.305   0.274  16.164  0.3675  0.2234 -0.2826
 1454SOL    HW115998   0.348   0.356  16.137  0.2214 -0.1132 -1.5608
 1454SOL    HW215999   0.362   0.219  16.110  0.0570 -0.2681 -0.1030
 1455SOL     OW16000   2.413   0.450   1.076 -0.0301  0.0611  0.2581
 1455SOL    HW116001   2.348   0.384   1.052 -0.8542  1.1187 -0.4153
 1455SOL    HW216002   2.486   0.389   1.067  1.5178  2.1187 -0.9328
 1456SOL     OW16003   3.168   4.416   8.617  0.0081 -0.1396  0.2653
 1456SOL    HW116004   3.189   4.333   8.576 -1.0294 -0.0945 -0.3669
 1456SOL    HW216005   3.086   4.432   8.569  0.4375  0.7558 -0.1629
 1457SOL     OW16006   3.147   3.978   8.784 -0.1534  0.4108  0.6140
 1457SOL    HW116007   3.194   4.030   8.849  0.6116 -0.8618  1.0918
 1457SOL    HW216008   3.127   3.898   8.834  0.8194 -1.4070 -1.9112
 1458SOL     OW16009   0.558   0.116   8.360 -0.3102  0.0747 -0.0631
 1458SOL    HW116010   0.550   0.141   8.452 -0.0522 -1.0894  0.2705
 1458SOL    HW216011   0.651   0.094   8.353 -0.7615 -1.4048 -1.6233
 1459SOL     OW16012   0.901   4.142   3.898 -0.3775  0.1967  0.3285
 1459SOL    HW116013   0.879   4.071   3.959 -0.4503  1.1160  1.3678
 1459SOL    HW216014   0.945   4.205   3.956 -1.6581 -0.1723  1.7171
 1460SOL     OW16015   3.717   4.421   8.046  0.0222  0.4179 -0.0689
 1460SOL    HW116016   3.747   4.480   7.977  0.6735 -1.1048 -1.0602
 1460SOL    HW216017   3.632   4.397   8.010 -0.2057  0.0576  0.7091
 1461SOL     OW16018   1.289   4.044   3.778  0.1933 -0.1600  0.4347
 1461SOL    HW116019   1.292   3.989   3.856 -0.0150 -0.9139 -0.0862
 1461SOL    HW216020   1.297   4.129   3.821 -1.9401 -0.1665  0.8509
 1462SOL     OW16021   1.792   0.510   2.996 -0.7761 -0.3909  0.2342
 1462SOL    HW116022   1.760   0.598   3.015 -0.0584  0.1518 -1.0862
 1462SOL    HW216023   1.847   0.524   2.919  0.7031  0.5796  1.4615
 1463SOL     OW16024   2.288   3.245   2.506 -0.0014  0.5960 -0.4062
 1463SOL    HW116025   2.200   3.245   2.470 -0.6587 -0.1789  1.1821
 1463SOL    HW216026   2.283   3.160   2.551 -0.1412 -0.2431 -2.0258
 1464SOL     OW16027   1.667   0.657   5.131 -0.5436 -0.0702  0.7108
 1464SOL    HW116028   1.697   0.568   5.150 -3.7906 -1.4834 -0.8586
 1464SOL    HW216029   1.720   0.669   5.053 -0.8807 -1.0577  0.3250
 1465SOL     OW16030   0.947   4.506  10.295  0.1399 -0.4338  0.4585
 1465SOL    HW116031   1.031   4.476  10.331 -0.2224 -3.6999 -1.4364
 1465SOL    HW216032   0.915   4.573  10.356 -2.7350 -0.6457 -0.8232
 1466SOL     OW16033   0.825   0.392  17.547  0.0986  0.0346  0.1087
 1466SOL    HW116034   0.850   0.463  17.607 -2.6861  1.2807 -0.2313
 1466SOL    HW216035   0.743   0.433  17.520 -0.3548 -0.2577  1.0714
 1467SOL     OW16036   2.536   3.713   7.899  0.0058 -0.4545 -0.0532
 1467SOL    HW116037   2.524   3.751   7.986 -1.3545  1.5690 -1.1247
 1467SOL    HW216038   2.461   3.654   7.907 -0.4616 -0.1287 -2.1323
 1468SOL     OW16039   0.770   0.856   6.269  0.0170 -0.4136 -0.5134
 1468SOL    HW116040   0.683   0.897   6.268 -0.3233 -1.1179  0.3153
 1468SOL    HW216041   0.752   0.796   6.340 -0.2249 -0.6980 -0.8156
 1469SOL     OW16042   2.995   3.959   4.558 -0.0558 -0.0460  0.1398
 1469SOL    HW116043   3.061   3.924   4.617  1.1234  0.5177 -0.8541
 1469SOL    HW216044   3.048   3.978   4.481 -2.9337  1.2627 -1.5319
 1470SOL     OW16045   3.779   0.300   0.014 -0.3676  0.5018 -0.2511
 1470SOL    HW116046   3.853   0.239   0.014 -2.0395 -1.5369  0.3426
 1470SOL    HW216047   3.723   0.253   0.076  0.4891  1.3889  1.1947
 1471SOL     OW16048   3.325   1.838   6.693  0.7977 -0.6031 -0.1949
 1471SOL    HW116049   3.321   1.928   6.727 -0.6987 -0.9494  0.5378
 1471SOL    HW216050   3.377   1.800   6.764  0.3180  0.8587  0.9575
 1472SOL     OW16051   2.132   0.695   7.111  0.0024  0.3692 -0.3507
 1472SOL    HW116052   2.221   0.722   7.085  0.9931 -0.7457  1.9226
 1472SOL    HW216053   2.143   0.601   7.126 -0.8869  0.1321 -1.2383
 1473SOL     OW16054   3.053   0.511  15.984 -0.4123 -0.4008  0.2060
 1473SOL    HW116055   3.093   0.536  15.901 -2.0632  1.0748 -0.1416
 1473SOL    HW216056   3.108   0.438  16.013  1.7061  1.7866  1.6604
 1474SOL     OW16057   1.786   4.194   1.152  0.1778  0.4573 -0.6640
 1474SOL    HW116058   1.836   4.272   1.177  0.4624  0.3185 -0.7997
 1474SOL    HW216059   1.720   4.230   1.093 -2.5793 -1.9631  0.9875
 1475SOL     OW16060   0.109   3.875   2.179  0.2459 -0.3165 -0.4050
 1475SOL    HW116061   0.060   3.799   2.210 -0.1428  0.8749  1.9103
 1475SOL    HW216062   0.167   3.882   2.255 -0.7330  2.2403  0.1019
 1476SOL     OW16063   0.016   2.867   2.472 -0.0130  0.4423 -0.4146
 1476SOL    HW116064   0.065   2.816   2.407  1.4275  1.5384 -0.2080
 1476SOL    HW216065   0.081   2.917   2.521 -1.0624 -0.3659  1.7768
 1477SOL     OW16066   2.807   4.325  15.191  0.3522 -0.1402 -0.6020
 1477SOL    HW116067   2.785   4.279  15.110  0.2484 -0.1835 -0.5492
 1477SOL    HW216068   2.753   4.268  15.246 -0.0414  1.0956  0.2735
 1478SOL     OW16069   0.193   4.542   2.859 -0.3853  0.0418  0.2416
 1478SOL    HW116070   0.178   4.621   2.805  0.2533  0.4698  0.6886
 1478SOL    HW216071   0.157   4.481   2.794 -0.3481  0.6503 -0.3521
 1479SOL     OW16072   2.655   1.907   1.157  0.3181  0.2410  0.5859
 1479SOL    HW116073   2.630   1.814   1.162 -1.6972  0.7151 -0.4794
 1479SOL    HW216074   2.566   1.943   1.159  0.5107  0.8306 -1.2192
 1480SOL     OW16075   0.938   1.721  13.191 -0.1582 -0.2788  0.4305
 1480SOL    HW116076   0.997   1.737  13.118  0.9708 -0.3630  1.3237
 1480SOL    HW216077   0.989   1.676  13.258 -0.6343  1.3103  1.8644
 1481SOL     OW16078   1.383   2.175  14.852  0.4183  0.0277 -0.1074
 1481SOL    HW116079   1.331   2.148  14.928 -0.5368 -1.1254 -1.1618
 1481SOL    HW216080   1.433   2.100  14.821 -1.1294 -1.1440  0.2220
 1482SOL     OW16081   2.767   4.538  16.586  0.7037 -0.1432  0.3471
 1482SOL    HW116082   2.746   4.531  16.493  0.4931 -3.2041  0.6450
 1482SOL    HW216083   2.824   4.615  16.586 -0.1721  0.5047  0.3196
 1483SOL     OW16084   1.230   4.405   5.101  0.0532  0.0187 -0.3809
 1483SOL    HW116085   1.187   4.357   5.172  0.3354 -2.6672 -2.0311
 1483SOL    HW216086   1.197   4.491   5.127  1.4708 -0.1590  2.0457
 1484SOL     OW16087   0.641   3.403   9.230  0.1582  0.0099  0.2739
 1484SOL    HW116088   0.691   3.377   9.308  0.6278 -0.6085 -0.2297
 1484SOL    HW216089   0.605   3.321   9.195 -2.4853  1.2229  0.1156
 1485SOL     OW16090   2.984   2.398   5.856 -0.3159  0.3267 -0.0796
 1485SOL    HW116091   3.031   2.472   5.894 -0.2888  0.7196 -0.8695
 1485SOL    HW216092   3.044   2.368   5.788 -1.6324  0.7102 -1.3958
 1486SOL     OW16093   4.422   3.139   7.269 -0.6150  0.2235  0.0263
 1486SOL    HW116094   4.484   3.211   7.280  1.0987 -1.0319 -1.4663
 1486SOL    HW216095   4.475   3.064   7.295 -0.5464  0.2276 -0.0999
 1487SOL     OW16096   3.900   3.718   4.344  0.1555 -0.1332 -0.0617
 1487SOL    HW116097   3.877   3.695   4.254 -1.5990  1.7322 -0.0798
 1487SOL    HW216098   3.849   3.657   4.398 -0.2531 -0.9964 -1.4121
 1488SOL     OW16099   4.127   0.548  11.598  0.0636  0.2247  0.2155
 1488SOL    HW116100   4.138   0.506  11.683  1.6723 -0.4974 -0.3607
 1488SOL    HW216101   4.047   0.594  11.624 -0.4850 -0.8158  0.4096
 1489SOL     OW16102   0.772   2.439   8.610 -0.2949 -0.1555  0.1066
 1489SOL    HW116103   0.759   2.362   8.665  2.2517 -0.1393  0.7160
 1489SOL    HW216104   0.788   2.397   8.526  0.3439 -2.1185  1.2254
 1490SOL     OW16105   2.884   2.425   8.183  0.0823 -0.0534 -0.0805
 1490SOL    HW116106   2.926   2.349   8.222  0.3051  1.1976  2.1183
 1490SOL    HW216107   2.936   2.495   8.223 -2.2569  2.0876 -0.7573
 1491SOL     OW16108   2.129   1.407   6.595  0.1301  0.0464 -0.4510
 1491SOL    HW116109   2.082   1.453   6.664 -0.3232  1.7914 -1.8933
 1491SOL    HW216110   2.102   1.450   6.513  1.7322 -0.2785 -1.1504
 1492SOL     OW16111   2.431   0.176   6.609 -0.2667 -0.3512  0.7097
 1492SOL    HW116112   2.382   0.150   6.688 -0.8304 -1.4574 -0.0184
 1492SOL    HW216113   2.459   0.259   6.647 -1.7155  0.9117 -0.9519
 1493SOL     OW16114   2.618   4.505   1.913  0.9048 -0.3989 -0.0815
 1493SOL    HW116115   2.708   4.533   1.894 -0.1815  2.3669 -1.1756
 1493SOL    HW216116   2.576   4.556   1.843 -1.9556  0.1025  2.0553
 1494SOL     OW16117   1.985   0.971   3.653  0.2017 -0.8096  0.6862
 1494SOL    HW116118   1.945   1.058   3.650  2.1290  0.1369  2.5224
 1494SOL    HW216119   2.068   1.008   3.684 -0.4637  1.2354  0.0469
 1495SOL     OW16120   3.170   1.992   4.127 -0.0541  0.1868 -0.0922
 1495SOL    HW116121   3.244   1.938   4.155  0.9903  1.8899  0.4476
 1495SOL    HW216122   3.217   2.058   4.075 -2.2142  2.2162  0.5614
 1496SOL     OW16123   3.700   1.261   3.956 -0.1925  0.2002  0.6349
 1496SOL    HW116124   3.787   1.293   3.980  1.2266 -1.6345 -1.9732
 1496SOL    HW216125   3.719   1.176   3.916 -1.2480  0.3737 -0.2295
 1497SOL     OW16126   3.744   4.714  14.283  0.5033  0.1343 -0.6049
 1497SOL    HW116127   3.743   0.055  14.224  1.8356 -0.4961 -1.4117
 1497SOL    HW216128   3.833   4.684  14.267 -0.3754 -3.1356  0.7747
 1498SOL     OW16129   1.975   4.683   7.489 -0.6893 -0.2034  0.0790
 1498SOL    HW116130   2.066   4.675   7.460 -0.5422  0.9546  0.2054
 1498SOL    HW216131   1.931   4.634   7.420  1.5794 -0.9199 -0.8469
 1499SOL     OW16132   0.401   0.430   4.050 -0.1168 -0.3402 -0.5508
 1499SOL    HW116133   0.419   0.336   4.048 -0.9673 -0.5541  1.2675
 1499SOL    HW216134   0.308   0.427   4.072  0.0147 -1.1677 -0.0924
 1500SOL     OW16135   2.255   0.739   1.755  0.2185  0.6064 -0.4432
 1500SOL    HW116136   2.200   0.810   1.723 -1.3490 -0.3040  0.2236
 1500SOL    HW216137   2.239   0.674   1.686 -0.7045 -1.7755  2.0299
 1501SOL     OW16138   4.509   2.863  14.868  0.6674  0.3963  0.4236
 1501SOL    HW116139   4.601   2.885  14.884  1.2188 -0.7500 -1.1882
 1501SOL    HW216140   4.506   2.882  14.774 -3.5885 -2.1509  0.0572
 1502SOL     OW16141   1.038   1.320   4.053 -0.0952  0.3576 -0.6634
 1502SOL    HW116142   1.045   1.415   4.063  0.3499  0.4265 -1.6117
 1502SOL    HW216143   0.950   1.322   4.015 -0.3475  1.4376 -0.0378
 1503SOL     OW16144   4.092   2.665   4.248 -0.1230  0.1008 -0.3164
 1503SOL    HW116145   4.075   2.574   4.272  0.2035  0.6483  1.9328
 1503SOL    HW216146   4.098   2.701   4.336 -0.7485 -0.3490 -0.0894
 1504SOL     OW16147   1.366   3.182   2.428 -0.1102  0.0908 -0.0844
 1504SOL    HW116148   1.368   3.097   2.384 -0.0328  1.3129 -2.4272
 1504SOL    HW216149   1.412   3.160   2.509  0.4866  1.0279 -0.1796
 1505SOL     OW16150   0.557   2.837   6.438  0.1503  0.5208  0.1835
 1505SOL    HW116151   0.561   2.816   6.531  5.1490 -0.7955 -0.3161
 1505SOL    HW216152   0.649   2.852   6.416  0.7745 -0.9027  1.7744
 1506SOL     OW16153   0.676   1.959  17.418  0.2264  0.3219  0.4381
 1506SOL    HW116154   0.666   1.947  17.512  1.3643 -1.3732  0.3440
 1506SOL    HW216155   0.718   1.877  17.394 -0.5653  0.1315 -0.2910
 1507SOL     OW16156   4.154   3.907   4.731  0.6726 -0.0683  0.1710
 1507SOL    HW116157   4.159   3.813   4.712  0.9840 -0.3363  1.5611
 1507SOL    HW216158   4.190   3.946   4.652  0.0862  1.8443  0.8459
 1508SOL     OW16159   2.585   0.417   3.215 -0.1139  0.0686  0.2876
 1508SOL    HW116160   2.651   0.395   3.149 -0.6071  2.7645 -1.0811
 1508SOL    HW216161   2.502   0.405   3.170  0.0721  0.3863 -0.1447
 1509SOL     OW16162   1.261   1.900   1.913 -0.5374  0.3967  0.0261
 1509SOL    HW116163   1.254   1.956   1.836 -1.2363 -0.5808 -0.6100
 1509SOL    HW216164   1.168   1.911   1.932 -0.5632  0.9315 -0.3924
 1510SOL     OW16165   4.460   3.130   5.693  0.0837 -0.5173 -0.3705
 1510SOL    HW116166   4.544   3.156   5.731 -1.7043  1.2161  2.3824
 1510SOL    HW216167   4.395   3.175   5.747 -0.5713  2.9299 -4.0324
 1511SOL     OW16168   0.189   3.637   7.403  0.2240 -0.0557  0.0934
 1511SOL    HW116169   0.130   3.687   7.347  2.0361  2.9178  0.8176
 1511SOL    HW216170   0.271   3.617   7.358  2.1373  1.2609  2.9485
 1512SOL     OW16171   0.602   2.932  11.564  0.9415  0.8164 -0.5064
 1512SOL    HW116172   0.522   2.985  11.556  0.3792  0.2510  1.4127
 1512SOL    HW216173   0.607   2.929  11.659 -2.2147 -1.7443 -0.4238
 1513SOL     OW16174   4.706   2.713   7.445 -0.3416  0.1763 -0.1967
 1513SOL    HW116175   4.697   2.636   7.501 -2.7053  1.4349  1.1386
 1513SOL    HW216176   4.675   2.671   7.365 -1.6193  1.7413 -0.5368
 1514SOL     OW16177   1.742   2.893   5.422 -0.2540 -0.1982  0.3297
 1514SOL    HW116178   1.824   2.893   5.372  0.0728  0.8673  0.8727
 1514SOL    HW216179   1.704   2.980   5.410 -3.1321 -1.0195  3.2462
 1515SOL     OW16180   2.219   1.480   8.117 -0.6098 -0.8935  0.3599
 1515SOL    HW116181   2.268   1.448   8.193  1.5582 -4.2880 -2.4849
 1515SOL    HW216182   2.236   1.413   8.052 -1.7482 -1.0641  0.2536
 1516SOL     OW16183   2.501   0.233   4.834 -0.1503 -0.0677  0.1605
 1516SOL    HW116184   2.477   0.314   4.789 -2.2790 -1.1948 -0.7580
 1516SOL    HW216185   2.566   0.252   4.901 -0.3407 -0.3509  0.4266
 1517SOL     OW16186   3.734   0.397   3.302 -0.0938  0.1093 -0.7148
 1517SOL    HW116187   3.808   0.452   3.328  0.3955 -0.2185 -1.4311
 1517SOL    HW216188   3.792   0.348   3.244 -0.2454 -0.2023 -0.5991
 1518SOL     OW16189   1.865   1.895  15.759 -0.2435 -0.2397 -0.6458
 1518SOL    HW116190   1.910   1.842  15.692  0.1078 -0.4804 -0.2179
 1518SOL    HW216191   1.936   1.951  15.789 -0.0249 -0.8167 -0.0996
 1519SOL     OW16192   1.258   0.506  12.475 -0.0459 -0.1215  0.0475
 1519SOL    HW116193   1.234   0.426  12.523 -3.1372  0.6923 -0.1021
 1519SOL    HW216194   1.295   0.459  12.401  0.6604  0.6663 -0.0941
 1520SOL     OW16195   4.403   1.624   7.129 -0.0989 -0.7325 -0.1517
 1520SOL    HW116196   4.334   1.577   7.083 -1.2569  1.4644 -0.6639
 1520SOL    HW216197   4.452   1.559   7.180 -0.9478 -0.8144  0.5611
 1521SOL     OW16198   1.227   4.276   2.940  0.0161  0.0126  0.5082
 1521SOL    HW116199   1.257   4.359   2.904  0.8281 -0.7488 -0.5830
 1521SOL    HW216200   1.193   4.304   3.024 -0.1953  1.8363 -0.1988
 1522SOL     OW16201   2.314   4.337  17.075  0.1250  0.1925  0.0466
 1522SOL    HW116202   2.252   4.379  17.016  1.1864  3.3197  1.1391
 1522SOL    HW216203   2.265   4.268  17.120 -1.9221  0.2744 -2.0493
 1523SOL     OW16204   2.239   0.952  14.005  0.5372 -0.3036  0.2155
 1523SOL    HW116205   2.154   0.911  14.024  1.3796 -1.5367  1.3109
 1523SOL    HW216206   2.283   0.877  13.966  0.6937 -0.5425  0.8492
 1524SOL     OW16207   2.557   2.851   4.817  0.2926 -0.0687 -0.2477
 1524SOL    HW116208   2.513   2.900   4.748 -1.9997 -0.6880  0.7764
 1524SOL    HW216209   2.563   2.764   4.778  2.1776 -1.0838  2.2821
 1525SOL     OW16210   0.606   4.398   4.728  0.4657 -0.0785 -0.2863
 1525SOL    HW116211   0.556   4.353   4.659 -1.3896 -1.0935  1.7064
 1525SOL    HW216212   0.545   4.468   4.753 -0.5238 -0.4826 -1.5376
 1526SOL     OW16213   2.406   0.538  11.162 -0.6448  0.4765  0.0372
 1526SOL    HW116214   2.357   0.466  11.122  2.5630 -0.2112 -2.6157
 1526SOL    HW216215   2.343   0.557  11.231  0.6030  0.8203  1.0688
 1527SOL     OW16216   2.284   2.658   4.354  0.0001 -0.3586  0.2029
 1527SOL    HW116217   2.215   2.595   4.333  3.5170 -3.2615 -2.6475
 1527SOL    HW216218   2.309   2.675   4.263 -0.6325  0.2672  0.1509
 1528SOL     OW16219   4.646   1.186   4.205  0.2659  0.6391 -0.2652
 1528SOL    HW116220   4.645   1.254   4.137 -1.5441  0.9317  0.0372
 1528SOL    HW216221   4.698   1.121   4.158 -0.2083 -0.0199  0.1263
 1529SOL     OW16222   3.019   1.336   4.071  0.0767  0.9032  0.7528
 1529SOL    HW116223   3.113   1.325   4.089 -0.2050  1.4682  2.5613
 1529SOL    HW216224   2.975   1.265   4.119 -0.5978  0.6518 -0.2541
 1530SOL     OW16225   2.706   0.248   4.992  0.5180 -0.7966 -0.4652
 1530SOL    HW116226   2.774   0.221   4.930  0.2581 -0.9607 -0.6745
 1530SOL    HW216227   2.747   0.253   5.079 -1.9368 -1.6042  0.7329
 1531SOL     OW16228   3.165   2.450   6.329 -0.4113  0.3321 -0.0834
 1531SOL    HW116229   3.168   2.463   6.424 -0.6221 -0.9367  0.1040
 1531SOL    HW216230   3.214   2.528   6.303  1.1776 -0.7222 -0.2899
 1532SOL     OW16231   1.583   2.080  10.030  0.1554  0.3353 -0.2851
 1532SOL    HW116232   1.540   2.085  10.116 -0.5455  1.7998 -0.7252
 1532SOL    HW216233   1.585   1.985  10.018 -0.9277  0.4808 -1.5059
 1533SOL     OW16234   1.816   2.793   5.681 -0.0406  0.6117  0.0966
 1533SOL    HW116235   1.765   2.797   5.762 -1.6241 -0.9855 -0.8092
 1533SOL    HW216236   1.767   2.836   5.611  0.1422  1.7807  0.6879
 1534SOL     OW16237   0.435   1.342   4.452 -0.3492 -0.6828  0.1106
 1534SOL    HW116238   0.347   1.307   4.438 -0.8824  0.5463  0.3965
 1534SOL    HW216239   0.463   1.285   4.525  0.5879  1.7847  1.6599
 1535SOL     OW16240   1.213   3.437   5.131 -0.5719  0.0052 -0.0097
 1535SOL    HW116241   1.174   3.352   5.149  0.0495 -0.2357  0.1778
 1535SOL    HW216242   1.170   3.459   5.048  1.5149  1.5658 -0.6689
 1536SOL     OW16243   0.677   4.336   3.534 -0.0292 -0.7891  0.2396
 1536SOL    HW116244   0.728   4.289   3.468  0.7118  1.2295 -0.6048
 1536SOL    HW216245   0.720   4.421   3.537  2.2519 -1.9612  1.3856
 1537SOL     OW16246   1.664   2.354  16.736  0.8652  0.0661  0.7148
 1537SOL    HW116247   1.615   2.400  16.803 -0.6001 -1.7248  0.8764
 1537SOL    HW216248   1.745   2.323  16.778  0.7651 -1.7794 -0.4182
 1538SOL     OW16249   2.497   3.871  11.323  0.5474  0.1804 -0.2789
 1538SOL    HW116250   2.443   3.793  11.311  1.2598 -0.1424 -1.4017
 1538SOL    HW216251   2.433   3.941  11.314  0.7907  0.2714 -1.2575
 1539SOL     OW16252   4.521   3.057   2.916  0.0522 -0.0431  0.0200
 1539SOL    HW116253   4.511   2.975   2.964  3.2366 -0.7010 -0.4229
 1539SOL    HW216254   4.462   3.032   2.845 -1.6971  2.5978  0.5681
 1540SOL     OW16255   2.267   4.243  16.055  0.3049  0.8307  0.4116
 1540SOL    HW116256   2.229   4.236  15.967 -0.7079 -0.6396  0.9747
 1540SOL    HW216257   2.240   4.163  16.101 -0.1792 -0.0163 -1.3402
 1541SOL     OW16258   0.423   0.447   2.430 -0.4572 -0.3250 -0.2757
 1541SOL    HW116259   0.347   0.471   2.376 -0.5995 -1.9035 -0.7607
 1541SOL    HW216260   0.484   0.445   2.357  1.0105 -0.3099  0.9627
 1542SOL     OW16261   2.598   0.436   2.831  1.0196 -0.2569 -0.3600
 1542SOL    HW116262   2.667   0.478   2.779  0.1932  1.0936 -0.3772
 1542SOL    HW216263   2.656   0.379   2.881  0.3655 -1.1360 -0.6191
 1543SOL     OW16264   0.057   4.299   4.660 -0.1528 -0.1346 -0.5351
 1543SOL    HW116265   0.143   4.279   4.625  0.0309  0.6442 -0.5357
 1543SOL    HW216266   0.068   4.302   4.755 -2.2915 -0.7999 -0.2704
 1544SOL     OW16267   4.615   0.864   9.983 -0.7155 -0.0999 -0.1221
 1544SOL    HW116268   4.703   0.830   9.968 -0.7052 -0.0887 -0.0870
 1544SOL    HW216269   4.578   0.815  10.057 -0.1831 -0.4282 -0.0771
 1545SOL     OW16270   2.364   3.834   7.018 -0.3893 -0.4827  1.1447
 1545SOL    HW116271   2.389   3.781   6.942 -1.0426  1.1895 -0.2344
 1545SOL    HW216272   2.451   3.831   7.058 -0.2035 -0.8021  0.7100
 1546SOL     OW16273   1.557   4.273  13.356 -0.6964 -0.5441 -0.7439
 1546SOL    HW116274   1.513   4.223  13.287 -1.6653  2.2572 -2.1683
 1546SOL    HW216275   1.549   4.363  13.323  0.8689 -0.2775 -0.3963
 1547SOL     OW16276   0.061   0.972   3.657  0.1318 -0.1002  0.4441
 1547SOL    HW116277   0.085   1.000   3.569  0.3498 -1.0922  0.1890
 1547SOL    HW216278   0.032   1.052   3.700  1.1203  1.3871 -1.6433
 1548SOL     OW16279   2.328   1.225  15.053  0.2099  0.5785 -0.0650
 1548SOL    HW116280   2.398   1.188  15.107 -0.6159 -0.3139  0.3990
 1548SOL    HW216281   2.382   1.301  15.028  0.9458  0.1608  0.2404
 1549SOL     OW16282   4.061   2.118   0.821 -0.0279  0.7199  0.2374
 1549SOL    HW116283   4.071   2.024   0.806  0.7833  1.0146 -1.1019
 1549SOL    HW216284   3.982   2.141   0.773  0.5885  2.3291  0.0110
 1550SOL     OW16285   2.483   3.726  13.522 -0.7561 -0.2471  0.6242
 1550SOL    HW116286   2.494   3.753  13.613 -2.0901 -0.9909  1.0204
 1550SOL    HW216287   2.388   3.710  13.520 -0.5935 -1.3000  1.0740
 1551SOL     OW16288   3.265   2.031   7.435  0.3049 -0.0354 -0.3157
 1551SOL    HW116289   3.262   1.938   7.414  1.7610  0.4973 -2.8101
 1551SOL    HW216290   3.172   2.046   7.451  0.8070 -0.3980  3.0626
 1552SOL     OW16291   2.531   2.306   9.372 -0.6073 -0.2586 -0.1202
 1552SOL    HW116292   2.573   2.365   9.309  0.5768  1.0418  1.9135
 1552SOL    HW216293   2.467   2.260   9.317 -0.1261 -1.1964  0.1226
 1553SOL     OW16294   0.722   1.468   3.317 -0.0459  0.4555  0.5071
 1553SOL    HW116295   0.792   1.496   3.376 -2.1519  0.8936  2.7906
 1553SOL    HW216296   0.680   1.397   3.365  1.0504 -2.2944 -2.5768
 1554SOL     OW16297   2.212   1.902  15.670 -0.3071  0.0881 -0.1197
 1554SOL    HW116298   2.174   1.957  15.739 -0.3287  2.5919 -2.1727
 1554SOL    HW216299   2.145   1.836  15.654  1.4637 -1.7266 -0.1293
 1555SOL     OW16300   0.611   4.530  15.320 -0.3230  0.5090 -0.1538
 1555SOL    HW116301   0.674   4.570  15.381 -0.2328  1.8121 -1.1115
 1555SOL    HW216302   0.678   4.503  15.257 -1.1644 -1.1690 -0.3096
 1556SOL     OW16303   4.172   0.941   6.964  0.2402 -0.4268 -0.1143
 1556SOL    HW116304   4.084   0.960   6.996  0.9850  3.8869 -0.6234
 1556SOL    HW216305   4.197   0.858   7.006 -1.4418 -1.5488 -1.3206
 1557SOL     OW16306   3.367   2.465  14.915 -0.4571  0.1154 -0.3088
 1557SOL    HW116307   3.416   2.542  14.885  1.8483 -1.5180 -0.6915
 1557SOL    HW216308   3.430   2.425  14.974 -2.0166 -3.8296 -1.2927
 1558SOL     OW16309   0.356   0.858   7.261  0.0812  0.0242  0.2115
 1558SOL    HW116310   0.308   0.784   7.225  2.0184 -1.4016  0.5167
 1558SOL    HW216311   0.391   0.902   7.184 -1.3626  2.0715  0.7595
 1559SOL     OW16312   3.442   2.744   5.913 -0.8077 -0.1307 -0.3572
 1559SOL    HW116313   3.413   2.674   5.855 -0.9529 -1.3859  1.2468
 1559SOL    HW216314   3.371   2.806   5.902 -0.1221  1.1694  2.4762
 1560SOL     OW16315   1.712   0.612   0.441 -0.6290 -0.3732 -0.0679
 1560SOL    HW116316   1.757   0.692   0.467 -1.5525 -0.4871  1.8483
 1560SOL    HW216317   1.741   0.595   0.351  0.5579  2.5524 -0.2369
 1561SOL     OW16318   2.610   0.094   2.656  0.5691  0.1476  0.0678
 1561SOL    HW116319   2.545   0.031   2.686  1.6082 -0.7286  0.4357
 1561SOL    HW216320   2.624   0.074   2.563 -1.2059  0.1932 -0.2043
 1562SOL     OW16321   0.240   4.323   4.937 -0.2037  0.1564 -0.2194
 1562SOL    HW116322   0.174   4.374   4.984  0.0287  0.4578 -0.2237
 1562SOL    HW216323   0.247   4.245   4.991 -1.4993  0.0372 -0.2205
 1563SOL     OW16324   1.485   3.512   9.747  0.7896 -0.2469  0.0680
 1563SOL    HW116325   1.524   3.599   9.758  2.3395 -1.0124  0.6274
 1563SOL    HW216326   1.435   3.526   9.666  0.0225 -1.2458  0.3610
 1564SOL     OW16327   0.090   2.617  14.154 -0.5246  0.3308  0.1273
 1564SOL    HW116328   0.129   2.550  14.211  0.6747 -0.3508 -1.5089
 1564SOL    HW216329   0.157   2.685  14.154  0.7292 -0.8949  0.7615
 1565SOL     OW16330   0.413   1.860   8.525 -0.0676  0.1044 -0.1252
 1565SOL    HW116331   0.359   1.793   8.483 -0.3615  0.6501 -0.6296
 1565SOL    HW216332   0.484   1.802   8.550 -0.4559  0.1928  1.2118
 1566SOL     OW16333   4.670   3.820  17.258  0.2062 -0.3453  0.1314
 1566SOL    HW116334   4.670   3.732  17.221  1.1954  1.1260 -3.3206
 1566SOL    HW216335   4.616   3.862  17.191  0.4462  1.3469  0.9956
 1567SOL     OW16336   3.911   4.645   5.825  0.2502  0.4375 -0.3625
 1567SOL    HW116337   3.983   4.590   5.854  1.7288  2.0460 -0.9554
 1567SOL    HW216338   3.839   4.605   5.873  0.2591  1.8831  0.8614
 1568SOL     OW16339   2.461   3.170  13.295  0.3036  0.0030  0.3374
 1568SOL    HW116340   2.437   3.190  13.205 -0.6612 -3.3705 -0.1335
 1568SOL    HW216341   2.396   3.218  13.347  1.5126  1.1776  0.7806
 1569SOL     OW16342   3.619   2.292   0.097 -0.0945  0.0740 -0.0240
 1569SOL    HW116343   3.639   2.198   0.101 -1.7817 -0.2155  1.6792
 1569SOL    HW216344   3.527   2.297   0.069 -0.2605 -1.5054  0.2238
 1570SOL     OW16345   1.347   1.697  17.531 -0.7329  0.0975 -0.0141
 1570SOL    HW116346   1.387   1.783  17.549  3.3391 -2.0073  1.0348
 1570SOL    HW216347   1.354   1.691  17.436  1.5532  1.6951  0.0434
 1571SOL     OW16348   1.186   0.701  16.149  0.2887  0.1394 -0.5287
 1571SOL    HW116349   1.199   0.792  16.121 -1.9986  0.7557  0.4459
 1571SOL    HW216350   1.201   0.697  16.244 -0.1959  0.6841 -0.4298
 1572SOL     OW16351   0.475   0.471   5.426 -0.0485 -0.4755 -0.4378
 1572SOL    HW116352   0.439   0.550   5.467  1.7865  1.0050 -1.6574
 1572SOL    HW216353   0.448   0.406   5.490  2.0140 -3.1260 -2.2922
 1573SOL     OW16354   2.301   3.355   8.052 -0.2517 -0.5146  0.1746
 1573SOL    HW116355   2.279   3.280   7.997  1.1304 -1.1473  0.4724
 1573SOL    HW216356   2.367   3.305   8.101  0.0657 -2.4295 -2.2062
 1574SOL     OW16357   0.203   2.166   8.147  0.0598 -0.1671 -0.0489
 1574SOL    HW116358   0.192   2.129   8.059  1.9734 -0.8842  0.0013
 1574SOL    HW216359   0.244   2.247   8.116 -2.0820  1.4279  1.3334
 1575SOL     OW16360   2.069   0.238   5.996  0.2099 -0.0491 -0.0018
 1575SOL    HW116361   2.051   0.221   5.904 -1.1035  0.1909  0.2134
 1575SOL    HW216362   2.024   0.168   6.044 -1.7915  0.3020 -1.3725
 1576SOL     OW16363   0.949   0.159  11.495 -0.4549 -0.4432 -0.2614
 1576SOL    HW116364   1.029   0.113  11.469 -0.4705  0.6083 -2.2313
 1576SOL    HW216365   0.983   0.249  11.485 -0.7173 -0.1816  1.2948
 1577SOL     OW16366   2.676   2.119  12.907 -0.3022 -0.1646 -0.2959
 1577SOL    HW116367   2.718   2.102  12.822 -3.4090  2.0138 -2.2576
 1577SOL    HW216368   2.740   2.074  12.963  0.4250 -0.9688 -1.7407
 1578SOL     OW16369   2.774   4.505   2.162 -0.5882 -0.1341  0.1971
 1578SOL    HW116370   2.848   4.456   2.126 -1.7860 -1.0730 -0.9903
 1578SOL    HW216371   2.721   4.522   2.084 -1.1703 -1.3200  0.3424
 1579SOL     OW16372   4.275   2.208   3.669 -0.6639  0.1386 -0.7264
 1579SOL    HW116373   4.320   2.125   3.655  0.5675  0.5191  1.1069
 1579SOL    HW216374   4.346   2.258   3.707 -1.3722 -0.3998  1.3042
 1580SOL     OW16375   4.304   0.520  15.709 -0.2715 -0.1268  0.3890
 1580SOL    HW116376   4.231   0.482  15.661  2.5818 -5.0215 -0.0488
 1580SOL    HW216377   4.259   0.601  15.735 -0.0729  0.5362 -1.3634
 1581SOL     OW16378   0.253   3.475   6.702 -0.3705 -0.0223 -0.1312
 1581SOL    HW116379   0.177   3.531   6.717  0.2615  0.2197  2.1803
 1581SOL    HW216380   0.232   3.394   6.749 -1.2232  1.8237  2.7194
 1582SOL     OW16381   4.470   1.838   7.554  0.0967  0.1053 -0.0857
 1582SOL    HW116382   4.541   1.775   7.542 -0.5324 -0.8558  1.2064
 1582SOL    HW216383   4.449   1.859   7.463  1.3978  0.4093 -0.3130
 1583SOL     OW16384   3.293   4.111  14.942  0.6347 -0.3390 -0.6854
 1583SOL    HW116385   3.257   4.101  14.854  0.3108  0.4543 -0.6521
 1583SOL    HW216386   3.281   4.019  14.963 -2.1472  0.1040 -0.3531
 1584SOL     OW16387   2.766   3.980   8.809  0.0161 -0.2194 -0.0755
 1584SOL    HW116388   2.735   4.003   8.721  2.0820  1.2201 -0.4119
 1584SOL    HW216389   2.745   4.055   8.864  1.0553  1.2397 -1.6620
 1585SOL     OW16390   2.689   3.623  11.701 -0.3875  0.1991 -0.9068
 1585SOL    HW116391   2.754   3.583  11.759 -1.7578  1.1300  1.2686
 1585SOL    HW216392   2.614   3.643  11.757  0.2573  0.5750 -0.1748
 1586SOL     OW16393   3.795   4.729   8.936  0.1665  0.0083 -0.0296
 1586SOL    HW116394   3.705   4.732   8.968 -0.3193 -1.4371 -1.2652
 1586SOL    HW216395   3.842   0.012   9.017 -2.0987  1.0362  1.0461
 1587SOL     OW16396   3.556   0.032  17.635  0.5155  0.2706 -0.4951
 1587SOL    HW116397   3.638   0.046  17.587  1.6024  0.5591  1.4652
 1587SOL    HW216398   3.501   0.012  17.559 -1.3309  0.8765  0.6864
 1588SOL     OW16399   0.121   4.339  11.522  0.1497 -0.4036 -0.3339
 1588SOL    HW116400   0.148   4.248  11.537 -1.5857 -0.7562  0.6784
 1588SOL    HW216401   0.198   4.378  11.563  2.1322 -0.0941 -4.4012
 1589SOL     OW16402   0.178   0.484   8.151 -0.3210 -0.2724 -0.8598
 1589SOL    HW116403   0.262   0.521   8.177  0.2775 -2.1021 -0.2262
 1589SOL    HW216404   0.140   0.553   8.097 -1.3703  0.6206  1.0324
 1590SOL     OW16405   3.882   0.624   2.766  0.5662  0.0607  0.0546
 1590SOL    HW116406   3.959   0.678   2.752  2.2690 -1.9356  1.7490
 1590SOL    HW216407   3.809   0.672   2.727  0.7270  1.6659  1.7463
 1591SOL     OW16408   3.274   1.132   7.064 -0.2817  0.5093  0.3192
 1591SOL    HW116409   3.192   1.094   7.031 -0.4544 -0.8884  2.3730
 1591SOL    HW216410   3.333   1.067   7.025 -0.1896 -0.4072  1.9897
 1592SOL     OW16411   3.567   0.313   2.577 -0.6887  0.2583  0.4770
 1592SOL    HW116412   3.521   0.249   2.632  0.2592  0.1106  1.0990
 1592SOL    HW216413   3.518   0.391   2.599 -0.9586 -0.4306  2.3681
 1593SOL     OW16414   1.562   2.041  13.943  0.0636 -0.4090 -0.3307
 1593SOL    HW116415   1.514   1.977  13.996  0.4250  0.6400  1.2682
 1593SOL    HW216416   1.579   2.115  14.002 -1.6093  0.3439 -0.8080
 1594SOL     OW16417   3.998   2.407   8.599 -0.3108 -0.6324 -0.5390
 1594SOL    HW116418   4.007   2.477   8.664  2.0949 -1.0770 -0.4192
 1594SOL    HW216419   3.968   2.452   8.520 -0.5871 -2.0517 -1.2329
 1595SOL     OW16420   0.283   1.856   2.926  0.4115  0.1737 -0.4492
 1595SOL    HW116421   0.307   1.894   2.841 -0.5535 -1.1034 -1.2956
 1595SOL    HW216422   0.237   1.777   2.896 -0.0429 -0.0799  0.9033
 1596SOL     OW16423   1.846   1.161   6.891 -0.3135  0.0371  0.0401
 1596SOL    HW116424   1.853   1.248   6.932  2.5403 -0.1825 -0.0150
 1596SOL    HW216425   1.916   1.116   6.938 -0.6530 -1.4034 -0.8439
 1597SOL     OW16426   1.436   0.959   6.570 -0.3367  0.1681  0.1471
 1597SOL    HW116427   1.517   0.925   6.609 -0.4260 -0.9735 -0.6534
 1597SOL    HW216428   1.435   0.912   6.487  0.0027  1.9976 -0.8761
 1598SOL     OW16429   2.843   4.483  13.644  0.3247  0.3553  0.2392
 1598SOL    HW116430   2.864   4.430  13.721 -2.4922 -0.4915  0.3922
 1598SOL    HW216431   2.781   4.551  13.669  0.5894  0.4953  0.5197
 1599SOL     OW16432   2.043   1.548  14.511 -0.2825 -0.7299 -0.0463
 1599SOL    HW116433   2.058   1.477  14.449 -1.0787  0.0013 -1.0719
 1599SOL    HW216434   2.127   1.545  14.558 -0.8879  1.4643  1.1838
 1600SOL     OW16435   1.311   2.232  16.395 -0.3119  0.1482  0.2731
 1600SOL    HW116436   1.310   2.320  16.431 -3.2878 -0.1566  0.9624
 1600SOL    HW216437   1.218   2.210  16.398  0.3034 -2.3651  0.7504
 1601SOL     OW16438   1.223   3.929   7.431  0.1633 -0.6401  0.3540
 1601SOL    HW116439   1.177   4.012   7.446 -1.4982 -0.9714 -2.9910
 1601SOL    HW216440   1.260   3.921   7.519 -2.0174 -1.8392  1.1779
 1602SOL     OW16441   2.276   0.687   8.626 -0.0896 -0.4286 -0.1670
 1602SOL    HW116442   2.353   0.650   8.583 -0.1170  1.2209 -1.6024
 1602SOL    HW216443   2.292   0.661   8.717 -1.1796  2.0481  0.7410
 1603SOL     OW16444   0.539   4.419   6.935  0.4368  0.2019  0.3629
 1603SOL    HW116445   0.563   4.332   6.905 -0.5179  0.6030 -1.6091
 1603SOL    HW216446   0.589   4.435   7.015  2.5424 -0.0648 -0.9208
 1604SOL     OW16447   2.799   4.425   6.151 -0.4510  0.1693  0.1860
 1604SOL    HW116448   2.719   4.412   6.202 -1.1045  2.2954 -0.2818
 1604SOL    HW216449   2.812   4.520   6.147  1.9742 -0.2168 -1.2396
 1605SOL     OW16450   1.193   1.727  16.263 -0.1521  0.2684  0.1537
 1605SOL    HW116451   1.131   1.686  16.323 -1.9269  0.9902 -1.1900
 1605SOL    HW216452   1.230   1.648  16.224  2.1996  1.2683  0.3108
 1606SOL     OW16453   4.302   2.572  13.962 -0.6137 -0.0110  0.0324
 1606SOL    HW116454   4.395   2.548  13.968 -0.1528  1.9866  0.8258
 1606SOL    HW216455   4.287   2.550  13.870 -0.6739 -0.5009  0.1612
 1607SOL     OW16456   1.060   3.865   6.801 -0.2348  0.4230  0.2662
 1607SOL    HW116457   1.094   3.775   6.797 -0.6741  0.2685  0.0318
 1607SOL    HW216458   0.999   3.850   6.873  1.7214 -0.4472  1.7331
 1608SOL     OW16459   3.646   3.048  16.966  0.1475  0.4640  0.5252
 1608SOL    HW116460   3.646   2.953  16.964  0.6791  0.4676  0.1955
 1608SOL    HW216461   3.639   3.076  16.875  1.6076 -0.2488  0.1903
 1609SOL     OW16462   2.235   4.676   1.749  0.2014 -0.4641  0.8905
 1609SOL    HW116463   2.205   0.032   1.746  1.0447 -0.2790 -2.0215
 1609SOL    HW216464   2.172   4.635   1.809 -0.3217  0.4792  0.9894
 1610SOL     OW16465   0.620   0.167   3.737 -0.5054  0.1039  0.2315
 1610SOL    HW116466   0.527   0.186   3.725 -0.2667  0.7268 -0.6456
 1610SOL    HW216467   0.649   0.158   3.646  0.0758  1.8299  0.2364
 1611SOL     OW16468   1.018   2.152   8.372 -0.3855 -0.4723 -0.4717
 1611SOL    HW116469   1.043   2.065   8.404 -0.1452 -0.6132 -1.0369
 1611SOL    HW216470   1.067   2.146   8.290 -0.5502  1.3128 -0.7031
 1612SOL     OW16471   0.094   1.885  16.736 -0.8849 -0.2553  0.2019
 1612SOL    HW116472   0.121   1.906  16.825 -0.9273  0.9913 -0.0834
 1612SOL    HW216473   0.177   1.904  16.691 -0.9053  0.7496  0.5995
 1613SOL     OW16474   4.000   0.583  16.398 -0.0238 -0.3741 -0.5273
 1613SOL    HW116475   4.082   0.570  16.350  1.0000  0.9424  0.8603
 1613SOL    HW216476   4.029   0.556  16.485 -0.1800 -0.2546 -0.4388
 1614SOL     OW16477   1.535   4.529  13.558 -0.1041 -0.1369  0.6051
 1614SOL    HW116478   1.560   4.586  13.630  0.1959  1.7681 -1.0269
 1614SOL    HW216479   1.534   4.594  13.488 -2.4225 -2.0353 -1.1312
 1615SOL     OW16480   1.991   2.682  14.969  0.1600  0.3347  0.2039
 1615SOL    HW116481   2.076   2.674  14.926  0.3571 -0.2570  0.7140
 1615SOL    HW216482   1.940   2.676  14.888 -0.4761 -4.8530  0.9929
 1616SOL     OW16483   3.769   4.341  16.696  0.1710 -0.2601 -0.5477
 1616SOL    HW116484   3.841   4.297  16.652  0.6040 -0.7066  0.6081
 1616SOL    HW216485   3.796   4.331  16.787 -0.6518  1.3523 -0.1163
 1617SOL     OW16486   3.067   3.135   5.366 -0.6099  0.2439 -0.1417
 1617SOL    HW116487   2.990   3.147   5.422 -0.7124 -2.4798  0.2660
 1617SOL    HW216488   3.072   3.040   5.358  2.1052  0.4682 -1.1419
 1618SOL     OW16489   1.553   0.252   6.405 -0.3308 -0.5950 -0.3294
 1618SOL    HW116490   1.611   0.282   6.335 -0.9668 -0.6463 -0.8716
 1618SOL    HW216491   1.529   0.165   6.374 -1.6374 -0.9365  1.6087
 1619SOL     OW16492   3.891   1.443   6.623  0.2470 -0.5905 -0.4170
 1619SOL    HW116493   3.904   1.476   6.712 -0.7038  2.3680 -1.3613
 1619SOL    HW216494   3.845   1.362   6.645 -0.6008  0.2983  1.1307
 1620SOL     OW16495   3.866   4.702   0.346  0.1392 -0.9696  0.1845
 1620SOL    HW116496   3.933   4.710   0.278 -1.3897  1.8994 -0.9896
 1620SOL    HW216497   3.895   4.623   0.393  0.2072  0.4303  2.5274
 1621SOL     OW16498   4.494   3.146   1.671 -0.1673 -0.1507  0.1378
 1621SOL    HW116499   4.430   3.098   1.617 -1.7896  0.9556  1.0598
 1621SOL    HW216500   4.543   3.078   1.716  0.1436 -0.4053 -0.5840
 1622SOL     OW16501   4.181   0.103   7.924 -0.5651  0.2931  0.3201
 1622SOL    HW116502   4.259   0.048   7.918  0.5629  2.1014 -1.5597
 1622SOL    HW216503   4.135   0.067   7.848  0.6859 -0.6386  0.0164
 1623SOL     OW16504   1.939   1.719  11.688  0.2023  0.2324  0.0644
 1623SOL    HW116505   1.944   1.720  11.784  2.1665  0.7081 -0.0447
 1623SOL    HW216506   1.981   1.634  11.672  0.3093  0.1781  0.6282
 1624SOL     OW16507   2.561   1.314   7.492 -0.0863 -0.0719  0.4667
 1624SOL    HW116508   2.491   1.343   7.549 -1.0089 -0.5425 -0.4326
 1624SOL    HW216509   2.563   1.221   7.515 -1.0813 -0.3326 -0.4976
 1625SOL     OW16510   0.989   4.008  13.190  0.1377  0.0132 -0.7013
 1625SOL    HW116511   1.069   3.956  13.183  0.7607  0.9043 -0.1843
 1625SOL    HW216512   1.031   4.089  13.160  0.2908 -0.3810 -1.5676
 1626SOL     OW16513   2.634   2.631  15.434 -0.0819  0.2310  0.3000
 1626SOL    HW116514   2.647   2.709  15.380  2.6828 -0.2098  0.3253
 1626SOL    HW216515   2.612   2.570  15.364 -3.8683  1.7450  0.1643
 1627SOL     OW16516   2.333   4.354   1.390 -0.8760  0.3073  0.3290
 1627SOL    HW116517   2.416   4.347   1.437 -0.5098 -0.4672 -0.4306
 1627SOL    HW216518   2.339   4.275   1.336  3.1355  1.5069 -1.0221
 1628SOL     OW16519   3.256   3.305   7.670 -0.1116  0.1379  0.0086
 1628SOL    HW116520   3.291   3.216   7.667  1.0501  0.5250  1.9907
 1628SOL    HW216521   3.178   3.291   7.616 -0.0609  2.6552 -0.7181
 1629SOL     OW16522   2.150   2.444   4.672 -0.0791  0.2992 -0.1626
 1629SOL    HW116523   2.215   2.435   4.603 -0.7136  1.4521 -0.9251
 1629SOL    HW216524   2.155   2.528   4.719  0.9030 -1.4129  2.7945
 1630SOL     OW16525   4.517   4.608  13.652  0.5382  0.0879  0.4014
 1630SOL    HW116526   4.526   4.698  13.683  1.2674 -0.1017  0.7320
 1630SOL    HW216527   4.563   4.601  13.569 -0.7530 -0.1849 -0.2880
 1631SOL     OW16528   1.638   2.980   7.414 -0.1697  0.8054 -0.3342
 1631SOL    HW116529   1.595   2.975   7.499 -0.7267 -1.9404 -0.7659
 1631SOL    HW216530   1.663   3.072   7.415  1.1291  0.4368  0.6749
 1632SOL     OW16531   2.335   2.315   4.477 -0.5491  0.5819 -0.3032
 1632SOL    HW116532   2.393   2.377   4.433  0.8670 -1.2443 -1.0454
 1632SOL    HW216533   2.260   2.319   4.418 -1.9347  0.0891  1.4234
 1633SOL     OW16534   2.664   4.367   5.114  0.2939  0.3159  0.3356
 1633SOL    HW116535   2.677   4.427   5.188  0.6164 -1.9528  2.1244
 1633SOL    HW216536   2.743   4.373   5.061 -0.6717  1.9576 -0.9203
 1634SOL     OW16537   2.993   3.300   6.819 -0.3056 -0.5016  0.0957
 1634SOL    HW116538   2.897   3.299   6.811 -0.2231 -1.4892 -0.6542
 1634SOL    HW216539   3.015   3.281   6.728  2.0539  0.7025  0.4113
 1635SOL     OW16540   1.254   4.322   0.129  0.3184  0.4364  0.1233
 1635SOL    HW116541   1.225   4.335   0.219 -0.9893  0.8550 -0.3640
 1635SOL    HW216542   1.320   4.389   0.111 -0.1355  1.6733  3.0165
 1636SOL     OW16543   4.435   3.542   8.012  0.3171 -0.1505  0.0601
 1636SOL    HW116544   4.409   3.536   8.104  1.1191  0.5561  0.3368
 1636SOL    HW216545   4.352   3.517   7.973  1.4637 -0.1205 -2.3621
 1637SOL     OW16546   2.243   2.231   7.151  0.2647  0.5292 -0.2005
 1637SOL    HW116547   2.327   2.272   7.133 -0.8257  2.1079 -1.6344
 1637SOL    HW216548   2.219   2.184   7.072  0.9568  2.2905 -1.4522
 1638SOL     OW16549   4.716   4.614   8.143 -0.3186  0.0502  0.0106
 1638SOL    HW116550   0.057   4.585   8.193  0.0218  0.3025 -0.3546
 1638SOL    HW216551   0.019   4.603   8.055 -0.6032 -0.1083 -0.0911
 1639SOL     OW16552   1.505   3.553   5.652 -0.3654 -0.3661 -0.1475
 1639SOL    HW116553   1.558   3.536   5.729 -0.3866  2.4823  0.4848
 1639SOL    HW216554   1.503   3.649   5.654 -0.1264 -0.3515 -0.6428
 1640SOL     OW16555   2.483   0.947   0.123  0.2223  0.4707  0.5554
 1640SOL    HW116556   2.441   0.872   0.166  0.5591  0.0385  0.1256
 1640SOL    HW216557   2.414   0.987   0.069 -0.9956 -1.5201  0.6421
 1641SOL     OW16558   4.652   2.785  10.584 -0.3467  0.2555  0.0983
 1641SOL    HW116559   4.659   2.713  10.521  0.7829 -1.2677  1.9493
 1641SOL    HW216560   4.558   2.799  10.597 -0.5518  0.1949 -1.2999
 1642SOL     OW16561   1.871   0.174   8.393 -0.0834 -0.0723 -0.5835
 1642SOL    HW116562   1.831   0.166   8.479  0.0474 -0.8242 -0.5897
 1642SOL    HW216563   1.921   0.255   8.404  1.7351 -0.9797 -2.0721
 1643SOL     OW16564   1.408   4.033   0.292  0.0874 -0.7776 -0.2841
 1643SOL    HW116565   1.321   4.006   0.262 -1.5419  1.4161  2.4565
 1643SOL    HW216566   1.404   4.122   0.255 -0.5184 -0.3807  0.7354
 1644SOL     OW16567   4.227   2.343  12.579  0.3488  0.2149 -0.0631
 1644SOL    HW116568   4.188   2.267  12.536 -0.2408  0.9917 -0.8977
 1644SOL    HW216569   4.182   2.418  12.539  2.7336  1.5423 -0.2503
 1645SOL     OW16570   0.732   3.463  14.529 -0.4366  0.0715  0.0335
 1645SOL    HW116571   0.681   3.484  14.608 -1.0729  1.2280 -0.6902
 1645SOL    HW216572   0.659   3.432  14.476 -0.9357 -1.0716  1.3740
 1646SOL     OW16573   1.241   3.748  16.122 -0.2544  0.3275  0.0492
 1646SOL    HW116574   1.174   3.778  16.060 -1.9120 -0.4119  1.4837
 1646SOL    HW216575   1.297   3.824  16.136 -0.8997  0.8677 -0.2752
 1647SOL     OW16576   3.701   4.655   1.724  0.0815  0.0265 -0.1327
 1647SOL    HW116577   3.717   4.693   1.810 -1.6198 -1.0036  0.6382
 1647SOL    HW216578   3.622   4.704   1.701 -0.5023 -1.0612 -0.4569
 1648SOL     OW16579   0.262   2.008   4.009 -0.4135 -0.4524  0.3936
 1648SOL    HW116580   0.246   1.919   4.039  0.0655 -0.7431 -0.2055
 1648SOL    HW216581   0.327   2.026   4.077 -0.2867 -3.0599  0.9500
 1649SOL     OW16582   2.398   3.801   3.325 -0.6994  0.2648  0.3244
 1649SOL    HW116583   2.404   3.839   3.413  0.5565  0.4662  0.1491
 1649SOL    HW216584   2.325   3.840   3.278 -0.2242 -0.1029 -0.7154
 1650SOL     OW16585   3.327   2.662   4.989  0.6328 -0.2215  0.1668
 1650SOL    HW116586   3.326   2.574   5.028  2.1465  0.0026  0.7103
 1650SOL    HW216587   3.238   2.686   5.016  0.8283  3.1703 -2.2419
 1651SOL     OW16588   0.327   3.967   1.803 -0.0951 -0.4202 -0.0756
 1651SOL    HW116589   0.380   3.966   1.723  1.2301  0.0417  0.7985
 1651SOL    HW216590   0.394   4.013   1.853  0.2369 -1.3440  0.3329
 1652SOL     OW16591   2.642   2.370   3.031 -0.6808 -0.2215  0.5603
 1652SOL    HW116592   2.602   2.418   3.103 -1.3224  1.3095 -0.8212
 1652SOL    HW216593   2.724   2.420   3.039 -0.5264  0.2893 -4.4328
 1653SOL     OW16594   1.709   1.402   5.519 -0.1255 -0.2192 -0.3289
 1653SOL    HW116595   1.726   1.412   5.425  1.3089 -0.8713 -0.1330
 1653SOL    HW216596   1.794   1.421   5.560 -0.9517  3.2569 -0.2477
 1654SOL     OW16597   4.373   0.201  17.067 -0.4828 -0.1635  0.4700
 1654SOL    HW116598   4.325   0.136  17.118 -0.9021  0.7327  1.2360
 1654SOL    HW216599   4.356   0.175  16.977  0.3800  1.6487 -0.2141
 1655SOL     OW16600   3.877   1.310  17.391 -0.2210 -0.0287  0.2228
 1655SOL    HW116601   3.851   1.234  17.443  1.2520  0.3305  1.4592
 1655SOL    HW216602   3.971   1.293  17.396  0.0756  0.8348 -2.1259
 1656SOL     OW16603   4.243   2.716   7.899  0.7704 -0.1681 -0.3796
 1656SOL    HW116604   4.270   2.649   7.960  3.1231  0.1321 -1.1013
 1656SOL    HW216605   4.245   2.784   7.966 -1.4852  0.9835 -1.4601
 1657SOL     OW16606   2.941   0.145   8.985 -0.0731 -0.4232  0.6111
 1657SOL    HW116607   3.009   0.078   8.975 -1.0379 -1.4895  1.2419
 1657SOL    HW216608   2.973   0.215   9.042  0.6678  0.5635 -1.0019
 1658SOL     OW16609   2.445   1.005   0.817 -0.1738 -0.1994 -0.4178
 1658SOL    HW116610   2.468   1.095   0.839  1.0315  0.2035 -3.3225
 1658SOL    HW216611   2.353   1.009   0.841 -0.0873  2.0875 -0.4454
 1659SOL     OW16612   1.317   2.752   3.363  0.3548  0.0655 -0.5574
 1659SOL    HW116613   1.376   2.677   3.373  0.8249  0.5482  0.3728
 1659SOL    HW216614   1.227   2.719   3.363  0.7411 -0.9687 -2.7920
 1660SOL     OW16615   4.469   3.723   4.874  0.3170 -0.0102  0.2092
 1660SOL    HW116616   4.450   3.686   4.788 -1.7414 -0.3836  0.8096
 1660SOL    HW216617   4.457   3.818   4.869 -0.2795 -0.0540  0.7086
 1661SOL     OW16618   2.998   0.404   4.057  0.1202 -0.6758 -0.0212
 1661SOL    HW116619   2.906   0.379   4.045  0.4468 -1.0757 -1.6215
 1661SOL    HW216620   3.040   0.332   4.104  1.9007 -0.5735 -1.4567
 1662SOL     OW16621   2.820   1.826   6.556  0.6441  0.4257  0.2849
 1662SOL    HW116622   2.820   1.921   6.562  1.2846  0.3092  2.2116
 1662SOL    HW216623   2.771   1.808   6.476  0.2035 -0.2755  0.6977
 1663SOL     OW16624   3.071   1.076   1.169  0.1590  0.0006 -0.0067
 1663SOL    HW116625   3.135   1.147   1.168  0.3708 -0.2098 -1.7396
 1663SOL    HW216626   3.133   1.003   1.165 -1.5737 -1.4086 -1.6368
 1664SOL     OW16627   2.565   0.180   0.801  0.4735  0.2727 -0.3515
 1664SOL    HW116628   2.623   0.156   0.874  1.3353  2.5013 -0.3032
 1664SOL    HW216629   2.588   0.120   0.730 -0.9547  1.2213 -1.6145
 1665SOL     OW16630   0.715   2.455   0.230  0.2782  0.1165 -0.1868
 1665SOL    HW116631   0.694   2.362   0.239  0.3364  0.1042 -0.1796
 1665SOL    HW216632   0.638   2.489   0.184  0.3205 -2.0912 -1.8849
 1666SOL     OW16633   3.287   4.691   5.395  0.1460 -0.0293  0.1795
 1666SOL    HW116634   3.291   4.595   5.396 -2.2432 -0.1088  1.9158
 1666SOL    HW216635   3.377   4.716   5.376 -0.3470  1.1728 -0.6312
 1667SOL     OW16636   1.588   3.730   1.677  0.0936 -0.1302  0.4509
 1667SOL    HW116637   1.662   3.707   1.733  0.8921  2.4884  0.4268
 1667SOL    HW216638   1.636   3.763   1.601 -3.5079  3.6418 -0.1703
 1668SOL     OW16639   3.390   2.911  10.565  0.0136 -0.0949  1.1403
 1668SOL    HW116640   3.455   2.896  10.634 -2.2133 -0.2508  3.1720
 1668SOL    HW216641   3.332   2.841  10.593  1.7867 -2.6178 -1.4151
 1669SOL     OW16642   2.470   4.105   0.302 -0.3941 -0.5601 -0.2552
 1669SOL    HW116643   2.421   4.186   0.320  1.9824  1.0116 -0.8278
 1669SOL    HW216644   2.526   4.122   0.377  1.1630  0.2784 -1.6144
 1670SOL     OW16645   0.653   0.440   6.237  0.1279  0.4108 -0.4619
 1670SOL    HW116646   0.664   0.359   6.188 -2.2468 -1.1022  1.5601
 1670SOL    HW216647   0.601   0.418   6.313 -0.4876 -0.0818 -1.0298
 1671SOL     OW16648   0.858   0.252   9.669 -0.6304  0.0170 -0.2906
 1671SOL    HW116649   0.827   0.284   9.754 -1.2065 -0.5494 -0.2831
 1671SOL    HW216650   0.837   0.159   9.678 -2.1058  0.3949  0.1208
 1672SOL     OW16651   4.479   0.838   8.869 -0.0114 -0.0167  0.2560
 1672SOL    HW116652   4.502   0.779   8.941  2.0280 -0.0291 -0.4130
 1672SOL    HW216653   4.568   0.865   8.848 -0.2078  1.1034  0.8914
 1673SOL     OW16654   1.602   0.108  12.951  0.2022 -0.1169  0.6213
 1673SOL    HW116655   1.633   0.198  12.948  1.3644 -0.5753 -0.8753
 1673SOL    HW216656   1.655   0.067  13.020 -1.8172 -2.3932  0.8199
 1674SOL     OW16657   2.864   1.925   1.771  0.1960  0.2032 -0.5419
 1674SOL    HW116658   2.898   1.945   1.684  0.2203  1.6650 -0.1883
 1674SOL    HW216659   2.876   1.830   1.772  1.0378  0.3261  1.9658
 1675SOL     OW16660   3.405   1.424   5.305  0.2923 -0.1479  0.4195
 1675SOL    HW116661   3.381   1.468   5.223  1.3303  1.6739  1.1049
 1675SOL    HW216662   3.317   1.398   5.333 -0.4547  0.9124 -0.9358
 1676SOL     OW16663   3.452   0.402   8.598 -0.3464  0.0334 -0.4131
 1676SOL    HW116664   3.489   0.388   8.511 -1.1921  0.4998 -0.8442
 1676SOL    HW216665   3.371   0.446   8.573 -1.1515 -0.5909  1.0761
 1677SOL     OW16666   0.046   2.268   8.481  0.3432  0.4838 -0.1856
 1677SOL    HW116667   4.732   2.350   8.469  1.1954  0.9947 -0.1647
 1677SOL    HW216668   4.724   2.204   8.439  1.5162 -1.0927  0.6216
 1678SOL     OW16669   1.855   1.659  15.943  0.3508 -0.5384 -0.0172
 1678SOL    HW116670   1.878   1.744  15.907  2.1148 -1.5025 -1.1778
 1678SOL    HW216671   1.828   1.604  15.869  0.6718 -1.9841  0.9406
 1679SOL     OW16672   1.814   4.640  13.921  0.0741  0.2169 -0.0033
 1679SOL    HW116673   1.742   4.578  13.931  0.9332 -0.6610  0.6979
 1679SOL    HW216674   1.844   4.661  14.010 -0.7287 -0.5528  0.4358
 1680SOL     OW16675   0.449   3.165   8.504 -0.0112 -0.4911  0.0766
 1680SOL    HW116676   0.456   3.206   8.591  0.5192 -1.1946  0.3589
 1680SOL    HW216677   0.486   3.077   8.507  2.9109  0.7528  1.0143
 1681SOL     OW16678   1.726   2.150  11.861  0.2373 -0.3098 -0.1843
 1681SOL    HW116679   1.673   2.105  11.794 -1.8488  0.9792  0.5995
 1681SOL    HW216680   1.742   2.234  11.819 -0.8860  0.5876  1.1759
 1682SOL     OW16681   0.582   3.909   8.165  0.4820  0.0190  0.4071
 1682SOL    HW116682   0.665   3.861   8.169  0.3066 -0.0977  2.7325
 1682SOL    HW216683   0.526   3.861   8.227  0.0152 -0.5439 -0.4536
 1683SOL     OW16684   1.910   4.465   5.242  0.7413 -0.1181 -0.2523
 1683SOL    HW116685   1.825   4.422   5.236 -0.1477  1.5745  0.3295
 1683SOL    HW216686   1.964   4.403   5.191 -0.4636 -1.5459  0.2128
 1684SOL     OW16687   0.166   1.775  10.843  0.1041  0.8221 -0.2324
 1684SOL    HW116688   0.243   1.828  10.862  0.2071  0.0772  1.4633
 1684SOL    HW216689   0.096   1.828  10.805  0.6778  0.8188 -1.2705
 1685SOL     OW16690   1.758   3.156   0.144 -0.3181  0.0824 -1.1958
 1685SOL    HW116691   1.736   3.199   0.227  0.3979  1.1902 -1.5642
 1685SOL    HW216692   1.772   3.066   0.171 -0.5076  0.5294  0.3927
 1686SOL     OW16693   4.076   0.047   8.794  0.0148  0.0886 -0.4999
 1686SOL    HW116694   4.014   0.106   8.836 -0.4006 -0.6034 -0.1392
 1686SOL    HW216695   4.016   0.015   8.726  0.1138  0.4943 -0.7806
 1687SOL     OW16696   2.493   1.797   5.577  0.6017  0.5132 -0.2852
 1687SOL    HW116697   2.570   1.853   5.575  0.1721  1.1942  2.8932
 1687SOL    HW216698   2.449   1.824   5.496  1.2271 -0.1682 -0.8560
 1688SOL     OW16699   1.216   0.248   4.408  0.1884  0.1579 -0.2755
 1688SOL    HW116700   1.188   0.285   4.325 -1.8375 -1.8474 -0.4613
 1688SOL    HW216701   1.193   0.325   4.460 -2.2988 -0.1399 -0.9628
 1689SOL     OW16702   2.877   1.824   4.657  0.1859 -0.1332  0.1127
 1689SOL    HW116703   2.874   1.880   4.734  1.8118  0.5623 -0.3183
 1689SOL    HW216704   2.789   1.818   4.620  0.0374  0.9350  0.2842
 1690SOL     OW16705   1.077   1.030   5.168  0.4230  0.4175 -0.4659
 1690SOL    HW116706   1.132   1.108   5.167  0.5183  0.3373 -1.1614
 1690SOL    HW216707   1.063   1.021   5.074  2.6618 -0.2730 -0.7229
 1691SOL     OW16708   1.935   0.072  13.156  0.3662 -0.0212 -0.2769
 1691SOL    HW116709   1.907   0.145  13.101  2.3604  0.4484 -0.6436
 1691SOL    HW216710   1.863   0.008  13.157  0.4132 -0.0401  1.4892
 1692SOL     OW16711   2.338   2.775   4.584 -0.0269 -0.3820 -0.3916
 1692SOL    HW116712   2.285   2.745   4.658 -0.5135 -0.4053 -0.7544
 1692SOL    HW216713   2.297   2.741   4.505 -4.2171 -0.1528  1.6659
 1693SOL     OW16714   1.173   1.462   7.903  0.2300  0.0417 -0.2122
 1693SOL    HW116715   1.241   1.403   7.935  1.3579  1.1442 -0.5926
 1693SOL    HW216716   1.107   1.442   7.970  2.0787 -2.3202  0.8687
 1694SOL     OW16717   1.988   0.148  11.169  0.1848  0.0374  0.3911
 1694SOL    HW116718   2.067   0.178  11.124 -0.7191 -0.5937 -1.6370
 1694SOL    HW216719   1.952   0.094  11.098 -3.4731  1.7932  0.9511
 1695SOL     OW16720   1.450   0.785  12.761 -0.1138  0.4792 -0.7172
 1695SOL    HW116721   1.541   0.806  12.743  0.5918  0.6185  3.0479
 1695SOL    HW216722   1.434   0.854  12.826  3.4342  1.6223 -1.0573
 1696SOL     OW16723   2.147   0.104  12.498  0.1368 -0.0603 -0.2159
 1696SOL    HW116724   2.160   0.122  12.405 -1.5640 -0.9851 -0.6257
 1696SOL    HW216725   2.222   0.154  12.531  0.4593 -1.2220  0.8402
 1697SOL     OW16726   4.329   1.226   6.040  0.3202  0.6257  0.0178
 1697SOL    HW116727   4.281   1.212   6.121  0.7249  2.5755  0.5999
 1697SOL    HW216728   4.256   1.229   5.978 -1.0846  0.9733  1.6871
 1698SOL     OW16729   4.176   3.501   6.808 -0.4855 -0.4191  0.0500
 1698SOL    HW116730   4.222   3.421   6.832 -1.0336 -0.9530 -0.6875
 1698SOL    HW216731   4.244   3.563   6.833  0.5614 -1.8846  0.7842
 1699SOL     OW16732   2.931   0.064   1.710  0.4222 -0.2570 -0.0316
 1699SOL    HW116733   2.992   0.124   1.752 -0.2333 -0.6161  1.4344
 1699SOL    HW216734   2.903   0.118   1.636 -1.2248  0.3913  1.0624
 1700SOL     OW16735   1.860   3.375  10.596 -0.6199  0.1342  1.2398
 1700SOL    HW116736   1.783   3.324  10.622 -0.7411 -0.0413  0.5439
 1700SOL    HW216737   1.834   3.461  10.630  0.1578  0.4510  1.0392
 1701SOL     OW16738   1.364   2.014  17.539 -0.2645  0.0444 -0.2105
 1701SOL    HW116739   1.279   1.986  17.506  0.3212 -1.0632 -0.7948
 1701SOL    HW216740   1.355   2.014  17.634 -0.6516  3.4742 -0.2367
 1702SOL     OW16741   1.573   2.557   6.744 -0.4388 -0.0615  0.3648
 1702SOL    HW116742   1.566   2.545   6.839 -1.4995  1.4731  0.4765
 1702SOL    HW216743   1.490   2.525   6.710  0.2760 -1.1163 -0.4087
 1703SOL     OW16744   0.787   2.404   6.494  0.1185 -0.3040 -0.0119
 1703SOL    HW116745   0.712   2.423   6.438 -0.4322  1.4388  1.3028
 1703SOL    HW216746   0.742   2.337   6.546 -0.0638 -2.1993 -2.6561
 1704SOL     OW16747   1.918   0.781   6.306 -0.2617  0.7736 -0.2350
 1704SOL    HW116748   1.888   0.764   6.395 -2.2219 -1.5293 -1.3258
 1704SOL    HW216749   2.014   0.779   6.310 -0.2427  0.4734 -0.8031
 1705SOL     OW16750   4.386   2.953   7.556 -0.9089 -0.1935 -0.5350
 1705SOL    HW116751   4.441   2.927   7.482 -1.8419 -2.8730 -0.2921
 1705SOL    HW216752   4.309   2.964   7.500 -0.6270  0.1849 -0.8529
 1706SOL     OW16753   0.001   3.702   7.903 -0.0092 -0.0402 -0.8080
 1706SOL    HW116754   0.096   3.696   7.912 -0.0009  0.2814 -0.6842
 1706SOL    HW216755   4.716   3.609   7.890 -2.3093  0.6444 -2.3010
 1707SOL     OW16756   0.094   2.450   4.328 -0.0157 -0.0276  0.0850
 1707SOL    HW116757   0.024   2.456   4.394 -0.7944  0.7763 -0.8099
 1707SOL    HW216758   0.149   2.384   4.370 -1.7971 -0.6700  1.4557
 1708SOL     OW16759   4.231   2.826   4.561 -0.0199  0.3599 -1.1038
 1708SOL    HW116760   4.220   2.869   4.646  0.9938  0.8028 -1.1867
 1708SOL    HW216761   4.156   2.768   4.557 -0.0082  0.3198 -0.7381
 1709SOL     OW16762   1.310   3.690   8.137 -0.3215  0.6145 -0.3214
 1709SOL    HW116763   1.320   3.785   8.129 -1.3299  0.7851  0.3929
 1709SOL    HW216764   1.233   3.678   8.192 -0.7073  1.9813 -0.5586
 1710SOL     OW16765   1.946   3.293   8.624 -0.5152 -0.3190 -0.6478
 1710SOL    HW116766   1.983   3.210   8.594 -0.7550  0.4983 -3.1843
 1710SOL    HW216767   1.957   3.282   8.719  0.9787 -0.2430 -0.8186
 1711SOL     OW16768   1.800   4.352   6.541  0.4571 -0.1575 -0.8114
 1711SOL    HW116769   1.791   4.407   6.464 -0.1348 -1.2673 -1.5383
 1711SOL    HW216770   1.765   4.268   6.510  1.3541 -0.8292 -0.0172
 1712SOL     OW16771   3.558   2.455   9.694 -0.1738 -0.1182 -0.1164
 1712SOL    HW116772   3.595   2.377   9.652 -2.0119 -0.1485 -1.6361
 1712SOL    HW216773   3.614   2.524   9.659  1.0363 -1.9246 -1.7171
 1713SOL     OW16774   1.165   3.852   3.248  0.1219  0.3220 -0.5165
 1713SOL    HW116775   1.107   3.828   3.175 -2.4757  1.1880  1.2385
 1713SOL    HW216776   1.109   3.910   3.300  0.0358 -1.0510  0.9173
 1714SOL     OW16777   3.402   4.728   8.420 -0.4477 -0.0424 -0.8623
 1714SOL    HW116778   3.397   4.638   8.388  3.9351 -1.5064  2.4442
 1714SOL    HW216779   3.489   0.004   8.383  0.5409 -0.7197  1.2434
 1715SOL     OW16780   2.676   1.816   8.202  0.4144  0.2312  0.1342
 1715SOL    HW116781   2.649   1.730   8.235  1.2913  0.1491  0.6464
 1715SOL    HW216782   2.638   1.867   8.274 -1.7654 -0.5025 -0.5037
 1716SOL     OW16783   0.879   3.374  15.848 -0.4735 -0.2267  0.3231
 1716SOL    HW116784   0.797   3.422  15.838  1.2302  2.3105 -1.4157
 1716SOL    HW216785   0.915   3.363  15.760  0.0845 -0.9801  0.6366
 1717SOL     OW16786   0.500   1.093   3.113  0.6873 -0.6111 -0.0658
 1717SOL    HW116787   0.574   1.077   3.172  0.1340  0.8214  1.0309
 1717SOL    HW216788   0.491   1.012   3.063  0.3838  0.2681 -1.4324
 1718SOL     OW16789   0.612   4.684   5.547  0.2264 -0.2781 -0.0488
 1718SOL    HW116790   0.665   0.028   5.533 -0.6218  0.5818  1.5941
 1718SOL    HW216791   0.584   4.709   5.635  2.1655 -2.0181  1.0595
 1719SOL     OW16792   3.857   0.395  10.797  0.3057  1.0913  0.0470
 1719SOL    HW116793   3.931   0.414  10.854  1.0126 -0.3335 -0.3961
 1719SOL    HW216794   3.815   0.481  10.793  1.3316  1.5960  0.2199
 1720SOL     OW16795   0.541   3.251   1.518  0.0342 -0.5504 -0.1266
 1720SOL    HW116796   0.496   3.334   1.531 -0.6957 -0.5263 -2.7214
 1720SOL    HW216797   0.590   3.236   1.599 -0.7130  0.9391  0.5928
 1721SOL     OW16798   3.895   0.934   3.614 -0.6683  0.3782 -0.1155
 1721SOL    HW116799   3.956   1.004   3.595  0.9091 -0.6572  1.1463
 1721SOL    HW216800   3.946   0.853   3.619 -1.3143 -0.0537 -0.4450
 1722SOL     OW16801   0.234   3.253   9.295 -0.0483  0.3984 -0.0548
 1722SOL    HW116802   0.165   3.306   9.254 -0.4202  0.3985  0.5622
 1722SOL    HW216803   0.186   3.179   9.333  0.4958 -0.1453 -0.4422
 1723SOL     OW16804   1.196   1.432   9.241  0.1980 -0.3515  0.0636
 1723SOL    HW116805   1.122   1.387   9.200  0.1934 -0.6427  0.3883
 1723SOL    HW216806   1.266   1.378   9.202 -0.7110 -1.6783  0.2694
 1724SOL     OW16807   2.345   4.450   6.626 -0.0835  0.4355  0.3202
 1724SOL    HW116808   2.295   4.369   6.615  0.7939 -0.1580  0.7265
 1724SOL    HW216809   2.428   4.434   6.580  1.0011  2.6674  1.5299
 1725SOL     OW16810   4.123   0.445   7.766 -0.4154 -0.0439 -0.0141
 1725SOL    HW116811   4.191   0.435   7.832 -1.3399  1.7290  1.2177
 1725SOL    HW216812   4.050   0.496   7.801 -0.6349  0.3706 -1.0638
 1726SOL     OW16813   3.322   0.468   7.264 -0.6435 -0.2220  0.3300
 1726SOL    HW116814   3.355   0.545   7.310 -1.9479  0.8534 -0.5322
 1726SOL    HW216815   3.280   0.416   7.333  0.9180 -0.5027  1.0712
 1727SOL     OW16816   4.016   3.895  16.983 -0.2996 -0.2694  0.5419
 1727SOL    HW116817   3.928   3.931  16.991 -0.5285 -0.8530  0.6619
 1727SOL    HW216818   4.000   3.803  17.005 -1.0295 -0.0346  0.9898
 1728SOL     OW16819   1.720   4.212   8.607  0.3590 -0.3513 -0.5724
 1728SOL    HW116820   1.787   4.218   8.675  0.2816  1.9664 -0.7075
 1728SOL    HW216821   1.663   4.285   8.632  0.5389 -1.1346  2.1304
 1729SOL     OW16822   0.548   1.032   9.857  0.1430  0.1118 -0.9912
 1729SOL    HW116823   0.591   0.961   9.904 -1.4647  0.2456  0.6741
 1729SOL    HW216824   0.501   1.065   9.934  0.3654  0.1868 -0.8884
 1730SOL     OW16825   2.195   4.293   3.053  0.4072  0.4072 -0.5486
 1730SOL    HW116826   2.174   4.308   2.961 -1.2962  0.6519 -0.1157
 1730SOL    HW216827   2.219   4.202   3.037  0.1274  0.1279  0.5938
 1731SOL     OW16828   0.286   2.218   0.274 -0.6427  0.2166 -0.1950
 1731SOL    HW116829   0.203   2.242   0.315  0.1418  2.8899 -0.1872
 1731SOL    HW216830   0.278   2.237   0.181 -2.4224 -1.6672 -0.4077
 1732SOL     OW16831   3.047   4.232   3.691  0.6871  0.2075 -0.4259
 1732SOL    HW116832   3.099   4.248   3.611  0.5494 -1.8365 -0.9216
 1732SOL    HW216833   3.114   4.218   3.758  0.5925  0.0192 -0.3708
 1733SOL     OW16834   1.891   3.029  13.439  0.1580  0.5346  0.0499
 1733SOL    HW116835   1.807   3.074  13.429 -0.8189 -1.0499  1.2094
 1733SOL    HW216836   1.873   2.973  13.514 -2.3405 -0.6607 -1.4219
 1734SOL     OW16837   2.209   0.031   5.448  0.1787 -0.0342  0.5596
 1734SOL    HW116838   2.214   0.110   5.394  0.2068  0.7083  1.6565
 1734SOL    HW216839   2.116   0.033   5.470  0.6314 -0.8012  2.5081
 1735SOL     OW16840   2.562   4.456  17.328  0.1780 -0.1845 -0.3716
 1735SOL    HW116841   2.572   4.549  17.347 -1.0366 -0.2499  0.5503
 1735SOL    HW216842   2.503   4.462  17.253  0.7432  1.5539 -0.6732
 1736SOL     OW16843   1.943   2.744  11.504  0.2146  0.1333  0.3229
 1736SOL    HW116844   2.007   2.784  11.446  0.5742  0.7100  1.1232
 1736SOL    HW216845   1.974   2.653  11.506  0.9238  0.3329 -1.5653
 1737SOL     OW16846   4.723   3.605   3.661  0.1738 -0.0974 -0.2737
 1737SOL    HW116847   0.079   3.619   3.687 -0.1041 -1.0500  1.2120
 1737SOL    HW216848   4.683   3.688   3.686  0.1487  0.0987 -0.9555
 1738SOL     OW16849   2.290   3.324   1.908  0.3899 -0.6052  0.4164
 1738SOL    HW116850   2.225   3.274   1.957  0.4301  0.2726  1.3685
 1738SOL    HW216851   2.338   3.366   1.979 -0.0604 -2.3141  1.7408
 1739SOL     OW16852   1.867   0.319   5.714  0.4620 -0.3378 -0.3195
 1739SOL    HW116853   1.794   0.268   5.676 -0.7087  0.9526  0.1963
 1739SOL    HW216854   1.844   0.323   5.807  1.4857 -1.1194 -0.0360
 1740SOL     OW16855   4.566   2.160  17.557 -0.3803 -0.3117  0.4074
 1740SOL    HW116856   4.598   2.211  17.631  0.6462  0.9568 -0.9009
 1740SOL    HW216857   4.475   2.145  17.584 -1.1987  0.6198 -1.8129
 1741SOL     OW16858   0.146   0.359   3.469 -0.7753  0.1162  0.4003
 1741SOL    HW116859   0.106   0.441   3.444 -2.2986 -0.2445  1.6719
 1741SOL    HW216860   0.081   0.292   3.447 -1.1435  0.9063 -0.8699
 1742SOL     OW16861   3.648   1.825   3.835 -0.3439  0.2560 -0.1224
 1742SOL    HW116862   3.619   1.762   3.900 -3.3011  0.5935 -1.1267
 1742SOL    HW216863   3.679   1.893   3.895  0.4866 -0.3777  0.1573
 1743SOL     OW16864   1.501   1.938   7.359 -0.5767  0.2643 -0.2414
 1743SOL    HW116865   1.417   1.985   7.355 -0.0593  1.3412  1.8131
 1743SOL    HW216866   1.491   1.901   7.446  0.9125  2.2451  0.7680
 1744SOL     OW16867   0.678   2.887   9.039  0.2459  0.3412  0.0275
 1744SOL    HW116868   0.754   2.830   9.054  0.0563  0.4607  1.4701
 1744SOL    HW216869   0.634   2.837   8.972 -1.1619  1.2718  0.2545
 1745SOL     OW16870   1.525   1.682   6.385  0.3286 -0.0559  0.1085
 1745SOL    HW116871   1.528   1.659   6.292 -0.2397 -0.5717  0.2185
 1745SOL    HW216872   1.552   1.774   6.383 -0.7638  0.3195  2.5091
 1746SOL     OW16873   4.384   2.182  16.013 -0.8742 -0.4723 -0.8075
 1746SOL    HW116874   4.414   2.102  15.971 -0.2237 -0.3650 -0.5436
 1746SOL    HW216875   4.373   2.252  15.949  0.4033  1.6869  1.3145
 1747SOL     OW16876   1.752   3.565   6.713 -0.4857 -0.5002 -0.0347
 1747SOL    HW116877   1.768   3.657   6.734  0.8999 -0.4437 -1.3306
 1747SOL    HW216878   1.702   3.540   6.791  0.6380 -0.1344  0.8237
 1748SOL     OW16879   2.662   2.593  10.251  0.2785 -0.2044  0.0136
 1748SOL    HW116880   2.612   2.610  10.171 -2.1561 -1.7225  1.2267
 1748SOL    HW216881   2.733   2.538  10.218 -1.4412 -1.8055 -1.0108
 1749SOL     OW16882   3.040   3.958   3.858  0.0984 -0.6358  0.0355
 1749SOL    HW116883   3.020   4.042   3.901 -0.2609 -1.0289  0.6376
 1749SOL    HW216884   2.965   3.945   3.799  0.6976  1.2857 -1.1768
 1750SOL     OW16885   0.527   0.992   4.421 -0.2712 -0.0290  0.2319
 1750SOL    HW116886   0.467   0.921   4.396 -0.4963  0.0091  0.6776
 1750SOL    HW216887   0.485   1.030   4.498  1.0660  0.7723  0.5553
 1751SOL     OW16888   3.600   2.610   3.667 -0.3920 -0.0550 -0.1369
 1751SOL    HW116889   3.526   2.556   3.694  0.0477 -0.0628  1.0715
 1751SOL    HW216890   3.664   2.555   3.621  1.6216  1.7354  0.5142
 1752SOL     OW16891   0.206   1.492   7.788 -0.4858 -0.4854  0.4789
 1752SOL    HW116892   0.139   1.555   7.762  2.3240  1.2310 -2.6324
 1752SOL    HW216893   0.224   1.445   7.706  1.1796  0.6376  0.1937
 1753SOL     OW16894   3.062   2.751   4.676 -0.3465  0.4485  0.8192
 1753SOL    HW116895   2.983   2.703   4.701 -1.0925  1.3994  0.3014
 1753SOL    HW216896   3.134   2.689   4.688  0.6779  1.5834  0.4667
 1754SOL     OW16897   3.905   3.808   7.321 -0.2891 -0.0776  0.1136
 1754SOL    HW116898   3.857   3.726   7.334  2.1569 -1.7698 -1.3883
 1754SOL    HW216899   3.901   3.806   7.225  0.1088 -1.6207  0.1193
 1755SOL     OW16900   4.446   0.675   7.091 -0.0303  0.1381 -0.0095
 1755SOL    HW116901   4.356   0.698   7.113 -0.1029 -0.0582 -0.1060
 1755SOL    HW216902   4.489   0.651   7.173  0.1101  0.7807  0.1097
 1756SOL     OW16903   2.315   1.101  16.397 -0.1349 -0.6876  1.1456
 1756SOL    HW116904   2.366   1.073  16.320 -0.0152  1.3142  0.5148
 1756SOL    HW216905   2.384   1.150  16.441  0.8453 -1.8874  0.9780
 1757SOL     OW16906   0.294   3.987   5.029 -0.1433  0.0693  0.1651
 1757SOL    HW116907   0.368   4.012   5.084 -0.5409 -2.1760  1.7002
 1757SOL    HW216908   0.329   4.022   4.947  0.3745  0.2845  0.4775
 1758SOL     OW16909   3.432   3.333  10.721  0.1249  0.1371  0.5435
 1758SOL    HW116910   3.481   3.368  10.647  2.6142 -0.8253  1.7233
 1758SOL    HW216911   3.378   3.265  10.681  0.4969 -0.3997  0.9624
 1759SOL     OW16912   3.859   0.204   8.548 -0.0827  0.5419 -0.3811
 1759SOL    HW116913   3.886   0.275   8.607 -1.1317  0.0095  0.7336
 1759SOL    HW216914   3.785   0.167   8.595  0.4552  0.6744  0.5745
 1760SOL     OW16915   4.127   2.972  10.076  0.1558  0.1364 -0.6070
 1760SOL    HW116916   4.134   2.949   9.983 -0.1976 -0.1185 -0.5695
 1760SOL    HW216917   4.218   2.978  10.105  0.5373 -0.9643 -1.5664
 1761SOL     OW16918   2.648   0.964  16.264 -0.0281  0.4492  0.2364
 1761SOL    HW116919   2.729   0.988  16.219  0.3375 -1.0070  0.1327
 1761SOL    HW216920   2.590   0.926  16.198  1.0654  1.2219 -1.1750
 1762SOL     OW16921   0.576   1.350   8.365  0.2222  0.1292 -0.5245
 1762SOL    HW116922   0.523   1.429   8.350 -1.2406 -0.6674  0.4419
 1762SOL    HW216923   0.557   1.325   8.455  0.5270 -1.6364 -0.9603
 1763SOL     OW16924   2.808   2.083  14.667 -0.2339 -0.0451  0.1541
 1763SOL    HW116925   2.852   2.163  14.638 -0.8948 -0.9426 -3.3406
 1763SOL    HW216926   2.787   2.046  14.581  2.1208 -1.0641  0.0104
 1764SOL     OW16927   2.536   3.645   6.519 -0.0676  0.6290 -0.6474
 1764SOL    HW116928   2.609   3.663   6.578 -0.4920  1.2168 -0.3010
 1764SOL    HW216929   2.572   3.571   6.471 -1.2110  1.1589 -2.3410
 1765SOL     OW16930   3.025   2.176  13.168 -0.1306  0.1079  0.1992
 1765SOL    HW116931   3.053   2.094  13.207  2.1882 -0.3185 -2.2785
 1765SOL    HW216932   3.016   2.141  13.079  1.7661  1.7565 -0.6637
 1766SOL     OW16933   1.541   4.633   3.050 -0.3010  0.0266 -0.1261
 1766SOL    HW116934   1.593   4.681   2.985 -0.5365 -1.1839 -1.2042
 1766SOL    HW216935   1.592   4.615   3.129  0.6604  1.5903 -0.3852
 1767SOL     OW16936   1.466   1.204  10.273  0.7539 -0.0484 -0.8219
 1767SOL    HW116937   1.526   1.277  10.257  0.7969 -0.3551 -2.1088
 1767SOL    HW216938   1.405   1.235  10.339 -0.0813 -1.5362 -0.8944
 1768SOL     OW16939   0.552   1.056   9.107  0.0503 -0.0677 -0.0319
 1768SOL    HW116940   0.589   1.022   9.189  1.9638  0.3664 -0.7174
 1768SOL    HW216941   0.629   1.100   9.073  0.6912 -0.8138  0.4475
 1769SOL     OW16942   0.329   3.029   2.082  0.1270 -0.0897 -0.5432
 1769SOL    HW116943   0.401   2.987   2.035  1.3829  1.6682 -0.1603
 1769SOL    HW216944   0.342   2.978   2.162 -1.7545 -1.1880 -0.9352
 1770SOL     OW16945   0.872   4.107   6.604 -0.9387 -0.4264  0.7524
 1770SOL    HW116946   0.963   4.102   6.633 -0.2877 -0.5454 -1.3326
 1770SOL    HW216947   0.847   4.015   6.600  0.0445 -0.5408 -2.4712
 1771SOL     OW16948   0.163   1.037  14.651 -0.0523 -0.1403  0.3786
 1771SOL    HW116949   0.182   1.125  14.618  1.7425 -0.6820 -0.0046
 1771SOL    HW216950   0.110   1.058  14.729 -1.9464 -1.5511 -0.5218
 1772SOL     OW16951   1.614   4.226   9.868 -0.0187  0.0112 -0.5945
 1772SOL    HW116952   1.533   4.237   9.917 -0.2132 -3.1408 -0.1832
 1772SOL    HW216953   1.642   4.139   9.898  1.6048  0.0331 -2.0462
 1773SOL     OW16954   3.800   0.588   1.704  0.4252 -0.1066  0.2552
 1773SOL    HW116955   3.812   0.526   1.776  0.4253  1.0921  1.2868
 1773SOL    HW216956   3.870   0.564   1.643 -0.7038 -1.7931 -0.3435
 1774SOL     OW16957   0.474   3.333   6.601 -0.1323 -0.1372  0.4799
 1774SOL    HW116958   0.420   3.394   6.650 -0.4965  0.0051 -0.1094
 1774SOL    HW216959   0.462   3.252   6.651 -2.4251  0.6351  1.1532
 1775SOL     OW16960   1.104   4.456   5.552 -0.0020 -0.0006  0.2652
 1775SOL    HW116961   1.086   4.550   5.552  0.4401  0.0927 -1.2599
 1775SOL    HW216962   1.182   4.435   5.602 -0.3917 -0.3789  0.7226
 1776SOL     OW16963   0.781   1.109   1.704  0.3263 -0.1650 -0.2869
 1776SOL    HW116964   0.753   1.108   1.796 -4.0080  1.2660 -1.6053
 1776SOL    HW216965   0.703   1.061   1.675  1.2587 -1.8938  0.0387
 1777SOL     OW16966   0.468   1.969  17.258 -0.1021 -0.2083  0.2123
 1777SOL    HW116967   0.427   2.055  17.266 -1.0044 -0.8036  1.9774
 1777SOL    HW216968   0.548   1.974  17.310 -1.5236 -1.3055  2.4864
 1778SOL     OW16969   3.221   4.049   4.073  0.0420  0.6716  0.0849
 1778SOL    HW116970   3.198   3.982   4.008 -1.1822  0.4464  0.7505
 1778SOL    HW216971   3.249   4.113   4.008  0.0077 -1.1265 -1.7102
 1779SOL     OW16972   0.603   0.455   8.156  0.1033 -0.1537 -0.0639
 1779SOL    HW116973   0.623   0.366   8.129 -1.6800 -1.5341  3.2275
 1779SOL    HW216974   0.547   0.442   8.232  1.7725 -0.7976  1.0428
 1780SOL     OW16975   3.133   3.506   9.357  0.2110 -0.1582  0.1704
 1780SOL    HW116976   3.209   3.521   9.413  0.5693 -0.7299 -0.1575
 1780SOL    HW216977   3.086   3.443   9.412  0.1575  0.7788  1.1950
 1781SOL     OW16978   1.912   3.937  16.345 -0.0996  0.2976  0.4734
 1781SOL    HW116979   1.965   4.016  16.357 -0.8507  1.1154 -1.4480
 1781SOL    HW216980   1.965   3.868  16.384  1.1033 -0.0948 -1.8084
 1782SOL     OW16981   0.262   4.464  11.768  0.6484  0.3650 -0.2615
 1782SOL    HW116982   0.338   4.512  11.800 -0.1788  1.4835  0.0481
 1782SOL    HW216983   0.310   4.383  11.751  0.4936  0.2092  0.0418
 1783SOL     OW16984   2.777   2.024   5.223  0.2638 -0.3455 -0.4994
 1783SOL    HW116985   2.869   2.046   5.236 -0.3656  0.9706  1.6688
 1783SOL    HW216986   2.761   1.935   5.254 -1.9524  0.0635 -0.4229
 1784SOL     OW16987   2.979   2.193   1.834  0.6464 -0.3396 -0.3834
 1784SOL    HW116988   3.059   2.144   1.854 -1.2271 -2.6419  1.5230
 1784SOL    HW216989   2.933   2.113   1.808  1.3538 -1.5894  2.2403
 1785SOL     OW16990   0.468   3.845   0.834 -0.1968  0.2773  0.3638
 1785SOL    HW116991   0.494   3.841   0.742 -2.1209 -0.0187 -0.1789
 1785SOL    HW216992   0.551   3.878   0.869  1.0115 -0.2825 -1.9692
 1786SOL     OW16993   1.344   2.225   1.885  0.0697  0.7639  0.1500
 1786SOL    HW116994   1.308   2.177   1.810 -0.6461  0.1854  0.8587
 1786SOL    HW216995   1.356   2.309   1.842  1.2496  0.0997 -0.8248
 1787SOL     OW16996   4.079   0.462  16.643  0.7169  1.0296 -0.3162
 1787SOL    HW116997   4.173   0.454  16.662  0.8917 -0.1175 -1.7120
 1787SOL    HW216998   4.038   0.452  16.729  2.1087  0.2027  0.2532
 1788SOL     OW16999   3.015   0.087  13.049  0.7211 -0.0190 -0.1608
 1788SOL    HW117000   3.069   0.164  13.064  0.3341  0.8981 -3.7301
 1788SOL    HW217001   3.002   0.064  13.142  3.0341  0.8021  0.3421
 1789SOL     OW17002   1.585   1.276   4.677  0.4872  0.0271 -0.2675
 1789SOL    HW117003   1.653   1.235   4.730  0.3508 -0.1796 -0.2514
 1789SOL    HW217004   1.636   1.297   4.599 -0.2654 -0.4088 -0.8678
 1790SOL     OW17005   1.681   3.074   5.728 -0.0223  0.3668 -0.1095
 1790SOL    HW117006   1.659   2.992   5.773 -1.2635  0.0924 -1.2023
 1790SOL    HW217007   1.696   3.134   5.800  0.7155  0.0894 -0.0328
 1791SOL     OW17008   0.763   1.800  11.191 -0.0524 -0.3534 -0.3246
 1791SOL    HW117009   0.735   1.751  11.268  0.0936 -1.7008 -1.1099
 1791SOL    HW217010   0.705   1.764  11.124 -1.6700 -0.2381  1.0192
 1792SOL     OW17011   4.226   1.924   3.547 -0.5688  0.3032 -0.1929
 1792SOL    HW117012   4.314   1.959   3.534 -0.4897 -0.5495 -1.9730
 1792SOL    HW217013   4.186   1.920   3.460 -0.1724  1.4156 -0.4326
 1793SOL     OW17014   2.816   4.033   6.736  0.1130  0.5419  0.1909
 1793SOL    HW117015   2.758   4.036   6.660 -0.1765  2.0035  0.4758
 1793SOL    HW217016   2.839   3.940   6.745  0.0057  0.4804 -0.1837
 1794SOL     OW17017   3.279   3.933  14.654 -0.0844  0.1527  0.3904
 1794SOL    HW117018   3.285   3.861  14.591  2.1487  0.3516  0.3393
 1794SOL    HW217019   3.327   4.005  14.611 -0.0359 -1.3979 -2.1503
 1795SOL     OW17020   3.006   2.073   7.540  0.2314  0.4268 -0.6513
 1795SOL    HW117021   2.984   2.022   7.618 -1.3024 -1.6904 -2.4797
 1795SOL    HW217022   2.982   2.162   7.566  0.0467  0.2585 -0.2294
 1796SOL     OW17023   1.007   0.957  14.988 -0.2135  0.1761 -0.2373
 1796SOL    HW117024   1.095   0.931  15.016  0.0206 -0.6205 -1.6838
 1796SOL    HW217025   0.972   0.987  15.072  0.5322 -0.5321  0.3237
 1797SOL     OW17026   3.285   3.156  10.583  0.4775  0.2393  0.2936
 1797SOL    HW117027   3.321   3.068  10.576 -2.0757 -0.7110 -0.8341
 1797SOL    HW217028   3.194   3.129  10.599 -0.0042  2.3358  1.0860
 1798SOL     OW17029   0.698   1.056   2.746  0.1089 -0.6165 -0.0541
 1798SOL    HW117030   0.720   1.121   2.680 -0.3754  1.6675  2.0200
 1798SOL    HW217031   0.603   1.054   2.742  0.2013 -1.6990 -1.4557
 1799SOL     OW17032   0.434   0.746   2.202  0.2984  0.3447 -0.6667
 1799SOL    HW117033   0.448   0.830   2.158  1.8316  1.1872  1.4155
 1799SOL    HW217034   0.361   0.714   2.150 -0.6582 -0.2752  1.0697
 1800SOL     OW17035   3.318   1.812  16.439  0.6026  0.0316 -0.0107
 1800SOL    HW117036   3.356   1.748  16.499  0.5247  0.6780  0.7228
 1800SOL    HW217037   3.276   1.872  16.501 -1.2825 -1.8968  0.6023
 1801SOL     OW17038   4.691   1.240   3.350 -0.0434  0.2687  0.4703
 1801SOL    HW117039   4.719   1.304   3.285 -3.4176  0.9282 -0.3026
 1801SOL    HW217040   4.678   1.278   3.436 -2.7485  2.9757 -1.1274
 1802SOL     OW17041   3.944   2.682  13.887 -0.0079 -0.5431  0.6298
 1802SOL    HW117042   4.002   2.752  13.857 -2.4058  1.5142  0.7351
 1802SOL    HW217043   3.881   2.668  13.816 -0.2317  0.8631  0.5508
 1803SOL     OW17044   3.877   0.476   1.939 -0.0864 -0.1650 -0.1158
 1803SOL    HW117045   3.947   0.415   1.958 -1.4558 -1.2036  1.6270
 1803SOL    HW217046   3.813   0.458   2.008  1.0289  0.1928  1.0209
 1804SOL     OW17047   2.420   1.639   4.069  0.4335 -1.2865 -0.4200
 1804SOL    HW117048   2.469   1.557   4.071 -2.0965 -2.8376 -1.7022
 1804SOL    HW217049   2.465   1.679   3.994  0.1493 -1.1583 -0.5196
 1805SOL     OW17050   1.092   0.705   4.314  0.2478  0.6983 -0.6454
 1805SOL    HW117051   1.161   0.730   4.252 -0.4231  1.9367 -0.9049
 1805SOL    HW217052   1.099   0.766   4.388  2.2347 -0.5280  0.1518
 1806SOL     OW17053   2.366   1.452   5.769  0.6138 -0.5726  0.0370
 1806SOL    HW117054   2.348   1.450   5.863 -1.0104  0.8249 -0.2500
 1806SOL    HW217055   2.348   1.359   5.752 -0.0392 -0.4739  0.1873
 1807SOL     OW17056   3.542   1.403   8.256 -0.1285  0.2919 -0.1432
 1807SOL    HW117057   3.546   1.463   8.182 -0.7363 -0.4388 -0.7672
 1807SOL    HW217058   3.490   1.329   8.224  0.0809  0.9819 -2.0482
 1808SOL     OW17059   1.946   0.301   1.056  0.0001 -0.1418  0.6580
 1808SOL    HW117060   1.901   0.245   1.119  0.4375 -2.4279 -1.0368
 1808SOL    HW217061   1.958   0.385   1.101 -2.6547  0.1390  0.8360
 1809SOL     OW17062   3.139   4.219   6.615 -0.4320 -0.8949 -0.3227
 1809SOL    HW117063   3.109   4.266   6.537 -1.2461  0.0976  0.5885
 1809SOL    HW217064   3.130   4.289   6.680  1.4431  1.1409 -2.2055
 1810SOL     OW17065   3.249   0.764   4.588 -0.2517 -0.2555 -0.2227
 1810SOL    HW117066   3.155   0.763   4.608 -0.7217  4.4667 -2.0473
 1810SOL    HW217067   3.245   0.787   4.495 -1.4203  1.1495  0.1602
 1811SOL     OW17068   2.853   4.303  16.174 -0.0378  0.6505  0.0437
 1811SOL    HW117069   2.882   4.367  16.108 -1.5974  1.4863  0.1681
 1811SOL    HW217070   2.895   4.227  16.135  1.3918  1.6730 -0.4206
 1812SOL     OW17071   3.999   3.629  11.798 -0.2763  0.4079  0.0399
 1812SOL    HW117072   3.989   3.688  11.873  2.6325  2.0364 -0.8862
 1812SOL    HW217073   3.906   3.629  11.774 -0.8574  0.2053  2.2295
 1813SOL     OW17074   4.378   2.841   0.594 -0.0486  0.1619  0.8407
 1813SOL    HW117075   4.422   2.792   0.524  1.3569 -0.2124  1.9965
 1813SOL    HW217076   4.365   2.766   0.652 -0.9105  0.3214  0.8566
 1814SOL     OW17077   4.387   2.312   7.537  0.1314  0.5861 -0.3526
 1814SOL    HW117078   4.321   2.293   7.603  2.1579 -1.0182  1.2129
 1814SOL    HW217079   4.348   2.391   7.500  0.6456  0.2040 -1.7470
 1815SOL     OW17080   3.338   0.306   4.856 -0.6538 -0.6775 -0.4633
 1815SOL    HW117081   3.349   0.228   4.911 -0.0167  0.8123  1.5093
 1815SOL    HW217082   3.307   0.258   4.779  1.6130 -0.4423 -1.5204
 1816SOL     OW17083   2.494   2.988   4.526 -0.2332  0.0940  0.0135
 1816SOL    HW117084   2.445   2.906   4.534  0.7658 -0.4601  0.4761
 1816SOL    HW217085   2.420   3.048   4.535  0.0420  0.9509 -3.5697
 1817SOL     OW17086   2.939   2.551  13.117 -0.0978 -0.3110 -0.0287
 1817SOL    HW117087   2.939   2.632  13.066  0.5730 -0.1718  0.1899
 1817SOL    HW217088   2.875   2.496  13.073 -0.2672  0.4763 -0.7609
 1818SOL     OW17089   0.630   1.924  16.811 -0.2241 -0.0447 -0.1174
 1818SOL    HW117090   0.636   1.938  16.906 -0.8077 -0.4824 -0.0194
 1818SOL    HW217091   0.704   1.978  16.783 -0.8257  1.4658  1.2337
 1819SOL     OW17092   1.353   1.841   4.079 -0.2909  0.4393  0.2696
 1819SOL    HW117093   1.446   1.856   4.062 -0.0227 -0.7396  0.6686
 1819SOL    HW217094   1.350   1.774   4.148  1.9693 -0.6454 -0.6597
 1820SOL     OW17095   2.802   4.156   5.282 -0.1321  0.5189 -0.1641
 1820SOL    HW117096   2.725   4.204   5.313 -1.0238  0.7471 -2.7827
 1820SOL    HW217097   2.778   4.071   5.319 -0.2637  0.4209 -0.4734
 1821SOL     OW17098   1.494   3.478   9.149 -0.2417 -0.1442 -0.5190
 1821SOL    HW117099   1.526   3.514   9.231  0.7704  1.7400 -1.7394
 1821SOL    HW217100   1.578   3.467   9.103  0.5220  1.1634  0.5882
 1822SOL     OW17101   4.315   1.735  10.363  0.4280  0.1120  0.2112
 1822SOL    HW117102   4.329   1.727  10.269  0.4339 -2.3192  0.4066
 1822SOL    HW217103   4.235   1.788  10.360 -0.1541 -0.9407 -2.2185
 1823SOL     OW17104   4.122   4.500   4.424 -0.6871 -0.6210  0.2507
 1823SOL    HW117105   4.089   4.476   4.337 -0.7784  1.2996 -0.2511
 1823SOL    HW217106   4.109   4.595   4.424  0.1796 -0.5071  0.8452
 1824SOL     OW17107   3.572   1.608   9.472  0.2896 -0.6361 -0.0645
 1824SOL    HW117108   3.548   1.687   9.521  1.6457 -0.3422  0.1074
 1824SOL    HW217109   3.536   1.539   9.528  0.2355 -0.0385  0.6315
 1825SOL     OW17110   0.422   3.135  16.773  0.0333  0.1081  0.3076
 1825SOL    HW117111   0.385   3.201  16.831  1.0760 -0.3890  1.5491
 1825SOL    HW217112   0.375   3.054  16.795  1.2131 -1.3196 -2.3633
 1826SOL     OW17113   0.953   1.640   4.106  0.4525 -0.1092  0.1218
 1826SOL    HW117114   0.915   1.594   4.181  1.9688 -0.0347  0.9458
 1826SOL    HW217115   0.897   1.717   4.106  0.4417 -0.1127 -1.7242
 1827SOL     OW17116   0.374   2.351  15.397 -0.5552  0.0201 -0.4613
 1827SOL    HW117117   0.286   2.322  15.373 -0.8878  0.4893  0.2203
 1827SOL    HW217118   0.418   2.280  15.349  2.5084  1.0428  0.8341
 1828SOL     OW17119   4.295   0.335   2.945  0.2802  0.5652 -0.4820
 1828SOL    HW117120   4.382   0.373   2.930  0.6406 -0.6915 -1.5956
 1828SOL    HW217121   4.273   0.345   3.038 -0.4623  0.4041 -0.6450
 1829SOL     OW17122   1.570   3.855  11.440 -0.3677 -0.0850 -0.0890
 1829SOL    HW117123   1.488   3.900  11.463  0.4559  0.8431  1.0238
 1829SOL    HW217124   1.603   3.838  11.528  0.5213  0.1633 -0.3807
 1830SOL     OW17125   3.241   2.062   9.335 -0.2174  0.3971  0.3686
 1830SOL    HW117126   3.175   2.107   9.388  0.5439  0.4705  1.2588
 1830SOL    HW217127   3.322   2.089   9.380 -0.9114  2.8502  0.1747
 1831SOL     OW17128   4.620   0.274   3.617  0.1370 -0.5617  0.3431
 1831SOL    HW117129   4.593   0.363   3.595  3.3521  0.0073 -1.3582
 1831SOL    HW217130   4.588   0.218   3.547  1.6978 -0.2878 -0.6107
 1832SOL     OW17131   3.366   2.573   4.191 -0.0865  0.3302  0.7752
 1832SOL    HW117132   3.274   2.563   4.214  0.0128  0.9090  1.4143
 1832SOL    HW217133   3.353   2.515   4.115  1.5175  0.7620  0.1656
 1833SOL     OW17134   2.014   2.805   9.297  0.3281  0.2406  0.3370
 1833SOL    HW117135   1.935   2.834   9.342  0.9857  1.7652  0.5272
 1833SOL    HW217136   2.037   2.886   9.252 -0.5242  1.3737  1.9276
 1834SOL     OW17137   1.671   3.126  15.701  0.1718 -0.3813  0.0857
 1834SOL    HW117138   1.619   3.096  15.627  0.4917 -1.4622  0.2906
 1834SOL    HW217139   1.642   3.071  15.774 -0.2416  1.4765  1.3066
 1835SOL     OW17140   2.260   3.121   2.840 -0.0418  0.2542  0.1111
 1835SOL    HW117141   2.185   3.171   2.808 -0.3158 -0.4222 -0.3090
 1835SOL    HW217142   2.279   3.079   2.755  4.2508  0.4728  0.9458
 1836SOL     OW17143   2.810   3.923   0.166 -0.3156  0.4127  0.2900
 1836SOL    HW117144   2.716   3.941   0.162 -0.6605 -2.0655 -3.1918
 1836SOL    HW217145   2.817   3.846   0.110 -0.0519 -1.8378  3.4741
 1837SOL     OW17146   0.666   3.090   7.506  0.1010  0.3681  0.2705
 1837SOL    HW117147   0.717   3.089   7.425  0.5781 -3.1778  0.6380
 1837SOL    HW217148   0.737   3.067   7.565 -0.0123 -0.7324 -0.0274
 1838SOL     OW17149   4.671   4.540  11.015  0.0869 -0.0975 -0.3737
 1838SOL    HW117150   4.626   4.623  11.031  1.6568  0.8744 -1.0754
 1838SOL    HW217151   4.611   4.484  10.966 -1.6533  0.0108  1.6073
 1839SOL     OW17152   3.051   4.209   4.772 -0.1103 -0.9243  0.3386
 1839SOL    HW117153   3.008   4.137   4.726  1.1117 -1.7297  0.4469
 1839SOL    HW217154   3.145   4.203   4.756 -0.0093  0.1101  0.5767
 1840SOL     OW17155   4.375   0.803   2.966 -0.1672 -0.2433 -0.2077
 1840SOL    HW117156   4.343   0.862   3.034  1.9121 -0.3671  0.9121
 1840SOL    HW217157   4.409   0.862   2.899 -1.4821  0.2636 -0.4162
 1841SOL     OW17158   0.987   2.182   7.539 -0.7780 -0.0200  0.3315
 1841SOL    HW117159   0.987   2.105   7.483  0.4352  1.9269 -2.3595
 1841SOL    HW217160   1.065   2.164   7.592 -0.7847 -1.4988 -0.1687
 1842SOL     OW17161   3.337   1.436   3.752  0.7754 -0.0161 -0.0817
 1842SOL    HW117162   3.372   1.459   3.666 -1.4088 -0.5898 -1.1181
 1842SOL    HW217163   3.298   1.521   3.772  2.6631  1.2679 -1.7396
 1843SOL     OW17164   1.442   1.325   7.184 -0.1679 -0.5265  0.4746
 1843SOL    HW117165   1.462   1.238   7.150 -2.1915 -1.0283  0.5697
 1843SOL    HW217166   1.352   1.311   7.213  0.4899  0.6066  3.1253
 1844SOL     OW17167   3.919   0.772   3.973  0.4337 -0.0461  0.2137
 1844SOL    HW117168   3.923   0.684   4.011  0.8728  0.2867  0.9245
 1844SOL    HW217169   3.837   0.807   4.008 -0.7088 -2.7446  0.2933
 1845SOL     OW17170   0.517   2.781  14.327 -0.1377  0.1244  0.4474
 1845SOL    HW117171   0.565   2.732  14.261 -1.7983  0.4432 -1.0143
 1845SOL    HW217172   0.546   2.872  14.315  0.1979  0.1030  1.1121
 1846SOL     OW17173   2.717   3.045   3.236  1.2179  0.2472  0.1565
 1846SOL    HW117174   2.675   2.977   3.183 -1.6930  1.7321  0.5533
 1846SOL    HW217175   2.796   2.999   3.265  1.6570  0.5095 -0.6082
 1847SOL     OW17176   1.418   1.939   5.249 -0.8024  0.0425 -0.6951
 1847SOL    HW117177   1.473   2.009   5.215  0.6724 -1.5551 -1.6010
 1847SOL    HW217178   1.334   1.952   5.205 -1.6919  0.5220  1.1503
 1848SOL     OW17179   3.104   2.667   5.533  0.6028 -0.3227 -0.1143
 1848SOL    HW117180   3.056   2.613   5.471 -1.7237  2.5264 -0.8012
 1848SOL    HW217181   3.195   2.670   5.503  0.0375  2.0945 -1.5416
 1849SOL     OW17182   0.699   0.156   3.158  0.6851  0.0013 -0.0766
 1849SOL    HW117183   0.643   0.230   3.134  1.6840  1.1294  1.0026
 1849SOL    HW217184   0.665   0.092   3.096 -1.1769  0.8792  0.0420
 1850SOL     OW17185   0.224   1.287  14.568  0.4998 -0.9145 -0.5896
 1850SOL    HW117186   0.263   1.299  14.481 -0.8884  0.9020 -0.9659
 1850SOL    HW217187   0.289   1.326  14.625  0.0107 -0.2316 -0.5068
 1851SOL     OW17188   1.636   4.065   2.085 -0.5762 -0.0918  0.7906
 1851SOL    HW117189   1.692   4.017   2.024  1.1077  0.4502  1.9177
 1851SOL    HW217190   1.612   4.138   2.028 -2.2769  0.4376  2.1601
 1852SOL     OW17191   2.370   3.188   6.549 -0.6066 -0.2590 -0.2664
 1852SOL    HW117192   2.344   3.129   6.620 -1.0586 -0.6861 -0.7900
 1852SOL    HW217193   2.324   3.158   6.471 -0.8165  0.2688 -0.3408
 1853SOL     OW17194   3.368   0.552   2.564 -0.4756 -0.1596 -0.0957
 1853SOL    HW117195   3.315   0.595   2.498  0.9289 -0.1326 -1.2072
 1853SOL    HW217196   3.322   0.588   2.640  0.2725 -0.1809  0.3726
 1854SOL     OW17197   3.448   2.043   2.946  0.3095 -0.4585 -0.1675
 1854SOL    HW117198   3.508   2.073   2.878  0.9286 -0.4070  0.3915
 1854SOL    HW217199   3.491   1.960   2.969  2.6376  1.1123  1.1634
 1855SOL     OW17200   4.401   2.228   6.486 -0.2849 -0.3588 -0.3309
 1855SOL    HW117201   4.391   2.322   6.500 -1.4880 -0.4597 -0.5310
 1855SOL    HW217202   4.466   2.217   6.417  1.1593  2.1495  0.6591
 1856SOL     OW17203   2.624   3.627   4.901 -0.3991 -0.3396  0.0842
 1856SOL    HW117204   2.631   3.562   4.831  1.8611  1.1419 -1.0661
 1856SOL    HW217205   2.719   3.639   4.908 -0.1597 -1.5048 -1.1822
 1857SOL     OW17206   3.958   1.690   8.310  0.4542 -0.5368 -0.3184
 1857SOL    HW117207   4.042   1.659   8.345  0.8877 -0.3649 -1.2038
 1857SOL    HW217208   3.943   1.762   8.371  0.1507 -0.1244 -0.8780
 1858SOL     OW17209   1.646   3.532   6.458 -0.5612 -0.2624  0.3191
 1858SOL    HW117210   1.694   3.557   6.538 -0.5806 -1.0388  0.5693
 1858SOL    HW217211   1.678   3.610   6.413 -1.0978 -0.2367 -0.0163
 1859SOL     OW17212   2.843   0.183   5.459  0.0718 -0.2578 -0.3277
 1859SOL    HW117213   2.895   0.113   5.418  1.0122  1.7990 -2.6400
 1859SOL    HW217214   2.786   0.121   5.504  0.3057  1.8535  2.8522
 1860SOL     OW17215   0.591   0.001  17.466  0.5283 -0.0532 -0.5530
 1860SOL    HW117216   0.641   4.677  17.411 -3.0673 -2.8272 -0.8653
 1860SOL    HW217217   0.569   4.677  17.538  0.4318  1.3800  0.5925
 1861SOL     OW17218   4.361   3.788  12.357  0.4663  0.7282  0.0420
 1861SOL    HW117219   4.362   3.769  12.263  2.4876  2.0738 -0.2220
 1861SOL    HW217220   4.421   3.863  12.364  0.7270  0.3991  1.3507
 1862SOL     OW17221   4.346   0.432  16.648  0.1056  0.3980  0.4650
 1862SOL    HW117222   4.410   0.416  16.579 -0.3233 -1.3022  0.4800
 1862SOL    HW217223   4.388   0.510  16.687  1.0696  1.0070 -1.8096
 1863SOL     OW17224   3.972   0.893  10.698  0.3249  0.1176  0.0534
 1863SOL    HW117225   4.039   0.934  10.754 -1.8549  1.8012  1.4226
 1863SOL    HW217226   3.992   0.802  10.716 -1.4668 -0.3777 -0.4812
 1864SOL     OW17227   3.062   3.154   4.888  0.3469  0.0545 -0.4467
 1864SOL    HW117228   2.981   3.129   4.933  0.2280  0.5681 -0.3707
 1864SOL    HW217229   3.032   3.168   4.799 -0.9220  0.4043  0.0330
 1865SOL     OW17230   3.539   4.575   3.494  0.4729 -0.4248 -0.0155
 1865SOL    HW117231   3.551   4.526   3.413 -2.2402 -0.1446 -0.5675
 1865SOL    HW217232   3.553   4.516   3.569  0.3468 -0.7136 -0.2196
 1866SOL     OW17233   3.031   0.859   2.006 -0.5023  0.2140  0.0286
 1866SOL    HW117234   3.097   0.822   2.064 -2.3907 -0.7273  1.5850
 1866SOL    HW217235   2.994   0.920   2.070 -0.1567  1.1525 -0.6705
 1867SOL     OW17236   2.136   3.180   7.470  0.5189 -0.2370 -0.7339
 1867SOL    HW117237   2.054   3.184   7.520  0.3547  1.1561 -1.1269
 1867SOL    HW217238   2.197   3.176   7.543  0.1612  0.8246 -0.3790
 1868SOL     OW17239   0.309   1.712   6.028  0.7203  0.1506 -0.1549
 1868SOL    HW117240   0.282   1.650   6.095  0.4018  0.7508  0.2736
 1868SOL    HW217241   0.220   1.741   6.008  0.3994 -1.7422 -1.3905
 1869SOL     OW17242   2.022   4.248   2.593 -0.0720  0.5474  0.2908
 1869SOL    HW117243   1.982   4.186   2.654 -0.6215  0.3006 -0.3245
 1869SOL    HW217244   1.944   4.286   2.553  1.2569  1.3864 -1.5166
 1870SOL     OW17245   0.583   4.723   7.737  0.2559  0.4548  0.4337
 1870SOL    HW117246   0.510   4.690   7.790 -0.0420  0.7578  0.2117
 1870SOL    HW217247   0.609   4.637   7.703  0.6067  0.4619  0.6823
 1871SOL     OW17248   3.874   1.711  14.241 -0.3934  0.1970 -0.3506
 1871SOL    HW117249   3.845   1.676  14.157 -4.6894 -0.9007  1.6247
 1871SOL    HW217250   3.964   1.679  14.232 -0.5400  0.0277 -1.2444
 1872SOL     OW17251   1.999   1.282  15.486  0.6760  0.6826 -0.7923
 1872SOL    HW117252   2.036   1.364  15.454 -0.8931  0.4536 -3.1458
 1872SOL    HW217253   2.064   1.222  15.451  0.9899  0.5094  0.0728
 1873SOL     OW17254   1.073   1.332   6.995  0.0481 -0.3486  0.3002
 1873SOL    HW117255   1.158   1.371   6.975 -0.2806 -1.1483 -2.6894
 1873SOL    HW217256   1.017   1.379   6.933 -0.0330 -1.7728 -0.7001
 1874SOL     OW17257   2.395   4.088   9.598 -0.0993  0.3801  0.2857
 1874SOL    HW117258   2.350   4.087   9.683  0.4758  2.1547  0.6190
 1874SOL    HW217259   2.407   3.994   9.590 -0.2441  0.6034 -2.3186
 1875SOL     OW17260   0.432   0.003   8.742  1.0435  0.5442  0.2848
 1875SOL    HW117261   0.338   0.009   8.756  0.9532  3.2464 -1.4901
 1875SOL    HW217262   0.442   4.649   8.710  2.5499  0.4130  1.1228
 1876SOL     OW17263   1.890   0.664  14.545  0.1977 -0.5207 -0.2714
 1876SOL    HW117264   1.970   0.714  14.532 -0.4183  1.1568  2.5585
 1876SOL    HW217265   1.899   0.633  14.635  0.3030 -1.6967 -0.6880
 1877SOL     OW17266   4.601   1.425   6.699 -0.5120 -0.0992 -0.0019
 1877SOL    HW117267   4.685   1.462   6.672  0.7497 -1.7036  1.7126
 1877SOL    HW217268   4.634   1.336   6.710 -1.0977 -0.4709 -1.1468
 1878SOL     OW17269   1.284   4.305   3.845  0.9188  0.1503 -0.2891
 1878SOL    HW117270   1.331   4.325   3.927 -0.8322 -0.8951  0.9677
 1878SOL    HW217271   1.237   4.385   3.820  1.3746  0.7419  0.7150
 1879SOL     OW17272   2.918   2.031  11.585  0.2224  0.2665 -0.7547
 1879SOL    HW117273   2.996   1.980  11.561 -1.1315 -1.8152 -0.7840
 1879SOL    HW217274   2.866   1.969  11.637  0.3110  0.0181 -0.9597
 1880SOL     OW17275   0.903   0.826   5.277 -0.4165 -0.3928  0.2366
 1880SOL    HW117276   0.853   0.812   5.357 -1.4255  2.9229  0.1744
 1880SOL    HW217277   0.944   0.910   5.297 -0.4421  0.1928 -2.2630
 1881SOL     OW17278   0.453   3.914   3.072 -0.0480  0.1920  0.1416
 1881SOL    HW117279   0.384   3.889   3.010  0.8806  1.2973 -1.3637
 1881SOL    HW217280   0.518   3.959   3.018 -1.4283  2.1818  0.1631
 1882SOL     OW17281   3.502   2.322   8.833  0.0586  0.1676 -0.4587
 1882SOL    HW117282   3.530   2.346   8.745  2.2502 -0.0758  0.1453
 1882SOL    HW217283   3.416   2.364   8.836  0.1301  0.3322 -0.7687
 1883SOL     OW17284   4.482   4.432   7.468 -0.1901  0.4203  0.9452
 1883SOL    HW117285   4.423   4.507   7.473  0.1903  1.0052 -3.4210
 1883SOL    HW217286   4.484   4.428   7.373 -1.9214  1.0104  0.8879
 1884SOL     OW17287   1.773   1.620  14.577 -0.1754  0.2773 -0.2330
 1884SOL    HW117288   1.866   1.639  14.567  0.0037 -0.9884 -0.9593
 1884SOL    HW217289   1.744   1.578  14.496 -0.2910  0.7870 -0.4514
 1885SOL     OW17290   4.678   1.475   2.440 -0.3542 -0.5182 -0.1109
 1885SOL    HW117291   4.661   1.569   2.444  0.5637 -0.4561  2.3253
 1885SOL    HW217292   4.600   1.442   2.395  1.1052 -1.0423 -2.2617
 1886SOL     OW17293   4.170   3.470   6.474 -0.2572 -0.5129  0.1640
 1886SOL    HW117294   4.212   3.384   6.480  0.5984 -0.1074  0.0254
 1886SOL    HW217295   4.077   3.449   6.470  0.2678 -2.9156  0.1247
 1887SOL     OW17296   2.969   2.798  12.679 -0.3518 -0.4412 -0.4139
 1887SOL    HW117297   3.045   2.852  12.700 -0.7128 -0.5555  1.1323
 1887SOL    HW217298   2.906   2.853  12.631  2.3056  2.2681 -0.7653
 1888SOL     OW17299   0.774   2.266  15.781  0.3736  0.7400 -0.0370
 1888SOL    HW117300   0.870   2.268  15.773  0.2198  0.7656 -1.8268
 1888SOL    HW217301   0.768   2.222  15.866  1.5638 -0.4922 -0.5859
 1889SOL     OW17302   1.505   1.297   3.840 -0.0642 -0.2203  0.3383
 1889SOL    HW117303   1.579   1.358   3.842 -0.5806  0.4224 -0.2680
 1889SOL    HW217304   1.441   1.349   3.791  0.2854 -0.3485 -0.2580
 1890SOL     OW17305   0.291   4.117   8.211  0.0278 -0.1235  0.3258
 1890SOL    HW117306   0.254   4.031   8.193  1.0636 -0.0686 -2.0945
 1890SOL    HW217307   0.348   4.098   8.285  1.0720  1.3752 -0.0837
 1891SOL     OW17308   1.773   0.941  14.556 -0.2525 -0.3399  0.0765
 1891SOL    HW117309   1.821   0.864  14.526  0.0060 -0.5146  0.9562
 1891SOL    HW217310   1.687   0.902  14.573 -0.1957 -0.4867  0.0269
 1892SOL     OW17311   1.257   2.876   7.155  0.1319 -0.2628  0.0183
 1892SOL    HW117312   1.168   2.842   7.154  0.4832 -1.2293  2.1837
 1892SOL    HW217313   1.242   2.948   7.094  0.3301  0.8312  1.2809
 1893SOL     OW17314   2.866   3.159   5.049 -0.1210  0.1870 -0.2143
 1893SOL    HW117315   2.851   3.104   5.126 -1.0536  0.7529  0.0074
 1893SOL    HW217316   2.780   3.180   5.013  0.8790  2.2933 -1.3665
 1894SOL     OW17317   0.152   4.286   6.255  0.2758  0.6570  0.2803
 1894SOL    HW117318   0.207   4.276   6.178  1.5641 -0.5573  1.3536
 1894SOL    HW217319   0.078   4.341   6.230  1.1022  2.0077  0.8289
 1895SOL     OW17320   2.927   4.232  16.442 -0.1593  0.1507 -0.3512
 1895SOL    HW117321   2.879   4.245  16.360  0.1539  1.3181 -0.3459
 1895SOL    HW217322   2.987   4.305  16.429 -1.0119  0.7759 -0.7573
 1896SOL     OW17323   3.920   3.723   8.650 -0.0504 -0.0447 -0.0172
 1896SOL    HW117324   3.918   3.724   8.746  0.0450  0.6435 -0.0193
 1896SOL    HW217325   4.004   3.684   8.629 -0.5168  0.0945 -2.1444
 1897SOL     OW17326   0.126   2.126   9.142  0.4106  0.9674 -0.2439
 1897SOL    HW117327   0.062   2.105   9.073 -1.0423 -0.4646  1.5427
 1897SOL    HW217328   0.067   2.154   9.212  1.3506  0.8574  0.5919
 1898SOL     OW17329   1.029   4.239   7.304  0.4332 -0.1680 -0.0023
 1898SOL    HW117330   1.112   4.235   7.352 -1.0057 -1.4610  2.3691
 1898SOL    HW217331   1.062   4.197   7.224  1.9285  0.7389  0.1395
 1899SOL     OW17332   1.370   2.495  12.888  0.0111  0.0642  0.1158
 1899SOL    HW117333   1.425   2.451  12.823  1.2371  0.6470  0.7578
 1899SOL    HW217334   1.398   2.586  12.878  0.7742 -0.2153 -0.3357
 1900SOL     OW17335   4.057   0.415  16.931 -0.5626 -0.2195 -0.0529
 1900SOL    HW117336   4.039   0.332  16.974 -1.9327 -0.1703 -0.5357
 1900SOL    HW217337   4.039   0.476  17.002  0.7093  0.7584 -0.5704
 1901SOL     OW17338   3.094   2.771   7.463 -0.0646  0.3323  0.0009
 1901SOL    HW117339   3.006   2.785   7.430  0.6832 -0.9823 -2.5330
 1901SOL    HW217340   3.129   2.729   7.385 -1.1844  0.1368 -0.3922
 1902SOL     OW17341   1.499   4.726  13.379 -0.0289 -0.7068 -0.1151
 1902SOL    HW117342   1.444   0.056  13.334  2.6257  0.3178 -1.8670
 1902SOL    HW217343   1.555   0.051  13.427  0.3216 -1.4095  0.3488
 1903SOL     OW17344   1.537   0.061   0.866 -0.3129 -0.2852  0.4430
 1903SOL    HW117345   1.604   0.125   0.844 -0.1615  0.1341  2.1303
 1903SOL    HW217346   1.531   0.073   0.960 -0.5159  0.4007  0.3382
 1904SOL     OW17347   1.248   2.835   4.868  0.1492 -0.5043 -0.3106
 1904SOL    HW117348   1.268   2.835   4.774 -0.4787  1.0728 -0.4399
 1904SOL    HW217349   1.197   2.755   4.885  0.6790 -1.2223 -2.1142
 1905SOL     OW17350   3.287   3.580   8.258  0.5530  0.0183  0.1112
 1905SOL    HW117351   3.231   3.607   8.331  1.8329  0.7659  0.8160
 1905SOL    HW217352   3.344   3.528   8.314  1.2988 -0.7166 -1.3614
 1906SOL     OW17353   4.196   3.732   4.410 -0.2581  0.1889  0.9131
 1906SOL    HW117354   4.103   3.729   4.389  0.1482  0.7433 -0.9455
 1906SOL    HW217355   4.192   3.682   4.491 -0.8361 -0.0020  0.7686
 1907SOL     OW17356   0.150   1.162   1.907 -0.2166  0.0128  0.7911
 1907SOL    HW117357   0.184   1.080   1.872 -1.5025 -0.5973  0.9734
 1907SOL    HW217358   0.229   1.189   1.954  0.3678  1.7279 -1.2260
 1908SOL     OW17359   4.670   4.265  12.256 -0.6472 -0.0974 -0.0658
 1908SOL    HW117360   0.028   4.259  12.278 -0.5490  0.3563 -0.3650
 1908SOL    HW217361   4.653   4.357  12.276  1.2242 -0.2535  2.2281
 1909SOL     OW17362   0.194   4.097  10.416 -0.3569  0.1467 -0.2903
 1909SOL    HW117363   0.201   4.034  10.344 -2.6784 -0.8229  0.3336
 1909SOL    HW217364   0.210   4.033  10.487 -0.6625 -0.8260 -1.0954
 1910SOL     OW17365   3.777   0.064  17.502  0.1066 -0.8679  0.0517
 1910SOL    HW117366   3.824   0.060  17.419 -0.6140 -2.8923 -0.2535
 1910SOL    HW217367   3.802   0.150  17.536 -1.1622 -1.0302  1.3998
 1911SOL     OW17368   2.488   0.538   2.234 -0.7594 -0.4854  0.0196
 1911SOL    HW117369   2.492   0.566   2.142 -0.6842  0.4405  0.3072
 1911SOL    HW217370   2.577   0.506   2.243 -0.3238  1.1805  1.4370
 1912SOL     OW17371   1.504   3.269   1.620 -0.7096 -0.0877 -0.3337
 1912SOL    HW117372   1.542   3.183   1.635  1.1030  0.9112  0.7710
 1912SOL    HW217373   1.587   3.312   1.638 -0.3155 -0.2136 -1.8196
 1913SOL     OW17374   3.303   2.471   8.095 -0.1445  0.5061  0.0377
 1913SOL    HW117375   3.270   2.392   8.137 -0.0132  0.0704 -0.6923
 1913SOL    HW217376   3.376   2.432   8.047 -2.0068 -1.6767 -0.9894
 1914SOL     OW17377   3.203   0.401   1.935 -0.5280  0.1377 -0.4528
 1914SOL    HW117378   3.224   0.310   1.913 -0.0184 -0.0569  0.8193
 1914SOL    HW217379   3.256   0.451   1.872 -2.2583  2.7708  0.2042
 1915SOL     OW17380   1.184   3.654   8.509  0.1128  0.1351 -0.6471
 1915SOL    HW117381   1.174   3.736   8.462 -0.9348 -0.1459 -0.9079
 1915SOL    HW217382   1.105   3.605   8.486 -0.0463  0.4762 -0.8181
 1916SOL     OW17383   3.567   4.449   0.329  0.2347  0.1343  0.7538
 1916SOL    HW117384   3.476   4.476   0.341  0.1162  0.5353 -1.0443
 1916SOL    HW217385   3.570   4.386   0.257  2.5083  2.1324 -0.9148
 1917SOL     OW17386   3.509   4.086   8.173 -0.1716  0.3452  0.0924
 1917SOL    HW117387   3.492   4.127   8.088  0.5758  1.2022  0.3501
 1917SOL    HW217388   3.447   4.014   8.164  0.9242 -0.6194  0.4071
 1918SOL     OW17389   1.239   3.972  14.445  0.0038 -0.5762 -0.1313
 1918SOL    HW117390   1.178   3.944  14.513 -0.4517  1.9603  0.4662
 1918SOL    HW217391   1.250   3.889  14.398 -1.5693 -0.7953 -0.1205
 1919SOL     OW17392   1.959   2.020  11.869 -0.3810  0.3128  0.4050
 1919SOL    HW117393   1.874   2.061  11.854  0.0438  0.9046 -0.3574
 1919SOL    HW217394   1.962   2.015  11.965  0.0586 -2.8310  0.2356
 1920SOL     OW17395   4.371   0.200   6.250 -0.2493 -0.0068  0.2026
 1920SOL    HW117396   4.334   0.193   6.338 -2.4319  1.6396 -0.6078
 1920SOL    HW217397   4.313   0.264   6.211 -0.4491 -1.9402 -2.6494
 1921SOL     OW17398   1.837   0.977   2.837  0.1834 -0.2359 -0.0743
 1921SOL    HW117399   1.933   0.981   2.839  0.0809  0.5031  2.5697
 1921SOL    HW217400   1.815   0.938   2.921 -1.0801 -0.4549 -0.5085
 1922SOL     OW17401   0.681   0.443   3.294  0.0333  0.3374 -0.0946
 1922SOL    HW117402   0.608   0.389   3.325  0.7692  0.6954  2.2660
 1922SOL    HW217403   0.725   0.478   3.372 -1.3347  0.9018  0.4433
 1923SOL     OW17404   4.473   3.789   7.880  0.1049 -0.3220  0.0693
 1923SOL    HW117405   4.442   3.701   7.898 -0.5599 -0.3456 -1.1613
 1923SOL    HW217406   4.561   3.778   7.844 -0.5595 -1.9241 -1.0615
 1924SOL     OW17407   2.845   4.680   6.111  0.3578  0.3068  1.1738
 1924SOL    HW117408   2.861   0.034   6.145  0.9310  0.2460  1.0639
 1924SOL    HW217409   2.800   4.703   6.030  1.2286  2.2482  1.2245
 1925SOL     OW17410   0.972   0.172   7.780  0.7250  0.0272 -0.5470
 1925SOL    HW117411   1.017   0.255   7.764  0.3048  0.2295 -0.6672
 1925SOL    HW217412   0.912   0.186   7.854 -0.6385  1.5267 -1.9522
 1926SOL     OW17413   1.540   2.453   8.237 -0.1484  0.2047  0.2508
 1926SOL    HW117414   1.571   2.374   8.282  0.0775  0.5090  0.6345
 1926SOL    HW217415   1.575   2.522   8.293  0.1375  0.6425 -0.4650
 1927SOL     OW17416   0.397   4.485   3.997 -0.3845  0.2283 -0.0908
 1927SOL    HW117417   0.349   4.408   4.026 -0.6733  0.3663 -0.1994
 1927SOL    HW217418   0.488   4.459   4.010  0.4298  1.8903 -2.2700
 1928SOL     OW17419   2.567   3.737   6.217 -0.0420  0.3373  0.0117
 1928SOL    HW117420   2.621   3.699   6.287  1.3938 -1.2636 -1.9673
 1928SOL    HW217421   2.485   3.689   6.226  0.4585 -0.3693  0.8592
 1929SOL     OW17422   2.784   2.684  16.155 -0.6033  0.7211 -0.3206
 1929SOL    HW117423   2.738   2.677  16.071 -2.6300  0.4229  0.8145
 1929SOL    HW217424   2.869   2.649  16.132 -0.4442  1.6701 -1.1916
 1930SOL     OW17425   1.067   3.683   7.611  0.5593  0.1624 -0.3307
 1930SOL    HW117426   0.998   3.749   7.625  0.1470 -0.5425  0.9185
 1930SOL    HW217427   1.033   3.637   7.534  0.6050  1.2054 -0.9858
 1931SOL     OW17428   3.634   3.528   8.670  0.3857  0.2364  0.1042
 1931SOL    HW117429   3.728   3.537   8.652  0.0316  2.1630 -0.8295
 1931SOL    HW217430   3.636   3.526   8.766 -3.1110 -1.5557  0.1394
 1932SOL     OW17431   3.660   4.427   6.757  0.1643 -0.2886  0.4240
 1932SOL    HW117432   3.664   4.502   6.817 -1.1218 -0.0847  0.2564
 1932SOL    HW217433   3.734   4.376   6.789  1.0226  0.5021 -0.2797
 1933SOL     OW17434   3.357   0.780   1.550  0.6744 -0.2362 -0.0586
 1933SOL    HW117435   3.423   0.830   1.599  0.3436  0.5209 -0.3855
 1933SOL    HW217436   3.284   0.788   1.612 -0.4701  1.2565 -1.6023
 1934SOL     OW17437   0.476   4.112   5.178  0.6068  0.0241 -0.2203
 1934SOL    HW117438   0.408   4.142   5.239  2.1720  0.1864  1.4097
 1934SOL    HW217439   0.536   4.186   5.168  0.5557  0.2902  1.4571
 1935SOL     OW17440   3.954   2.978   3.025  0.1274  0.0344 -0.1190
 1935SOL    HW117441   4.044   2.990   3.055 -1.2443  2.6534  2.8999
 1935SOL    HW217442   3.983   2.932   2.946 -1.6279  0.8690 -1.2284
 1936SOL     OW17443   2.035   0.577  12.028 -0.0555 -0.2121  0.1725
 1936SOL    HW117444   2.055   0.498  11.978 -0.3390  1.7171 -3.0212
 1936SOL    HW217445   1.983   0.543  12.100  1.0697  0.2178  1.1811
 1937SOL     OW17446   3.556   4.518   4.602  0.2298 -0.2529 -0.2914
 1937SOL    HW117447   3.582   4.454   4.536  0.1471  0.1993 -0.7568
 1937SOL    HW217448   3.628   4.507   4.665  0.6534  0.5818 -0.6223
 1938SOL     OW17449   0.983   3.172   5.213 -0.1851 -0.0446  0.2850
 1938SOL    HW117450   1.050   3.136   5.155 -0.1802 -1.9353  1.4629
 1938SOL    HW217451   0.968   3.099   5.272  0.8007 -0.1989  0.3486
 1939SOL     OW17452   1.489   2.670   5.430 -0.1419  0.1433  0.0807
 1939SOL    HW117453   1.507   2.762   5.450  0.7383  0.0685 -0.3685
 1939SOL    HW217454   1.518   2.634   5.514 -0.4691 -0.0817  0.0979
 1940SOL     OW17455   4.174   3.141   2.929  0.4232  0.3490 -0.3039
 1940SOL    HW117456   4.189   3.066   2.987  0.6105  0.6935  0.0920
 1940SOL    HW217457   4.159   3.105   2.841  0.9440 -0.0119 -0.2434
 1941SOL     OW17458   4.589   1.809   5.784  0.0759  0.2917 -0.0646
 1941SOL    HW117459   4.528   1.736   5.777 -0.1638  0.4556  0.3587
 1941SOL    HW217460   4.566   1.840   5.871 -2.0912  0.5529 -0.7296
 1942SOL     OW17461   1.522   4.682   7.085  0.5738  0.5203  0.0819
 1942SOL    HW117462   1.458   4.685   7.156  2.4795 -0.4004  1.8242
 1942SOL    HW217463   1.603   4.694   7.135  0.9832  1.0963 -0.7172
 1943SOL     OW17464   2.394   4.548  13.131  0.2914 -0.3303  0.0289
 1943SOL    HW117465   2.466   4.502  13.088 -0.9199 -1.7238 -0.5075
 1943SOL    HW217466   2.330   4.478  13.138  0.0474 -0.0281  0.8777
 1944SOL     OW17467   4.607   1.958  11.214  0.4577  0.3073  0.2408
 1944SOL    HW117468   4.700   1.947  11.195  0.2815  1.4349 -1.2983
 1944SOL    HW217469   4.591   1.864  11.222 -0.7902  0.3524 -1.7542
 1945SOL     OW17470   0.359   4.361   4.287  0.5152 -0.0426 -0.7653
 1945SOL    HW117471   0.335   4.309   4.210  0.5467  0.1181 -0.8837
 1945SOL    HW217472   0.451   4.337   4.282  0.5957  0.4888 -1.9170
 1946SOL     OW17473   1.290   3.467   4.214  0.7223  0.0022  0.2335
 1946SOL    HW117474   1.385   3.466   4.222  0.6770 -0.5318  0.6312
 1946SOL    HW217475   1.280   3.513   4.130 -1.5180  1.4125  1.2557
 1947SOL     OW17476   2.232   3.013   5.329 -0.0312 -0.3147 -0.3316
 1947SOL    HW117477   2.259   2.961   5.405  0.5169  0.4122 -0.0298
 1947SOL    HW217478   2.307   3.070   5.314 -0.8657  1.2454  1.3380
 1948SOL     OW17479   3.947   3.153   9.921 -0.6039  0.1887 -0.3820
 1948SOL    HW117480   3.989   3.128  10.003  2.1125  1.4068 -1.3986
 1948SOL    HW217481   3.963   3.248   9.920 -0.3331  0.1628  1.5451
 1949SOL     OW17482   2.296   3.997   3.875 -0.6366  0.0830  0.9320
 1949SOL    HW117483   2.228   3.998   3.807  0.2001  0.9441  0.1108
 1949SOL    HW217484   2.329   3.911   3.849 -0.9229  1.0692 -2.6803
 1950SOL     OW17485   0.520   2.986   4.037 -0.8940  0.1800  0.5096
 1950SOL    HW117486   0.528   3.053   3.968  1.3193 -0.5429  0.0509
 1950SOL    HW217487   0.456   3.022   4.098 -1.1126 -3.0698  2.1775
 1951SOL     OW17488   2.545   4.238  16.906 -0.2267 -0.2204 -0.3413
 1951SOL    HW117489   2.568   4.329  16.889  1.8832 -0.7299 -0.2837
 1951SOL    HW217490   2.491   4.248  16.984 -1.1293 -1.5329 -0.7914
 1952SOL     OW17491   2.052   2.217   9.949 -0.1549 -0.6692  0.4352
 1952SOL    HW117492   2.036   2.310   9.933  1.1123 -0.1306  2.2985
 1952SOL    HW217493   2.029   2.186   9.862 -0.5843  0.7320  0.0402
 1953SOL     OW17494   3.297   2.254   4.682  0.2720  0.3183 -0.7373
 1953SOL    HW117495   3.380   2.300   4.688  0.0430  0.0792  4.3798
 1953SOL    HW217496   3.312   2.195   4.756  1.7172  1.3883 -0.1759
 1954SOL     OW17497   4.357   0.773  11.935  0.0058  0.4488 -0.0314
 1954SOL    HW117498   4.353   0.861  11.972  0.1520  0.3540  0.2089
 1954SOL    HW217499   4.290   0.730  11.987  0.2880 -1.0432 -0.8929
 1955SOL     OW17500   3.399   1.322   7.237  0.1009 -0.4108 -0.1342
 1955SOL    HW117501   3.376   1.230   7.228  2.4354 -1.2276  2.1518
 1955SOL    HW217502   3.400   1.350   7.146  2.4486 -1.2440 -0.3468
 1956SOL     OW17503   0.109   4.229   3.431 -0.3501  1.0199 -0.1164
 1956SOL    HW117504   0.188   4.272   3.463  1.1083 -1.0071 -0.9609
 1956SOL    HW217505   0.104   4.147   3.480  2.4866  0.9151 -0.0513
 1957SOL     OW17506   0.575   0.919   9.367  0.1320  0.2060 -0.1122
 1957SOL    HW117507   0.514   0.848   9.345 -1.5583  1.0142  1.9378
 1957SOL    HW217508   0.574   0.909   9.462 -0.4152 -0.7483 -0.2153
 1958SOL     OW17509   0.124   0.375  17.633  0.3478 -0.4838  0.4931
 1958SOL    HW117510   0.156   0.351  17.546  0.1983  2.6054 -0.3947
 1958SOL    HW217511   0.065   0.301  17.651 -0.2179 -0.6182 -1.8038
 1959SOL     OW17512   2.149   1.935   6.359 -0.4861  0.0769 -0.0026
 1959SOL    HW117513   2.175   1.982   6.439  2.0361  1.8901 -1.8870
 1959SOL    HW217514   2.235   1.946   6.319 -1.8313  4.0118 -1.8236
 1960SOL     OW17515   1.878   0.306  13.017 -0.5487  0.2992 -0.0985
 1960SOL    HW117516   1.830   0.347  13.088  2.2247  2.4530  0.5439
 1960SOL    HW217517   1.942   0.370  12.985  1.6516 -2.2335 -0.8007
 1961SOL     OW17518   1.025   1.213   2.082 -0.2906 -0.1328  0.7930
 1961SOL    HW117519   1.036   1.267   2.004 -2.5218  1.1766  1.3800
 1961SOL    HW217520   0.967   1.268   2.134  0.1238  1.8206 -0.8424
 1962SOL     OW17521   0.359   3.161   3.066 -0.1190 -0.4967  0.2901
 1962SOL    HW117522   0.285   3.205   3.106 -2.0517 -0.8968 -2.8529
 1962SOL    HW217523   0.434   3.201   3.110 -0.5842  1.8219 -1.0613
 1963SOL     OW17524   2.057   2.489   3.159  0.3915  0.0066 -0.0162
 1963SOL    HW117525   2.125   2.510   3.094 -1.3947 -0.2115 -1.9659
 1963SOL    HW217526   2.066   2.567   3.214  0.3115 -0.5757  0.8210
 1964SOL     OW17527   1.770   1.306   5.063 -0.1524  0.1256  0.6644
 1964SOL    HW117528   1.743   1.348   5.145  0.9180  1.2576  0.4246
 1964SOL    HW217529   1.861   1.294   5.091  0.6677  0.0339 -2.0761
 1965SOL     OW17530   4.360   2.879  10.593  0.0313 -0.0707  0.5013
 1965SOL    HW117531   4.304   2.894  10.517  0.7063  0.4498  0.1002
 1965SOL    HW217532   4.347   2.960  10.643  0.2612  1.3532 -1.7062
 1966SOL     OW17533   1.916   3.187   3.467 -0.6872 -0.2814  0.3249
 1966SOL    HW117534   1.947   3.259   3.521 -0.2655 -0.0584 -0.2181
 1966SOL    HW217535   1.909   3.119   3.534  0.2022 -0.9909 -0.3049
 1967SOL     OW17536   4.405   1.763   1.577  0.1692  0.1135  0.3825
 1967SOL    HW117537   4.436   1.711   1.651 -1.0086 -0.1542  0.6983
 1967SOL    HW217538   4.327   1.802   1.617 -0.6227 -1.6602  0.5739
 1968SOL     OW17539   2.887   1.968   6.248  0.5199 -0.0105  0.3337
 1968SOL    HW117540   2.899   1.994   6.157 -0.3114 -0.5456  0.0632
 1968SOL    HW217541   2.978   1.940   6.258  0.4965  0.0174  0.6287
 1969SOL     OW17542   2.894   0.763   6.473  0.3432 -0.3698 -0.2562
 1969SOL    HW117543   2.856   0.679   6.445  2.6366 -1.8399  1.0354
 1969SOL    HW217544   2.989   0.757   6.465  0.4096 -2.2805  2.0974
 1970SOL     OW17545   4.233   2.090  13.574 -0.7326 -0.1427  0.4875
 1970SOL    HW117546   4.199   2.021  13.631 -1.6048  0.3043  0.5229
 1970SOL    HW217547   4.233   2.171  13.626 -0.6914  0.3449 -0.2645
 1971SOL     OW17548   2.196   1.671   3.065 -0.2430 -0.5967  0.0517
 1971SOL    HW117549   2.261   1.676   3.136  0.7593 -0.6690 -0.8695
 1971SOL    HW217550   2.193   1.763   3.039  0.0403 -0.4109  0.6630
 1972SOL     OW17551   0.012   1.954   5.612  0.1326 -0.5255  0.4707
 1972SOL    HW117552   0.045   2.023   5.669  0.5329 -0.0216 -0.3643
 1972SOL    HW217553   4.671   1.926   5.663  0.1153 -2.1683 -0.4497
 1973SOL     OW17554   2.512   1.041  10.231 -0.2366  0.0876  0.1421
 1973SOL    HW117555   2.530   1.100  10.304  0.4515 -1.7374  1.4415
 1973SOL    HW217556   2.424   1.072  10.209 -0.1301  1.5166  1.7269
 1974SOL     OW17557   3.464   0.319  10.809 -0.2218 -0.0325 -0.0821
 1974SOL    HW117558   3.412   0.398  10.801 -0.1184 -0.0758 -1.0951
 1974SOL    HW217559   3.467   0.286  10.719  0.3259 -0.8676  0.2335
 1975SOL     OW17560   0.908   2.187   6.924 -0.2558 -0.2476 -0.3786
 1975SOL    HW117561   0.900   2.183   7.019 -0.5329  1.0529 -0.3456
 1975SOL    HW217562   0.851   2.113   6.900  0.2711 -0.7286 -0.1512
 1976SOL     OW17563   0.117   1.662   1.544  0.0803  0.1396 -0.0703
 1976SOL    HW117564   0.103   1.702   1.629  0.0764 -0.0188  0.0030
 1976SOL    HW217565   0.123   1.567   1.552 -3.5292 -0.0217  0.5181
 1977SOL     OW17566   0.411   0.693   8.105 -0.5901  0.3059 -0.1495
 1977SOL    HW117567   0.470   0.733   8.169 -0.7887 -2.2315  1.6230
 1977SOL    HW217568   0.448   0.609   8.080  1.5839  2.0607 -2.7365
 1978SOL     OW17569   0.137   1.980   8.378 -0.3685 -0.2082 -0.1404
 1978SOL    HW117570   0.149   2.061   8.329 -1.3474  1.3049  2.1355
 1978SOL    HW217571   0.222   1.962   8.417 -1.4430 -0.1488  2.2008
 1979SOL     OW17572   1.041   3.275   4.070  0.0529  0.1764 -0.2525
 1979SOL    HW117573   0.990   3.214   4.018  1.6600 -0.3454 -1.2193
 1979SOL    HW217574   1.129   3.240   4.053  0.8216  1.1972  1.5542
 1980SOL     OW17575   3.215   3.312  16.619  0.5106 -0.1925  0.2512
 1980SOL    HW117576   3.222   3.404  16.647 -0.9832 -0.0160  0.0360
 1980SOL    HW217577   3.121   3.308  16.601  0.9337 -4.2070 -0.8454
 1981SOL     OW17578   4.587   2.966  17.485 -0.4413 -0.4330 -0.3111
 1981SOL    HW117579   4.554   3.015  17.410 -1.8335 -2.5450 -1.0948
 1981SOL    HW217580   4.626   3.041  17.529  1.9529 -1.8761  0.0379
 1982SOL     OW17581   3.461   3.915   5.301  0.1438  0.2197 -0.1705
 1982SOL    HW117582   3.546   3.874   5.287 -0.6905 -1.2365 -0.8713
 1982SOL    HW217583   3.391   3.853   5.281 -0.3509  0.8007 -0.2470
 1983SOL     OW17584   3.268   0.840   2.383 -0.2233 -0.7843  0.2712
 1983SOL    HW117585   3.333   0.911   2.387 -0.0017 -1.0100  0.6832
 1983SOL    HW217586   3.262   0.823   2.289 -2.0450  0.7177  0.1254
 1984SOL     OW17587   4.644   2.216   7.735 -0.0224  0.2270  0.3827
 1984SOL    HW117588   4.582   2.144   7.746  1.1727 -0.7101  1.0862
 1984SOL    HW217589   4.631   2.267   7.815 -1.0079  0.2074  0.2307
 1985SOL     OW17590   0.417   0.397   7.619 -0.8354 -0.5129 -0.2033
 1985SOL    HW117591   0.439   0.490   7.613 -0.6045 -0.5135  0.7491
 1985SOL    HW217592   0.474   0.370   7.691  0.8453  0.4932 -1.1519
 1986SOL     OW17593   2.567   4.418   4.332  0.1054 -0.5298  0.0261
 1986SOL    HW117594   2.514   4.342   4.308 -0.6473 -0.2672  0.8492
 1986SOL    HW217595   2.613   4.424   4.248  1.6176 -0.0945  0.8915
 1987SOL     OW17596   2.416   0.442   7.216 -0.3784 -0.0598  0.1191
 1987SOL    HW117597   2.464   0.385   7.275  0.4355 -0.6876 -1.1454
 1987SOL    HW217598   2.479   0.511   7.194  1.0808 -1.6452 -0.6472
 1988SOL     OW17599   2.064   1.143   6.213 -0.3814 -0.2009 -0.1950
 1988SOL    HW117600   2.003   1.193   6.267  0.7762  0.1593  0.7799
 1988SOL    HW217601   2.069   1.187   6.128 -2.2903  3.1483  1.4508
 1989SOL     OW17602   4.186   0.055  16.543  0.0816  0.2533 -0.0175
 1989SOL    HW117603   4.155   4.728  16.609  1.3710  1.3332  1.6066
 1989SOL    HW217604   4.276   0.064  16.573  0.8542 -1.0989 -1.9781
 1990SOL     OW17605   3.253   0.709  10.836  0.0642 -0.4061  0.5675
 1990SOL    HW117606   3.203   0.757  10.902 -1.6941  0.3295 -1.3161
 1990SOL    HW217607   3.339   0.750  10.851 -0.1907  0.0905  0.6730
 1991SOL     OW17608   4.232   4.696  16.300 -0.1290  0.6248 -0.0249
 1991SOL    HW117609   4.228   0.023  16.373  0.0226  0.9989 -0.3356
 1991SOL    HW217610   4.151   4.646  16.310  1.3152 -1.7703 -0.4223
 1992SOL     OW17611   2.761   1.534   2.245 -0.0746 -0.1215 -0.0109
 1992SOL    HW117612   2.755   1.457   2.302  1.7328  0.6613  1.2434
 1992SOL    HW217613   2.799   1.596   2.307  1.1930  1.4954 -2.4309
 1993SOL     OW17614   3.143   2.333   9.882 -0.4688  0.0435  0.0678
 1993SOL    HW117615   3.199   2.274   9.831 -0.5635  1.4864 -1.6747
 1993SOL    HW217616   3.059   2.315   9.839  1.0905  1.6564 -3.5963
 1994SOL     OW17617   2.784   3.664   6.360 -0.2655  0.0906 -0.0268
 1994SOL    HW117618   2.784   3.649   6.455 -0.9443 -1.2098 -0.2367
 1994SOL    HW217619   2.876   3.657   6.335  0.5868 -1.3242  3.5189
 1995SOL     OW17620   3.653   2.252   9.050 -0.1789 -0.2311 -0.1534
 1995SOL    HW117621   3.610   2.194   9.113 -1.3432 -1.6405 -2.2121
 1995SOL    HW217622   3.603   2.238   8.969  1.3063 -1.3672 -0.8744
 1996SOL     OW17623   0.089   2.464   0.927  0.1493  0.0419 -0.2543
 1996SOL    HW117624   0.102   2.387   0.872 -1.5657 -0.2803 -0.2071
 1996SOL    HW217625   4.728   2.466   0.928  0.1227 -1.1312 -1.0843
 1997SOL     OW17626   4.188   3.392  17.670 -0.4270  0.4493  0.6852
 1997SOL    HW117627   4.146   3.417   0.014  1.6527 -1.3546  2.3098
 1997SOL    HW217628   4.131   3.442  17.611 -0.1754 -2.1201 -1.6961
 1998SOL     OW17629   3.954   3.874   6.402  0.2957 -0.5896  0.0756
 1998SOL    HW117630   4.022   3.917   6.351 -0.6035  1.9476  1.0002
 1998SOL    HW217631   3.974   3.781   6.399  1.7191 -0.2076 -1.6124
 1999SOL     OW17632   3.329   3.967   7.693  0.2568  0.0352  0.0151
 1999SOL    HW117633   3.272   3.892   7.676 -0.3837  0.3384  0.8467
 1999SOL    HW217634   3.383   3.910   7.748  1.9631  1.3718 -0.2632
 2000SOL     OW17635   3.538   0.831  12.311  0.4790 -0.7001 -0.7116
 2000SOL    HW117636   3.632   0.835  12.331  0.2826  2.3176 -0.3558
 2000SOL    HW217637   3.536   0.875  12.226 -1.2297  1.3859  0.4100
 2001SOL     OW17638   1.771   3.053   2.993  0.4055 -0.5305  0.0862
 2001SOL    HW117639   1.823   3.028   2.916 -0.9378  0.6643 -1.2166
 2001SOL    HW217640   1.813   3.137   3.008 -0.8509  0.2514 -0.8022
 2002SOL     OW17641   3.622   1.772   0.822  0.0807  0.2781  0.4132
 2002SOL    HW117642   3.639   1.747   0.913  1.6005  1.0645  0.3530
 2002SOL    HW217643   3.708   1.813   0.813  1.1103 -2.0068  0.0598
 2003SOL     OW17644   1.147   1.625   4.854 -0.3006  0.1855  0.8579
 2003SOL    HW117645   1.237   1.599   4.834 -1.2076 -1.0057 -1.6561
 2003SOL    HW217646   1.165   1.696   4.916  2.0264 -1.3639  1.9172
 2004SOL     OW17647   3.682   0.917   4.057 -0.5926 -0.0521 -0.4911
 2004SOL    HW117648   3.661   0.931   3.964 -1.0003 -0.7860 -0.5114
 2004SOL    HW217649   3.603   0.945   4.104 -1.7195  0.0056 -2.4107
 2005SOL     OW17650   3.958   0.446   8.707  0.6053  0.0054  0.4125
 2005SOL    HW117651   4.034   0.497   8.680  0.7071  0.5169  1.6790
 2005SOL    HW217652   3.895   0.490   8.650  1.1864 -0.5243 -0.6502
 2006SOL     OW17653   2.781   2.836   6.394  0.2642  0.2231  0.1643
 2006SOL    HW117654   2.825   2.910   6.352  0.5603  0.8118  1.5013
 2006SOL    HW217655   2.826   2.833   6.479 -1.4133 -0.3672  1.0272
 2007SOL     OW17656   4.624   4.093  11.907  0.2690  0.1979  0.3348
 2007SOL    HW117657   4.711   4.124  11.880  0.4334  1.1984  2.0135
 2007SOL    HW217658   4.644   4.004  11.935  0.2212 -0.3559 -1.3409
 2008SOL     OW17659   0.624   3.513  15.214 -0.2072 -0.3722  0.2320
 2008SOL    HW117660   0.676   3.593  15.208  1.9404 -1.7083  0.9229
 2008SOL    HW217661   0.687   3.441  15.222  2.6512  1.8568 -2.5915
 2009SOL     OW17662   1.526   1.473   5.714  0.2643  0.1222  0.3333
 2009SOL    HW117663   1.451   1.414   5.707 -0.2572  0.7649  0.4590
 2009SOL    HW217664   1.587   1.430   5.655 -1.5659  0.3372 -1.7439
 2010SOL     OW17665   3.219   2.993   2.052 -0.4272 -0.4599 -0.3432
 2010SOL    HW117666   3.219   3.023   1.961  0.2258  1.1467  0.1938
 2010SOL    HW217667   3.127   3.004   2.075  0.1540 -0.2702  1.9352
 2011SOL     OW17668   2.941   1.262   7.298 -0.0264  0.5419 -0.4181
 2011SOL    HW117669   3.023   1.250   7.346 -1.2482  0.3054  1.6220
 2011SOL    HW217670   2.894   1.181   7.317  0.6701  0.8602  2.7710
 2012SOL     OW17671   2.951   1.490   6.800 -0.0369 -0.6499  0.0867
 2012SOL    HW117672   3.035   1.461   6.835  0.3539  0.9835  0.5099
 2012SOL    HW217673   2.904   1.531   6.873 -0.9129  3.1875 -2.6147
 2013SOL     OW17674   0.909   1.645   6.252 -0.3548 -0.3148  0.3288
 2013SOL    HW117675   0.956   1.674   6.174 -1.4112  0.3920 -0.0608
 2013SOL    HW217676   0.961   1.572   6.284  1.6543  0.2838 -1.5754
 2014SOL     OW17677   0.649   3.628   2.821  0.5355  0.0207 -0.0101
 2014SOL    HW117678   0.624   3.609   2.911 -1.1284  1.5262 -0.1582
 2014SOL    HW217679   0.572   3.681   2.802 -0.0107 -1.4361 -1.8993
 2015SOL     OW17680   4.604   2.358   6.272  0.2209 -0.7946  0.7007
 2015SOL    HW117681   4.605   2.416   6.196 -1.0243 -0.5323  0.8827
 2015SOL    HW217682   4.697   2.340   6.282  0.6298  1.0464  0.1124
 2016SOL     OW17683   4.371   2.523   6.795 -0.2552  0.4873  0.0037
 2016SOL    HW117684   4.416   2.567   6.723  0.6849  0.7352  0.7468
 2016SOL    HW217685   4.276   2.529   6.780 -0.0942 -0.1445 -1.2380
 2017SOL     OW17686   2.290   4.572   6.331 -0.1498 -0.0422  0.5194
 2017SOL    HW117687   2.209   4.522   6.317 -0.5376  1.3930 -2.3759
 2017SOL    HW217688   2.264   4.630   6.402 -1.4487  0.6805 -0.5539
 2018SOL     OW17689   3.571   0.442  14.092 -0.5158  0.4302 -0.5432
 2018SOL    HW117690   3.634   0.514  14.098 -1.4392  1.0320  1.8960
 2018SOL    HW217691   3.548   0.426  14.183  1.2507 -2.3695 -0.5826
 2019SOL     OW17692   0.444   3.049   4.666  0.0060 -0.1398  0.2524
 2019SOL    HW117693   0.539   3.062   4.674 -0.2910  1.1762  1.8258
 2019SOL    HW217694   0.427   3.038   4.760  1.0911  0.0181  0.4768
 2020SOL     OW17695   0.304   2.863   0.533 -1.0753 -0.0979 -0.2354
 2020SOL    HW117696   0.246   2.938   0.545 -0.6131  0.6339 -2.5534
 2020SOL    HW217697   0.276   2.812   0.608  0.9915 -0.2907  0.4236
 2021SOL     OW17698   0.121   0.672   3.387 -0.0434  0.3334  0.4798
 2021SOL    HW117699   0.124   0.707   3.298 -2.6067 -0.6016  0.0167
 2021SOL    HW217700   0.116   0.756   3.433 -0.5323  0.5241  0.0745
 2022SOL     OW17701   3.246   0.799  15.239 -0.0323 -0.9167  0.3894
 2022SOL    HW117702   3.172   0.824  15.185 -0.5239 -0.1465  1.4198
 2022SOL    HW217703   3.202   0.764  15.317  1.1765 -2.3669  0.4255
 2023SOL     OW17704   3.844   3.525   6.120 -0.5620  0.2288 -0.2114
 2023SOL    HW117705   3.783   3.452   6.111  0.6027 -0.7183 -0.4194
 2023SOL    HW217706   3.788   3.591   6.079 -0.4025 -0.7012 -1.8952
 2024SOL     OW17707   2.427   2.754   2.408 -0.2062  0.3281 -0.1382
 2024SOL    HW117708   2.408   2.687   2.342 -0.1075 -0.6477  0.8236
 2024SOL    HW217709   2.517   2.783   2.389 -0.3365  0.4595 -0.5447
 2025SOL     OW17710   0.133   1.969   4.388 -0.3632 -0.1546  0.5395
 2025SOL    HW117711   0.172   1.883   4.401  1.5661  0.7008  0.3508
 2025SOL    HW217712   0.082   1.971   4.470 -0.9217 -0.2039  0.1953
 2026SOL     OW17713   0.781   2.857   7.831  0.2832 -0.2383 -0.0607
 2026SOL    HW117714   0.801   2.939   7.786 -0.6185 -1.1962 -2.2142
 2026SOL    HW217715   0.838   2.866   7.907 -0.5596  0.3797  0.5046
 2027SOL     OW17716   0.271   0.070  10.987 -0.5389  0.5430 -0.0665
 2027SOL    HW117717   0.231   0.002  10.932  0.4361 -3.1321  3.7603
 2027SOL    HW217718   0.264   0.156  10.946  1.7545 -0.0497 -1.7388
 2028SOL     OW17719   2.266   3.276  15.232  0.3910 -0.5844 -0.2487
 2028SOL    HW117720   2.196   3.223  15.195  0.1829 -0.5245  0.0659
 2028SOL    HW217721   2.231   3.285  15.320 -0.4474  0.6686 -0.7117
 2029SOL     OW17722   0.353   1.331   2.008 -0.6423  0.1307  0.2599
 2029SOL    HW117723   0.433   1.305   2.052 -0.0623  0.0862 -0.8079
 2029SOL    HW217724   0.310   1.369   2.085  1.8334  2.0343  0.7055
 2030SOL     OW17725   3.360   0.938   8.776 -0.0598  0.0146  0.2142
 2030SOL    HW117726   3.359   0.844   8.795  0.3138 -0.3074 -1.3615
 2030SOL    HW217727   3.337   0.974   8.861  2.3519  0.8287  0.5152
 2031SOL     OW17728   2.206   1.774   1.065  0.7202  0.2321  0.3727
 2031SOL    HW117729   2.179   1.800   1.154 -1.3492 -0.0762 -0.1509
 2031SOL    HW217730   2.126   1.794   1.016  0.0096  0.6347  1.6769
 2032SOL     OW17731   0.833   4.119   7.773  0.6722 -0.4243  0.1682
 2032SOL    HW117732   0.752   4.115   7.824  1.5133  0.1793  1.5551
 2032SOL    HW217733   0.800   4.083   7.691  2.0481  0.1208 -0.6311
 2033SOL     OW17734   2.045   2.663  14.508 -0.1523  0.7209  0.0514
 2033SOL    HW117735   2.015   2.724  14.576 -0.9927 -2.8909  2.9315
 2033SOL    HW217736   2.138   2.652  14.529 -0.1154 -0.2619 -0.6342
 2034SOL     OW17737   2.411   3.811   9.537 -0.1834 -0.1133 -0.1376
 2034SOL    HW117738   2.475   3.815   9.467  0.5818  1.2103  0.6494
 2034SOL    HW217739   2.327   3.833   9.496 -0.6303  1.1186  1.4194
 2035SOL     OW17740   1.117   0.105   7.068 -0.2157  0.1638 -0.0179
 2035SOL    HW117741   1.094   0.180   7.014  1.4971 -0.7710 -2.0490
 2035SOL    HW217742   1.199   0.075   7.029  1.1135  2.7041  0.8889
 2036SOL     OW17743   3.799   4.092   2.415 -0.2847 -0.7709 -0.4406
 2036SOL    HW117744   3.753   4.115   2.496 -2.2747 -0.7535 -1.5668
 2036SOL    HW217745   3.840   4.178   2.410 -3.0822  0.5829 -0.2765
 2037SOL     OW17746   1.663   4.193   5.430 -0.0996  0.3802  0.1631
 2037SOL    HW117747   1.578   4.212   5.470 -0.8729 -0.6365 -0.9777
 2037SOL    HW217748   1.648   4.214   5.337 -0.8849  0.5464  0.3238
 2038SOL     OW17749   0.989   0.725   7.564 -0.1803 -0.0024 -0.4600
 2038SOL    HW117750   0.939   0.806   7.559  0.1040  0.2422  0.7387
 2038SOL    HW217751   0.984   0.699   7.656 -1.9173  1.3472 -0.1925
 2039SOL     OW17752   0.428   2.060   6.350 -0.0163  0.0900 -0.1288
 2039SOL    HW117753   0.375   2.013   6.286  0.3188  1.0710 -1.1170
 2039SOL    HW217754   0.371   2.046   6.426 -0.5507  1.6735 -0.2276
 2040SOL     OW17755   2.316   0.861  10.591  0.5396 -0.3152  0.0243
 2040SOL    HW117756   2.323   0.766  10.594 -1.0937 -0.4176  0.6281
 2040SOL    HW217757   2.392   0.894  10.638  1.5987 -3.4819  0.5437
 2041SOL     OW17758   1.910   2.951  15.028  0.2519 -0.1592 -0.3990
 2041SOL    HW117759   1.941   2.864  15.005 -1.5849 -0.8349 -0.2871
 2041SOL    HW217760   1.986   2.991  15.071  1.8828 -1.8774 -1.6560
 2042SOL     OW17761   0.875   2.123   3.364 -0.1232 -0.1786  0.6028
 2042SOL    HW117762   0.829   2.156   3.287  1.3365 -2.2085 -1.1403
 2042SOL    HW217763   0.857   2.195   3.423  2.6048 -0.3273  1.6238
 2043SOL     OW17764   4.041   1.692   4.220 -0.3312  0.2162  0.2048
 2043SOL    HW117765   4.109   1.757   4.235  0.0739  0.0610 -0.9241
 2043SOL    HW217766   3.969   1.724   4.274 -0.5778  0.5765 -0.3330
 2044SOL     OW17767   0.104   2.649   8.809 -0.4092 -0.5544  0.4411
 2044SOL    HW117768   0.066   2.721   8.757 -0.9129 -1.3753 -0.3302
 2044SOL    HW217769   0.027   2.594   8.823 -0.6612 -0.1654  0.6021
 2045SOL     OW17770   0.186   2.691   2.313  0.1612  0.0822 -1.0250
 2045SOL    HW117771   0.272   2.688   2.270  0.1275 -0.1777 -1.0731
 2045SOL    HW217772   0.142   2.727   2.236  2.7622 -0.6134 -2.8487
 2046SOL     OW17773   4.156   3.847  16.173 -0.2239  0.2642 -0.3378
 2046SOL    HW117774   4.148   3.822  16.082  0.3671  0.7929 -0.5367
 2046SOL    HW217775   4.170   3.761  16.213 -2.1763 -0.0452 -0.3363
 2047SOL     OW17776   1.546   3.331  16.436  0.1521 -0.1310  0.9003
 2047SOL    HW117777   1.518   3.419  16.412  0.6438 -0.2896 -0.2725
 2047SOL    HW217778   1.641   3.340  16.446  0.3682  0.3308 -1.6108
 2048SOL     OW17779   1.142   3.029  12.468  0.3540  0.1359  0.3049
 2048SOL    HW117780   1.048   3.016  12.482  0.5344 -1.0806  0.4055
 2048SOL    HW217781   1.139   3.086  12.392  1.2245  0.2252  0.3467
 2049SOL     OW17782   1.643   2.037   7.789 -0.1282 -0.4892 -0.0125
 2049SOL    HW117783   1.724   2.011   7.832  0.6735  1.2627 -0.4572
 2049SOL    HW217784   1.674   2.094   7.718 -0.7809  1.8280  1.5761
 2050SOL     OW17785   0.798   2.952   6.169 -0.3675  0.5710 -0.8079
 2050SOL    HW117786   0.712   2.996   6.169  1.4375  4.0784 -0.9225
 2050SOL    HW217787   0.840   3.006   6.102  0.2260  0.3254 -0.6303
 2051SOL     OW17788   1.419   2.079   9.570 -0.2951 -0.5277  0.4326
 2051SOL    HW117789   1.441   2.015   9.503  0.5878  1.1314 -0.8466
 2051SOL    HW217790   1.335   2.114   9.539  1.6595  1.9651 -1.9108
 2052SOL     OW17791   4.543   0.171   8.636  0.1596  0.2222  0.0170
 2052SOL    HW117792   4.556   0.231   8.562 -2.3618  1.3479  0.4960
 2052SOL    HW217793   4.586   0.092   8.603 -0.5978  0.9563 -2.7849
 2053SOL     OW17794   2.922   3.804  17.095  0.1932  0.0478 -0.1245
 2053SOL    HW117795   2.855   3.739  17.117 -0.1007  0.6468  0.7314
 2053SOL    HW217796   2.868   3.878  17.066  1.9389  1.2025 -0.4216
 2054SOL     OW17797   2.560   4.108  10.641  0.2827  0.2840  0.5664
 2054SOL    HW117798   2.621   4.170  10.599  0.0066 -0.0439 -0.3125
 2054SOL    HW217799   2.620   4.077  10.710  0.6683 -2.6428 -1.0865
 2055SOL     OW17800   0.229   1.022   2.907 -0.4587 -0.8526 -0.2218
 2055SOL    HW117801   0.185   1.085   2.964 -1.1821 -1.7402  0.2048
 2055SOL    HW217802   0.272   1.078   2.842 -0.7716 -0.2535  0.0844
 2056SOL     OW17803   4.675   3.247   4.225 -0.4171 -0.3250  0.0887
 2056SOL    HW117804   4.585   3.240   4.259  0.2344  0.5111  1.9928
 2056SOL    HW217805   4.697   3.327   4.272  1.2759  0.6238 -2.3387
 2057SOL     OW17806   4.698   2.049   2.462  0.8319 -0.3635 -0.2545
 2057SOL    HW117807   4.684   2.130   2.511 -0.5793 -0.9109  0.2723
 2057SOL    HW217808   4.609   2.031   2.430  0.3772 -1.4216  1.6084
 2058SOL     OW17809   3.015   2.920  12.256  0.6099  0.3849 -0.3422
 2058SOL    HW117810   2.970   2.838  12.278  1.0990 -0.2547 -1.7108
 2058SOL    HW217811   3.054   2.890  12.174  1.7594  3.2405 -0.8316
 2059SOL     OW17812   3.798   0.741   1.055 -0.1903 -0.2338  0.1796
 2059SOL    HW117813   3.768   0.787   0.977 -0.4395 -2.3104 -0.9602
 2059SOL    HW217814   3.874   0.796   1.075 -1.7476  1.8944  0.2111
 2060SOL     OW17815   3.605   1.226  11.950  0.0246  0.1276  0.0124
 2060SOL    HW117816   3.688   1.212  11.995  0.0278  1.2864  0.3740
 2060SOL    HW217817   3.639   1.221  11.861 -0.8901 -1.2461 -0.2622
 2061SOL     OW17818   3.146   0.330  13.064 -0.0050  0.2245  0.5099
 2061SOL    HW117819   3.112   0.356  12.978 -1.4444 -0.9217  0.7253
 2061SOL    HW217820   3.239   0.315  13.051 -0.6188 -1.9184 -1.4862
 2062SOL     OW17821   3.011   1.683   6.051  0.2263 -0.1298  0.1883
 2062SOL    HW117822   2.997   1.600   6.096  1.5753 -0.7526 -0.5508
 2062SOL    HW217823   2.931   1.722   6.087 -0.1908 -0.4624 -0.3884
 2063SOL     OW17824   4.326   4.044  15.072  1.0665 -0.0284 -0.1473
 2063SOL    HW117825   4.312   3.987  14.996 -0.9763 -3.1066  2.4933
 2063SOL    HW217826   4.420   4.054  15.081  0.6776  3.5634 -0.0879
 2064SOL     OW17827   1.332   3.811   0.815 -0.1133  0.1916  0.5120
 2064SOL    HW117828   1.337   3.758   0.735 -0.8936  3.1377 -1.4719
 2064SOL    HW217829   1.347   3.899   0.781  2.1707  0.3622  1.9717
 2065SOL     OW17830   0.979   1.204   2.639  0.8034  0.2523  0.1759
 2065SOL    HW117831   1.051   1.262   2.615  2.0127 -0.5029  1.9568
 2065SOL    HW217832   0.996   1.124   2.589  1.0384  1.3481 -1.4669
 2066SOL     OW17833   1.920   4.588   7.751 -0.1901  0.7792 -0.5716
 2066SOL    HW117834   1.927   4.587   7.655 -0.6925 -1.4253 -0.5940
 2066SOL    HW217835   1.829   4.605   7.776 -0.1704  2.0090 -1.3340
 2067SOL     OW17836   3.245   3.544   7.387 -0.5240 -0.4595 -0.0272
 2067SOL    HW117837   3.322   3.495   7.359 -1.5218 -0.9781 -1.9373
 2067SOL    HW217838   3.265   3.575   7.475  0.9616 -0.1221 -0.4982
 2068SOL     OW17839   4.519   2.278   4.747  0.3270 -0.6747 -0.1856
 2068SOL    HW117840   4.569   2.291   4.827 -0.6520  0.2180  0.2754
 2068SOL    HW217841   4.460   2.204   4.759 -0.6603 -0.2698 -2.4815
 2069SOL     OW17842   4.028   0.366   7.180  0.5655 -0.2385  0.1124
 2069SOL    HW117843   4.077   0.406   7.251  0.9914 -1.2618  0.4000
 2069SOL    HW217844   3.954   0.426   7.185 -0.5407 -1.8004  2.2511
 2070SOL     OW17845   3.542   3.571   2.984  0.0470 -0.2501 -0.7176
 2070SOL    HW117846   3.590   3.488   2.979  0.1325 -0.3320  1.2842
 2070SOL    HW217847   3.518   3.583   2.892 -1.6299  2.0839  0.0452
 2071SOL     OW17848   2.593   0.372   6.262  0.2543  0.8783  0.0669
 2071SOL    HW117849   2.657   0.437   6.293 -0.4837  1.4876  0.3025
 2071SOL    HW217850   2.536   0.426   6.208 -0.4489 -2.9092 -2.9259
 2072SOL     OW17851   1.259   0.361   5.066 -0.4240  0.4400  0.0248
 2072SOL    HW117852   1.295   0.401   4.987 -1.9518  1.9360  0.0830
 2072SOL    HW217853   1.283   0.426   5.132 -2.0688  1.0973 -0.0104
 2073SOL     OW17854   4.621   3.100   3.998  0.1829 -0.2037  0.2331
 2073SOL    HW117855   4.653   3.149   4.073  0.5753 -0.9822  0.5725
 2073SOL    HW217856   4.624   3.172   3.935 -0.5597  0.3646  0.8597
 2074SOL     OW17857   3.684   0.118   4.915 -0.3856 -0.5343 -0.2327
 2074SOL    HW117858   3.624   0.044   4.907 -1.2202  0.0220  0.8351
 2074SOL    HW217859   3.630   0.196   4.932 -0.1844 -0.4187 -0.1172
 2075SOL     OW17860   0.792   3.814   2.016 -0.9098 -0.6812 -0.0179
 2075SOL    HW117861   0.798   3.871   1.939  1.4966  1.0587  1.4692
 2075SOL    HW217862   0.722   3.754   1.992 -3.5314  2.3884 -0.1306
 2076SOL     OW17863   1.753   3.963   4.172 -0.0852 -0.7281  0.1492
 2076SOL    HW117864   1.719   3.991   4.257 -1.9607  2.0261 -1.5068
 2076SOL    HW217865   1.845   3.943   4.189  0.0053 -1.3139 -1.0740
 2077SOL     OW17866   1.178   1.921   7.142 -0.0498 -0.0937  0.3395
 2077SOL    HW117867   1.208   1.996   7.091 -1.6852 -0.5357 -1.2867
 2077SOL    HW217868   1.158   1.852   7.079  3.4111 -0.8644  0.1067
 2078SOL     OW17869   3.617   0.521   7.358  0.3058  0.2435  0.6687
 2078SOL    HW117870   3.623   0.427   7.377  0.6372  0.1338  0.0158
 2078SOL    HW217871   3.692   0.530   7.300 -0.9686 -1.4323 -1.2136
 2079SOL     OW17872   3.525   3.471   9.169  0.3236  0.0858 -0.8651
 2079SOL    HW117873   3.453   3.415   9.140  1.5476 -1.6663 -0.5228
 2079SOL    HW217874   3.546   3.521   9.090  2.0827 -0.5056 -0.7673
 2080SOL     OW17875   4.377   2.918  13.603  0.1577  0.0884 -0.3157
 2080SOL    HW117876   4.285   2.931  13.580  0.0580  1.0709  0.6516
 2080SOL    HW217877   4.377   2.866  13.684  1.0449 -0.5143 -0.7097
 2081SOL     OW17878   2.822   2.037   9.873 -0.2599 -0.0158 -0.1091
 2081SOL    HW117879   2.847   2.113   9.821  3.0587 -0.6130  0.5841
 2081SOL    HW217880   2.734   2.015   9.843 -1.1211  1.6727  1.1859
 2082SOL     OW17881   3.995   0.254  16.467 -0.0847  0.3892  0.7327
 2082SOL    HW117882   4.048   0.179  16.497  0.5675  1.0969  1.3626
 2082SOL    HW217883   4.054   0.316  16.510  1.8058  0.0195 -1.3033
 2083SOL     OW17884   3.475   3.726   4.530  0.2907 -0.5865  0.0775
 2083SOL    HW117885   3.422   3.800   4.559  1.8300  0.8081 -0.6534
 2083SOL    HW217886   3.447   3.711   4.440  1.3213  1.3650 -0.5591
 2084SOL     OW17887   0.153   0.108  13.900  0.2374  0.2305 -0.2190
 2084SOL    HW117888   0.129   0.139  13.813  0.5119  1.7843  0.2549
 2084SOL    HW217889   0.069   0.085  13.941 -1.7549  0.8264 -4.0297
 2085SOL     OW17890   3.429   4.603   8.894  0.2504 -0.0032  0.1567
 2085SOL    HW117891   3.388   4.614   8.808  1.5873 -2.0903 -0.7513
 2085SOL    HW217892   3.380   4.531   8.932  0.1287 -0.3897 -0.7263
 2086SOL     OW17893   0.883   2.260   2.584 -0.2649  0.3623 -0.0839
 2086SOL    HW117894   0.909   2.173   2.556 -0.0429  0.1502  0.7708
 2086SOL    HW217895   0.909   2.266   2.676 -0.6750 -2.0532  0.1848
 2087SOL     OW17896   3.579   3.496  15.027 -0.1271  0.0897 -0.0895
 2087SOL    HW117897   3.543   3.543  14.952  0.9762  1.8514  0.4647
 2087SOL    HW217898   3.597   3.409  14.993  1.9473  0.3510  0.3311
 2088SOL     OW17899   1.588   4.458  12.986 -0.3547 -0.4181 -0.2060
 2088SOL    HW117900   1.539   4.461  13.068 -0.9753 -1.3306 -0.5361
 2088SOL    HW217901   1.586   4.366  12.958  1.3230 -0.0655 -1.4878
 2089SOL     OW17902   3.898   2.122   7.393 -0.3853 -0.0694 -0.1285
 2089SOL    HW117903   3.876   2.193   7.454  2.4294  0.0701  0.6895
 2089SOL    HW217904   3.982   2.160   7.368 -0.8300  1.0809  0.1531
 2090SOL     OW17905   2.771   4.024   1.936  0.2435 -0.2359  0.4283
 2090SOL    HW117906   2.714   3.969   1.990 -0.4187  1.2236  1.2066
 2090SOL    HW217907   2.704   4.090   1.923  0.5453 -0.4551 -2.2545
 2091SOL     OW17908   4.341   2.707   4.859 -0.6209  0.2082  0.4033
 2091SOL    HW117909   4.364   2.796   4.835 -2.6393  0.6842  0.2053
 2091SOL    HW217910   4.429   2.668   4.859 -0.3270  0.8668 -4.6328
 2092SOL     OW17911   3.391   4.472   8.316  0.1960  0.5493 -0.2896
 2092SOL    HW117912   3.480   4.438   8.306 -0.1590 -0.1938 -0.9465
 2092SOL    HW217913   3.343   4.396   8.283  2.6591 -1.0321 -0.1785
 2093SOL     OW17914   4.139   1.502   1.937 -0.1407 -0.3269  0.3976
 2093SOL    HW117915   4.197   1.555   1.882  0.4181 -0.7467  0.5793
 2093SOL    HW217916   4.170   1.413   1.922  0.1298 -0.3860  1.3222
 2094SOL     OW17917   2.786   3.681   9.309  0.0246 -0.5093  0.0716
 2094SOL    HW117918   2.869   3.654   9.272 -0.8104 -0.5558 -1.7660
 2094SOL    HW217919   2.745   3.597   9.332 -2.3725  0.4773 -0.5535
 2095SOL     OW17920   4.175   2.568   5.084 -0.1433 -0.6874  0.2208
 2095SOL    HW117921   4.208   2.620   5.011  0.7497 -0.5721  0.7031
 2095SOL    HW217922   4.081   2.564   5.069  0.1313  0.9509 -1.8026
 2096SOL     OW17923   4.551   4.125   5.394  0.1033  0.0805  0.7702
 2096SOL    HW117924   4.589   4.203   5.435  2.9582 -1.5897  1.2713
 2096SOL    HW217925   4.629   4.082   5.360  0.9347  1.4066  1.0249
 2097SOL     OW17926   3.887   1.839   9.407 -0.7075  0.7278  0.1031
 2097SOL    HW117927   3.974   1.801   9.415 -0.9766  0.1271  0.1881
 2097SOL    HW217928   3.841   1.787   9.473 -0.3918 -0.3158 -0.4870
 2098SOL     OW17929   4.214   0.574   2.236 -0.3721  0.0903 -0.1751
 2098SOL    HW117930   4.238   0.622   2.315 -3.2803 -1.1694  1.4637
 2098SOL    HW217931   4.127   0.544   2.261 -0.7253 -0.1667 -1.6927
 2099SOL     OW17932   1.025   4.336   0.645  0.4012 -0.3474 -0.3243
 2099SOL    HW117933   0.936   4.366   0.663  1.0169  0.2997  1.6293
 2099SOL    HW217934   0.999   4.257   0.597 -1.5914 -0.1451  0.4066
 2100SOL     OW17935   2.351   4.707   8.127 -0.0272 -0.1260 -0.2332
 2100SOL    HW117936   2.400   4.699   8.209 -1.3882 -4.0027  0.2134
 2100SOL    HW217937   2.315   0.061   8.120 -0.7166 -0.4512 -0.8517
 2101SOL     OW17938   0.254   4.539   8.051 -0.2168  0.0406 -0.4969
 2101SOL    HW117939   0.220   4.495   8.129 -1.9431  0.1156 -1.2097
 2101SOL    HW217940   0.341   4.508   8.074 -1.2143 -2.1845  0.3383
 2102SOL     OW17941   1.330   0.904   5.331 -0.0729 -0.4198 -0.1269
 2102SOL    HW117942   1.311   0.904   5.237 -0.7237 -0.3293  0.0006
 2102SOL    HW217943   1.245   0.889   5.374 -0.5078  0.0622 -0.8223
 2103SOL     OW17944   0.582   1.951   4.778  0.0701 -0.1370  0.0694
 2103SOL    HW117945   0.648   1.884   4.795  1.2820  0.9024 -0.4779
 2103SOL    HW217946   0.550   1.957   4.868 -0.3770 -0.0518 -0.0941
 2104SOL     OW17947   4.065   3.319   8.218  0.4575  0.6383 -0.4765
 2104SOL    HW117948   3.993   3.366   8.260  1.8124  2.9324 -0.6898
 2104SOL    HW217949   4.034   3.298   8.131  1.1587 -2.5653  0.0657
 2105SOL     OW17950   2.090   3.577   2.314  0.3020  0.0806 -0.1017
 2105SOL    HW117951   2.098   3.662   2.272  1.0155 -0.5983 -1.3140
 2105SOL    HW217952   1.995   3.564   2.315  1.0203 -5.3215  1.5664
 2106SOL     OW17953   2.478   1.005   2.175  0.1305 -0.0460 -0.2611
 2106SOL    HW117954   2.407   1.029   2.235 -0.1067 -1.0462 -0.1539
 2106SOL    HW217955   2.518   0.936   2.226 -2.1088 -1.8155 -0.9078
 2107SOL     OW17956   1.952   3.025   5.672 -0.2805  0.0985  0.2755
 2107SOL    HW117957   1.861   3.044   5.697 -0.2248  0.5813  0.1076
 2107SOL    HW217958   1.951   2.945   5.620 -0.7659 -0.3858  1.0283
 2108SOL     OW17959   2.934   0.578   2.362 -0.3664 -0.2032  0.7783
 2108SOL    HW117960   2.845   0.544   2.351 -1.3671  2.7244  0.0101
 2108SOL    HW217961   2.975   0.515   2.422  0.3785  0.8270  1.3528
 2109SOL     OW17962   2.728   2.718   2.376  1.0999  0.4376 -0.1302
 2109SOL    HW117963   2.726   2.729   2.280 -2.0096  1.0930  0.0214
 2109SOL    HW217964   2.819   2.689   2.385  0.3360 -1.4464  1.3370
 2110SOL     OW17965   1.642   4.297   1.947 -0.4526  0.1623  0.1417
 2110SOL    HW117966   1.727   4.323   1.913 -0.8818  1.4547  0.0649
 2110SOL    HW217967   1.610   4.376   1.991  0.7899 -0.7114  2.6094
 2111SOL     OW17968   1.021   0.107  14.086 -0.2901  0.4943 -0.2940
 2111SOL    HW117969   0.972   0.035  14.126  0.6619  1.0320  1.8263
 2111SOL    HW217970   1.068   0.142  14.162  1.2134 -2.3903  0.1128
 2112SOL     OW17971   0.706   2.929   3.409  0.0272  0.0026  0.2210
 2112SOL    HW117972   0.698   2.895   3.498  4.3650 -2.7736 -0.4655
 2112SOL    HW217973   0.799   2.914   3.397 -0.3175 -2.0072  0.1295
 2113SOL     OW17974   3.849   0.490  12.686 -0.6251  0.2717  0.1956
 2113SOL    HW117975   3.940   0.463  12.680 -1.3859 -2.3063  0.3455
 2113SOL    HW217976   3.799   0.409  12.674 -0.7561  0.4397 -0.3941
 2114SOL     OW17977   2.677   2.894   7.000 -0.3220 -0.3746 -0.7489
 2114SOL    HW117978   2.599   2.890   7.056 -1.1712  3.0677 -1.7372
 2114SOL    HW217979   2.709   2.983   7.011  1.6662 -0.8906 -2.4785
 2115SOL     OW17980   2.157   3.201   5.623  0.2060 -0.1083  0.1342
 2115SOL    HW117981   2.088   3.135   5.626  0.8165 -0.6777  1.3900
 2115SOL    HW217982   2.191   3.209   5.712  0.6147  1.2881 -0.1421
 2116SOL     OW17983   3.485   4.598  12.652  0.2838 -0.2638 -0.5714
 2116SOL    HW117984   3.565   4.643  12.677  0.9674 -2.3215  0.9497
 2116SOL    HW217985   3.523   4.540  12.585  0.2285 -0.0749 -0.7672
 2117SOL     OW17986   0.644   2.583   3.690 -0.1611 -0.1158 -0.1862
 2117SOL    HW117987   0.591   2.532   3.752  2.5074  0.6499  2.7544
 2117SOL    HW217988   0.630   2.548   3.602  0.6284 -3.2587  0.9174
 2118SOL     OW17989   4.176   1.453   8.782  0.7421 -0.2840 -0.2669
 2118SOL    HW117990   4.266   1.425   8.763  0.4617 -0.7164 -0.9219
 2118SOL    HW217991   4.161   1.519   8.714  0.7892  0.7629  0.7230
 2119SOL     OW17992   2.004   4.468   3.340  0.1205 -0.1806 -0.3882
 2119SOL    HW117993   2.098   4.451   3.335 -0.0217 -0.5639 -1.6800
 2119SOL    HW217994   1.969   4.398   3.396 -3.3698  0.8274 -1.3106
 2120SOL     OW17995   1.082   1.563   8.874  0.0169 -0.4315 -0.7824
 2120SOL    HW117996   1.014   1.507   8.910  0.2212 -1.0637 -1.3672
 2120SOL    HW217997   1.158   1.508   8.853  1.4041  1.2284 -0.1054
 2121SOL     OW17998   2.907   2.285  11.450 -0.1532 -0.1516  0.0019
 2121SOL    HW117999   2.970   2.275  11.378 -0.8892 -1.2170 -0.4931
 2121SOL    HW218000   2.916   2.199  11.490  1.3572  0.1344  0.2771
 2122SOL     OW18001   3.081   0.259   8.269  0.2601 -0.0214  0.3936
 2122SOL    HW118002   3.173   0.256   8.240  0.2146 -0.2014  0.2694
 2122SOL    HW218003   3.077   0.169   8.301  2.1647 -0.1315  0.3728
 2123SOL     OW18004   0.715   0.017   3.400  0.2734 -0.1912 -0.2231
 2123SOL    HW118005   0.720   0.084   3.331 -0.7610  0.9244  0.7779
 2123SOL    HW218006   0.664   4.682   3.359 -1.9579  1.4131 -0.2106
 2124SOL     OW18007   0.706   0.674   6.467  0.3908  0.2263 -0.1460
 2124SOL    HW118008   0.721   0.674   6.561  0.1233 -0.8160 -0.1019
 2124SOL    HW218009   0.625   0.625   6.455  0.9644 -0.9684  0.8663
 2125SOL     OW18010   4.535   3.484   2.751 -0.4470  0.2358  0.0201
 2125SOL    HW118011   4.461   3.483   2.812  0.2943  0.4768  0.9149
 2125SOL    HW218012   4.583   3.411   2.790  0.8426  0.8693 -0.3792
 2126SOL     OW18013   4.342   4.460   6.339  0.2155  0.3650  0.4203
 2126SOL    HW118014   4.358   4.413   6.257  1.0221  3.1041 -0.9775
 2126SOL    HW218015   4.408   4.416   6.393  0.5387  3.5649  2.6194
 2127SOL     OW18016   1.812   2.967  14.702  0.1550 -0.3444  0.1359
 2127SOL    HW118017   1.776   3.052  14.728  2.8119  1.0771 -0.8010
 2127SOL    HW218018   1.860   2.996  14.624 -0.2956  0.6386  0.2294
 2128SOL     OW18019   3.190   1.935   4.761  0.3917  0.5022 -0.0524
 2128SOL    HW118020   3.176   1.956   4.669  1.4955  0.5923 -0.2105
 2128SOL    HW218021   3.105   1.945   4.803  0.5829  4.2806 -0.5368
 2129SOL     OW18022   4.415   2.921   9.412  0.2546 -0.3283 -0.4556
 2129SOL    HW118023   4.484   2.980   9.442  1.0040 -1.6348  0.3526
 2129SOL    HW218024   4.368   2.977   9.350  0.8019 -0.9914 -1.4689
 2130SOL     OW18025   3.331   4.697   7.413 -0.4734 -0.0192  0.3078
 2130SOL    HW118026   3.291   4.613   7.433  0.7655 -0.2485  1.8434
 2130SOL    HW218027   3.337   4.693   7.318  1.5970 -0.4638  0.4547
 2131SOL     OW18028   0.861   0.846   2.780  0.1501 -0.6342 -0.5323
 2131SOL    HW118029   0.836   0.778   2.844 -0.2338  2.3286  2.4422
 2131SOL    HW218030   0.789   0.908   2.768  1.2500  0.2019 -2.7191
 2132SOL     OW18031   0.457   3.777   4.287  0.5604 -0.2822 -0.7305
 2132SOL    HW118032   0.500   3.762   4.203 -2.0766 -1.7028 -1.8293
 2132SOL    HW218033   0.531   3.786   4.346  0.2819  0.7759 -0.5509
 2133SOL     OW18034   2.749   2.216   9.523 -0.5144 -0.1075  0.5879
 2133SOL    HW118035   2.750   2.131   9.478 -1.0428  0.4309 -0.4419
 2133SOL    HW218036   2.662   2.253   9.504 -0.4198  0.7214  1.7807
 2134SOL     OW18037   1.231   3.999   2.894  0.3097  0.1567 -0.1512
 2134SOL    HW118038   1.232   4.087   2.931 -0.4733  0.4820 -0.9273
 2134SOL    HW218039   1.165   3.950   2.943  0.9340 -0.3510  0.1809
 2135SOL     OW18040   4.158   1.686  13.910 -0.8156  0.0981 -0.0273
 2135SOL    HW118041   4.063   1.700  13.910 -0.7460  0.6777  3.2531
 2135SOL    HW218042   4.174   1.655  13.999 -0.5722 -2.7056 -1.0310
 2136SOL     OW18043   4.399   2.572   5.927 -0.2802  0.3413 -0.3473
 2136SOL    HW118044   4.323   2.520   5.955  0.0290 -0.0552 -0.2347
 2136SOL    HW218045   4.367   2.612   5.847  0.8797 -2.2232 -2.1183
 2137SOL     OW18046   1.870   0.622  16.737  0.3373 -0.0351  0.4720
 2137SOL    HW118047   1.790   0.658  16.698  0.6219 -1.0013 -0.9809
 2137SOL    HW218048   1.917   0.700  16.768  0.7820  0.1345 -0.6482
 2138SOL     OW18049   3.160   1.243  17.558  0.4986  0.7299  0.3157
 2138SOL    HW118050   3.137   1.321  17.609 -0.2394 -0.6311  2.0433
 2138SOL    HW218051   3.255   1.237  17.568  0.7495  0.7619 -1.9971
 2139SOL     OW18052   3.111   1.356   6.988  0.3174 -0.0910 -0.1977
 2139SOL    HW118053   3.094   1.285   7.049  2.8491 -0.1779  0.4291
 2139SOL    HW218054   3.104   1.436   7.041 -1.0952 -0.6944  0.5098
 2140SOL     OW18055   2.724   4.717  16.092 -0.8076 -0.1696 -0.2217
 2140SOL    HW118056   2.704   0.037  16.016 -0.6658 -0.4408 -0.4518
 2140SOL    HW218057   2.817   0.003  16.100  0.1335 -4.8894  1.0191
 2141SOL     OW18058   4.050   3.532   7.606 -0.1496 -0.4950  0.1869
 2141SOL    HW118059   3.995   3.513   7.530  0.4322  0.5960 -0.5116
 2141SOL    HW218060   4.050   3.452   7.658 -0.7996 -0.4580  0.2423
 2142SOL     OW18061   1.563   2.265   7.048  0.1876  0.5170 -0.1261
 2142SOL    HW118062   1.552   2.317   7.128 -0.2273  2.9735 -1.8042
 2142SOL    HW218063   1.640   2.212   7.069 -0.1248 -0.0259 -0.3705
 2143SOL     OW18064   2.151   4.478   1.569  0.6681 -0.3989 -0.2725
 2143SOL    HW118065   2.221   4.536   1.598  0.9251 -0.2301 -1.2317
 2143SOL    HW218066   2.202   4.430   1.504 -1.5562 -1.1353 -1.4752
 2144SOL     OW18067   3.379   3.439   5.159 -0.0425 -0.2267 -0.1615
 2144SOL    HW118068   3.314   3.372   5.136  0.2499 -0.0457 -1.5457
 2144SOL    HW218069   3.441   3.435   5.085 -0.5817 -0.1170 -0.6184
 2145SOL     OW18070   3.439   2.998  15.537 -0.5166 -0.3453  0.5453
 2145SOL    HW118071   3.451   2.997  15.632 -1.8523  0.9246  0.7426
 2145SOL    HW218072   3.435   2.905  15.517  0.4447 -0.4974  1.0507
 2146SOL     OW18073   3.073   1.027   5.516  0.3880  0.1846  0.1479
 2146SOL    HW118074   3.143   0.990   5.569 -0.6416  2.0368  2.8327
 2146SOL    HW218075   3.103   1.032   5.426  1.8675 -0.4784  0.6099
 2147SOL     OW18076   3.874   3.502   3.226 -0.3780 -0.0582 -0.1457
 2147SOL    HW118077   3.860   3.511   3.132  1.0370 -0.3322 -0.3827
 2147SOL    HW218078   3.879   3.407   3.235 -0.4354 -0.2123 -1.7224
 2148SOL     OW18079   3.039   1.499   2.549 -0.1760  0.3274  0.2153
 2148SOL    HW118080   2.963   1.557   2.554 -0.5981 -0.4429  2.7681
 2148SOL    HW218081   3.023   1.457   2.464 -0.5592 -0.1586  0.5296
 2149SOL     OW18082   0.109   2.582   5.402 -0.1881 -0.3314  0.3696
 2149SOL    HW118083   0.059   2.604   5.481  1.0540 -0.9268  1.3116
 2149SOL    HW218084   0.184   2.533   5.435 -0.8770 -2.1621 -0.7722
 2150SOL     OW18085   1.973   0.275  17.188  0.1659 -0.2765 -0.1436
 2150SOL    HW118086   1.937   0.340  17.127 -0.2363  0.2110  0.6236
 2150SOL    HW218087   1.905   0.212  17.163  0.2524  0.4702 -2.2937
 2151SOL     OW18088   2.122   2.650   6.382  1.0992  0.0390  0.1138
 2151SOL    HW118089   2.169   2.640   6.299  1.4280 -0.2989  0.3387
 2151SOL    HW218090   2.030   2.645   6.358  0.4608  3.6451  1.8782
 2152SOL     OW18091   3.969   1.716   2.941  0.0438  0.5374 -0.5743
 2152SOL    HW118092   4.035   1.736   3.007  1.2402 -1.0527 -1.2606
 2152SOL    HW218093   3.893   1.700   2.998  1.7905 -2.1854  1.0264
 2153SOL     OW18094   0.678   2.867   3.688 -0.5012  0.2222 -0.2672
 2153SOL    HW118095   0.724   2.869   3.772 -2.7320  1.7507  0.9196
 2153SOL    HW218096   0.660   2.773   3.680  1.7799 -0.0270 -2.6188
 2154SOL     OW18097   1.169   3.037   8.671  0.1332 -0.1460 -0.0764
 2154SOL    HW118098   1.160   2.966   8.734 -2.2450  0.5127  0.3546
 2154SOL    HW218099   1.216   3.097   8.730 -0.2125 -0.3569  0.4181
 2155SOL     OW18100   0.066   0.321   3.051  0.0731 -0.4481  0.1311
 2155SOL    HW118101   0.087   0.411   3.075  0.3683  0.1875 -2.5026
 2155SOL    HW218102   0.050   0.332   2.958  2.7878  0.7343 -0.1864
 2156SOL     OW18103   0.972   2.217   1.075 -0.7914 -0.5188  0.1608
 2156SOL    HW118104   0.889   2.184   1.041 -0.6453  1.8670 -2.5341
 2156SOL    HW218105   0.988   2.269   0.996  0.7027 -0.2935  0.6248
 2157SOL     OW18106   2.955   0.267   3.692 -0.2929 -0.3986  0.5082
 2157SOL    HW118107   2.902   0.346   3.700  2.7991  1.7550 -0.2779
 2157SOL    HW218108   2.893   0.203   3.727  1.5703 -2.8476 -0.5936
 2158SOL     OW18109   1.728   4.207  14.586 -0.3534 -0.5999  0.2003
 2158SOL    HW118110   1.726   4.180  14.678  1.2853  2.0414  0.9940
 2158SOL    HW218111   1.637   4.192  14.558 -0.3198 -1.0872  0.3517
 2159SOL     OW18112   1.438   4.395   4.056 -0.2078 -0.2628  0.2402
 2159SOL    HW118113   1.469   4.465   3.999 -0.4326 -0.0727  0.3497
 2159SOL    HW218114   1.504   4.386   4.125  0.8404  1.1758 -0.5865
 2160SOL     OW18115   2.940   3.453   5.017 -0.4704  0.0391  0.2223
 2160SOL    HW118116   3.019   3.441   5.069 -0.7232 -0.4934  0.4990
 2160SOL    HW218117   2.903   3.364   5.024  0.5257 -0.5817 -2.6415
 2161SOL     OW18118   3.059   3.350   2.273 -0.5259 -0.4346  0.5255
 2161SOL    HW118119   3.116   3.273   2.275  0.1519  0.0276 -0.8225
 2161SOL    HW218120   3.059   3.370   2.367  1.8574  0.6692  0.2770
 2162SOL     OW18121   0.891   1.281  11.943 -0.1302 -0.1333 -0.4194
 2162SOL    HW118122   0.879   1.349  12.009  0.5115 -1.3837  0.9754
 2162SOL    HW218123   0.947   1.325  11.879 -0.2688 -0.3919 -0.7159
 2163SOL     OW18124   2.143   2.675   4.828  0.3237 -0.1226 -0.1676
 2163SOL    HW118125   2.216   2.727   4.862 -0.2899  0.7402 -0.1590
 2163SOL    HW218126   2.067   2.727   4.852  0.1511 -0.0657 -0.8250
 2164SOL     OW18127   4.499   1.877   3.918  0.6387 -0.0696 -0.1747
 2164SOL    HW118128   4.589   1.910   3.911  0.3938 -0.0640 -3.3095
 2164SOL    HW218129   4.515   1.793   3.962 -0.8369 -0.4649 -0.4076
 2165SOL     OW18130   1.553   1.209   6.176 -0.3673 -0.7372 -0.1935
 2165SOL    HW118131   1.585   1.127   6.214  1.5853  0.5650  0.9346
 2165SOL    HW218132   1.532   1.252   6.259 -2.5622 -0.2652 -0.9891
 2166SOL     OW18133   3.666   0.363   5.417 -0.2431  0.5229  0.3220
 2166SOL    HW118134   3.650   0.324   5.331  0.2723  0.3848  0.2882
 2166SOL    HW218135   3.742   0.314   5.450 -2.4377 -1.4601  2.4295
 2167SOL     OW18136   3.051   0.890   7.962  0.4437  0.2435  0.2713
 2167SOL    HW118137   3.138   0.909   7.925  0.4865 -1.7164 -0.6388
 2167SOL    HW218138   3.055   0.962   8.025  0.2172 -0.8936  1.5814
 2168SOL     OW18139   3.527   0.701   4.875 -0.7411 -0.0497 -0.2725
 2168SOL    HW118140   3.551   0.716   4.784  2.6568  1.7211  0.9335
 2168SOL    HW218141   3.540   0.792   4.903 -0.6065 -0.1629  0.0369
 2169SOL     OW18142   3.603   3.756   5.758  0.0202 -0.2347 -0.5943
 2169SOL    HW118143   3.622   3.696   5.830  0.8454 -1.0852 -1.5087
 2169SOL    HW218144   3.509   3.756   5.775 -0.1758  1.6840 -1.6123
 2170SOL     OW18145   3.835   3.086   0.429  0.3473 -0.4509  0.4338
 2170SOL    HW118146   3.903   3.020   0.419  0.7872 -0.1528  1.4540
 2170SOL    HW218147   3.767   3.034   0.473  0.9470 -1.3057  0.3408
 2171SOL     OW18148   1.664   0.050   3.429 -0.8277 -0.4059  0.1188
 2171SOL    HW118149   1.758   0.038   3.429 -0.9177 -1.0570  0.5665
 2171SOL    HW218150   1.670   0.084   3.339  0.9212  1.6356  1.0094
 2172SOL     OW18151   4.577   0.796   6.387  0.0554 -0.7187 -0.2377
 2172SOL    HW118152   4.491   0.754   6.387  0.1974 -1.0175 -1.4542
 2172SOL    HW218153   4.594   0.797   6.292 -0.9602 -0.7991 -0.4155
 2173SOL     OW18154   0.222   4.550   2.195  0.0200 -0.2312 -0.3311
 2173SOL    HW118155   0.144   4.548   2.250  1.4489  1.1129  1.7761
 2173SOL    HW218156   0.179   4.550   2.110 -2.4177  0.4503  0.9079
 2174SOL     OW18157   0.710   4.543   2.328 -0.0511 -0.2424  0.6044
 2174SOL    HW118158   0.739   4.535   2.419  1.2925  1.6309  0.3290
 2174SOL    HW218159   0.798   4.556   2.294 -0.3973 -1.1515 -0.6612
 2175SOL     OW18160   0.594   0.034   4.389  0.7125  0.0429  0.0860
 2175SOL    HW118161   0.501   0.043   4.408  0.5743  2.0667 -1.6273
 2175SOL    HW218162   0.615   0.003   4.478  1.5019  0.9537  0.2241
 2176SOL     OW18163   0.764   3.598  10.740 -0.2806 -0.1114 -0.0619
 2176SOL    HW118164   0.690   3.540  10.722  1.2538 -2.3708  0.9229
 2176SOL    HW218165   0.719   3.681  10.750 -0.6282 -0.7186  3.3160
 2177SOL     OW18166   0.069   2.533   0.394  0.2683  0.0477  0.5997
 2177SOL    HW118167   0.115   2.560   0.474  0.6782  2.0094 -0.2935
 2177SOL    HW218168   0.142   2.493   0.347  0.4162  2.7606 -1.4419
 2178SOL     OW18169   0.453   4.336  14.707 -0.2154 -0.3940 -0.6995
 2178SOL    HW118170   0.425   4.410  14.654  1.1832  1.5562  1.3044
 2178SOL    HW218171   0.501   4.287  14.639 -0.6033 -1.4112 -0.2347
 2179SOL     OW18172   0.015   4.351   4.125 -0.4447  0.3090  0.3162
 2179SOL    HW118173   0.009   4.429   4.181  0.9011  0.6953 -0.0677
 2179SOL    HW218174   4.690   4.365   4.052 -1.0994 -1.3968  0.5260
 2180SOL     OW18175   2.744   3.843  15.924  0.2697  0.5111 -0.6322
 2180SOL    HW118176   2.700   3.804  16.000  1.0671  0.5883 -0.1354
 2180SOL    HW218177   2.772   3.769  15.870  0.7440 -0.5207  1.0096
 2181SOL     OW18178   0.766   1.629  16.917  0.2650 -0.7228 -0.4802
 2181SOL    HW118179   0.772   1.718  16.953  0.8753 -1.2174  0.6367
 2181SOL    HW218180   0.795   1.585  16.996 -0.1645 -1.1073 -0.5388
 2182SOL     OW18181   1.989   1.719   1.736 -0.2981  0.3155  0.5019
 2182SOL    HW118182   1.910   1.744   1.783 -1.3932 -1.2931 -0.4709
 2182SOL    HW218183   1.958   1.715   1.646 -0.1225 -0.0922  0.4600
 2183SOL     OW18184   4.646   2.975   0.378  0.1552 -0.2189  0.0370
 2183SOL    HW118185   4.647   2.881   0.358 -0.3130 -0.2570  0.1881
 2183SOL    HW218186   4.608   3.014   0.300  2.6821  0.1806 -0.9894
 2184SOL     OW18187   3.997   4.538  14.632  0.2836  0.0706  0.2268
 2184SOL    HW118188   4.014   4.631  14.642  3.1638 -0.4630  0.1367
 2184SOL    HW218189   3.911   4.535  14.590 -0.4171 -3.5480  1.8696
 2185SOL     OW18190   0.308   1.854  11.911 -0.2856 -0.5850 -0.0112
 2185SOL    HW118191   0.311   1.828  12.003 -1.2943 -1.3653 -0.1996
 2185SOL    HW218192   0.277   1.944  11.919  1.7038  0.0900  0.1564
 2186SOL     OW18193   3.140   0.290   9.473  0.1336 -0.1563 -0.0950
 2186SOL    HW118194   3.195   0.288   9.551  0.8323  1.8922 -0.5197
 2186SOL    HW218195   3.156   0.204   9.434  0.4165 -1.5286  3.0850
 2187SOL     OW18196   4.561   4.478  15.713  0.6602 -0.5259 -0.2793
 2187SOL    HW118197   4.504   4.495  15.787 -0.4062 -2.4045 -0.6837
 2187SOL    HW218198   4.561   4.382  15.714  0.2800 -0.5138  0.7117
 2188SOL     OW18199   1.525   2.876   6.806 -0.3489  0.2814 -0.1843
 2188SOL    HW118200   1.596   2.813   6.789 -1.0266 -0.3473 -0.6776
 2188SOL    HW218201   1.483   2.832   6.880  1.5670  0.6973  1.1580
 2189SOL     OW18202   4.683   0.373   7.171  0.0811  0.4384  0.8340
 2189SOL    HW118203   4.652   0.381   7.081 -0.9734 -2.9470  0.8996
 2189SOL    HW218204   4.720   0.285   7.172  1.3209  0.9509 -1.0474
 2190SOL     OW18205   0.761   3.342   5.922  0.4282 -0.0395  0.0211
 2190SOL    HW118206   0.825   3.405   5.956 -1.0311  0.1567  2.4137
 2190SOL    HW218207   0.679   3.373   5.959  0.8862  0.2117  0.8313
 2191SOL     OW18208   3.505   3.327   2.508  0.0433  0.5672 -0.3551
 2191SOL    HW118209   3.480   3.240   2.475  0.4767  0.8296 -1.3737
 2191SOL    HW218210   3.488   3.326   2.602  0.5361  1.1260 -0.2607
 2192SOL     OW18211   4.734   4.702  16.695 -0.5319 -0.1992 -1.2777
 2192SOL    HW118212   0.091   4.713  16.671 -0.1136  0.1599  0.4384
 2192SOL    HW218213   4.681   0.032  16.649 -1.9934 -1.0571 -0.8011
 2193SOL     OW18214   0.872   0.945  16.628  0.4642 -0.4023 -0.1835
 2193SOL    HW118215   0.888   0.898  16.546 -0.8452 -1.1435 -0.0193
 2193SOL    HW218216   0.789   0.900  16.645  0.2185  0.6317  1.3131
 2194SOL     OW18217   0.342   0.346   2.869  0.9425 -0.0890  0.0643
 2194SOL    HW118218   0.290   0.419   2.902  0.1866  0.0328 -1.3707
 2194SOL    HW218219   0.364   0.391   2.787  1.7139 -2.2656 -0.9357
 2195SOL     OW18220   4.433   1.429   2.320 -0.2455 -0.2908 -0.2354
 2195SOL    HW118221   4.382   1.361   2.365 -1.1658  0.6202  0.1052
 2195SOL    HW218222   4.396   1.513   2.347 -3.6524 -1.1926 -2.1668
 2196SOL     OW18223   1.392   2.077   0.428 -0.1531  0.6592  0.7821
 2196SOL    HW118224   1.378   1.982   0.426  1.6332  0.4436 -1.6052
 2196SOL    HW218225   1.309   2.121   0.413  0.3702  1.1418 -0.7107
 2197SOL     OW18226   1.052   0.917   8.500 -0.1246  0.3100  0.1332
 2197SOL    HW118227   1.015   0.996   8.540 -1.1808  1.3820 -2.9961
 2197SOL    HW218228   1.116   0.959   8.442 -1.0996 -0.2417 -1.3190
 2198SOL     OW18229   3.848   0.129   1.887 -0.7990 -0.2211 -0.3430
 2198SOL    HW118230   3.800   0.192   1.833  0.4150  2.3179  1.5236
 2198SOL    HW218231   3.938   0.156   1.875 -0.5798 -0.5045  0.5897
 2199SOL     OW18232   3.713   4.172   7.348  0.1840  0.0593  0.8494
 2199SOL    HW118233   3.622   4.201   7.353  0.2034  0.1981  0.3525
 2199SOL    HW218234   3.706   4.112   7.274  3.0738  0.5767  0.1500
 2200SOL     OW18235   2.659   2.490   9.802 -0.0017 -0.1494  0.1734
 2200SOL    HW118236   2.620   2.550   9.865  1.8437  0.2753  0.9107
 2200SOL    HW218237   2.599   2.415   9.805  0.9727 -0.9867 -0.8611
 2201SOL     OW18238   0.854   3.790   4.902 -0.2515 -0.3056  0.2978
 2201SOL    HW118239   0.895   3.829   4.980 -0.8546  0.2421  0.3375
 2201SOL    HW218240   0.814   3.865   4.860 -0.4600 -0.5371  0.0854
 2202SOL     OW18241   4.508   2.419   7.004 -0.5258  0.4139 -0.0024
 2202SOL    HW118242   4.570   2.349   6.980  1.4392  2.2821 -0.3331
 2202SOL    HW218243   4.457   2.431   6.925  0.0608 -0.6470 -0.5427
 2203SOL     OW18244   2.514   0.405  11.791 -0.6474  0.7226  0.2337
 2203SOL    HW118245   2.558   0.333  11.746 -0.0885  0.5178  1.1041
 2203SOL    HW218246   2.579   0.474  11.774 -1.5605  0.9809 -2.2359
 2204SOL     OW18247   1.393   2.276   8.694 -0.8377  0.2398 -0.4446
 2204SOL    HW118248   1.344   2.293   8.774  0.2942 -1.2581  0.5620
 2204SOL    HW218249   1.437   2.200   8.730 -0.9909 -0.0180 -0.8019
 2205SOL     OW18250   2.080   3.909   5.385  0.1889 -0.2503 -0.2248
 2205SOL    HW118251   1.989   3.937   5.393  0.4667  0.6287 -0.1536
 2205SOL    HW218252   2.080   3.827   5.434 -0.2432 -0.3808 -0.4406
 2206SOL     OW18253   2.785   3.238  10.834 -0.1967  0.3768  0.2138
 2206SOL    HW118254   2.801   3.322  10.792 -0.4872  0.3522  0.0510
 2206SOL    HW218255   2.857   3.226  10.896  0.2698 -3.1630 -1.0236
 2207SOL     OW18256   0.542   1.644   3.140 -0.5365  0.1387  0.3278
 2207SOL    HW118257   0.610   1.613   3.200  1.7943  1.6143 -1.5609
 2207SOL    HW218258   0.513   1.726   3.181  0.4878  0.3732  0.5814
 2208SOL     OW18259   4.390   3.983   1.012 -0.4377 -0.7471  0.4413
 2208SOL    HW118260   4.411   3.896   1.045 -0.3533 -0.3249  1.5230
 2208SOL    HW218261   4.384   3.973   0.917 -1.5265  0.7878  0.3446
 2209SOL     OW18262   0.763   2.151  11.445 -0.6679 -0.0771  0.1192
 2209SOL    HW118263   0.734   2.169  11.534 -1.3804 -1.7631  0.2176
 2209SOL    HW218264   0.820   2.074  11.437 -3.3354 -1.9263 -1.1751
 2210SOL     OW18265   0.376   1.555   1.798  0.1929  0.8075 -0.3662
 2210SOL    HW118266   0.355   1.484   1.736  3.0878 -0.5150  0.1595
 2210SOL    HW218267   0.364   1.499   1.875 -0.7488  0.1549 -0.9774
 2211SOL     OW18268   4.390   0.926   4.794  0.1045 -0.0702  0.0628
 2211SOL    HW118269   4.379   0.890   4.882 -2.8880 -1.3232 -0.8289
 2211SOL    HW218270   4.481   0.955   4.802  0.3091 -0.9309  0.8951
 2212SOL     OW18271   1.913   1.984   7.808  0.0163  0.0862  0.2580
 2212SOL    HW118272   1.898   1.900   7.764  2.2328 -0.1616 -0.0232
 2212SOL    HW218273   2.007   1.979   7.827  0.0301  1.1078  0.4570
 2213SOL     OW18274   4.304   0.998   5.828  0.1627 -0.0022 -0.5313
 2213SOL    HW118275   4.250   0.923   5.802  1.1291 -0.9495  0.1670
 2213SOL    HW218276   4.242   1.047   5.882 -0.0495 -1.8875  0.9513
 2214SOL     OW18277   4.670   1.529   9.740 -0.3793 -0.8356 -0.6213
 2214SOL    HW118278   4.600   1.586   9.773  1.0445  1.4056 -1.4342
 2214SOL    HW218279   0.012   1.571   9.777 -1.2178 -1.6927  2.0416
 2215SOL     OW18280   3.540   4.280  15.327 -0.3653 -0.3151 -0.1224
 2215SOL    HW118281   3.512   4.191  15.348 -1.2282  0.2904  1.2677
 2215SOL    HW218282   3.459   4.322  15.297 -1.8719 -2.0394  1.5936
 2216SOL     OW18283   4.712   3.137   4.618  0.7407  0.6858 -0.3377
 2216SOL    HW118284   4.721   3.042   4.619 -2.8524  0.3602  0.2810
 2216SOL    HW218285   0.039   3.164   4.550  0.2610 -0.2721 -1.1418
 2217SOL     OW18286   1.306   4.064   6.012 -0.0551  0.0576  0.3570
 2217SOL    HW118287   1.239   4.015   6.059  0.3818  0.1644  1.0910
 2217SOL    HW218288   1.269   4.151   6.002 -0.3053 -0.0321  0.4946
 2218SOL     OW18289   2.726   3.330  17.625  0.7343  0.2152 -0.3261
 2218SOL    HW118290   2.646   3.285  17.598  0.1681  1.0894 -0.1283
 2218SOL    HW218291   2.724   3.403  17.563 -2.5492 -0.1094 -0.6102
 2219SOL     OW18292   2.321   3.622  11.282  0.6270 -0.2334 -0.1700
 2219SOL    HW118293   2.251   3.668  11.329 -0.6129 -1.7428 -0.5383
 2219SOL    HW218294   2.308   3.653  11.192 -2.6062 -1.8408 -0.2683
 2220SOL     OW18295   0.379   1.844   0.299 -0.2532 -0.2296  0.5485
 2220SOL    HW118296   0.374   1.868   0.206  0.0790 -1.0275  0.3267
 2220SOL    HW218297   0.406   1.753   0.303  1.2262  0.1774 -0.4024
 2221SOL     OW18298   3.578   0.050   4.152  0.5348 -0.1529  0.6749
 2221SOL    HW118299   3.648   0.022   4.212  2.5502  0.0374 -1.5578
 2221SOL    HW218300   3.621   0.025   4.070 -0.8277 -1.0429  0.2389
 2222SOL     OW18301   3.268   4.064   0.151  0.1238  0.1804  0.4891
 2222SOL    HW118302   3.363   4.074   0.144  0.2649 -0.4398  1.4983
 2222SOL    HW218303   3.241   4.154   0.171  1.2918  0.5305  0.4688
 2223SOL     OW18304   2.224   1.857   4.629 -0.0048  0.4107  0.2819
 2223SOL    HW118305   2.175   1.939   4.616 -2.0369 -1.2226 -2.4641
 2223SOL    HW218306   2.185   1.802   4.561  0.3025  1.1356 -0.4927
 2224SOL     OW18307   1.307   2.316   2.411 -0.0301  0.0471  0.3049
 2224SOL    HW118308   1.230   2.366   2.437  0.1295  1.0310 -1.0907
 2224SOL    HW218309   1.288   2.305   2.317 -1.2149  0.2574  0.5201
 2225SOL     OW18310   2.204   1.889   1.616  0.0173  0.5343  0.3413
 2225SOL    HW118311   2.268   1.818   1.613  0.1777  0.6442  1.1862
 2225SOL    HW218312   2.127   1.844   1.652  0.2893  0.4377  0.8001
 2226SOL     OW18313   0.019   2.934   9.351  0.1321  0.3420  0.2685
 2226SOL    HW118314   4.684   2.931   9.285  0.3164  1.1757  0.0444
 2226SOL    HW218315   4.734   3.003   9.413  0.7576  0.7387  0.0188
 2227SOL     OW18316   0.407   4.044  12.430  0.0549  0.3460  0.5550
 2227SOL    HW118317   0.400   3.955  12.397  0.9727 -0.5307  2.7396
 2227SOL    HW218318   0.497   4.045  12.465  0.0506  1.5705  0.5366
 2228SOL     OW18319   1.772   0.785   2.658 -0.5300  0.0806  0.3611
 2228SOL    HW118320   1.741   0.846   2.591 -0.5054  1.0424  1.2363
 2228SOL    HW218321   1.797   0.849   2.724 -0.8354  1.8330 -1.2294
 2229SOL     OW18322   0.441   2.474   2.616 -0.1756  0.5873 -0.5955
 2229SOL    HW118323   0.413   2.416   2.546 -0.5843 -0.1619  0.1910
 2229SOL    HW218324   0.367   2.535   2.616 -0.6686  0.0008  0.1553
 2230SOL     OW18325   3.789   1.186   6.657 -0.0394 -0.2560 -0.0096
 2230SOL    HW118326   3.830   1.167   6.741 -0.5611  1.1051  0.5470
 2230SOL    HW218327   3.846   1.134   6.600 -2.3318 -2.5617 -0.1515
 2231SOL     OW18328   3.357   4.652   0.762  0.2125 -0.3939  0.2309
 2231SOL    HW118329   3.336   4.716   0.694  0.8493 -1.3236 -0.8421
 2231SOL    HW218330   3.441   4.683   0.795  0.1692  0.4353 -0.4318
 2232SOL     OW18331   1.586   0.550   4.737  0.4855 -0.0202  0.0586
 2232SOL    HW118332   1.639   0.543   4.817 -1.8139  0.6745  1.6395
 2232SOL    HW218333   1.533   0.625   4.763 -0.9111 -0.7954 -0.5687
 2233SOL     OW18334   4.262   3.248   5.489 -0.6925 -0.2952  0.0139
 2233SOL    HW118335   4.179   3.262   5.534 -0.6549  0.5755 -0.1927
 2233SOL    HW218336   4.288   3.336   5.460  2.7106 -0.6916  1.9984
 2234SOL     OW18337   0.507   0.642   7.452 -0.1893  0.5723 -0.1487
 2234SOL    HW118338   0.435   0.702   7.469 -0.4734  0.3653 -0.6417
 2234SOL    HW218339   0.520   0.646   7.357  1.7496  2.3533  0.1745
 2235SOL     OW18340   3.690   2.056  13.319  0.1832  1.0152 -0.0158
 2235SOL    HW118341   3.641   1.982  13.285  0.3218  0.4038  1.1400
 2235SOL    HW218342   3.651   2.125  13.265 -2.3517  0.5294  1.2316
 2236SOL     OW18343   3.350   2.970   6.193  0.6927  0.0874  0.6413
 2236SOL    HW118344   3.437   2.977   6.155 -1.1031 -0.0065 -3.4510
 2236SOL    HW218345   3.328   3.060   6.217  1.2143 -0.3051  2.5778
 2237SOL     OW18346   1.844   2.492   9.634 -0.1717  0.5582 -0.9292
 2237SOL    HW118347   1.775   2.432   9.665  2.9651 -2.1146  0.8853
 2237SOL    HW218348   1.792   2.536   9.567 -1.6055  0.1040 -0.1093
 2238SOL     OW18349   1.541   1.690   3.719 -0.4504 -0.5257 -0.6810
 2238SOL    HW118350   1.578   1.695   3.807 -1.3311  0.5988 -0.3736
 2238SOL    HW218351   1.461   1.739   3.737 -0.1273 -0.6308  1.0213
 2239SOL     OW18352   2.001   3.455  16.678  0.0435 -0.4218 -0.6431
 2239SOL    HW118353   2.095   3.437  16.684 -0.1847 -1.6507 -0.7571
 2239SOL    HW218354   1.981   3.402  16.601 -1.7132 -0.0520 -0.4428
 2240SOL     OW18355   0.303   3.045   1.130 -0.1867 -0.1931 -0.5206
 2240SOL    HW118356   0.270   3.119   1.182  0.2709 -0.1024 -0.3611
 2240SOL    HW218357   0.366   3.093   1.077  0.4791 -1.0687 -0.5154
 2241SOL     OW18358   2.526   0.107  15.176  0.4696 -0.1349 -0.0192
 2241SOL    HW118359   2.430   0.111  15.166  0.7739  2.2499 -1.9189
 2241SOL    HW218360   2.545   0.187  15.128 -0.0370 -0.7077 -1.1785
 2242SOL     OW18361   4.321   3.121  14.997 -0.5382  0.0195 -0.0835
 2242SOL    HW118362   4.364   3.077  14.923 -1.5202 -1.4025  0.2051
 2242SOL    HW218363   4.336   3.053  15.063 -0.9465 -0.3856 -0.4104
 2243SOL     OW18364   1.368   4.498   4.859  0.4967 -0.1893 -0.3423
 2243SOL    HW118365   1.362   4.457   4.945  0.3457 -0.2088 -0.3619
 2243SOL    HW218366   1.452   4.541   4.870  0.1386 -0.1256  2.0054
 2244SOL     OW18367   1.979   0.544   1.176  0.0466 -0.1087  0.3501
 2244SOL    HW118368   2.053   0.585   1.222  0.4109 -0.4063  0.0261
 2244SOL    HW218369   1.984   0.587   1.091 -0.7298 -0.0668  0.3292
 2245SOL     OW18370   2.527   3.825   4.735  0.5372 -0.0028  0.0098
 2245SOL    HW118371   2.559   3.768   4.805 -1.9713 -1.2323  0.1776
 2245SOL    HW218372   2.605   3.867   4.698  0.8054 -1.2045 -0.7610
 2246SOL     OW18373   0.057   2.300  10.275  0.3747 -0.2274  0.0937
 2246SOL    HW118374   0.065   2.395  10.266  0.1438  0.0471  2.9517
 2246SOL    HW218375   4.731   2.284  10.346 -0.4496  3.6498  0.2425
 2247SOL     OW18376   2.099   2.900   2.397 -0.5155 -0.4656  0.4307
 2247SOL    HW118377   2.014   2.908   2.353  0.0772  3.3693 -0.0222
 2247SOL    HW218378   2.106   2.805   2.391  0.8542 -0.3854  0.7610
 2248SOL     OW18379   2.757   3.841  13.409  0.1410  0.0850  0.1588
 2248SOL    HW118380   2.825   3.903  13.437 -0.6001  1.2983 -0.7276
 2248SOL    HW218381   2.685   3.860  13.469  0.8515 -0.2448  1.1075
 2249SOL     OW18382   2.409   1.247  11.088 -0.5438 -0.9026 -0.2251
 2249SOL    HW118383   2.467   1.207  11.153 -0.2324 -0.4382 -0.2235
 2249SOL    HW218384   2.456   1.327  11.067 -1.2566  0.2079  2.4241
 2250SOL     OW18385   2.653   3.969  17.416 -0.0592 -0.7467 -0.6485
 2250SOL    HW118386   2.721   3.996  17.354  0.5364  1.3511  0.9172
 2250SOL    HW218387   2.580   3.960  17.355 -0.9203  2.7139 -0.1283
 2251SOL     OW18388   0.841   3.581   4.168  0.3699  0.2131 -0.0418
 2251SOL    HW118389   0.896   3.567   4.245 -2.7226 -1.2755  1.8517
 2251SOL    HW218390   0.876   3.520   4.103 -0.5995 -1.3117  0.8914
 2252SOL     OW18391   3.174   3.666   5.524 -0.6156  0.0317 -0.2838
 2252SOL    HW118392   3.209   3.638   5.439  1.4498  2.0271 -0.1141
 2252SOL    HW218393   3.244   3.632   5.580 -1.2187  0.9100  0.9877
 2253SOL     OW18394   3.116   1.747   7.420 -0.0695 -0.0179  0.1651
 2253SOL    HW118395   3.138   1.760   7.512 -1.7666 -1.6589  0.8183
 2253SOL    HW218396   3.024   1.721   7.432 -0.0880 -0.1702 -0.2890
 2254SOL     OW18397   3.695   4.696   2.021 -0.2873 -0.3887 -0.2079
 2254SOL    HW118398   3.766   0.020   1.998 -0.4754 -0.0067  0.1810
 2254SOL    HW218399   3.696   4.696   2.117 -0.4054 -0.6536 -0.2067
 2255SOL     OW18400   0.567   0.019   6.657  0.3507  0.0194 -0.0853
 2255SOL    HW118401   0.562   0.031   6.752  0.2523  0.8711 -0.1980
 2255SOL    HW218402   0.568   4.658   6.654 -2.5750 -0.0246  0.2816
 2256SOL     OW18403   0.408   1.446  10.907 -0.2315 -0.5098 -0.1936
 2256SOL    HW118404   0.481   1.456  10.967  0.0875  1.9211 -0.9892
 2256SOL    HW218405   0.442   1.382  10.844  2.4354 -0.2958  1.0215
 2257SOL     OW18406   4.053   2.013   6.666 -0.3861  0.5850  0.5134
 2257SOL    HW118407   4.119   2.007   6.597 -2.2229  1.4340 -1.3178
 2257SOL    HW218408   4.091   2.079   6.725 -2.5198  1.5840  0.7771
 2258SOL     OW18409   2.313   2.551   5.089 -0.1500  1.5337  0.1884
 2258SOL    HW118410   2.271   2.619   5.036 -2.0889  1.1661  1.2470
 2258SOL    HW218411   2.235   2.498   5.107  0.6538 -0.3343 -1.8064
 2259SOL     OW18412   3.161   3.397   0.329 -0.0468  0.2097  1.0434
 2259SOL    HW118413   3.252   3.367   0.329  0.9756  3.3473 -0.9612
 2259SOL    HW218414   3.160   3.460   0.402 -0.0169  0.7969  0.5321
 2260SOL     OW18415   2.387   2.825   6.359  0.1966  1.2930  0.6237
 2260SOL    HW118416   2.393   2.781   6.444  1.4288 -1.8584 -1.0825
 2260SOL    HW218417   2.473   2.808   6.321 -0.3279 -0.4556  0.2133
 2261SOL     OW18418   1.003   3.078   3.906  0.0088 -0.1033  0.0896
 2261SOL    HW118419   1.009   2.987   3.935  0.5909 -0.6840 -1.8295
 2261SOL    HW218420   1.054   3.067   3.825  0.4795  0.6176  0.2813
 2262SOL     OW18421   0.746   1.531   5.965  0.1502 -0.2152 -0.5071
 2262SOL    HW118422   0.747   1.478   6.045  1.6621  1.7502  0.7635
 2262SOL    HW218423   0.695   1.462   5.922  0.0501 -0.4840  0.0387
 2263SOL     OW18424   1.097   0.718   5.767  0.6376 -0.2234 -0.3079
 2263SOL    HW118425   1.166   0.738   5.829  0.1113 -0.3869  0.3291
 2263SOL    HW218426   1.094   0.625   5.791 -5.8393  0.8539  3.0565
 2264SOL     OW18427   2.078   3.999   1.975 -0.8505 -0.1671  0.5866
 2264SOL    HW118428   2.165   3.962   1.957 -0.7549  0.3557  0.0125
 2264SOL    HW218429   2.025   3.950   1.912 -1.4283  1.9078 -0.5349
 2265SOL     OW18430   4.213   2.418  16.548 -0.3937  0.1960 -0.3551
 2265SOL    HW118431   4.146   2.353  16.570 -0.7339 -0.3106 -2.9633
 2265SOL    HW218432   4.273   2.404  16.622  0.3240  1.9126 -0.6103
 2266SOL     OW18433   4.385   3.816   3.671  0.0614 -0.6300  0.2186
 2266SOL    HW118434   4.475   3.837   3.694  1.0520 -1.3698 -3.0488
 2266SOL    HW218435   4.342   3.849   3.750  0.3863 -0.1259  0.1870
 2267SOL     OW18436   1.359   4.138  11.944 -0.0861  0.8155 -0.0268
 2267SOL    HW118437   1.376   4.158  12.036  1.7775  1.9692 -0.6213
 2267SOL    HW218438   1.388   4.047  11.931  0.8253  0.8134  1.9692
 2268SOL     OW18439   3.026   2.274   6.703 -0.0801  0.6561 -0.2968
 2268SOL    HW118440   3.056   2.284   6.794  1.7929 -1.6752 -0.6575
 2268SOL    HW218441   3.009   2.361   6.665 -2.9787 -0.5307 -1.6584
 2269SOL     OW18442   1.698   1.544  11.442  0.0081  0.0484 -0.0147
 2269SOL    HW118443   1.666   1.462  11.481  0.1314 -0.9811 -2.0903
 2269SOL    HW218444   1.701   1.611  11.510  1.0340 -1.5033  1.4834
 2270SOL     OW18445   3.275   0.136   2.266  0.6876 -0.2465 -0.6463
 2270SOL    HW118446   3.242   0.109   2.352  2.8621 -1.9057 -0.2996
 2270SOL    HW218447   3.222   0.075   2.215 -1.3012 -0.5235  1.7486
 2271SOL     OW18448   3.751   0.586   8.581  0.3616 -0.2349  0.1054
 2271SOL    HW118449   3.713   0.641   8.650 -1.1800 -0.7780 -0.3110
 2271SOL    HW218450   3.682   0.525   8.557 -0.9848  1.2538  0.1507
 2272SOL     OW18451   0.597   2.100   1.585  0.0126 -0.3147 -0.3723
 2272SOL    HW118452   0.660   2.169   1.566 -1.5386  1.6044  1.4136
 2272SOL    HW218453   0.573   2.073   1.496  0.1782  0.0349 -0.5245
 2273SOL     OW18454   2.164   0.716   1.301  0.1749  0.2825 -0.3730
 2273SOL    HW118455   2.233   0.747   1.242  1.9492 -0.4690  1.2865
 2273SOL    HW218456   2.106   0.791   1.293 -3.2293 -2.3362 -0.3674
 2274SOL     OW18457   3.512   3.313   8.001 -0.5644  0.3997  0.2541
 2274SOL    HW118458   3.420   3.292   8.021 -0.1689 -2.3960 -0.7904
 2274SOL    HW218459   3.526   3.246   7.934 -4.0973  0.0533 -0.1522
 2275SOL     OW18460   3.503   0.094   3.557 -0.4072  0.5002 -0.0911
 2275SOL    HW118461   3.428   0.098   3.616  1.0369 -0.3559  1.8161
 2275SOL    HW218462   3.518   0.000   3.542 -1.5652  0.5945 -1.7794
 2276SOL     OW18463   2.804   4.344  15.506 -0.1437 -0.3947 -0.3747
 2276SOL    HW118464   2.847   4.388  15.433 -1.0143 -0.1500 -0.7376
 2276SOL    HW218465   2.847   4.386  15.581 -1.4566  1.0678 -0.4452
 2277SOL     OW18466   3.699   0.511   6.482 -0.2418  0.1973 -0.3318
 2277SOL    HW118467   3.780   0.466   6.507  1.0354  3.0228  0.6573
 2277SOL    HW218468   3.686   0.472   6.396  2.5949 -1.3332 -0.0816
 2278SOL     OW18469   2.762   0.126   3.816 -0.6883  0.3472 -0.4876
 2278SOL    HW118470   2.775   0.173   3.898  2.2807 -2.5389  0.6988
 2278SOL    HW218471   2.667   0.114   3.812 -0.5890 -0.1516 -1.2576
 2279SOL     OW18472   3.928   1.158  10.986 -0.1816  0.1301 -0.1038
 2279SOL    HW118473   3.947   1.165  11.080 -2.1441 -2.1298  0.4536
 2279SOL    HW218474   3.873   1.233  10.963 -0.2331  0.2019  0.2460
 2280SOL     OW18475   2.051   0.114   7.788  0.6225  0.1166  0.2229
 2280SOL    HW118476   2.018   0.048   7.727 -2.6346  2.5398 -0.6237
 2280SOL    HW218477   1.982   0.121   7.854 -1.0524  2.3448 -1.7708
 2281SOL     OW18478   0.238   3.865   2.468 -0.0249 -0.7499  0.3013
 2281SOL    HW118479   0.286   3.783   2.455  0.7139 -0.2982  0.2088
 2281SOL    HW218480   0.152   3.826   2.486 -0.7584  0.0456 -1.5575
 2282SOL     OW18481   2.615   2.396   5.493 -0.1480 -0.0233  0.2999
 2282SOL    HW118482   2.558   2.320   5.501 -0.5507  0.3331  0.8100
 2282SOL    HW218483   2.672   2.376   5.567 -1.1989  0.0124  1.1162
 2283SOL     OW18484   0.708   4.252   5.716 -0.3380  0.5025 -0.6201
 2283SOL    HW118485   0.661   4.189   5.661 -1.8242  0.0033  1.2523
 2283SOL    HW218486   0.792   4.249   5.672  0.6006  0.2836  1.2121
 2284SOL     OW18487   0.810   1.253   8.452  0.2130 -0.1192  0.0603
 2284SOL    HW118488   0.726   1.275   8.414  0.4472  1.1693  0.3071
 2284SOL    HW218489   0.874   1.271   8.383  0.4087 -1.9535 -0.2337
 2285SOL     OW18490   2.379   4.719  12.285  0.2290  0.0648  0.2580
 2285SOL    HW118491   2.413   0.073  12.277  1.8224 -0.5412  0.2006
 2285SOL    HW218492   2.455   4.664  12.307  0.8179  0.6678 -0.2787
 2286SOL     OW18493   3.884   4.037   8.555  0.1677 -0.4020  0.0475
 2286SOL    HW118494   3.861   3.963   8.612  0.3744 -1.2373 -0.9556
 2286SOL    HW218495   3.796   4.075   8.549  0.3656 -0.1538 -1.1826
 2287SOL     OW18496   2.522   1.034   3.778 -0.1251  0.1185  0.5422
 2287SOL    HW118497   2.613   1.030   3.807 -0.9084  0.1631  3.0309
 2287SOL    HW218498   2.499   0.941   3.772  1.8226 -0.3203 -0.2565
 2288SOL     OW18499   4.431   2.338   4.304  0.2208  0.1089 -0.3107
 2288SOL    HW118500   4.433   2.415   4.361  1.6222  0.3874 -0.7276
 2288SOL    HW218501   4.474   2.283   4.370 -0.7357 -1.3433 -0.8969
 2289SOL     OW18502   3.198   2.812   8.439  0.1513  0.3601 -0.1494
 2289SOL    HW118503   3.294   2.816   8.441  0.2621 -0.7461 -2.9128
 2289SOL    HW218504   3.193   2.759   8.518  1.1333  0.7740  0.1976
 2290SOL     OW18505   2.065   2.900   4.190  0.1536  0.3651  0.6102
 2290SOL    HW118506   2.064   2.988   4.228  0.6971  0.1143  1.2166
 2290SOL    HW218507   2.154   2.869   4.207  0.2739  3.6842  6.2748
 2291SOL     OW18508   1.665   1.824   5.076  0.1971  0.6919 -0.1971
 2291SOL    HW118509   1.709   1.878   5.141 -1.7847 -0.4853  2.1283
 2291SOL    HW218510   1.580   1.806   5.118  0.2887  1.1034  0.1701
 2292SOL     OW18511   0.517   2.687   2.898  0.4634 -0.3007  0.4635
 2292SOL    HW118512   0.444   2.748   2.909 -0.0289 -0.4494 -1.9570
 2292SOL    HW218513   0.583   2.736   2.848 -1.2220  1.9626  0.4908
 2293SOL     OW18514   2.496   4.485   7.571 -0.1572 -0.2161  0.5147
 2293SOL    HW118515   2.416   4.437   7.549  0.6430 -2.1481  1.8786
 2293SOL    HW218516   2.516   4.448   7.656  2.2081  2.5430  1.1405
 2294SOL     OW18517   4.361   1.186   8.477  0.7202 -0.3075  0.2768
 2294SOL    HW118518   4.438   1.242   8.491  1.6171 -1.8207  1.4146
 2294SOL    HW218519   4.293   1.251   8.491  2.3360  1.2642  0.8128
 2295SOL     OW18520   2.063   3.336   9.170  0.2853  0.5464 -0.1795
 2295SOL    HW118521   2.087   3.291   9.252  0.2408 -0.1977 -0.5760
 2295SOL    HW218522   2.078   3.428   9.187  2.0670  0.2833 -0.3240
 2296SOL     OW18523   0.565   3.959   3.500  0.1365  0.3468 -0.2783
 2296SOL    HW118524   0.653   3.920   3.500  0.4045  0.9630  0.5215
 2296SOL    HW218525   0.570   4.025   3.569  0.2329 -0.2769  0.3082
 2297SOL     OW18526   4.693   1.059  15.147 -0.3813 -0.1770 -0.0629
 2297SOL    HW118527   4.628   1.091  15.209 -1.1169  0.9311 -1.3825
 2297SOL    HW218528   0.046   1.081  15.178 -0.8664  2.9059 -0.8479
 2298SOL     OW18529   4.326   4.288   9.985  0.4103 -0.0300 -0.3107
 2298SOL    HW118530   4.322   4.209  10.038  0.2252  0.1910 -0.0013
 2298SOL    HW218531   4.316   4.250   9.897  1.1355 -3.2868  1.0095
 2299SOL     OW18532   2.164   4.304   1.143  0.3424  0.4382  0.2120
 2299SOL    HW118533   2.200   4.385   1.179  1.5062  0.1400 -0.2619
 2299SOL    HW218534   2.089   4.337   1.093 -2.3032 -0.4959  3.5824
 2300SOL     OW18535   0.586   3.104   6.120  0.3308  0.1951  0.4155
 2300SOL    HW118536   0.536   3.116   6.201  1.5910 -0.1984  1.2515
 2300SOL    HW218537   0.577   3.190   6.081 -1.0166 -0.0279  0.2145
 2301SOL     OW18538   1.924   0.194  10.815 -0.0554  0.0864 -0.2239
 2301SOL    HW118539   1.933   0.120  10.874 -1.8064 -0.2939 -0.4288
 2301SOL    HW218540   1.837   0.223  10.844  0.8395  2.1815  0.3403
 2302SOL     OW18541   2.394   0.572   6.773 -0.2577  0.0561 -0.3760
 2302SOL    HW118542   2.313   0.555   6.725  0.9390  0.6583 -2.6464
 2302SOL    HW218543   2.411   0.478   6.783 -1.7097 -0.1711 -0.1151
 2303SOL     OW18544   2.800   0.902   8.369 -0.3763  0.1701  0.1147
 2303SOL    HW118545   2.857   0.857   8.307 -0.0097  0.4139  0.2762
 2303SOL    HW218546   2.835   0.876   8.454  1.0220 -0.0476 -0.5348
 2304SOL     OW18547   4.487   4.520   7.177 -0.2676  0.1447  0.8994
 2304SOL    HW118548   4.402   4.560   7.159  0.5276  0.4235 -2.2107
 2304SOL    HW218549   4.543   4.597   7.178 -0.7123  0.4751  0.4438
 2305SOL     OW18550   2.515   3.849   8.195 -0.5828  0.2125  0.4753
 2305SOL    HW118551   2.562   3.825   8.275 -1.4628 -2.0865  0.3034
 2305SOL    HW218552   2.450   3.915   8.220 -0.1200  1.1999 -0.9093
 2306SOL     OW18553   1.119   2.760  16.674 -0.9356  0.2460 -0.4267
 2306SOL    HW118554   1.133   2.762  16.579 -0.5588  0.2275 -0.3707
 2306SOL    HW218555   1.183   2.695  16.704 -1.1977  0.2102  0.0445
 2307SOL     OW18556   2.208   1.621   3.568 -0.1171 -0.3580 -0.0733
 2307SOL    HW118557   2.261   1.562   3.621 -0.0501  0.8049  1.1469
 2307SOL    HW218558   2.149   1.560   3.524 -0.5929 -0.1029  0.2121
 2308SOL     OW18559   0.236   3.225   2.344 -0.3118  0.3335  0.3434
 2308SOL    HW118560   0.283   3.255   2.421  0.8849 -0.8569  0.0932
 2308SOL    HW218561   0.280   3.146   2.312  0.9947  1.5537 -0.8806
 2309SOL     OW18562   2.173   3.721   4.993  0.6536 -0.5477 -0.2530
 2309SOL    HW118563   2.095   3.768   4.963 -0.0717 -1.5913 -0.0090
 2309SOL    HW218564   2.151   3.628   5.000 -2.3464  0.0756 -1.1711
 2310SOL     OW18565   1.773   4.725  17.463  0.2692 -0.7828 -0.2719
 2310SOL    HW118566   1.864   0.002  17.436  0.5759 -2.7592 -0.0321
 2310SOL    HW218567   1.742   4.673  17.389 -0.8868  2.3511 -2.0238
 2311SOL     OW18568   0.872   3.472  14.303  0.5476 -0.3748  0.3503
 2311SOL    HW118569   0.898   3.380  14.310  0.3921 -0.5199 -0.8847
 2311SOL    HW218570   0.825   3.482  14.385  1.1311  1.0101  0.5208
 2312SOL     OW18571   2.852   1.280   0.983  0.0143 -0.5904  0.5436
 2312SOL    HW118572   2.929   1.224   0.969 -0.0866 -0.8070  0.8527
 2312SOL    HW218573   2.886   1.369   0.974 -1.1087 -0.0765  1.4754
 2313SOL     OW18574   0.293   1.258   3.506  0.2658 -0.1838  0.2615
 2313SOL    HW118575   0.327   1.186   3.558  1.2213 -0.0442 -0.1688
 2313SOL    HW218576   0.318   1.216   3.424 -4.0825 -1.1970 -0.5917
 2314SOL     OW18577   4.515   3.994  15.403 -0.3800  0.5827 -0.1363
 2314SOL    HW118578   4.521   4.071  15.346  0.0500  0.7251  0.0967
 2314SOL    HW218579   4.420   3.997  15.397 -0.5582  2.1386  3.1583
 2315SOL     OW18580   2.136   4.195  17.626 -0.0381 -0.4848 -0.2079
 2315SOL    HW118581   2.107   4.230  17.542 -0.9849 -1.1596 -0.1659
 2315SOL    HW218582   2.073   4.124  17.637 -0.7995 -0.1011 -2.2923
 2316SOL     OW18583   0.435   0.276   6.837  0.3097  0.1398  0.4395
 2316SOL    HW118584   0.464   0.204   6.893 -0.8585 -0.2494  0.5471
 2316SOL    HW218585   0.509   0.334   6.853  0.3023 -0.2331  1.8607
 2317SOL     OW18586   4.040   2.413   9.130  0.5148 -0.5309 -0.3571
 2317SOL    HW118587   4.104   2.404   9.200  0.7136  0.8344 -0.3600
 2317SOL    HW218588   4.016   2.504   9.149 -1.9328 -1.5523  1.3568
 2318SOL     OW18589   4.461   4.007   4.880 -0.1008  0.4519 -0.2453
 2318SOL    HW118590   4.455   4.016   4.975 -1.4800 -0.7533 -0.2177
 2318SOL    HW218591   4.386   4.058   4.852 -0.9609  0.6236  2.4110
 2319SOL     OW18592   1.743   2.902   0.479  0.1512 -0.4909 -0.0327
 2319SOL    HW118593   1.800   2.979   0.480 -4.1863  2.7062 -0.9581
 2319SOL    HW218594   1.730   2.895   0.384  1.7739 -0.5927 -0.2499
 2320SOL     OW18595   4.325   2.644   0.213 -0.0426 -0.7280 -0.3032
 2320SOL    HW118596   4.264   2.640   0.287 -0.6596  0.5642 -0.7262
 2320SOL    HW218597   4.272   2.657   0.135  0.9181  2.4280 -0.4643
 2321SOL     OW18598   2.394   1.410  15.448  0.2501  0.7271 -0.1765
 2321SOL    HW118599   2.461   1.341  15.460 -0.0211  0.4649 -0.1728
 2321SOL    HW218600   2.427   1.444  15.365  0.2239 -1.3240 -1.0317
 2322SOL     OW18601   2.281   3.630   4.724 -0.1256 -0.2272  0.2783
 2322SOL    HW118602   2.305   3.558   4.782 -1.7593 -1.1785 -0.2483
 2322SOL    HW218603   2.270   3.704   4.783 -0.7348 -0.6899  0.7357
 2323SOL     OW18604   2.132   0.627   2.784  0.3837 -0.5268 -0.2922
 2323SOL    HW118605   2.194   0.554   2.786  1.9417  0.8344  0.3236
 2323SOL    HW218606   2.140   0.657   2.875 -0.7455 -2.0346  0.3064
 2324SOL     OW18607   4.677   0.818  17.291 -0.1494 -0.2383 -0.1318
 2324SOL    HW118608   4.615   0.854  17.354 -0.3303  1.6717 -1.3754
 2324SOL    HW218609   4.657   0.725  17.303 -0.9821 -0.0409 -0.0090
 2325SOL     OW18610   3.176   4.672  11.839  0.3545 -0.0971  0.1271
 2325SOL    HW118611   3.188   4.578  11.823 -0.7271 -0.7908  3.2737
 2325SOL    HW218612   3.197   4.696  11.749 -0.4094  0.1224  0.0076
 2326SOL     OW18613   3.651   0.781   2.938 -0.1016 -0.1003  0.4768
 2326SOL    HW118614   3.661   0.694   2.978 -0.3101 -1.0895 -1.6176
 2326SOL    HW218615   3.561   0.798   2.965 -0.1390 -0.6135  0.6866
 2327SOL     OW18616   1.406   3.198   8.208 -0.0597  0.0379  0.5290
 2327SOL    HW118617   1.367   3.271   8.254 -0.2948  0.2788 -0.0461
 2327SOL    HW218618   1.333   3.157   8.161  0.6986 -0.3565 -0.3069
 2328SOL     OW18619   2.808   4.070  11.657 -0.1507  0.4552 -0.2218
 2328SOL    HW118620   2.718   4.048  11.630  0.7159 -0.4867 -2.3626
 2328SOL    HW218621   2.818   4.005  11.727  1.0318  0.5139 -0.3477
 2329SOL     OW18622   1.390   1.671  13.124 -0.1249  0.6585  0.0914
 2329SOL    HW118623   1.456   1.639  13.186  2.2607  1.0096 -2.2658
 2329SOL    HW218624   1.447   1.716  13.062  0.4652 -2.2119 -1.4027
 2330SOL     OW18625   0.144   2.662   4.624 -0.2408  0.0731 -0.0968
 2330SOL    HW118626   0.098   2.741   4.650  0.0964  0.3378 -0.3019
 2330SOL    HW218627   0.088   2.617   4.561 -0.6144  2.5149 -1.5093
 2331SOL     OW18628   0.944   1.910  10.130  0.5118 -0.3196 -0.3803
 2331SOL    HW118629   0.883   1.923  10.202 -0.4640 -0.6260 -1.1571
 2331SOL    HW218630   1.025   1.931  10.177  1.4756 -2.1023 -1.2450
 2332SOL     OW18631   2.467   4.291   0.500 -0.2738 -0.1526  0.0794
 2332SOL    HW118632   2.462   4.290   0.595  2.1362  0.2021  0.1960
 2332SOL    HW218633   2.504   4.378   0.486 -1.7373  0.2718 -1.2332
 2333SOL     OW18634   4.495   3.466  16.543  0.5191  0.5450 -0.3671
 2333SOL    HW118635   4.574   3.421  16.514 -0.0336 -0.2542 -0.6514
 2333SOL    HW218636   4.516   3.555  16.515 -2.2073  1.7118  1.2865
 2334SOL     OW18637   0.101   4.586   1.084  0.2538 -0.9438  0.2889
 2334SOL    HW118638   0.185   4.541   1.076  0.2943 -0.8171  0.0133
 2334SOL    HW218639   0.128   4.678   1.076 -0.4022 -0.8980 -1.2331
 2335SOL     OW18640   2.074   1.549   6.133  0.2302 -0.2880  0.6090
 2335SOL    HW118641   1.985   1.578   6.113  0.4277 -0.1715 -0.0768
 2335SOL    HW218642   2.069   1.541   6.228 -0.3671  0.0489  0.6051
 2336SOL     OW18643   1.286   2.442   3.852  0.1245  0.1833  0.2680
 2336SOL    HW118644   1.197   2.415   3.831  0.6045 -0.8749 -0.4408
 2336SOL    HW218645   1.274   2.535   3.871 -0.6904  0.0437  0.4035
 2337SOL     OW18646   3.869   0.508   3.033 -0.0725 -0.2124  0.1818
 2337SOL    HW118647   3.961   0.531   3.021 -0.3384  0.7046 -0.1316
 2337SOL    HW218648   3.847   0.499   2.940  1.3858 -0.5603 -0.1249
 2338SOL     OW18649   1.063   1.400  11.257 -0.2786 -0.3071  0.1722
 2338SOL    HW118650   1.016   1.455  11.194 -1.5762 -0.5916  0.8922
 2338SOL    HW218651   0.997   1.381  11.324 -0.3146 -1.2047 -0.1243
 2339SOL     OW18652   2.102   0.215   9.770  0.1454 -0.1655  0.0625
 2339SOL    HW118653   2.189   0.251   9.787 -0.9210  3.3739 -2.0924
 2339SOL    HW218654   2.052   0.284   9.726 -2.2592 -1.3130  0.9767
 2340SOL     OW18655   3.882   0.528   4.099  0.0812 -0.4909  0.2649
 2340SOL    HW118656   3.874   0.455   4.038 -1.9831 -0.5240  0.5984
 2340SOL    HW218657   3.813   0.499   4.158 -0.4608  1.6863  0.7200
 2341SOL     OW18658   3.381   4.123   7.083 -0.0274 -0.1067  0.1389
 2341SOL    HW118659   3.355   4.052   7.023 -0.1482  2.5841 -3.0322
 2341SOL    HW218660   3.476   4.112   7.074  0.0950  0.1021  1.2171
 2342SOL     OW18661   1.973   4.654  12.540 -0.1553 -0.3897  0.3496
 2342SOL    HW118662   1.945   4.657  12.631  0.6113 -0.2282  0.5789
 2342SOL    HW218663   2.043   4.719  12.541 -1.7820  1.4063 -0.8760
 2343SOL     OW18664   1.918   1.012   5.109  0.3755 -0.0134 -0.1234
 2343SOL    HW118665   1.855   1.070   5.151  0.6100 -0.9758  1.5510
 2343SOL    HW218666   1.926   0.951   5.182 -1.9116  0.6591  0.7008
 2344SOL     OW18667   1.583   4.647   5.932  0.8491 -0.3597  0.0703
 2344SOL    HW118668   1.589   4.552   5.931 -1.9038 -0.5323 -0.7577
 2344SOL    HW218669   1.503   4.654   5.984  0.6314 -0.1415 -0.2925
 2345SOL     OW18670   3.454   1.412  11.610  0.5772  0.0910 -0.7065
 2345SOL    HW118671   3.401   1.486  11.581  0.7537  0.7046  0.5336
 2345SOL    HW218672   3.407   1.377  11.685 -0.0085 -0.1760 -1.1991
 2346SOL     OW18673   0.269   2.046   9.476 -0.5840 -0.5393  0.1128
 2346SOL    HW118674   0.201   1.997   9.523  0.7279 -2.7487 -0.2750
 2346SOL    HW218675   0.304   2.103   9.544 -1.0724  0.7038 -0.6720
 2347SOL     OW18676   0.478   2.412  16.802 -0.9107  0.4404  0.8626
 2347SOL    HW118677   0.440   2.498  16.786 -2.4744 -0.1657  1.3640
 2347SOL    HW218678   0.405   2.363  16.839 -0.0012  0.9525  3.3169
 2348SOL     OW18679   4.061   1.126   7.923 -0.1571  0.3349  0.6580
 2348SOL    HW118680   3.983   1.173   7.892 -1.3679 -0.4100  2.5693
 2348SOL    HW218681   4.013   1.054   7.965  0.8702 -1.1514 -0.6808
 2349SOL     OW18682   2.095   2.186   2.440 -0.1488 -0.5690  0.2678
 2349SOL    HW118683   2.036   2.164   2.512 -0.5642  0.4608  0.2530
 2349SOL    HW218684   2.142   2.104   2.429 -1.1196 -1.3444  1.8120
 2350SOL     OW18685   2.682   2.985   2.187 -0.6902  0.1536 -0.7544
 2350SOL    HW118686   2.641   3.048   2.246 -1.1811 -0.5639 -0.3306
 2350SOL    HW218687   2.605   2.929   2.177  0.3233 -1.4296  0.4797
 2351SOL     OW18688   3.469   1.483   5.984 -0.1384 -0.4770 -0.1627
 2351SOL    HW118689   3.412   1.534   6.041 -0.0688  0.1406 -0.6431
 2351SOL    HW218690   3.472   1.398   6.027  0.9543  0.0492  0.8114
 2352SOL     OW18691   4.589   0.554   3.572  0.0145  0.4656 -0.4233
 2352SOL    HW118692   4.552   0.637   3.601 -1.0021 -0.3203  0.5122
 2352SOL    HW218693   4.679   0.566   3.603 -0.1779 -0.6171  0.5690
 2353SOL     OW18694   1.007   0.551   7.087 -0.3034 -0.2153  0.0820
 2353SOL    HW118695   1.066   0.615   7.048 -1.0183 -0.6712 -1.7477
 2353SOL    HW218696   0.980   0.585   7.172 -0.5613 -3.1619  1.1770
 2354SOL     OW18697   0.831   4.382   7.399 -0.0791  0.8794 -0.1354
 2354SOL    HW118698   0.790   4.425   7.325  0.2830  0.1905 -0.7359
 2354SOL    HW218699   0.897   4.323   7.361 -0.7025  0.4610 -0.5661
 2355SOL     OW18700   2.742   0.769   5.600 -0.7657  0.3743 -0.1821
 2355SOL    HW118701   2.670   0.823   5.567 -1.1172 -0.0848 -0.1687
 2355SOL    HW218702   2.753   0.729   5.514  2.1951  0.3543  0.2210
 2356SOL     OW18703   1.822   1.445   4.821 -0.5373  0.3752  0.5448
 2356SOL    HW118704   1.906   1.415   4.788  0.6383  1.9908  2.0841
 2356SOL    HW218705   1.811   1.383   4.894 -3.2640 -0.3384 -0.4576
 2357SOL     OW18706   2.918   2.586   1.895 -0.0915  0.0395 -0.3585
 2357SOL    HW118707   2.860   2.532   1.841 -0.5683  0.1461  0.0413
 2357SOL    HW218708   2.985   2.605   1.830  0.3889  1.2953  0.5093
 2358SOL     OW18709   2.944   1.666   7.919 -0.5377  0.0360  0.1298
 2358SOL    HW118710   2.926   1.616   7.839  1.4867 -0.3370 -0.0801
 2358SOL    HW218711   3.025   1.631   7.956 -0.0472 -1.2362 -2.1545
 2359SOL     OW18712   0.048   1.498  14.418  0.0448 -0.0410  0.0676
 2359SOL    HW118713   4.689   1.488  14.438  0.1047 -0.1466  0.2954
 2359SOL    HW218714   0.082   1.420  14.461 -0.0286 -1.0358 -1.6798
 2360SOL     OW18715   1.696   0.674   5.516  0.1289  0.1242  0.1912
 2360SOL    HW118716   1.765   0.646   5.456  3.0153  3.1664  2.1007
 2360SOL    HW218717   1.664   0.749   5.467  1.0784  1.1930  1.2241
 2361SOL     OW18718   1.283   4.671  15.457 -0.2061 -0.4733 -0.2152
 2361SOL    HW118719   1.306   4.631  15.373  0.3906 -1.9561  0.6428
 2361SOL    HW218720   1.200   4.713  15.436  1.1062  3.0287  1.5797
 2362SOL     OW18721   1.021   1.718   1.021 -0.5087 -0.1973  0.1705
 2362SOL    HW118722   1.045   1.627   1.010 -0.7551 -0.3067  0.5450
 2362SOL    HW218723   0.932   1.704   1.052 -1.4003  2.4255 -1.1407
 2363SOL     OW18724   2.152   0.119   3.522 -0.0694  0.2458 -0.1072
 2363SOL    HW118725   2.222   0.169   3.480 -1.3865  0.9145 -1.4900
 2363SOL    HW218726   2.206   0.061   3.577  0.6779 -0.9539 -2.1018
 2364SOL     OW18727   2.026   2.348   8.250  0.2178  0.3141  0.5752
 2364SOL    HW118728   2.017   2.282   8.181  4.4011 -0.7168  1.0204
 2364SOL    HW218729   1.974   2.421   8.217  1.4176  0.5260 -0.8611
 2365SOL     OW18730   1.774   1.927  16.137  0.3334  0.6060 -0.4242
 2365SOL    HW118731   1.718   1.879  16.076  1.9639 -1.1058 -0.5850
 2365SOL    HW218732   1.725   2.006  16.159 -0.0130  0.1995  0.2874
 2366SOL     OW18733   4.218   4.275   8.264 -0.3305 -0.1206  0.4357
 2366SOL    HW118734   4.154   4.243   8.200  1.5266 -0.6630 -1.1407
 2366SOL    HW218735   4.172   4.261   8.347 -4.8046 -3.3474 -2.5961
 2367SOL     OW18736   3.871   1.634   7.688 -0.0132  0.6015  0.3922
 2367SOL    HW118737   3.948   1.579   7.701 -1.4931 -1.0179  2.3585
 2367SOL    HW218738   3.910   1.701   7.632  0.7679 -0.3062 -0.1491
 2368SOL     OW18739   4.519   1.495   5.584  0.0562  0.1714  0.8397
 2368SOL    HW118740   4.586   1.556   5.555  0.6237 -1.1731 -0.6769
 2368SOL    HW218741   4.467   1.560   5.630 -2.1763 -0.8362 -0.2980
 2369SOL     OW18742   0.913   1.178   3.235 -0.1542 -0.0864  0.0293
 2369SOL    HW118743   0.844   1.163   3.299  0.8622 -1.4324  0.8026
 2369SOL    HW218744   0.880   1.146   3.151 -0.4434  0.8438 -0.2118
 2370SOL     OW18745   2.843   0.411  11.762  0.4053  0.6345 -0.2707
 2370SOL    HW118746   2.813   0.485  11.709 -0.8334  1.4227  1.5330
 2370SOL    HW218747   2.793   0.339  11.723  1.7461 -0.8553  0.7938
 2371SOL     OW18748   1.687   0.646   4.490 -0.0231  0.0948 -0.7123
 2371SOL    HW118749   1.602   0.664   4.449  0.9956  1.7830 -2.0871
 2371SOL    HW218750   1.660   0.625   4.579  1.4849  2.3672  0.2644
 2372SOL     OW18751   2.760   2.240   2.588  0.5305 -0.2350 -0.2115
 2372SOL    HW118752   2.728   2.179   2.523  0.9817  0.2470 -0.8818
 2372SOL    HW218753   2.768   2.186   2.667  0.9397 -2.0390 -1.4838
 2373SOL     OW18754   2.053   4.733  17.423  0.4707  0.2342 -0.1716
 2373SOL    HW118755   2.027   4.677  17.349  0.5022 -0.9867  0.7359
 2373SOL    HW218756   2.146   0.003  17.400  0.3496 -1.0932 -0.9603
 2374SOL     OW18757   3.742   2.001   5.291  0.1358 -0.0812  0.4783
 2374SOL    HW118758   3.781   1.919   5.261  1.1903  1.5801 -2.6411
 2374SOL    HW218759   3.815   2.046   5.334  0.9842 -1.0003 -0.0138
 2375SOL     OW18760   1.158   3.025   7.668  0.3689 -0.4435  0.3019
 2375SOL    HW118761   1.146   2.945   7.719  3.0311 -1.2788 -0.3615
 2375SOL    HW218762   1.253   3.036   7.680  0.4738 -2.8318  1.6515
 2376SOL     OW18763   0.061   1.618   5.201 -0.5560 -0.5540  0.2518
 2376SOL    HW118764   0.116   1.668   5.261  1.3534 -2.4180  0.0603
 2376SOL    HW218765   0.047   1.536   5.248 -0.6222  0.2797  1.6709
 2377SOL     OW18766   2.804   3.443   4.462 -0.4031 -0.1180 -0.2111
 2377SOL    HW118767   2.845   3.462   4.378 -1.5714  0.0636 -0.7433
 2377SOL    HW218768   2.845   3.503   4.524 -1.7131  0.9278 -0.3437
 2378SOL     OW18769   2.056   0.196  12.211  0.1552  0.5403  0.1285
 2378SOL    HW118770   2.108   0.276  12.215 -0.5649  1.1112 -2.0269
 2378SOL    HW218771   2.093   0.157  12.132  0.8183  2.0714 -0.3109
 2379SOL     OW18772   0.296   2.348   5.733 -0.4962  0.1216 -0.5110
 2379SOL    HW118773   0.321   2.256   5.723 -2.5953 -0.6265  1.1215
 2379SOL    HW218774   0.330   2.385   5.652  0.2848 -0.2818 -0.3697
 2380SOL     OW18775   4.023   3.559   9.698  0.2144  0.0402  0.0318
 2380SOL    HW118776   3.939   3.601   9.681  0.5848  0.7765  0.0274
 2380SOL    HW218777   4.089   3.627   9.684 -1.5272  1.9519  1.1174
 2381SOL     OW18778   0.139   2.192  11.119  0.2959  0.2551 -0.4454
 2381SOL    HW118779   0.204   2.134  11.079  0.2442 -0.3586  0.3607
 2381SOL    HW218780   0.176   2.280  11.110 -0.9079  0.6787 -1.2019
 2382SOL     OW18781   3.842   1.447   4.875 -0.1134  0.7440 -0.0376
 2382SOL    HW118782   3.882   1.527   4.840  2.3572 -0.4254  0.1210
 2382SOL    HW218783   3.761   1.432   4.827 -0.8359  0.7992  1.1488
 2383SOL     OW18784   3.049   1.432   3.520  0.5476  0.2981  0.0827
 2383SOL    HW118785   3.005   1.495   3.577 -2.3675  0.2354 -2.0970
 2383SOL    HW218786   3.122   1.404   3.576  0.2457 -1.0441 -0.1888
 2384SOL     OW18787   4.003   3.349  11.717 -0.0597  0.0784  0.0585
 2384SOL    HW118788   4.024   3.439  11.743 -1.2777 -0.1060  1.6714
 2384SOL    HW218789   3.969   3.362  11.628 -0.8129 -2.6818 -0.0511
 2385SOL     OW18790   2.510   2.636  10.007 -0.2079  0.1442  0.1736
 2385SOL    HW118791   2.512   2.711   9.947  0.4375 -1.4739 -1.8461
 2385SOL    HW218792   2.415   2.625  10.001  0.0492 -1.1270 -1.7301
 2386SOL     OW18793   2.304   2.439   8.281 -0.0178  0.4092  0.0385
 2386SOL    HW118794   2.212   2.413   8.286  0.0610 -0.1282 -1.3247
 2386SOL    HW218795   2.337   2.473   8.365 -1.0537  1.3617  0.0542
 2387SOL     OW18796   0.722   2.776   0.331 -0.1282  0.4239 -0.2706
 2387SOL    HW118797   0.638   2.730   0.330  0.3015 -0.4138  1.8041
 2387SOL    HW218798   0.692   2.862   0.304  1.4072  1.1557  0.3721
 2388SOL     OW18799   2.124   4.265   3.528  0.5679  0.2044  0.7086
 2388SOL    HW118800   2.196   4.310   3.484  0.4123  2.6400  3.0087
 2388SOL    HW218801   2.107   4.201   3.458 -0.0854  1.4281 -0.2686
 2389SOL     OW18802   1.253   3.102   6.988 -0.7970 -0.3904  0.1534
 2389SOL    HW118803   1.189   3.172   7.003 -1.7982 -1.7847  2.3955
 2389SOL    HW218804   1.200   3.061   6.920 -0.7609 -2.7060  1.5250
 2390SOL     OW18805   3.174   0.152   5.067 -0.1731  0.2695 -0.3671
 2390SOL    HW118806   3.262   0.116   5.058 -0.1059  0.1225  0.9731
 2390SOL    HW218807   3.124   0.086   5.018 -0.2723 -2.5765  3.6200
 2391SOL     OW18808   4.183   3.670   0.679  0.6809 -0.7056  0.1004
 2391SOL    HW118809   4.182   3.581   0.644 -2.2609 -1.1896  1.4365
 2391SOL    HW218810   4.152   3.721   0.604  0.0924 -0.7704  0.3031
 2392SOL     OW18811   0.530   1.844   9.270  0.1754 -0.1018  0.1093
 2392SOL    HW118812   0.434   1.841   9.271  0.1462  0.9682 -0.1638
 2392SOL    HW218813   0.538   1.938   9.254 -0.8649 -0.4851 -2.7053
 2393SOL     OW18814   3.395   4.673   9.485 -0.0593 -0.5051 -0.1200
 2393SOL    HW118815   3.461   4.722   9.435 -0.6881 -0.3594 -0.7896
 2393SOL    HW218816   3.441   4.680   9.569  2.7314 -2.5812 -1.4628
 2394SOL     OW18817   0.039   3.265   6.329 -0.0205 -0.9262  0.3069
 2394SOL    HW118818   0.057   3.173   6.311 -0.4261 -0.5827 -1.8173
 2394SOL    HW218819   0.041   3.252   6.424  0.8042  1.6112  0.6308
 2395SOL     OW18820   2.710   0.766   3.595 -0.2193  0.4366 -0.3019
 2395SOL    HW118821   2.662   0.793   3.673 -0.1166  2.1398 -0.8387
 2395SOL    HW218822   2.800   0.757   3.627  0.8375  0.5922 -3.2506
 2396SOL     OW18823   4.508   3.729  16.225  0.2778 -0.1345 -0.4955
 2396SOL    HW118824   4.513   3.801  16.288 -1.6925 -2.4281  2.2834
 2396SOL    HW218825   4.414   3.711  16.230  0.2040  0.1250 -0.9452
 2397SOL     OW18826   2.606   0.308  15.471 -0.3550 -0.2206 -0.6772
 2397SOL    HW118827   2.622   0.289  15.379  1.5613  0.9186 -0.5748
 2397SOL    HW218828   2.512   0.309  15.488  0.2228  1.6834  2.4824
 2398SOL     OW18829   0.121   3.462  14.967  0.2466  0.4246 -0.1957
 2398SOL    HW118830   0.181   3.437  15.037 -2.5523  0.5086  2.2259
 2398SOL    HW218831   0.115   3.556  14.984  2.4373  0.3250  1.1200
 2399SOL     OW18832   3.361   1.257   2.549 -0.4065 -0.9476  0.0395
 2399SOL    HW118833   3.268   1.237   2.556 -0.9347  2.1503  1.6849
 2399SOL    HW218834   3.361   1.352   2.563  1.1710 -1.0703  0.9121
 2400SOL     OW18835   3.534   3.091   3.939  0.4922 -0.1235 -0.4078
 2400SOL    HW118836   3.494   3.061   3.857 -1.6617 -2.9237  1.6595
 2400SOL    HW218837   3.525   3.013   3.994  2.3633  0.3585  0.5665
 2401SOL     OW18838   1.060   3.438   4.902 -0.2034  0.6470 -0.3145
 2401SOL    HW118839   1.028   3.517   4.857 -0.8111 -0.2195 -1.3966
 2401SOL    HW218840   1.088   3.378   4.833  0.1822 -0.8462  1.1452
 2402SOL     OW18841   3.671   4.401   2.692  0.4166  0.0712 -0.1635
 2402SOL    HW118842   3.763   4.405   2.717  1.1677  0.4999 -3.0448
 2402SOL    HW218843   3.657   4.306   2.699 -0.1818  0.1689  0.0140
 2403SOL     OW18844   1.120   3.794   4.101  0.2505 -0.1770 -0.1533
 2403SOL    HW118845   1.137   3.707   4.066  2.2807 -0.4045  1.4111
 2403SOL    HW218846   1.184   3.855   4.065  2.3209 -2.9586 -1.1595
 2404SOL     OW18847   3.086   4.525   9.231  0.0878 -0.0370  0.2821
 2404SOL    HW118848   3.028   4.562   9.297 -0.3776 -1.0780  0.4605
 2404SOL    HW218849   3.066   4.432   9.246 -0.3568 -0.0034 -0.0918
 2405SOL     OW18850   1.481   2.157  16.207 -0.1309 -0.2944  0.0226
 2405SOL    HW118851   1.423   2.184  16.279 -1.9249  2.1986 -2.3395
 2405SOL    HW218852   1.451   2.068  16.194 -0.7489  0.2401 -2.1082
 2406SOL     OW18853   2.910   2.756   9.083  0.1439  0.4967  0.2686
 2406SOL    HW118854   2.823   2.760   9.123 -0.5622  3.3569 -1.5855
 2406SOL    HW218855   2.966   2.782   9.157  0.3507 -2.1356  1.0664
 2407SOL     OW18856   2.589   1.978   9.495  0.4713 -0.3186  0.2243
 2407SOL    HW118857   2.504   2.012   9.469  1.8004  3.0809  0.3410
 2407SOL    HW218858   2.583   1.979   9.590 -0.3117  0.1119  0.1677
 2408SOL     OW18859   2.398   2.044   6.334  0.2417 -0.6363  0.0054
 2408SOL    HW118860   2.491   2.063   6.343 -0.1659  0.9164  0.8937
 2408SOL    HW218861   2.367   2.060   6.423  0.7734  1.6681 -0.2196
 2409SOL     OW18862   0.989   0.220   8.512 -0.1529 -0.3615  0.0667
 2409SOL    HW118863   0.936   0.300   8.517  1.1174  0.4563  0.5888
 2409SOL    HW218864   1.076   0.259   8.503 -0.2828 -0.0749  0.0576
 2410SOL     OW18865   4.465   2.091   5.446  0.0368 -0.0767 -0.1132
 2410SOL    HW118866   4.441   2.110   5.536 -1.5381  1.2493 -0.8180
 2410SOL    HW218867   4.377   2.093   5.410 -0.1034 -0.8726  0.1759
 2411SOL     OW18868   1.355   1.108   0.816 -0.3134 -0.7005  0.1091
 2411SOL    HW118869   1.441   1.126   0.855 -0.3303  0.5579 -0.4607
 2411SOL    HW218870   1.302   1.080   0.891 -0.9540  0.6973  0.1753
 2412SOL     OW18871   0.924   1.231   0.575 -0.5542 -0.2098 -0.0572
 2412SOL    HW118872   0.872   1.153   0.553  1.4345 -1.8718  1.1286
 2412SOL    HW218873   0.893   1.301   0.518  0.4095  0.2604  0.0093
 2413SOL     OW18874   0.801   0.257   7.976 -0.5506  0.2778 -0.1746
 2413SOL    HW118875   0.731   0.208   8.019  1.5392 -1.4274  1.2866
 2413SOL    HW218876   0.837   0.302   8.053  0.9627  0.9361 -1.2513
 2414SOL     OW18877   3.557   2.902   8.156 -0.2214  0.6955  0.9991
 2414SOL    HW118878   3.542   2.917   8.249  0.3398 -0.1426  1.2229
 2414SOL    HW218879   3.595   2.814   8.162 -0.7190  0.3610 -0.7677
 2415SOL     OW18880   1.172   4.539  13.315  0.0404  0.8639 -0.0624
 2415SOL    HW118881   1.143   4.572  13.230 -1.6415 -1.4469 -0.3813
 2415SOL    HW218882   1.175   4.615  13.373 -1.0576  1.3490 -0.6591
 2416SOL     OW18883   1.034   3.975   6.002 -0.0079  0.8413  0.0382
 2416SOL    HW118884   0.943   4.006   6.004 -1.2275 -2.6464 -1.5983
 2416SOL    HW218885   1.049   3.972   5.908  2.8532 -2.5443  0.6247
 2417SOL     OW18886   1.260   2.518  10.290 -0.1493 -0.0636 -0.2018
 2417SOL    HW118887   1.273   2.493  10.381 -0.3886 -0.0976 -0.1758
 2417SOL    HW218888   1.171   2.553  10.282  1.0307  3.4719  1.8922
 2418SOL     OW18889   0.394   2.252   3.530  0.5080 -0.1761  0.7393
 2418SOL    HW118890   0.374   2.201   3.609 -2.0087 -0.9189 -0.3888
 2418SOL    HW218891   0.309   2.273   3.492  0.0091  1.3461  2.6902
 2419SOL     OW18892   1.765   0.792   3.968  0.6879 -0.1248 -0.0697
 2419SOL    HW118893   1.722   0.871   3.999  0.7952 -0.2874  0.4828
 2419SOL    HW218894   1.699   0.740   3.922 -0.8395  1.2036  0.6313
 2420SOL     OW18895   1.435   2.212  17.357  0.3887 -0.0817 -0.0880
 2420SOL    HW118896   1.407   2.148  17.422  0.5974  0.8033  0.8682
 2420SOL    HW218897   1.358   2.208  17.299  1.2452 -0.7073 -1.1715
 2421SOL     OW18898   1.784   1.508   5.231  0.0829 -0.2639  0.4462
 2421SOL    HW118899   1.781   1.595   5.269  1.2280  0.4288 -1.0477
 2421SOL    HW218900   1.878   1.520   5.215 -0.3483  1.0191 -1.1373
 2422SOL     OW18901   3.562   0.635  17.653  0.1635  0.4307  0.0580
 2422SOL    HW118902   3.602   0.604  17.734  0.2638  0.9700  0.2135
 2422SOL    HW218903   3.501   0.694  17.696  1.6980  0.0183  2.7668
 2423SOL     OW18904   2.309   1.546   5.269  0.0389  0.2424  0.1849
 2423SOL    HW118905   2.291   1.505   5.354 -1.0109  1.0574  0.3592
 2423SOL    HW218906   2.403   1.558   5.280  0.2627 -3.0202  1.9431
 2424SOL     OW18907   0.335   3.093   8.232  0.5851  0.2271  0.3927
 2424SOL    HW118908   0.265   3.155   8.210  0.6549 -0.0233 -0.5278
 2424SOL    HW218909   0.376   3.140   8.304  1.0336  1.1696 -0.4740
 2425SOL     OW18910   1.781   1.133   2.298  0.2120 -0.1171 -0.8546
 2425SOL    HW118911   1.865   1.099   2.329 -0.2824 -0.5048  0.0486
 2425SOL    HW218912   1.804   1.209   2.245 -1.1159 -0.2881 -1.6664
 2426SOL     OW18913   0.710   4.165   4.825 -0.5037  0.4300  0.3082
 2426SOL    HW118914   0.687   4.252   4.793 -0.0615 -0.1276 -1.5157
 2426SOL    HW218915   0.626   4.141   4.864  0.4639 -2.5380  0.5606
 2427SOL     OW18916   0.681   1.251  15.117  0.1794 -0.7574  0.1940
 2427SOL    HW118917   0.655   1.318  15.179  0.4056 -0.4963  0.0049
 2427SOL    HW218918   0.755   1.291  15.071 -0.8516 -0.5218 -1.2690
 2428SOL     OW18919   4.669   0.086  15.920 -0.2145  0.3130 -0.1364
 2428SOL    HW118920   4.579   0.076  15.950  0.7308 -0.7471  2.3154
 2428SOL    HW218921   4.655   0.117  15.830 -0.6568 -2.6108 -1.0798
 2429SOL     OW18922   4.378   1.621   5.779 -0.5324  0.8141  0.0331
 2429SOL    HW118923   4.286   1.615   5.756 -0.8145  1.2441  1.0662
 2429SOL    HW218924   4.384   1.564   5.855  0.3571 -0.5587 -1.0482
 2430SOL     OW18925   4.425   3.331   6.501  0.1295  0.2427 -0.3966
 2430SOL    HW118926   4.436   3.274   6.576  0.3118  2.1511  1.0394
 2430SOL    HW218927   4.425   3.420   6.538  0.2983  0.5255 -1.0666
 2431SOL     OW18928   3.775   4.549  14.852 -0.4863  0.3869 -0.3961
 2431SOL    HW118929   3.707   4.604  14.891  1.2895  1.1619  1.5907
 2431SOL    HW218930   3.831   4.611  14.807  2.2761 -2.8328 -1.3744
 2432SOL     OW18931   3.847   2.812  16.882 -0.4349 -0.0440  0.1191
 2432SOL    HW118932   3.762   2.809  16.927 -0.4734  0.6454  0.0868
 2432SOL    HW218933   3.841   2.736  16.824  0.1233 -0.5696  0.7577
 2433SOL     OW18934   2.980   1.338  17.118  0.1151 -0.9468 -0.2370
 2433SOL    HW118935   2.978   1.336  17.213 -1.0962 -0.8327 -0.2596
 2433SOL    HW218936   2.979   1.245  17.098 -0.1732 -0.6536 -1.5968
 2434SOL     OW18937   0.463   0.091   1.091  0.0507  0.2811 -0.0656
 2434SOL    HW118938   0.535   0.039   1.127  0.1588 -0.3703 -1.2338
 2434SOL    HW218939   0.519   0.162   1.060  1.0262 -0.6400 -0.4021
 2435SOL     OW18940   1.193   1.180  15.093  0.3626  0.1433 -0.2241
 2435SOL    HW118941   1.223   1.092  15.117 -0.5037  0.2076  1.1077
 2435SOL    HW218942   1.151   1.161  15.009 -0.0624 -0.8766  0.2069
 2436SOL     OW18943   2.475   3.458   8.770 -0.3015  0.1242  0.2219
 2436SOL    HW118944   2.421   3.419   8.839  0.7957  1.1242  1.6385
 2436SOL    HW218945   2.524   3.519   8.825 -2.7226  1.0018  1.3823
 2437SOL     OW18946   2.984   1.471   0.657 -0.1795  0.0596  0.1756
 2437SOL    HW118947   3.007   1.553   0.701 -0.9829 -0.6125  1.8191
 2437SOL    HW218948   2.953   1.429   0.737 -0.2235  2.2693  1.3030
 2438SOL     OW18949   0.280   0.824  15.214  0.7665  0.5319  0.1369
 2438SOL    HW118950   0.294   0.911  15.177  1.8284  1.0854  1.8172
 2438SOL    HW218951   0.285   0.843  15.308 -2.3292 -1.1719  0.6478
 2439SOL     OW18952   3.430   2.626  13.314 -0.5139  0.2656 -0.4098
 2439SOL    HW118953   3.340   2.626  13.346  0.1807 -2.9907  1.5524
 2439SOL    HW218954   3.451   2.719  13.307  1.3334 -0.2138 -1.1760
 2440SOL     OW18955   2.238   1.849   0.052  0.0965 -0.2937 -0.0331
 2440SOL    HW118956   2.149   1.821   0.032 -0.5574  0.5503  1.6933
 2440SOL    HW218957   2.281   1.847  17.704 -0.5046  2.0032 -0.4039
 2441SOL     OW18958   2.748   2.395   8.497  0.5527 -0.5647  0.0164
 2441SOL    HW118959   2.800   2.352   8.430 -0.4112 -1.4033 -0.1967
 2441SOL    HW218960   2.796   2.367   8.575  1.2241  1.5062  0.3613
 2442SOL     OW18961   0.747   4.482  17.499  0.4294 -0.0390 -0.4839
 2442SOL    HW118962   0.815   4.449  17.559  0.0736 -0.4149 -0.2878
 2442SOL    HW218963   0.765   4.425  17.424  1.0926 -0.8899  0.3196
 2443SOL     OW18964   0.064   3.427   1.382 -0.0988 -0.2370  0.1424
 2443SOL    HW118965   0.109   3.504   1.346 -1.1503  0.5134  0.4210
 2443SOL    HW218966   4.705   3.447   1.387 -0.0533  0.3050 -1.3180
 2444SOL     OW18967   2.117   4.302   5.114  0.7423  0.0892  0.0753
 2444SOL    HW118968   2.102   4.207   5.113  0.6753  0.0960  0.3348
 2444SOL    HW218969   2.210   4.303   5.095  1.6012 -1.3569  4.2503
 2445SOL     OW18970   2.330   0.560   7.907  0.1712  0.2568  0.2055
 2445SOL    HW118971   2.279   0.480   7.912 -0.8971  1.1857  4.3711
 2445SOL    HW218972   2.415   0.539   7.945  1.3550  2.6611 -1.0698
 2446SOL     OW18973   0.623   2.060  15.546  0.1936 -0.3974 -0.0399
 2446SOL    HW118974   0.695   2.124  15.544 -0.4026  0.2335 -1.7377
 2446SOL    HW218975   0.578   2.088  15.466 -0.9466 -0.0008  0.7397
 2447SOL     OW18976   1.833   0.112   6.131 -0.0636 -0.3475  0.0118
 2447SOL    HW118977   1.922   0.080   6.149  0.6352 -0.5273 -3.8807
 2447SOL    HW218978   1.786   0.062   6.197  0.3463  1.1063  1.4334
 2448SOL     OW18979   2.294   0.627   4.991 -0.4220 -0.6115 -0.3860
 2448SOL    HW118980   2.250   0.710   4.973  0.0481 -0.6152 -1.5303
 2448SOL    HW218981   2.364   0.661   5.047  0.1489 -3.1379  0.4261
 2449SOL     OW18982   3.517   3.803   7.817  0.3106 -0.4156  0.3673
 2449SOL    HW118983   3.516   3.708   7.827 -0.5869 -0.6218 -1.6974
 2449SOL    HW218984   3.543   3.820   7.907 -1.5868  2.3911  0.3826
 2450SOL     OW18985   4.430   0.742   4.595  0.1062  0.3870 -0.1290
 2450SOL    HW118986   4.405   0.793   4.673 -2.7144  1.6592 -1.8718
 2450SOL    HW218987   4.466   0.815   4.546 -0.0856 -0.0565 -0.9174
 2451SOL     OW18988   0.031   3.915  16.223 -0.3911 -0.2892 -0.0764
 2451SOL    HW118989   0.052   3.899  16.315 -0.9057  0.5302  0.1902
 2451SOL    HW218990   0.041   3.826  16.191 -3.8601 -0.5319 -0.4742
 2452SOL     OW18991   1.569   4.345   1.035  0.0777  0.5789 -0.4906
 2452SOL    HW118992   1.572   4.377   0.945 -1.6324 -2.1250 -1.5335
 2452SOL    HW218993   1.536   4.255   1.029 -0.5612  0.7606  0.3904
 2453SOL     OW18994   3.197   4.217   3.138 -0.0530 -0.1899 -0.2738
 2453SOL    HW118995   3.172   4.265   3.059 -0.1317 -1.9191 -1.2982
 2453SOL    HW218996   3.172   4.127   3.114  1.0651 -0.9238  1.2827
 2454SOL     OW18997   2.935   0.792  12.223 -0.5350  0.3049 -0.0397
 2454SOL    HW118998   2.971   0.706  12.202  2.0320  1.5437 -0.6864
 2454SOL    HW218999   2.928   0.782  12.318  0.9280  1.8305  0.2122
 2455SOL     OW19000   2.284   3.685  15.653 -0.6494  0.4225 -0.0704
 2455SOL    HW119001   2.261   3.729  15.735  0.0588  2.4710 -0.9746
 2455SOL    HW219002   2.290   3.594  15.681  1.8013  0.6457  0.0740
 2456SOL     OW19003   1.153   0.518   3.369  0.0372  0.1846  0.3868
 2456SOL    HW119004   1.082   0.469   3.410  0.2056 -0.1861  0.2278
 2456SOL    HW219005   1.179   0.457   3.300 -1.2924 -1.7432  1.6047
 2457SOL     OW19006   2.245   2.439   6.605 -0.2822  0.2573  0.2358
 2457SOL    HW119007   2.330   2.467   6.570  0.6262 -1.9520  0.7256
 2457SOL    HW219008   2.188   2.481   6.540 -0.0066  3.4723  2.0704
 2458SOL     OW19009   2.571   1.535   5.599 -0.3700 -0.0229  0.6812
 2458SOL    HW119010   2.498   1.503   5.651 -0.7352 -0.3607 -0.0302
 2458SOL    HW219011   2.543   1.626   5.597  1.9838  0.6788 -0.2825
 2459SOL     OW19012   0.694   1.547   3.925 -0.1332 -0.5493  0.1513
 2459SOL    HW119013   0.602   1.574   3.916 -0.3184 -1.1110  0.3094
 2459SOL    HW219014   0.696   1.502   4.010 -0.6056  0.2462  0.5919
 2460SOL     OW19015   0.172   4.217   7.894 -0.5230  0.3816 -0.0894
 2460SOL    HW119016   0.136   4.128   7.887  0.8596 -0.1289 -0.7537
 2460SOL    HW219017   0.165   4.238   7.801 -1.0161 -0.6554 -0.2898
 2461SOL     OW19018   1.297   2.773  15.689 -0.1178  0.3193  0.3260
 2461SOL    HW119019   1.324   2.688  15.654 -0.2322  0.1970  0.5348
 2461SOL    HW219020   1.207   2.767  15.721 -0.5422  1.7603 -0.5985
 2462SOL     OW19021   3.554   4.015   2.248  0.3800  0.2609 -0.1871
 2462SOL    HW119022   3.616   4.006   2.320 -1.0212  1.1349  1.1090
 2462SOL    HW219023   3.552   4.109   2.262 -2.4212  0.2122 -0.3974
 2463SOL     OW19024   0.939   1.225   7.542  0.0531 -0.2299  0.3024
 2463SOL    HW119025   0.979   1.260   7.462  2.7012  0.2802  1.8538
 2463SOL    HW219026   0.862   1.281   7.544  0.6423  0.6552 -1.9955
 2464SOL     OW19027   2.532   4.652   1.668  0.5130 -0.1183 -0.4604
 2464SOL    HW119028   2.450   4.680   1.709  0.5197 -0.5695 -0.1383
 2464SOL    HW219029   2.528   4.703   1.587  0.4157  0.5396 -0.0373
 2465SOL     OW19030   1.510   3.921   7.604 -0.2837 -0.5840 -0.1304
 2465SOL    HW119031   1.473   3.892   7.521  0.6386 -0.8602 -0.4468
 2465SOL    HW219032   1.467   3.860   7.664  0.4111 -0.6238  0.3290
 2466SOL     OW19033   1.746   0.055  11.318 -0.2475  0.2924  0.3553
 2466SOL    HW119034   1.760   0.011  11.234  0.0892 -1.7382  1.4712
 2466SOL    HW219035   1.835   0.083  11.338 -0.0536 -1.6349  2.1824
 2467SOL     OW19036   4.589   3.310  17.024 -0.0539 -0.1764  0.2856
 2467SOL    HW119037   4.540   3.368  16.966 -1.0368  0.6196  1.9009
 2467SOL    HW219038   4.599   3.230  16.973  1.0386 -0.0012  0.2304
 2468SOL     OW19039   3.606   0.876   8.692  0.1166 -0.1069 -0.9698
 2468SOL    HW119040   3.517   0.890   8.724  0.3243  1.7236 -1.2000
 2468SOL    HW219041   3.637   0.837   8.774 -3.7861 -1.2815 -0.0453
 2469SOL     OW19042   3.514   3.845   8.393  0.1404  1.2942 -0.1391
 2469SOL    HW119043   3.562   3.923   8.419  2.2686 -0.1442  0.2894
 2469SOL    HW219044   3.495   3.824   8.485 -1.2899  2.1268 -0.2361
 2470SOL     OW19045   4.153   4.082   7.941 -0.5572 -0.0333 -0.5170
 2470SOL    HW119046   4.155   4.177   7.931  1.9787  0.4418  4.0366
 2470SOL    HW219047   4.228   4.057   7.996 -1.2730  1.1971  1.0521
 2471SOL     OW19048   0.210   4.092   7.277  0.1321 -0.1914 -0.2895
 2471SOL    HW119049   0.212   4.081   7.182 -0.4961 -1.3751 -0.1689
 2471SOL    HW219050   0.120   4.111   7.301 -0.7479 -0.9114 -3.0308
 2472SOL     OW19051   4.076   4.118   9.872  0.1351  0.3064  0.3666
 2472SOL    HW119052   4.036   4.202   9.897 -0.3614 -0.0865  0.9018
 2472SOL    HW219053   4.138   4.095   9.941 -1.2417  0.3648  1.6439
 2473SOL     OW19054   3.229   2.735   6.258  0.6228 -0.0308 -0.0339
 2473SOL    HW119055   3.257   2.818   6.218 -0.0987 -0.2935 -1.0835
 2473SOL    HW219056   3.191   2.776   6.335  1.0423  0.6683 -0.1970
 2474SOL     OW19057   0.163   4.563   6.406  0.6659 -0.6199 -0.1765
 2474SOL    HW119058   0.135   4.654   6.403  1.8456 -0.2803 -1.1550
 2474SOL    HW219059   0.112   4.528   6.333 -0.2635  1.7853 -0.6742
 2475SOL     OW19060   3.840   2.201   4.778 -0.5606  0.7033  0.1392
 2475SOL    HW119061   3.913   2.140   4.781 -0.5198  0.8201  1.8862
 2475SOL    HW219062   3.864   2.260   4.850  0.5098 -0.2760  0.5863
 2476SOL     OW19063   0.248   3.899  10.641  0.1649  0.3621  0.3428
 2476SOL    HW119064   0.281   3.872  10.727 -0.5115 -2.1220 -0.1799
 2476SOL    HW219065   0.191   3.825  10.619  1.6880 -0.9409  0.7567
 2477SOL     OW19066   4.255   1.525   7.433 -0.4327 -0.0786 -0.5431
 2477SOL    HW119067   4.298   1.599   7.390 -0.4713 -0.0176 -0.4769
 2477SOL    HW219068   4.308   1.504   7.509  0.9634 -2.0280 -2.0683
 2478SOL     OW19069   1.113   2.181   7.930 -0.0102 -0.4589 -1.0256
 2478SOL    HW119070   1.152   2.160   8.014  0.2293  0.1703 -0.9790
 2478SOL    HW219071   1.039   2.235   7.957  0.3561 -0.9263  0.8658
 2479SOL     OW19072   3.621   4.222   3.017  0.2307  1.1309  0.1298
 2479SOL    HW119073   3.710   4.196   2.995 -0.3139 -1.3514  0.8982
 2479SOL    HW219074   3.632   4.237   3.111 -2.2694 -0.2280  0.6481
 2480SOL     OW19075   0.469   0.313   3.437  0.3551 -0.0385 -0.0118
 2480SOL    HW119076   0.443   0.330   3.527 -1.4275  0.8337 -0.6985
 2480SOL    HW219077   0.466   0.217   3.434 -2.3753  0.0147  1.4766
 2481SOL     OW19078   4.109   0.740   2.669 -0.4172  0.4358  1.2700
 2481SOL    HW119079   4.092   0.741   2.574  1.9929  3.7199  0.8481
 2481SOL    HW219080   4.176   0.672   2.671 -3.8447 -3.0151 -1.0793
 2482SOL     OW19081   4.663   3.436   7.913  0.2113 -0.4921 -0.2239
 2482SOL    HW119082   4.644   3.378   7.840  0.3231 -0.5312 -0.2219
 2482SOL    HW219083   4.582   3.444   7.963 -0.3996  1.7511 -1.5989
 2483SOL     OW19084   0.816   0.411  15.111  0.0680  1.2651  0.5254
 2483SOL    HW119085   0.901   0.413  15.068  0.3468  1.3164  1.0776
 2483SOL    HW219086   0.803   0.505  15.127 -2.6030  0.7939  1.1221
 2484SOL     OW19087   3.206   2.030   5.737  0.4107  0.0505 -0.6293
 2484SOL    HW119088   3.293   2.009   5.704  0.7920 -0.7499  0.8895
 2484SOL    HW219089   3.171   1.941   5.729  1.4841 -0.5138  1.1130
 2485SOL     OW19090   0.795   2.688   8.230  0.0946  0.0037  0.2305
 2485SOL    HW119091   0.738   2.612   8.220  1.2928 -0.9000  0.2353
 2485SOL    HW219092   0.817   2.700   8.137 -1.3204 -0.7784 -0.2033
 2486SOL     OW19093   0.470   1.433   4.938 -0.0462 -0.4640  0.3082
 2486SOL    HW119094   0.483   1.484   5.018 -0.6559 -0.8041  0.6234
 2486SOL    HW219095   0.500   1.347   4.967  0.3660 -0.2695  0.4506
 2487SOL     OW19096   2.606   3.544  15.933  0.1511 -0.5768 -0.0096
 2487SOL    HW119097   2.622   3.588  15.849  2.6725 -1.3784  0.0559
 2487SOL    HW219098   2.620   3.452  15.909 -0.5810  0.0168 -2.7426
 2488SOL     OW19099   1.497   1.513   3.521  0.2096  0.5580 -0.5331
 2488SOL    HW119100   1.461   1.565   3.449  0.2533  1.2638 -0.0506
 2488SOL    HW219101   1.510   1.579   3.590 -0.1475  0.6769 -0.5780
 2489SOL     OW19102   2.614   1.552   8.248 -0.5070  0.1473 -0.4526
 2489SOL    HW119103   2.598   1.550   8.153 -0.8317 -0.5054 -0.3889
 2489SOL    HW219104   2.660   1.469   8.265 -2.0630 -0.5848  0.2266
 2490SOL     OW19105   0.453   1.720  11.628  0.4057  0.0629  0.7777
 2490SOL    HW119106   0.359   1.732  11.643  0.3281 -0.4742  0.7230
 2490SOL    HW219107   0.446   1.647  11.567  1.3513  2.1754 -1.8253
 2491SOL     OW19108   1.797   2.099   6.928  0.8521  0.1361  0.2210
 2491SOL    HW119109   1.841   2.025   6.885  0.2032  0.8683 -1.7086
 2491SOL    HW219110   1.759   2.043   6.995 -2.9008  0.1082 -1.9185
 2492SOL     OW19111   0.287   3.497   8.335 -0.0145 -0.5070 -0.4400
 2492SOL    HW119112   0.271   3.513   8.427 -0.7609 -1.4788 -0.4031
 2492SOL    HW219113   0.246   3.411   8.333  1.6368 -1.3177  0.6384
 2493SOL     OW19114   4.241   0.176   8.610 -0.6766  0.0816  0.1121
 2493SOL    HW119115   4.325   0.142   8.642 -0.3225  1.0179  0.1779
 2493SOL    HW219116   4.178   0.143   8.675 -1.4183  0.2620 -0.5144
 2494SOL     OW19117   0.459   2.136   8.487 -0.3842 -0.1161 -0.2572
 2494SOL    HW119118   0.459   2.041   8.500 -0.2084 -0.0307  0.3979
 2494SOL    HW219119   0.546   2.147   8.449  0.3975  0.9829  1.8539
 2495SOL     OW19120   4.733   1.975   3.620  0.2088 -0.6962 -0.4207
 2495SOL    HW119121   4.699   1.885   3.613  2.1665 -1.4198 -0.7104
 2495SOL    HW219122   4.713   2.008   3.708  0.5430 -1.9204  0.1185
 2496SOL     OW19123   3.655   1.177   3.048 -0.4738  0.1744  0.3827
 2496SOL    HW119124   3.631   1.228   2.971 -3.3550  1.3488  2.0664
 2496SOL    HW219125   3.712   1.108   3.013 -1.1603  0.3797 -1.1503
 2497SOL     OW19126   0.674   3.015  16.727 -0.1718 -0.2603  0.2523
 2497SOL    HW119127   0.602   3.067  16.763 -1.3842 -1.8233  0.1080
 2497SOL    HW219128   0.719   3.084  16.678 -0.1629  0.1068  0.7793
 2498SOL     OW19129   4.244   2.743   2.200 -0.7322 -0.2086 -0.3045
 2498SOL    HW119130   4.207   2.756   2.113  1.3929  1.2130 -1.0099
 2498SOL    HW219131   4.333   2.779   2.196 -0.6047 -0.6444 -1.3248
 2499SOL     OW19132   1.699   2.110   3.826  0.5248 -0.1428 -0.5150
 2499SOL    HW119133   1.642   2.183   3.851  2.2253 -0.1537  3.4390
 2499SOL    HW219134   1.722   2.133   3.736  0.5546  0.0107 -0.4691
 2500SOL     OW19135   2.005   2.694   8.361  0.2887 -0.2417  0.1040
 2500SOL    HW119136   1.979   2.775   8.404 -1.4809 -0.3814 -0.7006
 2500SOL    HW219137   2.043   2.725   8.279 -0.4919 -1.7256 -0.8172
 2501SOL     OW19138   2.045   2.172  13.245 -0.1344  0.2958  0.0692
 2501SOL    HW119139   1.951   2.180  13.225  0.3781  1.1202 -1.9682
 2501SOL    HW219140   2.072   2.122  13.168  2.5357  2.5562 -0.4305
 2502SOL     OW19141   4.054   1.957   4.746  0.3850 -0.5334  0.8314
 2502SOL    HW119142   4.082   2.007   4.669  0.0129 -2.6653 -0.7106
 2502SOL    HW219143   4.126   1.943   4.807 -0.2367 -1.1972  1.4095
 2503SOL     OW19144   3.070   2.821  14.735  0.5957  0.1251  0.1651
 2503SOL    HW119145   3.093   2.735  14.771 -2.1320  0.1955  2.1327
 2503SOL    HW219146   2.990   2.800  14.687 -1.4769  2.9353  2.4173
 2504SOL     OW19147   1.476   3.666   6.027  0.1169  0.1731 -0.1389
 2504SOL    HW119148   1.509   3.749   5.994  0.4253  0.3537  0.6128
 2504SOL    HW219149   1.549   3.613   5.997  0.4175  0.3110  0.3386
 2505SOL     OW19150   0.551   4.088   5.579  0.0321 -0.0319  0.6005
 2505SOL    HW119151   0.460   4.070   5.603 -0.1942 -0.5270 -0.6433
 2505SOL    HW219152   0.567   4.016   5.518  2.2704 -0.0241  1.1962
 2506SOL     OW19153   1.780   0.415   8.015 -0.2922  0.3541  0.3640
 2506SOL    HW119154   1.750   0.465   7.939 -0.6567  2.5911  1.9703
 2506SOL    HW219155   1.762   0.482   8.081 -0.4893  0.5423  0.1224
 2507SOL     OW19156   0.627   2.638   7.790  0.1318  0.0076  0.2053
 2507SOL    HW119157   0.562   2.652   7.858 -0.5738  1.5319 -0.7919
 2507SOL    HW219158   0.687   2.712   7.806  1.2512 -0.7028 -0.6542
 2508SOL     OW19159   3.954   2.082   5.433 -0.1222 -0.4432  0.3911
 2508SOL    HW119160   3.974   2.050   5.521 -1.7831 -1.2213  0.5028
 2508SOL    HW219161   4.030   2.138   5.418  0.4952 -1.4541 -0.3056
 2509SOL     OW19162   0.955   4.114   1.048 -0.5242  0.4430 -0.5399
 2509SOL    HW119163   0.960   4.096   0.954 -0.4456  0.5566 -0.5570
 2509SOL    HW219164   0.960   4.024   1.080  0.2374  0.7151  0.0922
 2510SOL     OW19165   0.608   3.593   9.600 -0.3692  0.3380  0.1049
 2510SOL    HW119166   0.676   3.568   9.662 -1.0246 -4.0208 -0.9338
 2510SOL    HW219167   0.544   3.526   9.625 -0.9815  0.4667 -1.1121
 2511SOL     OW19168   4.414   2.065   2.413  0.3439 -0.1549 -0.3717
 2511SOL    HW119169   4.350   2.056   2.343 -1.0335  1.0105  0.7538
 2511SOL    HW219170   4.397   2.156   2.436 -1.8466 -1.1211  1.7523
 2512SOL     OW19171   1.971   1.387  16.921  0.2382 -0.1470 -0.2350
 2512SOL    HW119172   1.897   1.445  16.907 -0.1621 -0.8386 -0.9290
 2512SOL    HW219173   2.020   1.452  16.972 -1.8363 -0.1783  1.8329
 2513SOL     OW19174   1.289   3.481   0.891  0.4891 -0.0567 -0.7478
 2513SOL    HW119175   1.370   3.500   0.844  0.5669  0.6946 -0.3063
 2513SOL    HW219176   1.265   3.399   0.847 -1.7094  0.7309 -1.0102
 2514SOL     OW19177   2.445   3.921  16.030  0.1227 -0.1455  0.0793
 2514SOL    HW119178   2.383   3.880  15.969 -0.3612  1.5339 -0.5617
 2514SOL    HW219179   2.499   3.964  15.964  1.4941 -0.3049  1.0982
 2515SOL     OW19180   4.054   1.986   8.887  0.7625  0.2594  0.6119
 2515SOL    HW119181   4.026   2.071   8.918 -0.1791  0.1138  0.1518
 2515SOL    HW219182   4.149   1.984   8.900  0.7807 -0.4868  0.3796
 2516SOL     OW19183   1.147   0.855   3.602  0.1341  0.7036  0.1585
 2516SOL    HW119184   1.133   0.919   3.532  0.2812  1.3266  0.7052
 2516SOL    HW219185   1.112   0.901   3.678  0.0804  2.1397 -0.7209
 2517SOL     OW19186   1.944   2.013   2.164  0.0407 -0.0098  0.4911
 2517SOL    HW119187   1.917   1.952   2.232  0.8938 -2.3803 -1.3222
 2517SOL    HW219188   2.009   1.966   2.111 -0.6300  1.9389 -2.0847
 2518SOL     OW19189   2.627   2.471   2.335 -0.4352  0.5230  0.2894
 2518SOL    HW119190   2.569   2.503   2.404 -0.6593  0.3665  0.1756
 2518SOL    HW219191   2.710   2.516   2.351  1.2528 -2.7361  0.4785
 2519SOL     OW19192   2.971   0.695   9.942 -0.2159 -0.1589  0.5501
 2519SOL    HW119193   2.970   0.656   9.855  1.4275  0.4757  0.2652
 2519SOL    HW219194   3.065   0.707   9.956 -0.3765  1.3373  0.3028
 2520SOL     OW19195   2.787   4.171   0.879  0.2723 -0.3243 -0.8035
 2520SOL    HW119196   2.805   4.091   0.829 -0.4368 -0.0864 -1.4401
 2520SOL    HW219197   2.768   4.228   0.805 -0.4843 -0.0531 -0.3986
 2521SOL     OW19198   3.243   3.828   4.998  0.3925 -0.2374  0.7256
 2521SOL    HW119199   3.261   3.791   5.084  0.9699 -0.9545  0.2992
 2521SOL    HW219200   3.152   3.854   5.012  0.3291  0.0448 -0.2259
 2522SOL     OW19201   2.637   3.820   7.673  0.1488  0.2486 -0.4102
 2522SOL    HW119202   2.594   3.757   7.731  0.1287  1.2288  0.6579
 2522SOL    HW219203   2.643   3.899   7.727  0.9317 -0.4299  0.4899
 2523SOL     OW19204   0.605   0.399   8.813  0.2905  0.4777  0.6006
 2523SOL    HW119205   0.571   0.402   8.903 -0.6841  1.5072  0.2158
 2523SOL    HW219206   0.695   0.427   8.827  0.5205 -1.4730  2.8704
 2524SOL     OW19207   3.605   1.338  17.367 -0.1145  0.4490  0.1764
 2524SOL    HW119208   3.584   1.363  17.278 -0.9295 -2.2802 -0.4138
 2524SOL    HW219209   3.700   1.340  17.355 -0.2609  0.9671 -0.8315
 2525SOL     OW19210   3.873   1.121   2.503  0.6605  0.0288 -0.4547
 2525SOL    HW119211   3.842   1.037   2.536 -0.0296  0.4121 -0.1334
 2525SOL    HW219212   3.920   1.097   2.423  1.6866 -1.0761  0.4852
 2526SOL     OW19213   4.711   1.116  10.096  0.4543 -0.7674 -0.2162
 2526SOL    HW119214   0.069   1.132  10.083  0.4226 -0.6291 -0.2845
 2526SOL    HW219215   4.691   1.032  10.054  2.6927 -1.9098  1.0055
 2527SOL     OW19216   0.243   0.351   6.989  0.3161 -0.2635 -0.3369
 2527SOL    HW119217   0.202   0.406   6.922  1.6636 -0.2370 -1.1339
 2527SOL    HW219218   0.318   0.315   6.943  2.4819  0.7795  2.3908
 2528SOL     OW19219   0.988   3.294  16.948 -0.2558 -0.0766  0.1838
 2528SOL    HW119220   0.953   3.364  16.893  0.5131  0.3050  0.1860
 2528SOL    HW219221   0.910   3.252  16.985 -1.9507  3.4363  0.5879
 2529SOL     OW19222   2.561   1.322   5.414  0.2410  0.6306 -0.4503
 2529SOL    HW119223   2.638   1.340   5.361  0.4628 -1.4018 -0.8109
 2529SOL    HW219224   2.587   1.385   5.482 -0.0611 -1.8475  1.9564
 2530SOL     OW19225   0.895   0.754   1.312 -0.5290  0.6652 -0.6358
 2530SOL    HW119226   0.812   0.785   1.274 -2.6503 -1.0688  2.5273
 2530SOL    HW219227   0.901   0.821   1.380 -3.0286 -0.6798  0.9195
 2531SOL     OW19228   1.472   0.617   6.697  0.4304 -0.0820  0.0173
 2531SOL    HW119229   1.425   0.583   6.620 -1.0281 -2.1151  1.8136
 2531SOL    HW219230   1.544   0.553   6.703 -0.2434 -0.7697  0.7108
 2532SOL     OW19231   1.721   3.924  15.808 -0.4908 -0.7383 -0.2088
 2532SOL    HW119232   1.783   3.869  15.856  0.1014  0.3735  0.3137
 2532SOL    HW219233   1.773   3.997  15.774  1.0879 -2.7712 -2.1651
 2533SOL     OW19234   3.757   0.176   4.635 -0.1028  0.3605  0.6513
 2533SOL    HW119235   3.709   0.155   4.715  0.2039  1.2719  1.0701
 2533SOL    HW219236   3.687   0.214   4.582  0.0129  0.7126  0.7540
 2534SOL     OW19237   0.506   3.715   8.336  0.2512  0.3178 -0.0773
 2534SOL    HW119238   0.436   3.656   8.309 -0.2511  0.8332  0.1101
 2534SOL    HW219239   0.490   3.744   8.426 -1.4891 -0.0123 -0.2921
 2535SOL     OW19240   3.548   2.908   2.587 -0.4092 -0.2301  0.3167
 2535SOL    HW119241   3.497   2.973   2.539  0.8186 -0.0322 -0.7238
 2535SOL    HW219242   3.490   2.832   2.593 -1.2811  0.4998  1.0938
 2536SOL     OW19243   3.619   3.011   5.066  0.1773  0.1495  0.3219
 2536SOL    HW119244   3.679   2.940   5.044 -1.5089 -2.0971  2.9815
 2536SOL    HW219245   3.544   2.972   5.022 -1.1401 -1.0554  3.5893
 2537SOL     OW19246   1.276   1.896   6.729  0.2894 -0.4807  0.5656
 2537SOL    HW119247   1.269   1.825   6.664 -0.6129 -0.3480  0.5143
 2537SOL    HW219248   1.370   1.908   6.719  0.0909  1.3364  0.8708
 2538SOL     OW19249   3.520   3.876   4.995 -0.5055 -0.2137  0.1046
 2538SOL    HW119250   3.430   3.848   4.983 -0.5640  0.0934 -0.1483
 2538SOL    HW219251   3.536   3.919   4.911  0.5691 -0.7868  0.0162
 2539SOL     OW19252   3.972   2.881   8.882  0.8892  0.3102 -0.0779
 2539SOL    HW119253   3.980   2.976   8.875  0.2635  0.3295 -0.5242
 2539SOL    HW219254   3.876   2.886   8.874  0.7514 -0.2973  1.2545
 2540SOL     OW19255   0.615   3.233   1.956  0.3188 -0.2115 -0.0225
 2540SOL    HW119256   0.588   3.282   1.879 -0.4831  0.1944  0.5258
 2540SOL    HW219257   0.531   3.243   2.001  0.8536  1.6878  0.5625
 2541SOL     OW19258   0.812   4.647   7.173 -0.0455  0.0097 -0.3149
 2541SOL    HW119259   0.819   4.701   7.094  0.1458 -1.2190 -1.1291
 2541SOL    HW219260   0.903   4.655   7.201 -0.6544  0.0181  1.6456
 2542SOL     OW19261   2.378   2.584   3.674 -0.5785 -0.0499  0.3504
 2542SOL    HW119262   2.323   2.629   3.610  2.8477  2.1197 -1.0681
 2542SOL    HW219263   2.453   2.597   3.616  0.0741 -3.9437  0.3405
 2543SOL     OW19264   2.356   0.481   4.765 -0.2478 -0.4580 -0.2433
 2543SOL    HW119265   2.361   0.531   4.847 -0.0903 -1.3630  0.3058
 2543SOL    HW219266   2.363   0.545   4.694 -0.0167 -1.8526 -1.4865
 2544SOL     OW19267   0.184   1.704  11.692 -0.0113 -0.8575 -0.1797
 2544SOL    HW119268   0.201   1.758  11.770 -1.6132 -3.6199  2.0801
 2544SOL    HW219269   0.120   1.646  11.733 -0.1457  1.1676  2.5209
 2545SOL     OW19270   2.460   2.194   9.119  0.2584  0.0679 -0.7386
 2545SOL    HW119271   2.411   2.273   9.096 -0.1612 -0.3777 -1.3717
 2545SOL    HW219272   2.422   2.122   9.068 -0.7496 -0.5697  0.9478
 2546SOL     OW19273   1.821   0.169   7.936 -0.3196  0.1115  0.1551
 2546SOL    HW119274   1.800   0.261   7.954 -1.0906 -0.1137  0.3704
 2546SOL    HW219275   1.854   0.150   8.024 -1.7822  0.0402  0.6927
 2547SOL     OW19276   4.588   3.190   2.221 -0.7607 -0.6867 -0.3233
 2547SOL    HW119277   4.673   3.201   2.178 -0.2752 -0.7196  0.6502
 2547SOL    HW219278   4.562   3.282   2.229  0.8747 -0.1727 -0.9183
 2548SOL     OW19279   0.832   2.650  17.119  0.4313 -0.2949  0.4385
 2548SOL    HW119280   0.820   2.700  17.039  0.8613 -0.5107  0.2407
 2548SOL    HW219281   0.877   2.717  17.172 -0.8980  0.2750  0.8568
 2549SOL     OW19282   1.388   2.053  13.429 -0.8418 -0.2954  0.4143
 2549SOL    HW119283   1.323   2.115  13.461 -1.2380  0.4260 -1.7996
 2549SOL    HW219284   1.407   2.003  13.508 -1.7701 -1.1045  0.1273
 2550SOL     OW19285   2.345   2.828  13.301  0.3141  0.2211 -0.2321
 2550SOL    HW119286   2.299   2.832  13.217 -0.3205  1.8381  0.1929
 2550SOL    HW219287   2.320   2.912  13.340  0.0666  0.7518 -1.5174
 2551SOL     OW19288   3.677   2.935   3.518  0.3195  1.0520  0.1452
 2551SOL    HW119289   3.750   2.910   3.462  0.5069  1.4721  0.2070
 2551SOL    HW219290   3.614   2.921   3.447 -0.3874  0.7630  0.8215
 2552SOL     OW19291   1.224   0.173   5.336 -0.0479 -0.1130  0.0118
 2552SOL    HW119292   1.265   0.260   5.334 -0.5978  0.0914 -2.5482
 2552SOL    HW219293   1.294   0.124   5.293 -1.0753 -1.7792  0.2255
 2553SOL     OW19294   3.336   3.355   3.947 -0.4822 -0.0007  0.2887
 2553SOL    HW119295   3.394   3.424   3.978  0.7907 -0.5665 -0.8519
 2553SOL    HW219296   3.387   3.312   3.878 -0.7482 -0.6499  0.4889
 2554SOL     OW19297   4.367   0.890   1.662 -0.5616  0.3356 -0.2093
 2554SOL    HW119298   4.439   0.887   1.600 -0.2140  3.2611  0.0215
 2554SOL    HW219299   4.415   0.885   1.745 -2.8752  0.1155  1.1383
 2555SOL     OW19300   0.197   3.650   4.671 -0.2293  0.3176  0.2993
 2555SOL    HW119301   0.202   3.556   4.690  0.4842  0.4359  0.7135
 2555SOL    HW219302   0.203   3.690   4.758  2.2016  1.0121 -0.1848
 2556SOL     OW19303   4.538   2.655   1.437 -0.3918  0.0190  0.0864
 2556SOL    HW119304   4.523   2.692   1.350  0.0326  1.6134  0.7092
 2556SOL    HW219305   4.575   2.730   1.483  0.1533  1.6325 -2.9884
 2557SOL     OW19306   0.057   0.834  15.047 -0.0395  0.0401  0.8420
 2557SOL    HW119307   0.024   0.914  15.087  0.6352 -0.1572  1.8108
 2557SOL    HW219308   0.122   0.820  15.116  0.8700  2.5773  0.4700
 2558SOL     OW19309   0.878   3.079   8.332  0.5175 -0.0792 -0.2088
 2558SOL    HW119310   0.951   3.139   8.351 -1.0896  1.4118  1.2464
 2558SOL    HW219311   0.900   3.005   8.388  1.4706  0.4691  0.1506
 2559SOL     OW19312   1.151   2.383   4.231  0.1157  0.0667  0.1889
 2559SOL    HW119313   1.165   2.440   4.156 -0.1297 -2.3010 -1.6414
 2559SOL    HW219314   1.090   2.317   4.197  0.1707 -0.7313  1.6322
 2560SOL     OW19315   1.843   3.928   3.298 -0.1577  0.1924 -0.2185
 2560SOL    HW119316   1.766   3.939   3.353 -1.2625 -1.9916 -1.3657
 2560SOL    HW219317   1.824   3.841   3.263  0.6033  1.0622 -2.7766
 2561SOL     OW19318   2.009   1.308   6.005  0.4434  0.1256 -0.0698
 2561SOL    HW119319   2.048   1.393   6.023 -0.1965  0.3247  0.3756
 2561SOL    HW219320   1.915   1.328   6.002  0.7295  1.6403  1.5580
 2562SOL     OW19321   4.084   3.588   5.167  0.3670 -0.0474  0.1970
 2562SOL    HW119322   4.092   3.672   5.123 -0.3348  1.1824  2.4052
 2562SOL    HW219323   4.037   3.624   5.242 -0.4188 -1.1378  0.2363
 2563SOL     OW19324   1.749   2.269   7.905 -0.3330 -0.6189  0.9008
 2563SOL    HW119325   1.835   2.227   7.912 -0.4429 -1.0668 -0.4337
 2563SOL    HW219326   1.756   2.303   7.816  2.4439 -1.4276  0.7994
 2564SOL     OW19327   3.165   3.839   7.412 -0.3511  0.2000  0.5897
 2564SOL    HW119328   3.169   3.807   7.502  2.9926 -1.2056 -0.0721
 2564SOL    HW219329   3.232   3.790   7.364  0.7556  0.6473  1.6755
 2565SOL     OW19330   1.665   2.135   9.272  0.5055  0.3746  0.6020
 2565SOL    HW119331   1.686   2.048   9.238  0.6325 -0.5132  2.9299
 2565SOL    HW219332   1.627   2.179   9.196 -1.3601  0.6476  1.6972
 2566SOL     OW19333   1.434   0.714   1.850 -0.7021  0.2105 -0.2815
 2566SOL    HW119334   1.512   0.662   1.868  1.9044  4.1449  0.0091
 2566SOL    HW219335   1.473   0.768   1.781  4.4851 -0.1250  2.4107
 2567SOL     OW19336   4.169   3.215   7.210  0.2820  0.3474 -0.5164
 2567SOL    HW119337   4.191   3.210   7.117 -0.0155  0.8878 -0.6182
 2567SOL    HW219338   4.257   3.194   7.239 -0.5745  0.3788  2.0777
 2568SOL     OW19339   0.299   1.178   6.501 -0.2875  0.6858 -0.6334
 2568SOL    HW119340   0.249   1.099   6.479 -1.1553  1.5567 -1.7893
 2568SOL    HW219341   0.223   1.229   6.528  0.1067  1.3956 -0.8582
 2569SOL     OW19342   2.636   2.182  13.337 -0.2085  0.0789  0.2237
 2569SOL    HW119343   2.690   2.238  13.282  0.6305  0.2996  1.2672
 2569SOL    HW219344   2.700   2.132  13.389  0.0151  1.9151  1.7098
 2570SOL     OW19345   0.368   4.522   1.035 -0.0041 -0.2797  0.1949
 2570SOL    HW119346   0.392   4.461   0.965 -1.0175  0.1338 -0.5188
 2570SOL    HW219347   0.362   4.605   0.988 -2.4035 -0.4694  0.1369
 2571SOL     OW19348   3.279   2.428   2.580 -0.1087 -0.3240  0.1033
 2571SOL    HW119349   3.292   2.339   2.546 -1.5181 -0.2402 -0.6733
 2571SOL    HW219350   3.184   2.427   2.594 -0.2158 -1.1822 -0.6540
 2572SOL     OW19351   2.124   3.883  11.112  0.4387 -0.4326  0.5318
 2572SOL    HW119352   2.107   3.828  11.189 -0.4455 -1.6895 -0.5496
 2572SOL    HW219353   2.214   3.856  11.095 -0.3951 -2.8207 -0.0590
 2573SOL     OW19354   1.495   2.797   2.028  0.3471 -0.0785 -0.6939
 2573SOL    HW119355   1.478   2.832   1.941 -0.5571 -1.3744 -1.0394
 2573SOL    HW219356   1.454   2.863   2.083 -2.1010 -0.1154 -2.4832
 2574SOL     OW19357   2.859   0.196  10.102 -0.0740 -0.2600 -0.5768
 2574SOL    HW119358   2.855   0.100  10.100 -0.2568 -0.2241 -2.6313
 2574SOL    HW219359   2.899   0.227  10.183  0.3115  0.1163 -0.9042
 2575SOL     OW19360   3.772   2.843   9.999  0.0227  0.3362 -0.1052
 2575SOL    HW119361   3.845   2.842  10.061 -0.9367  1.4217  1.0539
 2575SOL    HW219362   3.792   2.896   9.922  0.3050  0.0572 -0.2227
 2576SOL     OW19363   0.900   0.094   2.829  0.0771 -0.3113 -0.1647
 2576SOL    HW119364   0.945   0.012   2.808 -0.4890 -0.9512  1.1827
 2576SOL    HW219365   0.808   0.072   2.817 -0.4732  0.8887  1.9566
 2577SOL     OW19366   1.607   2.463   3.791  0.1948  0.2486 -0.4727
 2577SOL    HW119367   1.619   2.448   3.885 -0.7580 -1.4645 -0.6209
 2577SOL    HW219368   1.512   2.452   3.790  0.3687 -1.3796  0.9865
 2578SOL     OW19369   1.578   4.588   8.406 -0.3572  0.1440 -0.5473
 2578SOL    HW119370   1.576   4.522   8.476 -0.4578  0.1973 -0.5007
 2578SOL    HW219371   1.585   4.677   8.440  0.7532  0.1002 -0.6334
 2579SOL     OW19372   3.318   1.327   2.170  0.2588  0.0313  0.4849
 2579SOL    HW119373   3.296   1.299   2.081  1.3241  1.3673 -0.2005
 2579SOL    HW219374   3.230   1.345   2.201  0.7013  2.4426  0.3202
 2580SOL     OW19375   0.135   4.156  15.072  0.0766  0.2207 -0.5159
 2580SOL    HW119376   0.215   4.194  15.036 -2.2918  4.3477 -1.3366
 2580SOL    HW219377   0.128   4.211  15.150 -0.4795 -1.7347  0.8280
 2581SOL     OW19378   2.321   0.434   2.763 -0.2436 -0.0036  0.0733
 2581SOL    HW119379   2.331   0.406   2.672  1.3327 -2.7039  1.0751
 2581SOL    HW219380   2.414   0.456   2.776 -0.4485  1.6589 -1.3495
 2582SOL     OW19381   2.568   0.434  11.376  0.0092  0.3335 -0.1184
 2582SOL    HW119382   2.646   0.405  11.329 -0.2502 -0.7910  0.1548
 2582SOL    HW219383   2.507   0.451  11.304  1.7305  1.1243 -1.3898
 2583SOL     OW19384   3.880   1.764  13.117  0.1389 -0.3291 -0.4984
 2583SOL    HW119385   3.835   1.770  13.033 -1.3270 -0.7446  0.2446
 2583SOL    HW219386   3.942   1.837  13.114  0.0998 -0.3365 -1.4266
 2584SOL     OW19387   3.635   1.126   1.910  0.4065 -0.0665 -0.4556
 2584SOL    HW119388   3.688   1.147   1.834 -1.1749  0.7991 -1.3041
 2584SOL    HW219389   3.684   1.187   1.966 -2.1861  0.8677  0.8065
 2585SOL     OW19390   3.399   4.337   2.609 -0.4203 -0.2299  0.1822
 2585SOL    HW119391   3.317   4.384   2.596 -1.5507 -2.4300 -0.6032
 2585SOL    HW219392   3.372   4.256   2.652 -3.8115 -0.3278 -2.0994
 2586SOL     OW19393   3.129   1.771  13.158 -0.0423 -0.2131 -0.4172
 2586SOL    HW119394   3.170   1.760  13.072  0.9538  2.5995 -0.2869
 2586SOL    HW219395   3.108   1.679  13.175 -0.6631  0.0859  0.3999
 2587SOL     OW19396   1.947   1.024  16.500  0.4226  0.7122 -0.1131
 2587SOL    HW119397   1.976   0.936  16.476 -1.1064  0.8345 -2.4154
 2587SOL    HW219398   1.896   1.053  16.424  1.4795 -0.2363 -1.1726
 2588SOL     OW19399   3.522   4.333  16.339  0.5392 -0.4730 -0.0955
 2588SOL    HW119400   3.438   4.286  16.340  0.9350 -1.2088 -0.7110
 2588SOL    HW219401   3.518   4.362  16.430  1.4475  0.4382 -0.3560
 2589SOL     OW19402   2.090   3.447   5.061 -0.1889 -0.2401 -0.4275
 2589SOL    HW119403   2.079   3.451   5.156  3.7083  0.0141 -0.0051
 2589SOL    HW219404   2.008   3.406   5.033 -1.3809  1.1555  1.0292
 2590SOL     OW19405   4.698   0.615   8.966  0.5316  0.2596 -0.1556
 2590SOL    HW119406   4.615   0.624   9.014  1.7399  0.9039  1.8014
 2590SOL    HW219407   4.705   0.521   8.951  0.4665  0.0014  1.4603
 2591SOL     OW19408   3.377   1.970   8.783 -0.2685 -0.2354 -0.1169
 2591SOL    HW119409   3.333   2.024   8.717 -0.7164 -0.8544 -0.3199
 2591SOL    HW219410   3.471   1.978   8.767  0.3491 -0.7659  3.1621
 2592SOL     OW19411   3.521   1.057   6.859 -0.1549  0.4236  0.4358
 2592SOL    HW119412   3.495   0.973   6.823 -0.1237  1.8294 -2.9089
 2592SOL    HW219413   3.610   1.028   6.878 -0.6505 -1.4368 -0.1522
 2593SOL     OW19414   3.160   2.234   3.223  0.5109 -0.3883  0.1452
 2593SOL    HW119415   3.225   2.286   3.177 -1.5415  1.0217 -1.1562
 2593SOL    HW219416   3.206   2.194   3.297 -0.6800  0.8448  1.5561
 2594SOL     OW19417   2.126   4.386   8.869 -0.3675 -0.5066 -0.5341
 2594SOL    HW119418   2.153   4.432   8.789  0.1546 -0.9792 -0.6338
 2594SOL    HW219419   2.096   4.463   8.917 -0.2330 -0.9341  0.2418
 2595SOL     OW19420   0.316   4.651   4.352 -0.6058  0.4994  0.2344
 2595SOL    HW119421   0.230   4.665   4.391 -0.6133  0.9004  0.0689
 2595SOL    HW219422   0.301   4.558   4.335  0.4041  0.8478 -2.4959
 2596SOL     OW19423   1.487   4.643   2.388 -0.3370  0.7308 -0.0597
 2596SOL    HW119424   1.433   4.610   2.461 -1.9120  1.9912 -0.6608
 2596SOL    HW219425   1.567   4.632   2.440  0.2652 -0.4353 -1.2558
 2597SOL     OW19426   2.339   4.608  14.911  0.3306  0.2971  0.3028
 2597SOL    HW119427   2.348   4.671  14.839  2.1559 -0.9687 -0.5829
 2597SOL    HW219428   2.266   4.566  14.865  1.6178  0.2154 -1.6974
 2598SOL     OW19429   4.507   3.551   6.635  0.1974  0.1650  0.5022
 2598SOL    HW119430   4.463   3.615   6.579 -1.1734 -0.5630  0.7335
 2598SOL    HW219431   4.486   3.588   6.720 -2.9842  1.1455 -0.6952
 2599SOL     OW19432   2.187   4.092   8.939 -0.1348 -0.1145 -0.3940
 2599SOL    HW119433   2.276   4.107   8.906 -0.1059  0.7977  0.0962
 2599SOL    HW219434   2.151   4.179   8.958 -1.0543 -0.5687 -0.1097
 2600SOL     OW19435   0.480   0.314   3.080 -0.2527 -0.0122  0.0538
 2600SOL    HW119436   0.425   0.264   3.141 -0.0699 -0.4736 -0.1637
 2600SOL    HW219437   0.418   0.319   3.008 -0.7982  0.7539  0.5666
 2601SOL     OW19438   3.644   1.968   8.123  0.1167 -0.2091  0.4578
 2601SOL    HW119439   3.721   1.917   8.100 -1.3917 -2.1973 -0.1686
 2601SOL    HW219440   3.583   1.935   8.058 -0.2637 -0.2594  0.8400
 2602SOL     OW19441   4.230   4.631  12.699 -0.3112 -0.2293  0.3595
 2602SOL    HW119442   4.290   4.638  12.774 -0.2387  2.4441  0.0572
 2602SOL    HW219443   4.185   4.564  12.751  1.2285 -0.0971  1.8574
 2603SOL     OW19444   1.702   3.803   2.348  0.1418  0.5727  0.3541
 2603SOL    HW119445   1.771   3.833   2.288 -0.0575  0.4522  0.0680
 2603SOL    HW219446   1.745   3.756   2.420 -2.1925 -1.3286  0.4953
 2604SOL     OW19447   2.899   0.789   4.653 -0.2629 -0.7362  0.1560
 2604SOL    HW119448   2.954   0.723   4.695 -0.5963  1.0592  3.4139
 2604SOL    HW219449   2.961   0.860   4.662 -0.4065 -0.3737 -1.6383
 2605SOL     OW19450   1.697   0.747  12.669  0.6039 -0.7779  0.0648
 2605SOL    HW119451   1.645   0.678  12.627 -1.4900  1.2526 -0.7042
 2605SOL    HW219452   1.748   0.694  12.729  2.0684  1.4581  0.7842
 2606SOL     OW19453   0.458   2.168  10.991  0.3341  0.0729  0.3954
 2606SOL    HW119454   0.489   2.259  10.994 -1.4015  0.7315 -1.3550
 2606SOL    HW219455   0.515   2.130  11.058  0.7842 -0.3317 -0.2182
 2607SOL     OW19456   1.151   1.056   9.419  0.2630 -0.1198 -0.0549
 2607SOL    HW119457   1.190   1.076   9.333  1.2905  1.1332  0.6940
 2607SOL    HW219458   1.078   1.001   9.393 -0.4376  0.1953  1.2707
 2608SOL     OW19459   2.067   0.483   5.164  0.2807 -0.7450 -0.1099
 2608SOL    HW119460   2.141   0.544   5.160 -0.9650  0.7551  0.0157
 2608SOL    HW219461   2.108   0.418   5.221  0.4306  1.4450  2.2746
 2609SOL     OW19462   1.068   0.271  17.515 -0.5035  0.0815  0.1361
 2609SOL    HW119463   0.985   0.316  17.504 -1.1171 -1.2591 -0.7182
 2609SOL    HW219464   1.102   0.333  17.580  1.5402  0.5299 -1.3677
 2610SOL     OW19465   1.082   4.038  17.435 -0.5292  0.7333 -0.6060
 2610SOL    HW119466   1.168   4.026  17.474 -0.4843  0.1662 -0.8698
 2610SOL    HW219467   1.050   4.093  17.506 -1.3707  0.2495 -0.6017
 2611SOL     OW19468   4.598   1.577  10.151  0.1500  0.6553 -0.1525
 2611SOL    HW119469   4.523   1.525  10.123 -0.5642  1.0254  1.0588
 2611SOL    HW219470   4.594   1.642  10.081 -1.7288  0.4437 -0.2523
 2612SOL     OW19471   2.332   1.179   5.353 -0.0705  0.2745 -0.2568
 2612SOL    HW119472   2.419   1.215   5.366 -0.3798  1.3272 -1.1557
 2612SOL    HW219473   2.290   1.182   5.439 -0.0628  0.6285 -0.2665
 2613SOL     OW19474   3.087   2.078   2.376  0.6696 -0.1256 -0.1205
 2613SOL    HW119475   3.002   2.111   2.345  1.5659  0.1580 -2.2542
 2613SOL    HW219476   3.133   2.065   2.294 -0.9028 -1.1038 -0.8488
 2614SOL     OW19477   2.460   0.034   8.898 -0.4446 -0.4013 -0.0547
 2614SOL    HW119478   2.444   0.051   8.805 -0.7902 -1.3708 -0.1715
 2614SOL    HW219479   2.445   0.122   8.933 -0.0556  0.3456 -1.7835
 2615SOL     OW19480   0.564   1.741   1.767 -0.5097 -0.0144 -0.3920
 2615SOL    HW119481   0.511   1.661   1.773  1.0512 -0.9045  1.4361
 2615SOL    HW219482   0.489   1.797   1.747 -0.0854 -0.4689 -3.3800
 2616SOL     OW19483   2.931   3.587  15.578 -0.3463  0.2141 -0.5439
 2616SOL    HW119484   2.914   3.500  15.614 -1.0529  0.2353 -0.8256
 2616SOL    HW219485   2.948   3.564  15.487  1.0773  1.4266 -0.5771
 2617SOL     OW19486   2.779   1.388   4.613 -0.0832 -0.3583  0.2503
 2617SOL    HW119487   2.870   1.389   4.586  0.1840 -1.1238  1.1415
 2617SOL    HW219488   2.784   1.339   4.695 -0.2909  0.4667  0.7521
 2618SOL     OW19489   3.354   0.011  10.847 -0.8160 -0.4644 -0.1623
 2618SOL    HW119490   3.314   0.070  10.910 -0.1941  1.5572 -1.6597
 2618SOL    HW219491   3.283   4.705  10.797 -2.5619 -1.0952  2.8587
 2619SOL     OW19492   1.108   1.265   0.784 -0.2166 -0.6636 -0.1021
 2619SOL    HW119493   1.185   1.209   0.771 -0.5464 -1.1866  0.2196
 2619SOL    HW219494   1.054   1.221   0.720  0.7748 -2.2232  0.1422
 2620SOL     OW19495   0.050   2.977  14.893  0.3743  0.4562  0.4390
 2620SOL    HW119496   0.105   2.994  14.970  0.1057 -2.4185  1.2510
 2620SOL    HW219497   0.062   3.059  14.845  2.4435  0.3937  0.8348
 2621SOL     OW19498   0.520   1.012  15.098  0.4496 -0.5227  0.2943
 2621SOL    HW119499   0.572   1.089  15.073 -1.1325  0.0282 -1.2685
 2621SOL    HW219500   0.517   0.974  15.010 -0.6407  0.6954 -0.1869
 2622SOL     OW19501   4.577   2.748   8.922 -0.6588  0.2420 -0.3319
 2622SOL    HW119502   4.578   2.656   8.946 -0.5523  0.5513  0.8422
 2622SOL    HW219503   4.511   2.739   8.853 -0.9710 -1.5530  0.2294
 2623SOL     OW19504   3.400   2.954   0.688  0.1473  0.9302  0.3626
 2623SOL    HW119505   3.357   2.871   0.706  1.6646 -0.9378 -4.3720
 2623SOL    HW219506   3.341   3.011   0.737 -2.1406 -0.8158 -0.3691
 2624SOL     OW19507   2.840   2.925  15.290  0.8413 -0.2501  0.4304
 2624SOL    HW119508   2.820   2.952  15.200 -2.2773 -0.3986  1.0746
 2624SOL    HW219509   2.913   2.865  15.277  2.4012  1.6475  0.3834
 2625SOL     OW19510   3.112   4.691   9.035  0.8596 -0.3089  0.1502
 2625SOL    HW119511   3.100   4.632   9.109 -0.3298 -0.4603 -0.1661
 2625SOL    HW219512   3.148   4.640   8.963 -0.5955 -0.7500 -0.2649
 2626SOL     OW19513   0.809   0.748   8.951 -0.4751  0.4519 -0.5360
 2626SOL    HW119514   0.770   0.691   9.017 -2.9717  1.1129 -1.4118
 2626SOL    HW219515   0.894   0.776   8.984 -0.6086 -0.6825  0.7462
 2627SOL     OW19516   1.700   2.050   9.747  0.4093  0.0634 -0.5425
 2627SOL    HW119517   1.705   2.001   9.665 -2.0449 -1.1569  0.0471
 2627SOL    HW219518   1.635   2.007   9.802 -0.3019  0.4083 -1.1284
 2628SOL     OW19519   1.346   0.551   8.724 -0.3071 -0.4457  0.0872
 2628SOL    HW119520   1.307   0.638   8.713 -0.1376 -0.4619 -0.6299
 2628SOL    HW219521   1.375   0.554   8.815 -1.3607  2.4823  0.3411
 2629SOL     OW19522   0.268   0.268   8.562 -0.4875  0.1403  0.0467
 2629SOL    HW119523   0.199   0.332   8.579  0.5034  1.6290 -1.5367
 2629SOL    HW219524   0.228   0.190   8.600  1.4371  0.6738  3.1218
 2630SOL     OW19525   4.344   3.998   0.319 -0.3597 -0.5933 -0.1028
 2630SOL    HW119526   4.403   4.018   0.247  1.3292 -2.3177  0.8147
 2630SOL    HW219527   4.332   4.085   0.355  0.7290 -0.6358  0.3482
 2631SOL     OW19528   3.816   2.573   8.974  0.4217 -0.3455 -0.0785
 2631SOL    HW119529   3.730   2.541   9.002 -0.7753  1.8330 -1.2282
 2631SOL    HW219530   3.810   2.668   8.986 -2.0068 -0.3245 -1.4237
 2632SOL     OW19531   1.684   1.618   2.618 -0.1555  0.0082 -0.0280
 2632SOL    HW119532   1.617   1.552   2.598 -0.0547 -0.1189  0.0547
 2632SOL    HW219533   1.754   1.560   2.647  1.0492  0.8689 -1.2425
 2633SOL     OW19534   0.344   2.928   5.425  0.4436 -0.2652 -0.0915
 2633SOL    HW119535   0.393   2.877   5.488 -0.2634  0.1550  0.7953
 2633SOL    HW219536   0.261   2.883   5.444 -0.8115  1.0843 -2.2568
 2634SOL     OW19537   0.922   0.261  10.600 -0.1358  0.2758 -0.1120
 2634SOL    HW119538   0.838   0.227  10.630  0.2816  1.1534  2.0522
 2634SOL    HW219539   0.914   0.241  10.507 -0.1228  0.8771 -0.2431
 2635SOL     OW19540   1.302   1.718   8.947 -0.3148 -0.3976  0.1945
 2635SOL    HW119541   1.212   1.687   8.943  0.3161 -1.8507 -2.7237
 2635SOL    HW219542   1.296   1.809   8.918 -1.1551 -0.4104  0.3456
 2636SOL     OW19543   2.280   3.599   7.962  0.0717  0.3970  0.0875
 2636SOL    HW119544   2.258   3.629   8.050  1.1767  0.8487  0.2097
 2636SOL    HW219545   2.288   3.507   7.984 -1.9354 -0.5636 -3.1847
 2637SOL     OW19546   0.285   2.540  11.471  0.4999 -0.4265  0.2444
 2637SOL    HW119547   0.292   2.615  11.530 -0.4900  1.1686 -1.6278
 2637SOL    HW219548   0.289   2.477  11.542  1.0237  0.9108  1.3879
 2638SOL     OW19549   4.393   2.968   4.823  0.5881 -0.1819 -0.2479
 2638SOL    HW119550   4.315   3.018   4.850 -0.1436 -2.1713  1.2902
 2638SOL    HW219551   4.457   3.039   4.819 -1.7282  1.9204  0.0500
 2639SOL     OW19552   2.606   4.455  11.691  0.5499 -0.0739 -0.4580
 2639SOL    HW119553   2.594   4.392  11.762  0.7417 -0.3786 -0.6941
 2639SOL    HW219554   2.624   4.402  11.613  0.4239  2.6684 -2.3755
 2640SOL     OW19555   2.958   4.651  12.795  0.2668 -0.1147 -0.3207
 2640SOL    HW119556   3.002   4.569  12.819 -1.3170 -1.0390 -0.5966
 2640SOL    HW219557   2.970   4.706  12.872 -1.3767  2.9505 -2.2793
 2641SOL     OW19558   3.069   4.214   2.698 -0.5866  0.6362 -0.8045
 2641SOL    HW119559   3.071   4.306   2.669 -1.3417  1.9785  3.4601
 2641SOL    HW219560   3.161   4.193   2.712 -0.9161 -0.8219 -0.8306
 2642SOL     OW19561   3.787   0.467  12.371 -0.3931 -0.2543  0.0425
 2642SOL    HW119562   3.733   0.483  12.448 -1.0204  0.4304 -0.5453
 2642SOL    HW219563   3.730   0.489  12.298 -0.6755  0.3109  0.4343
 2643SOL     OW19564   0.451   2.531   6.728  0.1146 -0.6419 -0.0279
 2643SOL    HW119565   0.454   2.471   6.802 -2.6928  0.9921  1.4273
 2643SOL    HW219566   0.392   2.479   6.674 -0.1346 -0.6296  0.2284
 2644SOL     OW19567   3.396   1.297   4.474 -0.2876  0.0965  0.7836
 2644SOL    HW119568   3.453   1.299   4.397  0.0915 -1.5780  1.0278
 2644SOL    HW219569   3.377   1.203   4.476  1.9294 -0.4110 -1.4823
 2645SOL     OW19570   2.650   4.396   8.796  0.4872 -0.1405  0.5593
 2645SOL    HW119571   2.679   4.407   8.886  2.6887  0.6544 -0.2449
 2645SOL    HW219572   2.564   4.354   8.799  0.7284 -0.6870 -0.1500
 2646SOL     OW19573   3.585   1.910   6.957  0.1927  1.3517  0.3250
 2646SOL    HW119574   3.553   1.823   6.933 -0.6122  2.0870 -1.3029
 2646SOL    HW219575   3.567   1.902   7.050  1.5756 -1.1791  0.3662
 2647SOL     OW19576   2.384   2.047   7.753 -0.2683  0.1309  0.3471
 2647SOL    HW119577   2.446   2.008   7.815  1.8152  1.4067 -0.9358
 2647SOL    HW219578   2.397   1.979   7.687  0.6763 -1.6183  2.3037
 2648SOL     OW19579   0.827   2.888   6.440  0.3326 -0.7079 -0.6975
 2648SOL    HW119580   0.890   2.816   6.438 -0.8705 -1.7800  0.0625
 2648SOL    HW219581   0.844   2.917   6.350 -1.1796 -0.5096 -0.9105
 2649SOL     OW19582   4.391   2.547   8.528  0.3932  0.3233  0.5830
 2649SOL    HW119583   4.419   2.554   8.437 -1.9221 -0.8494 -0.2095
 2649SOL    HW219584   4.423   2.461   8.556 -2.0237 -0.5448  0.6641
 2650SOL     OW19585   2.081   1.126   5.800 -0.0114  0.1141  0.4297
 2650SOL    HW119586   2.048   1.194   5.859 -0.3448  0.2628  0.0689
 2650SOL    HW219587   2.063   1.050   5.857  0.3667  1.1980  1.9981
 2651SOL     OW19588   2.015   4.486   8.390  0.4273  0.0559  0.3447
 2651SOL    HW119589   2.110   4.477   8.381  0.2546 -0.3432 -1.0389
 2651SOL    HW219590   1.992   4.421   8.324 -1.1459  0.1182  0.8173
 2652SOL     OW19591   0.867   1.006   9.329 -0.6586 -0.0874  0.0037
 2652SOL    HW119592   0.860   1.037   9.419  0.4500  1.3832 -0.4128
 2652SOL    HW219593   0.784   0.959   9.317 -0.2184 -0.3685 -2.0227
 2653SOL     OW19594   1.692   2.322   6.411 -0.1928  0.1634  0.0027
 2653SOL    HW119595   1.765   2.331   6.472  0.3863 -1.2874 -0.4830
 2653SOL    HW219596   1.631   2.261   6.452  1.1333 -1.3764 -0.3182
 2654SOL     OW19597   3.380   0.300   8.862  0.0363 -0.0808 -0.0601
 2654SOL    HW119598   3.418   0.341   8.784  0.8364 -0.9615 -0.1400
 2654SOL    HW219599   3.326   0.226   8.833  0.8690 -0.2922 -1.0904
 2655SOL     OW19600   2.434   0.132   7.745 -0.1767 -0.0615 -0.2458
 2655SOL    HW119601   2.506   0.097   7.797  0.2039  0.9937 -0.0865
 2655SOL    HW219602   2.482   0.153   7.665  0.0669  2.0990  0.4739
 2656SOL     OW19603   1.370   4.735   6.086  0.0127  0.2534  0.3454
 2656SOL    HW119604   1.339   0.083   6.120 -0.8363  0.0913 -0.0254
 2656SOL    HW219605   1.293   4.694   6.045  0.2188  0.7393 -0.5313
 2657SOL     OW19606   3.468   1.899   1.229  0.4154 -0.4825 -0.3751
 2657SOL    HW119607   3.392   1.944   1.266  1.2489  1.7570 -1.4062
 2657SOL    HW219608   3.538   1.938   1.280 -1.3347  0.5898  1.1993
 2658SOL     OW19609   1.580   2.890   7.729 -0.3036  0.6464  0.0050
 2658SOL    HW119610   1.589   2.870   7.822  3.9768  4.7240  0.4614
 2658SOL    HW219611   1.511   2.835   7.693 -0.1283 -0.3143  1.1597
 2659SOL     OW19612   3.893   1.470   8.155 -0.2816 -0.9892 -0.2022
 2659SOL    HW119613   3.899   1.529   8.230  0.3392 -1.5893  0.2159
 2659SOL    HW219614   3.851   1.526   8.089  0.6313  0.3597  0.3565
 2660SOL     OW19615   1.295   2.579  16.760  0.8679 -0.1502 -0.1195
 2660SOL    HW119616   1.255   2.588  16.847 -0.3770  1.3344 -0.8486
 2660SOL    HW219617   1.386   2.559  16.782  0.6885 -1.4900 -0.5988
 2661SOL     OW19618   0.269   1.370   4.140 -0.2181  0.6612 -0.1529
 2661SOL    HW119619   0.274   1.374   4.235  0.6265 -0.7560 -0.1344
 2661SOL    HW219620   0.254   1.277   4.120 -0.5228  0.7542 -0.3555
 2662SOL     OW19621   0.060   3.154   6.575 -0.1234  0.0076 -0.1597
 2662SOL    HW119622   0.154   3.133   6.580 -0.3367 -0.9956 -0.3057
 2662SOL    HW219623   0.027   3.085   6.634  0.6829  1.1721  1.6659
 2663SOL     OW19624   1.947   4.634   0.663  0.5465 -0.1593  0.0161
 2663SOL    HW119625   1.981   4.644   0.752  0.5787 -1.1503  0.1244
 2663SOL    HW219626   1.978   4.717   0.627 -0.8218  0.2748 -0.1450
 2664SOL     OW19627   3.974   3.401   0.793 -0.2104  0.2748  0.5656
 2664SOL    HW119628   3.941   3.454   0.720 -0.8879 -0.2316  0.5007
 2664SOL    HW219629   3.933   3.319   0.766 -0.8317  0.0752  2.1485
 2665SOL     OW19630   1.771   3.672   4.932  0.2112 -0.1040 -0.6417
 2665SOL    HW119631   1.676   3.676   4.949  0.1142 -0.8418 -1.0212
 2665SOL    HW219632   1.802   3.657   5.021 -2.5615  2.5188  0.7813
 2666SOL     OW19633   2.950   0.113   3.393 -0.4013  0.0602 -0.2536
 2666SOL    HW119634   2.897   0.118   3.473  0.4114 -0.7675  0.3420
 2666SOL    HW219635   2.924   0.028   3.358 -1.1946  0.1006  0.2366
 2667SOL     OW19636   1.676   3.797  15.103  0.4516 -0.4524 -0.3077
 2667SOL    HW119637   1.770   3.780  15.091  0.3571 -0.4508 -1.0614
 2667SOL    HW219638   1.675   3.830  15.193  1.3534  1.8321 -1.1436
 2668SOL     OW19639   1.163   2.789   7.808 -0.1464  0.6242  0.2092
 2668SOL    HW119640   1.157   2.743   7.892 -1.1384  2.7679  1.3283
 2668SOL    HW219641   1.241   2.741   7.781  1.0317  1.5829  1.8326
 2669SOL     OW19642   2.581   3.852   2.889  0.5367  0.7589 -0.1579
 2669SOL    HW119643   2.582   3.945   2.910 -1.6168  1.0521 -1.3663
 2669SOL    HW219644   2.545   3.842   2.801  0.0500 -0.4366  0.1735
 2670SOL     OW19645   1.406   2.754   2.465  0.2521 -0.1764  0.0954
 2670SOL    HW119646   1.427   2.707   2.545 -0.6397  2.5871  1.9236
 2670SOL    HW219647   1.495   2.781   2.442  0.9008 -1.8031  0.7465
 2671SOL     OW19648   2.037   3.488  15.860 -0.0858 -0.2443  0.6393
 2671SOL    HW119649   1.997   3.401  15.866 -2.0128  0.5089 -1.1148
 2671SOL    HW219650   2.131   3.474  15.847  0.0542  1.9982 -0.6965
 2672SOL     OW19651   2.922   2.384   2.334 -0.1548 -0.2893 -0.2422
 2672SOL    HW119652   2.863   2.309   2.347 -1.2840  0.1786 -2.7848
 2672SOL    HW219653   2.951   2.374   2.243  1.6723  0.0259  0.3055
 2673SOL     OW19654   0.906   1.255   5.796 -0.0712 -0.4187  0.1080
 2673SOL    HW119655   0.981   1.271   5.854  0.5505 -0.6235 -0.6491
 2673SOL    HW219656   0.834   1.285   5.852 -1.4367 -1.8721 -0.8748
 2674SOL     OW19657   3.614   3.244   8.821 -0.5505  0.4879  1.4091
 2674SOL    HW119658   3.697   3.277   8.856 -0.0531 -1.1134  1.7621
 2674SOL    HW219659   3.572   3.196   8.892  0.8436  0.1765  2.0330
 2675SOL     OW19660   1.456   4.140  13.146 -0.5952  0.8157 -0.0232
 2675SOL    HW119661   1.363   4.115  13.147 -0.9621  2.1518 -0.9144
 2675SOL    HW219662   1.479   4.121  13.055  2.5361 -0.6676  1.0833
 2676SOL     OW19663   4.221   1.454   6.990 -0.2246 -0.2418 -0.1707
 2676SOL    HW119664   4.183   1.488   6.909  0.8823 -0.8448 -0.9470
 2676SOL    HW219665   4.155   1.388   7.011  0.4167 -1.3549 -1.6522
 2677SOL     OW19666   3.883   1.423   3.512  0.4969 -0.3872  0.2624
 2677SOL    HW119667   3.960   1.376   3.482 -0.1402 -0.3197 -1.4385
 2677SOL    HW219668   3.909   1.451   3.600  1.3205  0.3074 -0.2037
 2678SOL     OW19669   0.734   2.338  16.898 -0.6194  0.3464 -0.5375
 2678SOL    HW119670   0.718   2.249  16.865  1.9608  0.0299 -0.9076
 2678SOL    HW219671   0.682   2.387  16.834  0.7095  0.5507 -1.4421
 2679SOL     OW19672   3.420   0.051  14.981 -0.5282  0.2528  0.2126
 2679SOL    HW119673   3.472   4.716  15.021  0.4640  1.8684  1.7272
 2679SOL    HW219674   3.368   0.079  15.057 -2.1503  0.3831 -0.9276
 2680SOL     OW19675   3.168   0.596   7.985  0.4009 -0.1160 -0.0024
 2680SOL    HW119676   3.171   0.646   7.904  1.9162  0.2327  0.2719
 2680SOL    HW219677   3.076   0.573   7.974  0.4517 -0.5720  0.5413
 2681SOL     OW19678   3.476   1.398   3.971  0.0361 -0.2643  0.0957
 2681SOL    HW119679   3.419   1.397   3.894  1.5066  1.1915 -1.0189
 2681SOL    HW219680   3.532   1.325   3.946  1.9724  1.4512 -0.6048
 2682SOL     OW19681   4.096   0.657   6.268  0.4416  0.4837 -0.1144
 2682SOL    HW119682   4.099   0.702   6.184 -1.8065  0.6315 -0.1140
 2682SOL    HW219683   4.015   0.689   6.308  0.9035  1.4090  0.0783
 2683SOL     OW19684   3.752   2.647   9.614 -0.0979 -0.0808  0.2945
 2683SOL    HW119685   3.792   2.724   9.654  0.4008  1.4370 -3.1885
 2683SOL    HW219686   3.822   2.621   9.555 -1.4913 -2.2310 -0.4144
 2684SOL     OW19687   2.508   4.704   6.130  0.1935  0.0733  0.2278
 2684SOL    HW119688   2.547   4.680   6.214 -0.3624 -0.4089  0.3474
 2684SOL    HW219689   2.453   0.044   6.153 -1.6088 -0.9089 -0.9344
 2685SOL     OW19690   1.036   2.715  15.725 -0.3190 -0.1982  0.2346
 2685SOL    HW119691   1.062   2.626  15.699  1.4857 -0.0965  1.6378
 2685SOL    HW219692   0.941   2.719  15.715 -0.2591 -0.7047 -0.5146
 2686SOL     OW19693   0.839   3.287   0.305  0.4182 -0.6227  0.7628
 2686SOL    HW119694   0.779   3.213   0.303 -0.0180 -0.2178 -0.8865
 2686SOL    HW219695   0.802   3.355   0.249  0.1157 -0.1566  1.5228
 2687SOL     OW19696   4.183   0.417  16.034 -0.0708 -0.0928 -0.1042
 2687SOL    HW119697   4.207   0.334  16.075  1.3825  0.7438  0.7503
 2687SOL    HW219698   4.239   0.422  15.957  1.3882  2.5436  1.0914
 2688SOL     OW19699   1.969   2.749  13.389 -0.4200 -0.2318 -0.0950
 2688SOL    HW119700   1.895   2.741  13.328  0.0569 -1.2814 -0.5285
 2688SOL    HW219701   1.940   2.833  13.426  1.1817 -0.4341  1.5986
 2689SOL     OW19702   2.034   3.807   8.407 -0.2041 -0.0565  0.1619
 2689SOL    HW119703   2.004   3.897   8.411 -0.0000 -0.0342  1.4044
 2689SOL    HW219704   1.957   3.758   8.438 -0.3454 -0.2167 -0.4483
 2690SOL     OW19705   4.108   0.269   1.897  0.2578 -0.1503 -0.1449
 2690SOL    HW119706   4.150   0.298   1.815 -0.5944 -0.6007 -0.7422
 2690SOL    HW219707   4.177   0.293   1.959 -0.4430  0.5339  0.3696
 2691SOL     OW19708   4.477   4.250   6.527 -0.3520  0.6086 -0.6801
 2691SOL    HW119709   4.563   4.227   6.493 -0.7038 -0.3602 -0.9150
 2691SOL    HW219710   4.499   4.298   6.607 -0.2714  0.0886 -0.3919
 2692SOL     OW19711   2.146   0.189   1.672 -0.0751  0.3717 -0.3278
 2692SOL    HW119712   2.190   0.273   1.663  0.3051  0.2513  0.4553
 2692SOL    HW219713   2.066   0.209   1.623 -1.8447 -1.7679  1.6276
 2693SOL     OW19714   3.273   0.212   7.134 -0.2522 -0.1519  0.5402
 2693SOL    HW119715   3.178   0.220   7.123 -0.2618 -1.5319 -0.4139
 2693SOL    HW219716   3.294   0.295   7.176 -0.1621  0.7338 -1.2596
 2694SOL     OW19717   3.429   2.896   4.905  0.2860 -0.1050  0.1801
 2694SOL    HW119718   3.443   2.854   4.820  0.2578 -1.5231  0.8836
 2694SOL    HW219719   3.408   2.817   4.955 -2.0877  0.6152  0.2978
 2695SOL     OW19720   0.725   3.228   7.955  0.3633 -0.4599  0.0427
 2695SOL    HW119721   0.648   3.171   7.952  0.3282 -0.5246  3.1156
 2695SOL    HW219722   0.800   3.173   7.977 -0.6720 -1.7899  0.2231
 2696SOL     OW19723   1.686   1.619   8.443 -0.2720 -0.1613  0.2316
 2696SOL    HW119724   1.765   1.664   8.475 -0.5216 -0.0279  0.6576
 2696SOL    HW219725   1.721   1.543   8.397  3.1732  0.6980  1.3995
 2697SOL     OW19726   0.176   0.587   6.140 -0.3785 -0.3981 -0.2869
 2697SOL    HW119727   0.181   0.663   6.199 -2.1866  0.7732 -1.6142
 2697SOL    HW219728   0.251   0.600   6.082 -1.6129  2.0647 -1.3542
 2698SOL     OW19729   2.230   2.336   6.327 -0.7604 -0.3820  0.3714
 2698SOL    HW119730   2.173   2.284   6.383 -0.5247 -0.0069  0.9545
 2698SOL    HW219731   2.182   2.348   6.245  1.7383  2.2977 -0.7072
 2699SOL     OW19732   0.553   0.219   4.763 -0.0959  0.6248  0.6129
 2699SOL    HW119733   0.639   0.260   4.749 -0.2334 -0.2294 -2.6423
 2699SOL    HW219734   0.520   0.197   4.676 -0.6940 -0.8806  1.2233
 2700SOL     OW19735   0.143   2.368   6.358  0.5624  0.1438 -0.2708
 2700SOL    HW119736   0.099   2.325   6.431  1.5154 -1.8897 -0.9044
 2700SOL    HW219737   0.220   2.313   6.342  0.2385 -0.4140  0.0680
 2701SOL     OW19738   1.396   1.709  14.773 -0.5862  0.2019  0.1068
 2701SOL    HW119739   1.330   1.651  14.811 -1.2641  1.1950  0.4458
 2701SOL    HW219740   1.347   1.787  14.746 -0.9740  0.3865  1.3355
 2702SOL     OW19741   1.347   0.929   4.562 -0.3934  0.5609  0.1561
 2702SOL    HW119742   1.270   0.951   4.510  0.5406 -0.1081 -1.5199
 2702SOL    HW219743   1.355   1.002   4.623 -1.1291 -0.4420  1.4475
 2703SOL     OW19744   3.464   4.300   3.608 -0.2454  0.3134 -0.6202
 2703SOL    HW119745   3.505   4.215   3.624  0.9508  1.2476  1.3235
 2703SOL    HW219746   3.439   4.299   3.516 -0.0833  0.0176 -0.6601
 2704SOL     OW19747   1.271   4.505   0.535  0.6552  0.4153  0.1006
 2704SOL    HW119748   1.300   4.493   0.625  0.3641  0.7300  0.2364
 2704SOL    HW219749   1.336   4.548   0.480  1.2763 -0.0996  0.4305
 2705SOL     OW19750   0.301   1.109  13.791 -0.1953  0.5073  0.2097
 2705SOL    HW119751   0.298   1.090  13.697 -2.5053  1.6568  0.0732
 2705SOL    HW219752   0.217   1.149  13.811  1.1386  2.1507  2.5907
 2706SOL     OW19753   3.570   2.737   6.909  0.3981 -0.1128  0.6734
 2706SOL    HW119754   3.553   2.829   6.929  2.4025  1.5075 -5.2482
 2706SOL    HW219755   3.515   2.718   6.833  0.5702 -0.4293  0.6274
 2707SOL     OW19756   3.111   2.544   4.245 -0.3332  0.2819 -0.4158
 2707SOL    HW119757   3.056   2.505   4.177  0.6251 -0.8623 -0.5324
 2707SOL    HW219758   3.084   2.502   4.327  0.4806 -1.1072 -0.8641
 2708SOL     OW19759   3.328   3.940   2.126 -0.3186 -0.1730  0.0424
 2708SOL    HW119760   3.341   3.846   2.116  1.2517  0.1484 -0.8341
 2708SOL    HW219761   3.405   3.953   2.181 -0.6300 -0.3342  0.5286
 2709SOL     OW19762   0.251   4.641  16.866  0.6048 -0.1302  0.0271
 2709SOL    HW119763   0.255   4.557  16.819 -0.7801 -0.0433 -0.2675
 2709SOL    HW219764   0.237   4.701  16.792 -2.3066 -0.4017  0.3278
 2710SOL     OW19765   2.726   4.065   4.326  0.5916  0.2289 -0.1998
 2710SOL    HW119766   2.698   4.094   4.413 -0.6175  0.0427 -0.5203
 2710SOL    HW219767   2.802   4.112   4.293  2.6471 -2.1067  1.1854
 2711SOL     OW19768   3.810   1.912   1.294  0.5695 -0.5638  0.2168
 2711SOL    HW119769   3.746   1.979   1.319 -0.4944 -1.3776 -0.3208
 2711SOL    HW219770   3.879   1.917   1.359  1.5300  1.8962 -1.0062
 2712SOL     OW19771   1.572   2.278   0.431 -0.2670  0.4281  0.0442
 2712SOL    HW119772   1.577   2.310   0.521  0.1459 -1.4031  0.6725
 2712SOL    HW219773   1.499   2.216   0.436  0.3126 -0.3642 -1.2950
 2713SOL     OW19774   2.496   0.358   8.074 -1.0296  0.4825 -0.1661
 2713SOL    HW119775   2.471   0.426   8.137 -3.7296 -0.3135 -0.3832
 2713SOL    HW219776   2.547   0.301   8.132 -1.2312  0.3182 -0.1476
 2714SOL     OW19777   0.749   3.841   9.575  0.0938  0.2465  0.5211
 2714SOL    HW119778   0.690   3.766   9.568 -1.0212  0.9880  2.0389
 2714SOL    HW219779   0.739   3.874   9.485 -2.6855 -0.9008  0.4101
 2715SOL     OW19780   1.349   1.531  16.502  0.1277  0.1981 -0.4552
 2715SOL    HW119781   1.381   1.529  16.412 -1.5663 -0.1237 -1.0574
 2715SOL    HW219782   1.257   1.557  16.494  0.5858  1.8721 -0.3291
 2716SOL     OW19783   3.714   1.740   6.242 -0.5154  0.2545  0.5483
 2716SOL    HW119784   3.661   1.697   6.310 -1.0363 -0.0746 -0.0732
 2716SOL    HW219785   3.653   1.800   6.200 -0.7483 -1.2216 -1.2218
 2717SOL     OW19786   4.420   0.817   5.035  0.1513  0.2791 -0.3746
 2717SOL    HW119787   4.502   0.853   5.069  0.9383 -1.2331 -0.6615
 2717SOL    HW219788   4.430   0.723   5.051  0.0207  0.3840  0.3375
 2718SOL     OW19789   0.805   3.538   8.750 -0.0330  0.0020 -0.1047
 2718SOL    HW119790   0.775   3.500   8.832 -2.5939 -0.3289 -1.1965
 2718SOL    HW219791   0.777   3.629   8.748  2.4936  0.7658 -1.6012
 2719SOL     OW19792   4.185   2.926   7.362 -0.0788  0.7854  0.2077
 2719SOL    HW119793   4.144   3.003   7.323 -1.0758 -0.6586 -1.5919
 2719SOL    HW219794   4.115   2.872   7.399  1.3637 -2.4049 -1.7859
 2720SOL     OW19795   0.832   4.518   3.956 -0.6224  0.4403 -0.4873
 2720SOL    HW119796   0.774   4.536   3.882 -1.1902 -1.3857 -0.5099
 2720SOL    HW219797   0.766   4.502   4.024 -2.1229  0.0001 -2.0547
 2721SOL     OW19798   1.623   0.337   4.422  0.2750  0.0727 -0.2522
 2721SOL    HW119799   1.644   0.425   4.455 -2.2891  0.0608  1.4208
 2721SOL    HW219800   1.554   0.349   4.357 -0.1151  3.3146  0.7305
 2722SOL     OW19801   1.248   2.682   3.732 -0.9359 -0.2019  0.9375
 2722SOL    HW119802   1.270   2.761   3.683 -0.1846 -0.5265  0.7540
 2722SOL    HW219803   1.286   2.611   3.682 -1.4129  2.0377 -2.6250
 2723SOL     OW19804   2.270   3.130   7.228  0.1101 -0.0378  0.1245
 2723SOL    HW119805   2.308   3.214   7.203  1.1389 -0.5155  0.1055
 2723SOL    HW219806   2.222   3.150   7.308  0.4007  1.1171 -0.0002
 2724SOL     OW19807   1.199   4.599   6.547  0.4896  0.6708 -0.4463
 2724SOL    HW119808   1.167   4.511   6.565 -1.2077  1.8741  2.4487
 2724SOL    HW219809   1.115   4.643   6.531  0.3160  0.7479  0.6977
 2725SOL     OW19810   0.745   0.239  13.056  0.0018  0.2441  0.3902
 2725SOL    HW119811   0.688   0.215  12.983 -0.7611  0.5767  0.8712
 2725SOL    HW219812   0.726   0.332  13.064  1.6614  0.4892  1.4337
 2726SOL     OW19813   0.952   3.905  12.325  0.5146 -0.2892  0.2481
 2726SOL    HW119814   0.879   3.889  12.265  1.4020 -0.0370 -0.8764
 2726SOL    HW219815   1.034   3.873  12.288  0.4358  0.0873 -0.2583
 2727SOL     OW19816   3.992   2.862  15.004 -0.3211  0.3660 -0.1402
 2727SOL    HW119817   4.023   2.808  15.077 -0.8162  0.5178  0.1887
 2727SOL    HW219818   3.922   2.918  15.039 -0.0148 -0.9997  2.6692
 2728SOL     OW19819   1.056   1.006   2.446  0.2048 -0.1626 -0.0371
 2728SOL    HW119820   0.996   0.983   2.375  0.3009 -1.9047  0.4529
 2728SOL    HW219821   1.091   0.922   2.475  1.7715  0.5450  0.1417
 2729SOL     OW19822   3.522   1.347   2.857  0.5781  0.2463  0.0394
 2729SOL    HW119823   3.586   1.409   2.821  0.6732  1.5499  2.4089
 2729SOL    HW219824   3.468   1.408   2.907 -0.3893  0.1082 -0.8448
 2730SOL     OW19825   3.663   3.130   9.975 -0.1876  0.2921 -0.2922
 2730SOL    HW119826   3.757   3.120   9.983 -0.2637 -0.5064 -0.3418
 2730SOL    HW219827   3.635   3.063  10.038  1.2376  1.4036  1.5235
 2731SOL     OW19828   3.152   2.976   4.520  0.0609 -0.1282  0.3434
 2731SOL    HW119829   3.130   2.891   4.559 -0.0197 -0.0164  0.5372
 2731SOL    HW219830   3.072   3.018   4.552 -0.9224  0.2815 -2.6181
 2732SOL     OW19831   0.520   1.026   7.972  0.1450  0.8527 -0.9364
 2732SOL    HW119832   0.477   1.082   7.907 -0.3737 -1.2852 -2.4491
 2732SOL    HW219833   0.487   1.068   8.051  1.1772 -1.6190  0.8221
 2733SOL     OW19834   1.467   3.669   7.407 -0.0750 -0.2005 -0.1514
 2733SOL    HW119835   1.404   3.711   7.347 -0.5366  1.3961  1.4471
 2733SOL    HW219836   1.467   3.581   7.371  0.6003 -1.3230  2.6286
 2734SOL     OW19837   1.081   3.217   2.437 -0.1982  0.4798 -0.2837
 2734SOL    HW119838   1.081   3.185   2.347 -2.5412 -1.6783  0.4799
 2734SOL    HW219839   1.170   3.194   2.465 -0.3321 -2.1469 -2.0327
 2735SOL     OW19840   1.509   4.177   6.718 -0.4087 -0.3177  0.3291
 2735SOL    HW119841   1.482   4.088   6.739 -0.8709 -0.2047  0.2094
 2735SOL    HW219842   1.552   4.171   6.632 -1.1979 -1.7143  0.0303
 2736SOL     OW19843   2.011   2.143  10.858  0.2933 -0.1290 -0.3885
 2736SOL    HW119844   2.017   2.051  10.881  0.0189 -0.4719 -1.7027
 2736SOL    HW219845   1.953   2.126  10.784 -0.8589 -2.5892  1.1397
 2737SOL     OW19846   0.576   4.571   3.254 -0.2590 -0.1358  0.3429
 2737SOL    HW119847   0.489   4.550   3.219 -0.8674  1.1748  1.0419
 2737SOL    HW219848   0.627   4.587   3.175 -2.7413 -0.1983 -1.2685
 2738SOL     OW19849   2.611   2.882  14.077 -0.2247  0.1420  0.2133
 2738SOL    HW119850   2.517   2.898  14.071  0.3543  3.0795 -1.5199
 2738SOL    HW219851   2.641   2.944  14.144  2.4033 -0.4955 -0.3559
 2739SOL     OW19852   3.176   3.745   7.683  0.2123 -0.1754  0.4786
 2739SOL    HW119853   3.082   3.743   7.698 -0.0725  0.0794 -1.2400
 2739SOL    HW219854   3.195   3.675   7.745  1.3388 -1.1476 -0.9689
 2740SOL     OW19855   2.024   3.411   4.287 -0.0229 -0.1452 -0.3242
 2740SOL    HW119856   2.063   3.467   4.354  0.5904 -0.2873 -0.5681
 2740SOL    HW219857   1.943   3.462   4.286 -0.6058 -1.0731  0.5120
 2741SOL     OW19858   1.228   1.466  14.761 -0.1052  0.3492  0.1166
 2741SOL    HW119859   1.136   1.480  14.735  0.1816 -0.8499 -1.5539
 2741SOL    HW219860   1.214   1.373  14.782 -0.7600  0.7194  1.3227
 2742SOL     OW19861   0.665   4.038  10.096 -0.4794 -0.5553  0.0506
 2742SOL    HW119862   0.617   4.121  10.089 -0.7922 -0.6322  1.2495
 2742SOL    HW219863   0.595   3.985  10.134 -0.5886 -0.5909 -0.2027
 2743SOL     OW19864   1.402   2.274  11.628 -0.4711 -1.0151 -0.3424
 2743SOL    HW119865   1.427   2.182  11.639 -1.5272 -1.2763 -0.1413
 2743SOL    HW219866   1.452   2.293  11.549  0.4541 -0.2840  0.4385
 2744SOL     OW19867   3.702   0.876  10.045 -0.2681 -0.5836 -0.2652
 2744SOL    HW119868   3.708   0.961  10.001  1.8786 -0.1308  0.8891
 2744SOL    HW219869   3.672   0.903  10.132 -1.0626 -0.5045 -0.5666
 2745SOL     OW19870   0.358   3.831   9.498  0.1998 -0.0618  0.0887
 2745SOL    HW119871   0.425   3.765   9.516 -0.5973 -0.6115  1.1097
 2745SOL    HW219872   0.396   3.882   9.427  0.1106 -0.1564 -0.0262
 2746SOL     OW19873   2.181   1.931  11.389  0.1520 -0.4234  0.6920
 2746SOL    HW119874   2.118   1.956  11.456  1.3083 -0.5851  1.8203
 2746SOL    HW219875   2.150   1.986  11.317  1.1163  0.0935  0.6719
 2747SOL     OW19876   0.072   4.531   3.097  0.3100 -0.2585  0.0089
 2747SOL    HW119877   0.125   4.536   3.017 -1.4886 -0.3095 -1.1780
 2747SOL    HW219878   0.141   4.511   3.161  0.8850 -0.3730 -0.6534
 2748SOL     OW19879   0.224   0.876   4.546  0.8105 -0.0206 -0.3632
 2748SOL    HW119880   0.141   0.852   4.587  1.5115 -3.0142 -0.7030
 2748SOL    HW219881   0.282   0.800   4.549 -0.3104 -0.8403  0.3901
 2749SOL     OW19882   1.592   2.237   8.983  0.0824  0.4205  0.5123
 2749SOL    HW119883   1.549   2.316   8.950  1.1065  1.0500  0.6748
 2749SOL    HW219884   1.534   2.168   8.951  1.2826 -0.9113  1.2052
 2750SOL     OW19885   0.646   1.699   6.329  0.4824  0.1761  0.1014
 2750SOL    HW119886   0.617   1.608   6.322 -0.7434  0.7047 -1.6237
 2750SOL    HW219887   0.733   1.704   6.290  0.5051 -2.8181 -0.2451
 2751SOL     OW19888   3.650   1.077   7.299 -0.0525  0.7468 -0.4524
 2751SOL    HW119889   3.642   1.132   7.377  0.1906 -2.0066  1.5044
 2751SOL    HW219890   3.559   1.047   7.302  0.6916 -1.1949  2.0316
 2752SOL     OW19891   4.669   3.908   4.748  0.3043 -0.0650 -0.2362
 2752SOL    HW119892   4.623   3.890   4.666 -1.3142  3.2266 -0.0346
 2752SOL    HW219893   4.595   3.941   4.799  0.4663 -0.5145  0.3000
 2753SOL     OW19894   0.961   2.792   9.882  0.6331 -0.6641  0.4768
 2753SOL    HW119895   0.914   2.861   9.835  2.2004  0.0598 -0.0146
 2753SOL    HW219896   1.034   2.777   9.822 -1.9405 -1.9341 -2.3670
 2754SOL     OW19897   3.070   1.548   5.516  0.5911 -0.4846  0.2377
 2754SOL    HW119898   2.983   1.585   5.499  0.4460 -1.8129 -1.8988
 2754SOL    HW219899   3.066   1.554   5.612 -0.6746 -0.4304  0.1810
 2755SOL     OW19900   2.460   1.410   3.255  0.1508 -0.1268  0.1587
 2755SOL    HW119901   2.375   1.369   3.268 -0.2629  0.1700 -1.6131
 2755SOL    HW219902   2.430   1.495   3.284  1.7639  0.5720 -0.1911
 2756SOL     OW19903   1.317   4.618  15.199 -0.7245 -0.0655 -0.4443
 2756SOL    HW119904   1.256   4.607  15.126 -0.8995 -1.5431 -0.0798
 2756SOL    HW219905   1.348   4.528  15.207 -0.4388  0.1316  0.6876
 2757SOL     OW19906   2.253   2.526   2.947 -0.1567 -0.8616  0.6648
 2757SOL    HW119907   2.172   2.489   2.911  0.3809  0.6209 -2.0877
 2757SOL    HW219908   2.302   2.530   2.865 -0.6288 -2.4993  0.3014
 2758SOL     OW19909   1.317   4.590   3.228 -0.4948  0.4833  0.3084
 2758SOL    HW119910   1.352   4.520   3.283 -1.6015  0.7185  1.2947
 2758SOL    HW219911   1.391   4.606   3.169 -0.5460 -0.6643 -0.0605
 2759SOL     OW19912   3.936   3.943   8.304  0.0557  0.3476 -0.5645
 2759SOL    HW119913   3.950   4.018   8.361 -1.0066  0.2466 -0.1600
 2759SOL    HW219914   3.873   3.974   8.238 -1.9149 -1.7649  0.2999
 2760SOL     OW19915   1.285   1.837  12.497  0.5050  0.0176  0.2707
 2760SOL    HW119916   1.247   1.752  12.473 -2.0218  1.5174 -1.0141
 2760SOL    HW219917   1.266   1.887  12.418  0.3016  0.2525  0.4721
 2761SOL     OW19918   2.959   4.334   9.621 -0.2225  0.6693  0.1678
 2761SOL    HW119919   3.040   4.373   9.586 -0.3971  0.7675 -0.1222
 2761SOL    HW219920   2.912   4.293   9.549 -0.3569  0.9129  0.1169
 2762SOL     OW19921   4.002   3.514   1.061 -0.3093 -0.2455 -0.4914
 2762SOL    HW119922   3.986   3.447   0.995 -0.6277 -0.8859  0.2364
 2762SOL    HW219923   4.067   3.568   1.017 -0.7488 -0.4246 -1.3647
 2763SOL     OW19924   1.805   2.667  13.190 -0.2013 -0.2003 -0.4483
 2763SOL    HW119925   1.766   2.716  13.118 -0.9211  0.0902  0.1352
 2763SOL    HW219926   1.829   2.586  13.145 -2.2922 -1.2299  0.2868
 2764SOL     OW19927   2.460   2.893   3.419  0.0268  0.8417 -0.3696
 2764SOL    HW119928   2.475   2.806   3.456 -0.7165  0.3267 -1.2606
 2764SOL    HW219929   2.501   2.881   3.333  2.1500  1.0937  0.6340
 2765SOL     OW19930   3.347   3.877   8.155 -0.2094  0.3976  0.1445
 2765SOL    HW119931   3.380   3.812   8.217  0.3810 -0.0702 -0.6595
 2765SOL    HW219932   3.286   3.829   8.099  0.0277 -0.5338  0.6763
 2766SOL     OW19933   1.917   0.614   4.098  0.4671  0.3768 -0.3574
 2766SOL    HW119934   1.850   0.671   4.060 -0.8657 -0.6561  0.4478
 2766SOL    HW219935   1.937   0.652   4.184  0.1642 -1.7771  0.6793
 2767SOL     OW19936   0.845   3.528  13.574  0.4751  0.1308 -0.3817
 2767SOL    HW119937   0.814   3.509  13.486 -1.7004 -1.1391  0.6487
 2767SOL    HW219938   0.799   3.609  13.597 -1.0425 -0.5688 -0.9232
 2768SOL     OW19939   4.005   2.923   7.052 -0.3635 -0.1779 -0.0550
 2768SOL    HW119940   3.923   2.921   7.102  0.3055 -0.2762  1.0461
 2768SOL    HW219941   4.045   2.841   7.080 -1.3652 -0.5668  0.2300
 2769SOL     OW19942   2.313   0.051  17.357 -0.2238  0.7014 -0.7521
 2769SOL    HW119943   2.371   0.009  17.294  0.5007  0.1100  0.3084
 2769SOL    HW219944   2.348   0.015  17.439 -0.7978 -1.7903 -1.6031
 2770SOL     OW19945   1.385   3.478   1.484 -0.5455 -0.0305 -0.3451
 2770SOL    HW119946   1.424   3.402   1.528 -1.2301  1.2070  2.4136
 2770SOL    HW219947   1.445   3.502   1.414 -0.0928 -1.1156 -0.3300
 2771SOL     OW19948   3.170   1.041   6.101 -0.4244  0.1902 -0.0135
 2771SOL    HW119949   3.150   1.128   6.066  2.3144  0.8968  0.1712
 2771SOL    HW219950   3.236   1.011   6.038  1.0806  0.2911  1.5059
 2772SOL     OW19951   0.532   3.206   6.363  0.6916  0.2900  0.0768
 2772SOL    HW119952   0.469   3.139   6.389  1.5618  0.3202  2.2588
 2772SOL    HW219953   0.498   3.273   6.422 -0.2260 -0.5014  0.4478
 2773SOL     OW19954   4.233   0.850   7.516 -0.3961  0.0076 -0.2505
 2773SOL    HW119955   4.211   0.835   7.424  2.4651 -1.7481 -0.6513
 2773SOL    HW219956   4.265   0.940   7.515  0.5360 -0.3446 -3.1734
 2774SOL     OW19957   4.630   0.904   6.762  0.3216  0.6079  0.2680
 2774SOL    HW119958   4.659   0.939   6.846  2.9117 -1.5751  0.2683
 2774SOL    HW219959   4.647   0.978   6.703 -0.6598  0.4985 -0.1591
 2775SOL     OW19960   3.365   2.100  13.345 -0.5814  0.3989  0.1045
 2775SOL    HW119961   3.369   2.194  13.331 -0.4855  0.8655  3.1941
 2775SOL    HW219962   3.271   2.083  13.349 -0.4175 -0.6554 -0.5200
 2776SOL     OW19963   3.952   0.040  13.566 -0.0016 -0.3618  0.7670
 2776SOL    HW119964   3.942   0.043  13.471  2.4321 -2.3373  0.4597
 2776SOL    HW219965   3.925   4.684  13.581  0.2769 -0.1128  2.6772
 2777SOL     OW19966   1.492   2.163   5.059  0.4155  0.4086 -0.1900
 2777SOL    HW119967   1.540   2.245   5.048  1.1817  0.1583  1.3198
 2777SOL    HW219968   1.571   2.112   5.040  0.9358  1.3508 -0.5858
 2778SOL     OW19969   4.614   3.667   8.379 -0.1430 -0.1025 -0.1061
 2778SOL    HW119970   4.618   3.721   8.300 -1.3258 -0.1495 -0.2040
 2778SOL    HW219971   4.526   3.679   8.416  0.2455  2.2209  0.0567
 2779SOL     OW19972   4.196   3.759   9.769  0.8870  0.2288 -0.1119
 2779SOL    HW119973   4.280   3.741   9.811  2.0195 -0.3321 -2.6673
 2779SOL    HW219974   4.142   3.785   9.844 -0.6148  3.0282 -2.1563
 2780SOL     OW19975   1.631   1.985   5.821  0.6142 -0.1283  0.0024
 2780SOL    HW119976   1.636   2.059   5.760  2.9401 -0.2705  0.0052
 2780SOL    HW219977   1.659   1.918   5.759  2.1189  0.7562 -0.2843
 2781SOL     OW19978   0.848   0.895   5.997  0.0293 -0.1494 -0.2602
 2781SOL    HW119979   0.829   0.865   6.086 -0.1919  0.5257 -0.0820
 2781SOL    HW219980   0.834   0.812   5.951 -1.1691  0.6928 -1.4276
 2782SOL     OW19981   3.153   4.378   2.940  0.1469  0.1314 -0.0291
 2782SOL    HW119982   3.248   4.393   2.946  0.1696  0.8789 -2.1025
 2782SOL    HW219983   3.106   4.462   2.934  0.3687  0.3849  1.9189
 2783SOL     OW19984   2.860   3.426   3.985  0.0849  0.0770  0.1987
 2783SOL    HW119985   2.939   3.385   3.948  0.7733  0.6120  1.0709
 2783SOL    HW219986   2.827   3.351   4.034 -0.9485  1.1679  1.1324
 2784SOL     OW19987   3.349   2.121   6.740 -0.1988 -0.3056  0.0169
 2784SOL    HW119988   3.371   2.147   6.829 -1.4799  0.7648  0.0152
 2784SOL    HW219989   3.438   2.139   6.711  0.4167 -1.2289  1.3543
 2785SOL     OW19990   3.209   3.147   1.147 -0.2357  0.7756  0.5514
 2785SOL    HW119991   3.199   3.182   1.059 -1.0167  0.6662  0.5941
 2785SOL    HW219992   3.138   3.191   1.195 -1.0710 -0.3697  0.3692
 2786SOL     OW19993   3.510   3.034   9.750  0.3823  0.2972 -0.6669
 2786SOL    HW119994   3.425   2.998   9.776  0.7889 -1.3877 -1.6651
 2786SOL    HW219995   3.550   3.052   9.835 -2.7069  3.2981  0.1367
 2787SOL     OW19996   4.523   1.542   4.532 -0.0887  0.2790  0.3158
 2787SOL    HW119997   4.550   1.571   4.618 -0.1455 -0.0607  0.4511
 2787SOL    HW219998   4.446   1.597   4.520 -1.3188 -1.6458 -0.7696
 2788SOL     OW19999   4.304   0.113   3.883  0.1894  0.0342  0.2465
 2788SOL    HW120000   4.360   0.039   3.905 -0.9291  0.1658  3.5818
 2788SOL    HW220001   4.311   0.110   3.788  0.6804  1.8509  0.2339
 2789SOL     OW20002   3.815   2.080  10.704 -0.6694  0.6706 -0.3823
 2789SOL    HW120003   3.842   1.996  10.667  1.6129  0.2995  2.1252
 2789SOL    HW220004   3.767   2.052  10.782 -1.3112  0.9798 -0.6617
 2790SOL     OW20005   0.807   3.098   9.151 -0.1964  0.2086  0.4744
 2790SOL    HW120006   0.748   3.036   9.109  1.5699 -0.2532 -1.3092
 2790SOL    HW220007   0.880   3.082   9.092 -0.1966  0.6807  0.3420
 2791SOL     OW20008   2.881   3.130   9.486 -0.0259  0.0070 -0.2000
 2791SOL    HW120009   2.802   3.133   9.431 -1.5934 -1.9280  1.9474
 2791SOL    HW220010   2.896   3.222   9.508  1.5387 -0.1370 -0.6795
 2792SOL     OW20011   1.797   3.056  13.982  0.3579 -0.0265 -0.6022
 2792SOL    HW120012   1.830   2.967  13.995 -0.7825 -0.1144  1.5648
 2792SOL    HW220013   1.883   3.099  13.985  0.5427 -0.3736 -0.9204
 2793SOL     OW20014   1.205   1.959  12.240 -0.3083 -0.2258  0.3151
 2793SOL    HW120015   1.158   2.036  12.272 -0.7808  0.5067 -2.1521
 2793SOL    HW220016   1.225   1.987  12.151  1.0547  0.2230  0.7546
 2794SOL     OW20017   2.800   2.830   3.627 -0.2162 -0.2831 -0.3669
 2794SOL    HW120018   2.861   2.904   3.631  0.4965 -0.8689 -0.3760
 2794SOL    HW220019   2.805   2.781   3.709  0.9673  0.6912  0.1493
 2795SOL     OW20020   1.401   3.302   6.055 -0.2388  0.2513  0.2516
 2795SOL    HW120021   1.488   3.280   6.021 -0.4651  2.5443 -1.8010
 2795SOL    HW220022   1.368   3.215   6.078 -0.4798 -0.1925 -1.7386
 2796SOL     OW20023   0.368   1.182   9.710  0.4567  0.1016 -0.0362
 2796SOL    HW120024   0.462   1.178   9.689  0.3262  0.6257 -0.7162
 2796SOL    HW220025   0.357   1.115   9.776  0.2691  0.1067 -0.0643
 2797SOL     OW20026   2.445   3.204   4.136  0.1738  0.2846 -0.0549
 2797SOL    HW120027   2.481   3.173   4.053  0.9323 -2.0782  1.1534
 2797SOL    HW220028   2.352   3.222   4.121 -0.1603 -0.0905  1.5236
 2798SOL     OW20029   1.047   4.541   3.004  0.4993  0.3233  0.4750
 2798SOL    HW120030   0.960   4.571   2.976  0.2148 -0.1337  0.8892
 2798SOL    HW220031   1.104   4.591   2.945 -0.6366 -1.3899 -2.0678
 2799SOL     OW20032   2.823   2.897   8.753  0.1605 -0.0603 -0.2893
 2799SOL    HW120033   2.737   2.856   8.749  0.6077 -0.7964 -2.5267
 2799SOL    HW220034   2.834   2.938   8.839  0.1228 -1.5175  0.4176
 2800SOL     OW20035   0.207   0.486   5.747 -0.3494  0.2147 -0.1149
 2800SOL    HW120036   0.231   0.523   5.832  0.5811 -1.2788  0.2986
 2800SOL    HW220037   0.275   0.419   5.735 -0.4439  0.2656 -0.9312
 2801SOL     OW20038   0.025   1.798   6.186  0.1382 -0.1640  0.7438
 2801SOL    HW120039   4.674   1.825   6.153  0.9398  2.8105  1.1627
 2801SOL    HW220040   0.009   1.704   6.200 -1.2805 -0.0266  0.1146
 2802SOL     OW20041   0.307   3.457   5.820 -0.1809  0.1155  0.4535
 2802SOL    HW120042   0.279   3.367   5.835 -0.3749  0.2527  0.9090
 2802SOL    HW220043   0.296   3.494   5.908  1.1327 -1.6332  1.3321
 2803SOL     OW20044   2.111   4.302  12.155 -0.0841 -0.3232 -0.0693
 2803SOL    HW120045   2.059   4.246  12.214 -0.5679  1.3791  1.1349
 2803SOL    HW220046   2.127   4.385  12.201  1.3665  0.6739 -2.4181
 2804SOL     OW20047   2.188   4.341   7.299 -0.1868  0.0452  0.4856
 2804SOL    HW120048   2.203   4.360   7.392 -0.5748  3.0776 -0.0895
 2804SOL    HW220049   2.253   4.396   7.256 -1.3429 -0.6448 -2.0903
 2805SOL     OW20050   2.775   2.317   4.167 -0.0720  0.1134 -0.2739
 2805SOL    HW120051   2.693   2.277   4.195  0.3140  0.7833  1.8040
 2805SOL    HW220052   2.818   2.237   4.135  1.2214  1.1477 -1.1014
 2806SOL     OW20053   2.901   2.069   6.952 -0.6649 -0.3092  0.1686
 2806SOL    HW120054   2.926   2.112   7.033 -0.3043  0.6252 -0.4283
 2806SOL    HW220055   2.965   2.095   6.885 -0.6012  0.4465  0.5199
 2807SOL     OW20056   1.076   3.246   7.495 -0.7143 -0.0424 -0.1569
 2807SOL    HW120057   1.171   3.237   7.506 -0.6449  1.0667  0.1716
 2807SOL    HW220058   1.051   3.161   7.459  0.7278 -0.8307  0.6912
 2808SOL     OW20059   2.250   3.930   9.814 -0.2954 -0.5152  0.2731
 2808SOL    HW120060   2.261   3.836   9.805  2.3756  0.0110 -2.0453
 2808SOL    HW220061   2.314   3.947   9.883 -0.5491  2.6831 -0.2582
 2809SOL     OW20062   3.807   0.826  12.778  0.2824  0.4153 -0.0665
 2809SOL    HW120063   3.846   0.908  12.810  5.0345 -2.0963  0.5874
 2809SOL    HW220064   3.789   0.780  12.859  3.4218  1.7817  1.4376
 2810SOL     OW20065   3.485   2.552   9.973  0.0246 -0.1922 -0.2436
 2810SOL    HW120066   3.443   2.467   9.987 -1.0934  0.8861  2.9475
 2810SOL    HW220067   3.523   2.538   9.886 -1.1387 -1.3523 -0.5758
 2811SOL     OW20068   4.010   4.590   0.102 -0.1152  0.1212 -0.0560
 2811SOL    HW120069   4.051   4.512   0.065 -3.2021 -1.0775 -0.9499
 2811SOL    HW220070   3.919   4.561   0.104 -0.2630  0.5393 -0.6632
 2812SOL     OW20071   0.299   3.197  10.800  0.4795 -0.3560  0.3143
 2812SOL    HW120072   0.333   3.242  10.877 -0.6082 -2.0837  1.8171
 2812SOL    HW220073   0.356   3.121  10.791 -0.3615 -0.9306 -0.1611
 2813SOL     OW20074   2.354   3.714   5.720 -0.4931  0.1874  0.5918
 2813SOL    HW120075   2.308   3.762   5.788 -1.5526 -0.1838  0.1359
 2813SOL    HW220076   2.281   3.694   5.661  1.3994 -1.2160 -1.2974
 2814SOL     OW20077   4.059   4.404   6.130  0.8242  0.6447 -0.0580
 2814SOL    HW120078   4.094   4.471   6.071  1.6424  0.6245  0.3983
 2814SOL    HW220079   4.043   4.334   6.067 -2.4209  1.1115  0.2588
 2815SOL     OW20080   1.155   3.947   0.524 -0.0933  0.3135 -0.1422
 2815SOL    HW120081   1.085   4.006   0.497 -0.3720  1.2282  2.5898
 2815SOL    HW220082   1.225   4.006   0.550 -0.4149 -0.5479  2.7212
 2816SOL     OW20083   0.879   3.528   6.929 -0.1712 -0.5943  0.2761
 2816SOL    HW120084   0.859   3.616   6.962 -1.7043 -1.3111  1.2268
 2816SOL    HW220085   0.869   3.535   6.834  1.4760 -1.3359  0.0526
 2817SOL     OW20086   3.776   3.680   3.476  0.1371 -0.5642  0.4375
 2817SOL    HW120087   3.805   3.644   3.392 -0.5481  1.6994 -0.7619
 2817SOL    HW220088   3.722   3.613   3.519  0.9990 -1.0777  0.7128
 2818SOL     OW20089   3.354   2.359   9.233  0.3273  0.2731  0.1181
 2818SOL    HW120090   3.404   2.392   9.308 -1.3823  0.3996  1.2068
 2818SOL    HW220091   3.380   2.267   9.233  3.1687  1.0747 -1.7835
 2819SOL     OW20092   1.867   0.635  16.262  0.3911  0.7893 -0.0630
 2819SOL    HW120093   1.855   0.553  16.311  5.4202  1.0698  1.6995
 2819SOL    HW220094   1.920   0.683  16.326 -1.7070  1.6670  1.0247
 2820SOL     OW20095   3.857   2.391   7.213  0.2531 -0.3641  0.0725
 2820SOL    HW120096   3.870   2.485   7.219  0.4397 -0.3905  0.0680
 2820SOL    HW220097   3.879   2.377   7.305 -0.3739  2.4483  0.6181
 2821SOL     OW20098   2.441   3.409   5.791  0.5657 -0.0890 -0.3115
 2821SOL    HW120099   2.443   3.492   5.744  1.2548 -0.3615 -0.7828
 2821SOL    HW220100   2.535   3.414   5.809  0.4360 -2.0116  0.9426
 2822SOL     OW20101   0.573   0.520   3.703  0.8446  0.4750  0.0729
 2822SOL    HW120102   0.642   0.503   3.766  1.4059  0.0601 -0.6493
 2822SOL    HW220103   0.641   0.539   3.638  1.3070  0.1176  0.4536
 2823SOL     OW20104   3.370   0.365   7.663  0.2526  0.0077 -0.2840
 2823SOL    HW120105   3.347   0.290   7.609  1.8463 -1.6601  1.3543
 2823SOL    HW220106   3.322   0.349   7.744 -1.4754 -0.2161 -1.3484
 2824SOL     OW20107   0.605   2.211  16.414  0.2121  0.2672  0.6142
 2824SOL    HW120108   0.598   2.123  16.451  0.1335 -0.4198 -1.0603
 2824SOL    HW220109   0.576   2.272  16.482  0.7489  0.1195  0.9844
 2825SOL     OW20110   2.304   1.015  17.677 -0.0172 -0.7153 -0.2004
 2825SOL    HW120111   2.323   0.969  17.596  0.1097 -0.4665 -0.3112
 2825SOL    HW220112   2.211   1.037  17.670 -0.3378 -1.1068  2.5245
 2826SOL     OW20113   2.181   4.381   2.792  0.3123 -0.0406  0.0300
 2826SOL    HW120114   2.126   4.335   2.729 -0.4204 -1.7488  1.9161
 2826SOL    HW220115   2.245   4.421   2.734  0.5210 -0.6603 -0.1652
 2827SOL     OW20116   4.299   4.700   2.229  0.7377 -0.0292 -0.2669
 2827SOL    HW120117   4.384   4.664   2.204  0.3891 -1.0007 -0.0469
 2827SOL    HW220118   4.313   0.046   2.278  0.2069  0.4972 -0.9800
 2828SOL     OW20119   4.515   3.018   3.468  0.3360  0.0369  0.1373
 2828SOL    HW120120   4.514   3.087   3.535 -1.4066  0.0831  0.0547
 2828SOL    HW220121   4.477   3.060   3.391 -1.7174 -0.3321  0.9650
 2829SOL     OW20122   4.593   1.386   7.532 -0.0959  0.2174 -0.0776
 2829SOL    HW120123   4.519   1.328   7.549  0.9224 -1.4368 -1.2319
 2829SOL    HW220124   4.639   1.361   7.612 -0.4473 -0.5239 -0.1092
 2830SOL     OW20125   3.450   4.548   3.178  0.2423 -0.9338 -0.0542
 2830SOL    HW120126   3.406   4.477   3.224  1.5598 -3.0132 -1.9988
 2830SOL    HW220127   3.457   4.514   3.089 -0.9205 -1.1549 -0.0638
 2831SOL     OW20128   4.051   0.569   9.250 -0.2734  0.2350 -0.1010
 2831SOL    HW120129   4.009   0.607   9.327  1.1489 -2.0682  1.8267
 2831SOL    HW220130   3.980   0.524   9.206  0.3261  0.3285 -1.1781
 2832SOL     OW20131   3.396   0.639   8.411  0.4966 -0.5223 -0.2121
 2832SOL    HW120132   3.310   0.609   8.381 -0.9574  2.0169  1.4217
 2832SOL    HW220133   3.444   0.558   8.393 -0.6467 -1.2248 -0.0972
 2833SOL     OW20134   1.632   3.893   8.245 -0.1326 -0.3883 -0.1170
 2833SOL    HW120135   1.598   3.811   8.280 -1.3340 -0.4500 -1.4359
 2833SOL    HW220136   1.582   3.894   8.163 -1.0549 -0.5465  0.4389
 2834SOL     OW20137   3.756   2.042   4.270 -0.2089  0.2659  0.2078
 2834SOL    HW120138   3.760   2.082   4.357 -0.9042  0.2127  0.2612
 2834SOL    HW220139   3.792   2.124   4.234  1.1693 -0.7607 -0.7475
 2835SOL     OW20140   4.526   0.366  13.434 -0.0797  0.3361  0.0496
 2835SOL    HW120141   4.446   0.409  13.464 -0.1474 -0.5918  1.2135
 2835SOL    HW220142   4.554   0.417  13.358 -1.2538  0.3126 -0.3941
 2836SOL     OW20143   0.391   0.927  13.621  0.2162 -0.0316  0.2783
 2836SOL    HW120144   0.422   0.846  13.579 -1.0976 -0.1678 -0.4307
 2836SOL    HW220145   0.343   0.890  13.695 -1.3917  3.6249  1.0737
 2837SOL     OW20146   1.126   0.705   6.452 -0.2404  0.0677 -0.4022
 2837SOL    HW120147   1.202   0.758   6.475 -0.5286 -0.0897  0.9000
 2837SOL    HW220148   1.080   0.698   6.536  1.5720 -2.1724  0.4079
 2838SOL     OW20149   3.332   0.326  12.167 -0.5097  0.0066 -0.3294
 2838SOL    HW120150   3.265   0.335  12.235 -2.0807  0.9638 -2.0121
 2838SOL    HW220151   3.306   0.245  12.123 -0.6361 -0.8359  1.2587
 2839SOL     OW20152   1.141   1.229  15.344  0.1539 -0.1412 -0.0488
 2839SOL    HW120153   1.061   1.280  15.356  0.7028  0.4708  1.0508
 2839SOL    HW220154   1.147   1.227  15.249  1.8849 -1.4574  0.0877
 2840SOL     OW20155   3.019   1.628   9.586 -0.1167  0.2970 -0.5819
 2840SOL    HW120156   2.943   1.623   9.528 -0.2010 -0.9605 -0.3614
 2840SOL    HW220157   2.979   1.624   9.673 -0.1907 -1.6993 -0.7076
 2841SOL     OW20158   4.594   2.407   2.956 -0.0489 -0.2598  0.5456
 2841SOL    HW120159   4.589   2.315   2.982  0.3960 -0.3899  0.1573
 2841SOL    HW220160   4.682   2.415   2.920  0.2897 -0.1304  1.3952
 2842SOL     OW20161   3.844   0.952   3.064 -0.3235  0.4515  0.6982
 2842SOL    HW120162   3.914   0.955   2.998  0.1424  0.1757  1.1855
 2842SOL    HW220163   3.782   0.891   3.023  1.0929 -0.4776 -0.0335
 2843SOL     OW20164   3.914   3.492   7.337 -0.1905 -0.4554  0.3193
 2843SOL    HW120165   3.853   3.498   7.264  1.5856 -2.9601 -1.3313
 2843SOL    HW220166   4.000   3.497   7.296 -0.8591  1.0604 -0.9121
 2844SOL     OW20167   1.191   2.383   7.698 -0.1979  0.1665 -0.1792
 2844SOL    HW120168   1.266   2.443   7.703 -0.5347  0.5471  0.2802
 2844SOL    HW220169   1.206   2.310   7.758  5.2443 -1.5544 -3.5555
 2845SOL     OW20170   3.825   4.291  10.290  0.2632 -0.0342  0.2687
 2845SOL    HW120171   3.794   4.204  10.265 -1.6056  0.6515  0.2106
 2845SOL    HW220172   3.919   4.279  10.275 -0.0055 -1.0044 -0.6479
 2846SOL     OW20173   2.966   1.486   8.437 -0.0317  0.0055  0.3712
 2846SOL    HW120174   2.931   1.543   8.506  0.6884 -0.3890  1.0667
 2846SOL    HW220175   3.048   1.454   8.474 -0.1971 -1.7057 -0.7809
 2847SOL     OW20176   0.936   3.479  16.587  0.2877 -0.2574 -0.5760
 2847SOL    HW120177   0.933   3.451  16.496 -0.3958 -0.3243 -0.5301
 2847SOL    HW220178   0.851   3.446  16.618  1.6643 -2.4568  0.9120
 2848SOL     OW20179   3.226   0.204  10.574 -1.1769 -0.3961  0.7456
 2848SOL    HW120180   3.213   0.290  10.614  3.9823 -0.8814  3.5503
 2848SOL    HW220181   3.321   0.205  10.563 -1.1396 -0.0870  1.0753
 2849SOL     OW20182   3.340   2.961   9.233 -0.1940  0.2188 -0.8912
 2849SOL    HW120183   3.383   3.041   9.265  1.4194 -0.4902 -1.3112
 2849SOL    HW220184   3.281   2.951   9.307 -1.1969 -0.1362 -1.7434
 2850SOL     OW20185   3.227   3.134   3.404 -0.0631  0.5561  0.0955
 2850SOL    HW120186   3.309   3.094   3.375 -1.0753 -0.6560 -1.1370
 2850SOL    HW220187   3.197   3.079   3.476  1.8386 -1.0225 -0.3167
 2851SOL     OW20188   2.731   2.839  13.576  0.4880  0.0012 -0.0094
 2851SOL    HW120189   2.668   2.829  13.504 -1.7316  0.9388  1.7979
 2851SOL    HW220190   2.670   2.829  13.649  1.3426 -1.1424  0.5419
 2852SOL     OW20191   0.353   3.808   3.579  0.1241 -0.6429 -0.1928
 2852SOL    HW120192   0.433   3.860   3.574 -1.8021  2.4973  2.2299
 2852SOL    HW220193   0.372   3.739   3.516 -0.2663 -0.6631 -0.2863
 2853SOL     OW20194   0.454   0.109  16.008 -0.1121  0.2538  0.0273
 2853SOL    HW120195   0.445   0.144  15.919  0.7405 -1.4635 -0.7451
 2853SOL    HW220196   0.476   0.017  15.992  1.0095  0.7289 -1.2058
 2854SOL     OW20197   2.164   4.268   6.527 -0.3504  0.5241  0.6197
 2854SOL    HW120198   2.233   4.262   6.461 -1.1982 -0.8482 -0.1478
 2854SOL    HW220199   2.091   4.307   6.478  1.3384  0.8464 -1.6385
 2855SOL     OW20200   2.295   4.177  12.003 -0.0467  0.8192 -0.3075
 2855SOL    HW120201   2.376   4.228  11.999 -0.4079  1.4568  0.4506
 2855SOL    HW220202   2.250   4.232  12.067 -2.2227 -0.3241 -0.8498
 2856SOL     OW20203   3.529   1.669  17.135  0.3887  0.2832  0.4758
 2856SOL    HW120204   3.435   1.652  17.127  0.5266 -1.4517  2.5005
 2856SOL    HW220205   3.568   1.584  17.115 -1.4180 -0.7367  1.2546
 2857SOL     OW20206   0.489   2.828   1.304  0.5391  0.6252  0.2526
 2857SOL    HW120207   0.452   2.868   1.382  1.5533 -0.6076  1.3459
 2857SOL    HW220208   0.429   2.754   1.302 -0.0480  1.0461  2.9331
 2858SOL     OW20209   2.514   0.618   8.206 -0.4712  0.2770 -0.6846
 2858SOL    HW120210   2.505   0.713   8.202 -0.6320  0.3239  0.7818
 2858SOL    HW220211   2.602   0.613   8.243 -0.5089  1.6683 -0.3933
 2859SOL     OW20212   4.616   3.991   2.435  0.2559 -0.2218 -0.2176
 2859SOL    HW120213   4.630   3.982   2.529 -0.1905 -0.1406 -0.1420
 2859SOL    HW220214   4.583   3.903   2.417 -1.7686  0.4769  0.1503
 2860SOL     OW20215   2.179   1.845  14.527  0.0613  0.2745  1.0648
 2860SOL    HW120216   2.170   1.890  14.443 -1.7341 -1.2185  0.4486
 2860SOL    HW220217   2.151   1.757  14.502 -1.3328  0.9831  0.1434
 2861SOL     OW20218   2.231   2.593   9.977  0.0462  0.1449  0.2743
 2861SOL    HW120219   2.263   2.506  10.000  0.7790  0.1703 -0.6359
 2861SOL    HW220220   2.153   2.567   9.929  1.1267 -1.5636 -0.5877
 2862SOL     OW20221   3.841   2.068   8.451  0.2881 -0.0187  0.1798
 2862SOL    HW120222   3.821   2.081   8.544 -0.3891 -0.3949  0.0898
 2862SOL    HW220223   3.864   1.976   8.462  1.7319  0.4526  1.1089
 2863SOL     OW20224   0.121   0.614   3.657  0.1523 -0.4336 -0.2275
 2863SOL    HW120225   0.199   0.593   3.708 -0.4788 -1.4190  0.3338
 2863SOL    HW220226   0.160   0.613   3.570  1.0428 -2.6485  0.1876
 2864SOL     OW20227   2.494   1.746   4.723 -0.2071 -0.2673  0.1052
 2864SOL    HW120228   2.423   1.799   4.686  0.2404 -0.4889 -1.0712
 2864SOL    HW220229   2.544   1.727   4.644 -1.5847 -0.1041 -0.8073
 2865SOL     OW20230   4.216   4.159  12.208  0.1669 -0.0214  0.0794
 2865SOL    HW120231   4.170   4.102  12.147 -1.2900  0.0436  1.0999
 2865SOL    HW220232   4.290   4.182  12.153 -1.2587  4.9076  0.1596
 2866SOL     OW20233   2.894   4.607   2.599 -0.4174 -0.5898  0.8973
 2866SOL    HW120234   2.836   4.631   2.672 -2.4078  0.3339 -0.9879
 2866SOL    HW220235   2.856   4.645   2.520 -2.6161 -1.1514  1.6783
 2867SOL     OW20236   2.118   0.412   4.900 -0.2037 -0.0552 -0.1956
 2867SOL    HW120237   2.119   0.471   4.975  2.6765 -0.0065 -0.2477
 2867SOL    HW220238   2.197   0.439   4.852 -0.7251 -0.9151 -1.5556
 2868SOL     OW20239   0.332   3.485   9.383 -0.4066 -0.1416 -0.2418
 2868SOL    HW120240   0.394   3.529   9.324  0.7343 -0.3427  0.8065
 2868SOL    HW220241   0.334   3.401   9.337 -1.0403 -0.7782  0.9249
 2869SOL     OW20242   0.864   0.545   6.100  0.1179 -0.2229  0.3238
 2869SOL    HW120243   0.784   0.515   6.143 -0.3435 -1.8741 -1.6815
 2869SOL    HW220244   0.838   0.557   6.009  0.0568  1.2276  0.5449
 2870SOL     OW20245   4.566   4.347  14.065 -0.3578  0.1788 -0.1576
 2870SOL    HW120246   4.538   4.388  13.984  2.0318  0.2716 -0.9504
 2870SOL    HW220247   4.648   4.303  14.042 -0.7824 -0.9119  0.4311
 2871SOL     OW20248   0.012   3.914   3.216 -0.2494  0.2175  0.1371
 2871SOL    HW120249   0.054   3.976   3.157  1.3778 -0.5969  0.4528
 2871SOL    HW220250   0.091   3.884   3.261 -0.8651  0.0696  1.1321
 2872SOL     OW20251   1.719   2.140   6.688  0.4471  0.4649  0.3087
 2872SOL    HW120252   1.638   2.191   6.692  1.1092  1.4533  1.4125
 2872SOL    HW220253   1.734   2.161   6.780  2.3794  1.3487 -0.1951
 2873SOL     OW20254   0.519   3.853  11.193 -0.1170 -0.0721  0.1569
 2873SOL    HW120255   0.520   3.797  11.115  1.3711 -1.5819  1.2625
 2873SOL    HW220256   0.580   3.921  11.164 -0.1847  0.2726  0.8158
 2874SOL     OW20257   4.182   1.592  17.629  0.4966 -0.3107  0.0107
 2874SOL    HW120258   4.175   1.497  17.638 -1.1944 -0.2934 -1.1427
 2874SOL    HW220259   4.162   1.595  17.536 -2.0730  0.8036  0.6214
 2875SOL     OW20260   2.367   4.474   2.614  0.3103 -0.2490  0.0831
 2875SOL    HW120261   2.298   4.478   2.548  0.5782  1.8541 -0.0637
 2875SOL    HW220262   2.438   4.451   2.555  0.2505  1.9727 -0.8612
 2876SOL     OW20263   4.565   3.098  13.509  0.1057 -0.5002  0.9123
 2876SOL    HW120264   4.488   3.044  13.523 -1.1726  1.6049  2.0615
 2876SOL    HW220265   4.631   3.035  13.537  1.7025  1.1507  0.9000
 2877SOL     OW20266   1.519   4.720   5.565 -0.3110  0.4281  0.0254
 2877SOL    HW120267   1.519   4.665   5.644 -1.8719  0.7359  0.2507
 2877SOL    HW220268   1.505   4.652   5.499  0.5903  1.1426 -0.8718
 2878SOL     OW20269   3.173   1.683   3.764 -0.3473 -0.1901  0.3736
 2878SOL    HW120270   3.083   1.652   3.774 -0.9471  1.4871  0.1260
 2878SOL    HW220271   3.169   1.743   3.690  1.6892 -2.4088 -1.5593
 2879SOL     OW20272   2.556   4.045   4.921 -0.3059 -0.2558  0.5638
 2879SOL    HW120273   2.578   4.129   4.880 -1.7820  0.1010  0.5087
 2879SOL    HW220274   2.564   3.983   4.848 -1.4806 -0.2527  0.4247
 2880SOL     OW20275   0.493   3.377   4.696 -0.4710 -0.6832  0.6099
 2880SOL    HW120276   0.554   3.307   4.719  0.8747  0.5055  0.6504
 2880SOL    HW220277   0.492   3.433   4.774  1.6755  1.2677 -0.7654
 2881SOL     OW20278   1.918   3.739   9.784  0.1421  0.2981 -0.2326
 2881SOL    HW120279   1.999   3.728   9.833  0.9409  2.4600 -1.1028
 2881SOL    HW220280   1.875   3.654   9.798  0.1429  0.8913  3.3945
 2882SOL     OW20281   2.272   4.454   9.465  0.1970  0.0609  0.0469
 2882SOL    HW120282   2.206   4.512   9.427  0.7069 -0.4170 -1.5674
 2882SOL    HW220283   2.215   4.395   9.514  0.0392 -1.2049 -1.6366
 2883SOL     OW20284   1.385   2.741   5.858 -0.8052  0.4886  0.1369
 2883SOL    HW120285   1.337   2.712   5.781  0.5978  0.0819 -0.5785
 2883SOL    HW220286   1.314   2.748   5.923 -0.5548  0.6381  0.3963
 2884SOL     OW20287   0.149   2.572  10.169  0.3412  0.4316  0.1077
 2884SOL    HW120288   0.222   2.539  10.221 -0.5204  0.5462  1.3934
 2884SOL    HW220289   0.087   2.606  10.233  3.8065  0.0763  3.6103
 2885SOL     OW20290   0.635   3.425   4.941  0.3577 -0.0936 -0.1547
 2885SOL    HW120291   0.709   3.373   4.970 -0.0394 -1.0433 -0.8630
 2885SOL    HW220292   0.563   3.385   4.990 -0.5665  0.3421 -1.1346
 2886SOL     OW20293   2.836   4.650  16.856  0.5798 -0.2396  0.0245
 2886SOL    HW120294   2.865   4.674  16.768  2.3770  1.0359  0.9658
 2886SOL    HW220295   2.921   4.636  16.897 -0.3527  1.5299  2.5509
 2887SOL     OW20296   1.189   0.676  12.106 -0.5935 -0.0972  0.6671
 2887SOL    HW120297   1.251   0.655  12.036 -0.0338 -2.1046  1.7595
 2887SOL    HW220298   1.229   0.754  12.144 -2.5047  1.8464 -1.2880
 2888SOL     OW20299   0.769   1.130   3.767 -0.1729  0.1110 -0.5839
 2888SOL    HW120300   0.790   1.220   3.741 -0.4776  0.8949  1.8737
 2888SOL    HW220301   0.682   1.139   3.806 -2.2313 -0.5899 -4.9340
 2889SOL     OW20302   0.907   2.428   7.693 -0.1449  0.4640 -0.0084
 2889SOL    HW120303   0.992   2.396   7.662 -0.3155  1.0524 -1.0641
 2889SOL    HW220304   0.854   2.422   7.614  3.7114 -2.2798 -2.3698
 2890SOL     OW20305   2.731   0.602   7.448  0.2018 -0.6374  0.1884
 2890SOL    HW120306   2.660   0.580   7.508  0.6372 -1.8397  0.2635
 2890SOL    HW220307   2.687   0.637   7.370  0.3736  0.6487  0.6748
 2891SOL     OW20308   3.400   3.462   2.292 -0.0975  0.0388  0.0315
 2891SOL    HW120309   3.462   3.422   2.352  1.3472  0.1184 -1.3883
 2891SOL    HW220310   3.336   3.390   2.294 -1.0974  0.8797 -1.0292
 2892SOL     OW20311   2.672   0.320  12.605  0.2815 -0.3344 -0.0658
 2892SOL    HW120312   2.639   0.307  12.694 -0.4795  2.2941  0.0277
 2892SOL    HW220313   2.596   0.352  12.557  1.6792  1.6407 -1.0184
 2893SOL     OW20314   2.320   1.384   7.636  0.2130 -0.0218  0.5059
 2893SOL    HW120315   2.314   1.478   7.653 -0.3427  0.2339 -1.1241
 2893SOL    HW220316   2.231   1.366   7.606  0.3046 -1.9148  1.3035
 2894SOL     OW20317   4.043   2.926   7.666 -1.1979 -0.0940  0.0152
 2894SOL    HW120318   3.989   2.910   7.743 -1.5381  0.2356 -0.1545
 2894SOL    HW220319   3.988   2.990   7.620  0.3546  0.8598 -0.5247
 2895SOL     OW20320   4.410   0.636  12.792 -0.0954  0.6305  0.7446
 2895SOL    HW120321   4.455   0.608  12.713 -0.7446  0.5815  0.3919
 2895SOL    HW220322   4.433   0.566  12.853 -0.2861 -1.2560 -1.3424
 2896SOL     OW20323   1.247   2.216   2.860 -0.2318  0.3938  0.0270
 2896SOL    HW120324   1.156   2.227   2.834 -0.0763 -0.1056 -0.7499
 2896SOL    HW220325   1.245   2.169   2.943  3.6680 -1.0652 -0.6907
 2897SOL     OW20326   3.293   3.597   6.059  0.1215 -0.1872  0.2044
 2897SOL    HW120327   3.331   3.634   6.138 -2.5761 -0.5960  1.7195
 2897SOL    HW220328   3.201   3.607   6.084  0.3552 -0.4578  1.1582
 2898SOL     OW20329   2.417   2.169   4.732  0.5902  0.1625 -0.2128
 2898SOL    HW120330   2.416   2.232   4.805  2.5431  0.0874 -0.1253
 2898SOL    HW220331   2.376   2.219   4.661  0.0321  1.2700  0.8842
 2899SOL     OW20332   2.426   0.633   3.387 -0.2822 -0.1181  0.0493
 2899SOL    HW120333   2.518   0.652   3.367 -0.1066 -0.3186  0.6697
 2899SOL    HW220334   2.380   0.648   3.304  0.9120 -0.4389 -0.6837
 2900SOL     OW20335   0.845   4.564   5.665 -0.3475 -0.2987  0.0935
 2900SOL    HW120336   0.903   4.618   5.611  0.8680  0.0661  1.7871
 2900SOL    HW220337   0.767   4.553   5.610  0.2013  0.8141 -0.9145
 2901SOL     OW20338   0.326   1.851   6.901 -0.0322  0.0285 -0.1385
 2901SOL    HW120339   0.305   1.780   6.962  2.7164  0.2381  1.0695
 2901SOL    HW220340   0.388   1.903   6.953 -1.4528  1.5439  0.0429
 2902SOL     OW20341   3.123   2.155   3.549  0.1865  0.1417 -0.1968
 2902SOL    HW120342   3.046   2.188   3.503  0.3220 -0.8548 -1.1282
 2902SOL    HW220343   3.154   2.230   3.599 -0.7134  0.6723 -0.4355
 2903SOL     OW20344   3.511   3.736   6.783 -0.2401 -0.6647  0.6905
 2903SOL    HW120345   3.447   3.705   6.848 -1.1852  0.5860  0.3418
 2903SOL    HW220346   3.500   3.830   6.788  0.7849 -0.5240  0.3027
 2904SOL     OW20347   1.952   2.618   7.578  0.1890 -0.0366 -0.2507
 2904SOL    HW120348   2.013   2.639   7.649 -2.7634  0.1012  2.2311
 2904SOL    HW220349   1.992   2.671   7.509  0.3673 -0.4126 -0.4415
 2905SOL     OW20350   2.933   1.806   6.884 -0.2899 -0.7307 -0.0874
 2905SOL    HW120351   2.948   1.823   6.791 -0.0776 -1.8987 -0.2650
 2905SOL    HW220352   2.896   1.888   6.918  2.4669  1.3060 -2.0215
 2906SOL     OW20353   1.591   3.528   7.621 -0.0394  0.3706  0.3525
 2906SOL    HW120354   1.541   3.534   7.703  0.9713  1.8023  0.8493
 2906SOL    HW220355   1.532   3.567   7.556 -2.5933 -3.6295  0.1869
 2907SOL     OW20356   3.517   4.233   4.207 -0.5066  0.3998  0.9478
 2907SOL    HW120357   3.492   4.152   4.252 -1.8363 -0.0942 -0.6529
 2907SOL    HW220358   3.455   4.293   4.249  2.9421  2.0329  3.7064
 2908SOL     OW20359   0.194   3.775   8.299 -0.5900 -0.7824  0.6730
 2908SOL    HW120360   0.218   3.684   8.278 -1.7929 -1.4228  2.0959
 2908SOL    HW220361   0.205   3.822   8.216  0.3793 -1.8705  0.1791
 2909SOL     OW20362   1.087   3.649   3.539  0.1784  0.5177  0.3016
 2909SOL    HW120363   1.145   3.699   3.597 -1.1363  0.9947  1.2001
 2909SOL    HW220364   1.004   3.659   3.585  0.2767 -1.8426  0.9984
 2910SOL     OW20365   1.071   2.669   8.640  0.1220  0.4288 -0.2809
 2910SOL    HW120366   1.091   2.605   8.571  1.1377 -0.2356  0.6394
 2910SOL    HW220367   1.061   2.614   8.717  0.5799  2.4152  1.2017
 2911SOL     OW20368   1.052   3.355   1.774  0.3669 -0.6106  0.1462
 2911SOL    HW120369   0.994   3.408   1.721 -0.8792 -1.5561  0.5620
 2911SOL    HW220370   1.010   3.269   1.770 -0.9492  0.0688 -0.4017
 2912SOL     OW20371   2.168   1.666   7.608  0.3075  1.1120 -0.4741
 2912SOL    HW120372   2.085   1.694   7.647  0.5546  1.3865 -0.1504
 2912SOL    HW220373   2.147   1.674   7.515 -0.7750 -0.6082 -0.3858
 2913SOL     OW20374   3.429   1.074  15.534  0.0622  0.6053  0.2869
 2913SOL    HW120375   3.521   1.074  15.561  0.5439  0.5421 -1.3554
 2913SOL    HW220376   3.430   1.047  15.442 -1.1814  0.3920  0.3300
 2914SOL     OW20377   2.452   3.421  17.145  0.2646 -0.0172 -0.0618
 2914SOL    HW120378   2.421   3.448  17.231  1.2832  1.7462 -0.2640
 2914SOL    HW220379   2.399   3.342  17.133  1.2920 -1.1758  3.0931
 2915SOL     OW20380   1.645   0.932   3.482 -0.1282 -0.0544 -0.6776
 2915SOL    HW120381   1.590   0.988   3.537 -1.3004  0.4189 -2.3385
 2915SOL    HW220382   1.684   0.876   3.550  1.0001 -2.6498 -3.4571
 2916SOL     OW20383   2.510   2.723  11.540 -0.0224 -0.0220  0.0392
 2916SOL    HW120384   2.560   2.643  11.521 -1.7049 -0.9943 -0.3066
 2916SOL    HW220385   2.438   2.707  11.480  1.0588  1.1516 -1.5835
 2917SOL     OW20386   2.795   2.311  13.148 -0.8486 -0.8006 -0.2877
 2917SOL    HW120387   2.877   2.262  13.154 -1.7604 -2.0628  1.6444
 2917SOL    HW220388   2.785   2.329  13.054 -0.7946  1.8331  0.2074
 2918SOL     OW20389   2.517   3.920  15.763  0.0308 -0.4732  0.0371
 2918SOL    HW120390   2.599   3.950  15.803  2.2381 -2.1613 -3.2661
 2918SOL    HW220391   2.551   3.832  15.749  0.4854 -0.4323  0.8898
 2919SOL     OW20392   1.402   1.544  10.701  0.1236 -0.0312 -0.0226
 2919SOL    HW120393   1.412   1.449  10.702 -2.6803 -0.2983  0.7509
 2919SOL    HW220394   1.396   1.564  10.608  1.5274  2.1128  0.3272
 2920SOL     OW20395   2.597   0.323   7.587  0.6070  0.1113  0.0449
 2920SOL    HW120396   2.671   0.315   7.648  0.7827  0.8489 -0.0668
 2920SOL    HW220397   2.558   0.407   7.612 -1.2462 -1.3903  2.2040
 2921SOL     OW20398   3.401   0.843  11.519  0.1159  0.5490  0.5323
 2921SOL    HW120399   3.329   0.781  11.530  1.1169 -0.6646  0.3330
 2921SOL    HW220400   3.474   0.786  11.543 -0.9394 -0.4069  1.4553
 2922SOL     OW20401   3.950   0.647   1.439 -0.1178 -0.0714  0.0434
 2922SOL    HW120402   3.875   0.616   1.389  0.2138 -0.4061 -0.2412
 2922SOL    HW220403   3.987   0.567   1.476 -0.0042 -0.5387 -1.0944
 2923SOL     OW20404   3.644   3.069  14.500  0.5337  0.3337  0.3094
 2923SOL    HW120405   3.729   3.106  14.523  0.1291  1.3985  0.0764
 2923SOL    HW220406   3.642   3.064  14.404  1.1907 -0.2799  0.3324
 2924SOL     OW20407   0.300   0.927   1.807  0.2266  0.0463 -0.5202
 2924SOL    HW120408   0.345   0.895   1.885  1.1602 -1.9293 -1.8845
 2924SOL    HW220409   0.358   0.925   1.731  1.2911  0.1305  0.2888
 2925SOL     OW20410   3.542   2.558  12.973 -0.5913 -0.1113 -0.6849
 2925SOL    HW120411   3.611   2.526  12.916  0.3326  1.8040 -0.6456
 2925SOL    HW220412   3.591   2.608  13.039  0.1291 -2.1772  0.3385
 2926SOL     OW20413   1.402   0.042   5.190  0.5126 -0.2667 -0.3367
 2926SOL    HW120414   1.391   0.070   5.099 -0.6572 -0.4063 -0.2461
 2926SOL    HW220415   1.489   0.074   5.210 -0.4267  3.5032 -2.2915
 2927SOL     OW20416   4.347   4.270   5.866 -0.6901 -0.3354 -0.6021
 2927SOL    HW120417   4.392   4.226   5.793  0.3038 -0.6534  0.2015
 2927SOL    HW220418   4.340   4.356   5.826  1.8797  0.1674  0.0419
 2928SOL     OW20419   1.672   4.571   1.169  0.8569  0.0402 -0.5314
 2928SOL    HW120420   1.717   4.540   1.248  0.6622  2.3751  0.4992
 2928SOL    HW220421   1.627   4.497   1.129  0.7510 -0.4330  0.4447
 2929SOL     OW20422   3.183   3.847   4.716  0.2513  0.0445  0.0678
 2929SOL    HW120423   3.268   3.888   4.700  0.9113 -1.8966 -1.4632
 2929SOL    HW220424   3.195   3.808   4.803  1.1402  0.1943  0.0137
 2930SOL     OW20425   3.909   3.875   3.128  0.3924  0.3877  0.1105
 2930SOL    HW120426   3.947   3.793   3.097  2.3078  1.6693 -0.9032
 2930SOL    HW220427   3.830   3.832   3.161  1.3739 -1.4308  0.0748
 2931SOL     OW20428   1.148   3.010  11.223  0.4314 -0.1130 -0.1019
 2931SOL    HW120429   1.212   2.948  11.260  1.4162 -0.5577 -2.5172
 2931SOL    HW220430   1.207   3.076  11.187 -0.7310  2.5958  2.9945
 2932SOL     OW20431   2.769   4.233  10.004  0.3541  0.1111  0.5489
 2932SOL    HW120432   2.858   4.243   9.973  0.0414  1.4284  0.0821
 2932SOL    HW220433   2.719   4.241   9.923 -0.5187 -0.6673  1.0097
 2933SOL     OW20434   2.714   4.088   7.678  0.2006  0.3362 -0.1066
 2933SOL    HW120435   2.680   4.171   7.712  1.2599  0.4750  0.6130
 2933SOL    HW220436   2.642   4.061   7.621 -0.4511 -1.8278  1.7558
 2934SOL     OW20437   1.402   0.655   7.475  0.5983  0.5489 -0.6417
 2934SOL    HW120438   1.376   0.565   7.457  0.6511  0.0686  1.6555
 2934SOL    HW220439   1.464   0.632   7.544  0.9612 -2.1051 -1.8370
 2935SOL     OW20440   1.730   2.605  17.118 -0.1055 -0.0261 -0.1907
 2935SOL    HW120441   1.774   2.601  17.203 -1.0328 -0.6544  0.2574
 2935SOL    HW220442   1.746   2.699  17.104 -1.1688  0.3510  1.1148
 2936SOL     OW20443   4.201   2.903  14.819 -0.3047 -0.5091  0.5027
 2936SOL    HW120444   4.228   2.817  14.851 -0.2681 -1.3675 -1.8244
 2936SOL    HW220445   4.137   2.930  14.886  0.8191  2.4335  0.4119
 2937SOL     OW20446   0.442   0.013   7.479 -0.5630  0.5786  0.5769
 2937SOL    HW120447   0.417   0.038   7.568  0.9988  0.7034  0.9723
 2937SOL    HW220448   0.527   4.706   7.492 -0.0394  1.0159 -1.5990
 2938SOL     OW20449   1.540   2.456   3.077 -0.0898 -0.1806 -0.3594
 2938SOL    HW120450   1.594   2.534   3.084  2.2325 -1.9057  0.9691
 2938SOL    HW220451   1.610   2.390   3.072  0.6985  0.5712  0.7618
 2939SOL     OW20452   4.115   3.793  14.447 -0.4233  0.0663 -0.5035
 2939SOL    HW120453   4.172   3.852  14.398  0.9781 -2.2891 -1.7009
 2939SOL    HW220454   4.031   3.837  14.432  0.0235  0.6868 -1.1795
 2940SOL     OW20455   0.243   4.217   7.596 -0.1288 -0.0474 -0.4471
 2940SOL    HW120456   0.163   4.260   7.565  0.4361 -1.8302 -4.4108
 2940SOL    HW220457   0.298   4.296   7.592 -1.9465  1.2277  0.1768
 2941SOL     OW20458   3.031   4.459   5.918 -0.7671 -0.4038 -0.4692
 2941SOL    HW120459   2.973   4.495   5.985  0.4375  0.4400  0.1243
 2941SOL    HW220460   2.969   4.450   5.846  0.9822 -2.3919 -1.7119
 2942SOL     OW20461   0.944   2.942   4.757 -0.5522  0.7379  0.0150
 2942SOL    HW120462   0.929   2.977   4.669 -0.1006  0.6505 -0.0979
 2942SOL    HW220463   0.936   2.848   4.745 -0.5691  0.4802  2.1766
 2943SOL     OW20464   3.526   1.896   1.532  0.2421 -0.2761  0.3209
 2943SOL    HW120465   3.594   1.832   1.514  0.0444 -0.5772  0.6477
 2943SOL    HW220466   3.570   1.975   1.565  0.0712 -0.0856  0.0956
 2944SOL     OW20467   0.632   0.056   2.780  0.1038  0.3677 -0.3299
 2944SOL    HW120468   0.536   0.059   2.782  0.2213  3.5224  0.0814
 2944SOL    HW220469   0.656   0.075   2.690 -0.2496  0.3935 -0.4206
 2945SOL     OW20470   4.225   3.618   2.585 -0.5401  0.2252  0.3923
 2945SOL    HW120471   4.269   3.694   2.623  1.1046 -0.4316 -0.1510
 2945SOL    HW220472   4.248   3.610   2.492  0.5993  0.8917  0.6081
 2946SOL     OW20473   4.325   2.703   8.751 -0.1068 -0.2640 -0.0278
 2946SOL    HW120474   4.239   2.664   8.766  0.3142 -1.2650 -0.1736
 2946SOL    HW220475   4.357   2.644   8.682 -0.8165  0.1346 -0.7040
 2947SOL     OW20476   2.705   4.411   4.092 -0.1824  0.3470 -0.6791
 2947SOL    HW120477   2.713   4.467   4.015  0.7898  0.8632 -0.1985
 2947SOL    HW220478   2.670   4.333   4.050 -1.7686  1.3947 -1.3373
 2948SOL     OW20479   4.158   2.846  12.487 -0.4452  0.4947 -0.1356
 2948SOL    HW120480   4.161   2.927  12.537 -1.9128  1.1800 -1.1506
 2948SOL    HW220481   4.144   2.880  12.398 -0.0038 -0.5722 -0.6125
 2949SOL     OW20482   0.341   0.030  15.763 -0.0921 -0.1616 -0.1188
 2949SOL    HW120483   0.366   0.049  15.673  0.7456  1.0306  0.3757
 2949SOL    HW220484   0.272   0.094  15.782  0.4070  0.5007 -0.5424
 2950SOL     OW20485   0.899   1.109   4.475  0.0165  0.1973  0.4231
 2950SOL    HW120486   0.853   1.052   4.413  0.3874  2.3140 -1.8110
 2950SOL    HW220487   0.876   1.197   4.445  0.2076 -0.6718 -2.2572
 2951SOL     OW20488   3.071   1.604   8.780 -0.8176  0.6110 -0.5473
 2951SOL    HW120489   3.109   1.531   8.827  0.3261 -0.0158 -2.4370
 2951SOL    HW220490   3.149   1.639   8.736 -0.2193 -0.2368 -0.1654
 2952SOL     OW20491   3.664   2.130   5.952  0.1933 -0.1597  0.0857
 2952SOL    HW120492   3.641   2.041   5.928 -0.6369 -0.2209  1.1102
 2952SOL    HW220493   3.683   2.167   5.865  1.3724 -0.7038  0.1038
 2953SOL     OW20494   2.277   0.878   3.205  0.5014 -0.3588 -0.1210
 2953SOL    HW120495   2.365   0.915   3.204  0.5305 -0.4394 -0.6151
 2953SOL    HW220496   2.226   0.936   3.261  1.5863 -1.7261  2.3399
 2954SOL     OW20497   2.124   2.547  11.791 -0.4250  0.0095 -0.0996
 2954SOL    HW120498   2.075   2.607  11.847 -1.2212 -0.4749 -0.2725
 2954SOL    HW220499   2.190   2.609  11.764  0.2671  0.0067  1.5790
 2955SOL     OW20500   3.137   2.281  11.306  0.3381 -0.2724 -0.9370
 2955SOL    HW120501   3.203   2.349  11.318 -0.4930  0.3585  0.0607
 2955SOL    HW220502   3.161   2.244  11.221  2.6000 -1.1844  0.0961
 2956SOL     OW20503   1.522   3.670   8.365  0.1086  0.2539  0.3184
 2956SOL    HW120504   1.567   3.589   8.340 -2.2675 -0.6526 -1.0887
 2956SOL    HW220505   1.430   3.656   8.340  0.8473 -0.5096 -1.9205
 2957SOL     OW20506   3.071   4.581   3.279  0.7693  0.6545  0.1859
 2957SOL    HW120507   3.100   4.492   3.295  0.6743  0.6945  0.5838
 2957SOL    HW220508   2.976   4.578   3.266  0.5348 -0.5154  2.1717
 2958SOL     OW20509   1.974   2.308   1.862  0.1936 -0.0720  0.0915
 2958SOL    HW120510   1.916   2.246   1.906  0.7887  0.8267  2.1658
 2958SOL    HW220511   1.917   2.371   1.817 -0.3759  0.0371  0.9552
 2959SOL     OW20512   2.221   0.312   7.817  0.0671  0.3477 -1.0892
 2959SOL    HW120513   2.145   0.256   7.802 -0.8955  1.4728 -0.3553
 2959SOL    HW220514   2.290   0.254   7.784  0.2255 -0.6696  1.0535
 2960SOL     OW20515   0.373   1.941   1.654  0.3295 -0.3573 -0.1339
 2960SOL    HW120516   0.440   2.010   1.651 -0.7576  0.8171  3.4694
 2960SOL    HW220517   0.298   1.983   1.695  1.5504 -0.1565  1.8581
 2961SOL     OW20518   2.615   4.265   1.160 -0.5503  0.0358 -0.0081
 2961SOL    HW120519   2.558   4.197   1.196  1.5139 -2.3457 -1.2973
 2961SOL    HW220520   2.693   4.253   1.215  0.9337  3.0418 -1.4183
 2962SOL     OW20521   2.567   0.888   2.610  0.1243 -0.1040  0.3150
 2962SOL    HW120522   2.490   0.942   2.628  0.1530  0.4332 -1.1436
 2962SOL    HW220523   2.553   0.842   2.527 -2.1415 -2.0519  1.7809
 2963SOL     OW20524   4.398   0.480   4.583  0.4832 -0.2116  0.4812
 2963SOL    HW120525   4.412   0.575   4.583  1.1359 -0.2869 -2.0826
 2963SOL    HW220526   4.302   0.473   4.590  0.4400 -0.8184 -0.6013
 2964SOL     OW20527   3.037   3.229   2.847 -0.1504 -0.3733  0.0699
 2964SOL    HW120528   2.956   3.235   2.797  0.1519  4.2930  0.1534
 2964SOL    HW220529   3.068   3.319   2.836 -0.3949 -0.1877  0.8818
 2965SOL     OW20530   2.703   4.135  17.626 -0.6305  0.0736  0.7612
 2965SOL    HW120531   2.658   4.071  17.681 -2.5398  0.9161  0.1771
 2965SOL    HW220532   2.695   4.089  17.542 -0.0217  0.3487  0.5539
 2966SOL     OW20533   3.977   3.636   5.457  0.0226 -0.3674  0.0343
 2966SOL    HW120534   3.895   3.588   5.442 -0.5786  0.5589  0.3398
 2966SOL    HW220535   3.958   3.704   5.522 -0.5695 -0.7706  0.2888
 2967SOL     OW20536   0.772   1.691   8.239 -0.1318 -0.1324 -0.3694
 2967SOL    HW120537   0.758   1.614   8.183 -0.8552 -0.0228 -0.3327
 2967SOL    HW220538   0.837   1.741   8.189  0.0661 -1.7980 -1.7668
 2968SOL     OW20539   2.074   1.812  10.303 -0.0045  0.4818  0.4945
 2968SOL    HW120540   2.097   1.870  10.230 -1.4397  0.5684  0.1004
 2968SOL    HW220541   2.157   1.783  10.341 -0.4064 -0.5844  0.5522
 2969SOL     OW20542   0.604   2.646  11.594 -0.0455  0.2747  0.4672
 2969SOL    HW120543   0.622   2.735  11.564  0.1568  0.0532 -0.0795
 2969SOL    HW220544   0.514   2.657  11.623 -0.3107  1.3274 -0.7478
 2970SOL     OW20545   2.854   0.527   1.776 -0.2461 -0.0209  0.3589
 2970SOL    HW120546   2.864   0.620   1.795 -1.3304  0.3360 -0.8738
 2970SOL    HW220547   2.939   0.513   1.733 -0.3178  2.4072 -0.5983
 2971SOL     OW20548   0.966   2.132   4.488  0.4901  0.3212  0.1058
 2971SOL    HW120549   1.047   2.085   4.509 -0.5727 -2.0852 -1.2179
 2971SOL    HW220550   0.928   2.073   4.423  1.2715 -1.7811  1.5366
 2972SOL     OW20551   2.195   4.524   5.297  0.3485  0.7731  0.4603
 2972SOL    HW120552   2.113   4.475   5.304  1.0622 -0.5955 -0.5683
 2972SOL    HW220553   2.191   4.593   5.362  3.9573  2.1471 -0.7583
 2973SOL     OW20554   1.500   2.196   2.100  0.0372  0.4200 -0.1137
 2973SOL    HW120555   1.440   2.218   2.028 -0.6041  1.9477  0.8774
 2973SOL    HW220556   1.463   2.118   2.140  5.5183 -2.4252 -0.5874
 2974SOL     OW20557   1.820   2.462   6.627 -0.1896 -0.4051 -0.4343
 2974SOL    HW120558   1.744   2.494   6.677  0.6799 -0.6241  1.0438
 2974SOL    HW220559   1.872   2.451   6.707  2.1998 -1.4445 -2.1353
 2975SOL     OW20560   1.644   2.983  11.881  0.6088 -0.2342 -0.1497
 2975SOL    HW120561   1.727   2.960  11.839  0.3729 -0.9496 -0.2229
 2975SOL    HW220562   1.659   2.945  11.968 -0.8845  0.2281  0.3193
 2976SOL     OW20563   4.640   1.705   0.453 -0.0753 -0.1957 -0.2825
 2976SOL    HW120564   4.665   1.665   0.371  0.2723 -1.5256  0.4808
 2976SOL    HW220565   4.714   1.671   0.503  0.7697  0.2774 -1.2227
 2977SOL     OW20566   4.176   3.723   8.236  0.8826  0.1165  0.7964
 2977SOL    HW120567   4.205   3.807   8.200  1.8718 -1.2077 -1.4780
 2977SOL    HW220568   4.113   3.703   8.167  0.1559  0.7859  1.2576
 2978SOL     OW20569   3.882   1.412   7.104  0.0827  0.6732  0.2333
 2978SOL    HW120570   3.938   1.368   7.168  1.0065 -1.1030 -1.7782
 2978SOL    HW220571   3.806   1.355   7.090  0.6726 -0.2207  0.6459
 2979SOL     OW20572   0.562   4.103   1.945 -0.3831  0.0796  0.1023
 2979SOL    HW120573   0.637   4.054   1.910 -0.2080 -0.2528  0.9406
 2979SOL    HW220574   0.615   4.177   1.975  1.1333 -1.2473  0.7227
 2980SOL     OW20575   1.145   1.359   4.552  0.1732  0.4816  0.6174
 2980SOL    HW120576   1.066   1.332   4.506 -0.2815 -0.5936  2.0129
 2980SOL    HW220577   1.192   1.387   4.473  0.4530 -0.4183  0.4641
 2981SOL     OW20578   3.667   3.323   2.951  0.4147  0.4042 -0.1589
 2981SOL    HW120579   3.661   3.246   2.894  3.6800  0.1251 -0.1082
 2981SOL    HW220580   3.762   3.319   2.956  0.4171 -0.1443 -0.4940
 2982SOL     OW20581   2.084   0.173  17.643  0.5213 -0.1475 -0.4078
 2982SOL    HW120582   2.095   0.088  17.686  3.9089  0.7863  0.5996
 2982SOL    HW220583   2.057   0.149  17.555  0.0635 -0.2397 -0.2417
 2983SOL     OW20584   2.738   2.434   3.899 -0.0345  0.1431 -0.3859
 2983SOL    HW120585   2.718   2.375   3.826  2.5712 -0.4251 -0.6205
 2983SOL    HW220586   2.716   2.376   3.972 -0.3309  1.1659  0.3389
 2984SOL     OW20587   0.101   2.262   0.734  0.0255  0.4382  0.1669
 2984SOL    HW120588   0.026   2.204   0.727  1.0696 -0.7449 -1.1048
 2984SOL    HW220589   0.173   2.199   0.734  1.0534  1.5832  1.5708
 2985SOL     OW20590   0.865   2.667   6.694 -0.3402 -0.2684  0.6703
 2985SOL    HW120591   0.792   2.721   6.666 -0.7633 -0.7978  0.7570
 2985SOL    HW220592   0.815   2.594   6.730 -1.9914  0.7140  0.3427
 2986SOL     OW20593   1.132   4.326   2.276 -0.2410  0.6666  0.0384
 2986SOL    HW120594   1.105   4.303   2.366 -0.6820  0.8858 -0.0368
 2986SOL    HW220595   1.173   4.243   2.251  1.5678  1.4228  0.5267
 2987SOL     OW20596   0.599   1.431   6.734 -0.6453  0.0057  0.7729
 2987SOL    HW120597   0.560   1.365   6.677 -0.3943 -0.1404  0.7730
 2987SOL    HW220598   0.611   1.511   6.684  1.0033  1.0253  2.7879
 2988SOL     OW20599   3.167   0.490   8.674  0.0804  0.1701 -0.5111
 2988SOL    HW120600   3.162   0.406   8.720  0.7959  0.0556 -0.6404
 2988SOL    HW220601   3.075   0.514   8.669  0.0259  0.5324  2.0087
 2989SOL     OW20602   2.418   1.885   8.626 -0.5119  0.3294  0.0884
 2989SOL    HW120603   2.492   1.892   8.686 -0.2024 -0.7205 -0.1592
 2989SOL    HW220604   2.375   1.807   8.663  1.2687 -0.8198 -0.2561
 2990SOL     OW20605   1.804   2.093   3.577 -0.2068  0.1903 -0.3605
 2990SOL    HW120606   1.769   2.131   3.496 -1.2945 -1.2827 -0.5750
 2990SOL    HW220607   1.785   2.001   3.561 -0.4946 -0.1694  2.0593
 2991SOL     OW20608   1.956   2.982   2.770 -0.3789  0.1566 -0.1578
 2991SOL    HW120609   1.971   3.024   2.686 -0.5295 -0.6478 -0.5859
 2991SOL    HW220610   1.899   2.912   2.740  0.8615 -0.6994 -0.5373
 2992SOL     OW20611   3.421   0.367   2.217  0.3936  0.0567 -0.1533
 2992SOL    HW120612   3.374   0.297   2.263 -0.6207  1.1377  0.4470
 2992SOL    HW220613   3.347   0.426   2.203  0.2473 -0.0793  0.0359
 2993SOL     OW20614   4.351   1.361   3.084 -0.3601 -0.4833  0.0941
 2993SOL    HW120615   4.357   1.431   3.150 -0.4922  0.5273 -0.9762
 2993SOL    HW220616   4.259   1.371   3.059  0.1694  1.6147 -0.9427
 2994SOL     OW20617   2.874   1.039   6.976 -0.2025  0.0581 -0.1011
 2994SOL    HW120618   2.851   1.074   6.890  0.3546 -0.5999 -0.5149
 2994SOL    HW220619   2.787   1.029   7.016  0.2833  1.1792  1.2021
 2995SOL     OW20620   3.605   0.129   6.411 -0.1997 -0.2223  0.1541
 2995SOL    HW120621   3.657   0.199   6.370  1.2848 -0.0145  2.3939
 2995SOL    HW220622   3.514   0.148   6.388 -0.6789 -2.4453  0.2255
 2996SOL     OW20623   2.926   0.575   8.660  0.2094 -1.6414 -0.4533
 2996SOL    HW120624   2.949   0.662   8.628  0.4255 -0.7751  2.0752
 2996SOL    HW220625   2.864   0.544   8.594 -0.7363 -2.0374  0.6255
 2997SOL     OW20626   4.172   0.356   6.682  0.4491  0.3800 -0.9778
 2997SOL    HW120627   4.217   0.440   6.678  0.3120  0.5281  0.5231
 2997SOL    HW220628   4.168   0.342   6.776  0.5202  1.0147 -0.8792
 2998SOL     OW20629   0.528   4.383  16.079  0.1930  0.1098  0.3127
 2998SOL    HW120630   0.616   4.389  16.040 -0.1019  2.5529  0.0526
 2998SOL    HW220631   0.473   4.372  16.002  0.4600 -1.2219  0.3049
 2999SOL     OW20632   2.563   3.901   7.358 -0.6235 -0.1488  0.3498
 2999SOL    HW120633   2.623   3.842   7.405 -3.1754 -1.4557  1.9701
 2999SOL    HW220634   2.486   3.844   7.363  0.6532 -1.7469  2.2611
 3000SOL     OW20635   1.266   2.200   5.400  0.1809 -0.5872 -0.3127
 3000SOL    HW120636   1.226   2.241   5.476  1.1595  2.0399 -1.2175
 3000SOL    HW220637   1.359   2.211   5.420 -0.2370  1.6020  0.4172
 3001SOL     OW20638   1.098   4.396   8.615 -0.2332  0.1589  0.3315
 3001SOL    HW120639   1.059   4.366   8.533  1.4796  0.1205 -0.4684
 3001SOL    HW220640   1.087   4.491   8.609 -0.9240  0.0160 -0.6080
 3002SOL     OW20641   3.886   0.488   1.061 -0.1089  0.2010 -0.0158
 3002SOL    HW120642   3.849   0.575   1.050 -2.6691 -0.9198 -0.1854
 3002SOL    HW220643   3.918   0.475   0.972  1.7520 -0.3759  0.7268
 3003SOL     OW20644   1.505   1.160  10.888 -0.1757 -0.1604  0.3349
 3003SOL    HW120645   1.543   1.092  10.943  0.2321 -0.5534 -0.4267
 3003SOL    HW220646   1.465   1.225  10.946  3.3087  1.5782  0.7966
 3004SOL     OW20647   1.644   4.118   2.659  0.5220 -0.0527 -0.5988
 3004SOL    HW120648   1.637   4.058   2.585  2.1180  1.2056 -1.7596
 3004SOL    HW220649   1.562   4.166   2.650 -0.2589 -1.3885 -0.6530
 3005SOL     OW20650   4.032   1.995  13.111 -0.2710 -0.8830  0.9020
 3005SOL    HW120651   4.057   2.077  13.155  0.6442 -0.7785  0.1864
 3005SOL    HW220652   4.012   2.027  13.023  0.8433  2.0260  1.7019
 3006SOL     OW20653   1.282   0.012   5.765  0.2691  0.2256 -0.0793
 3006SOL    HW120654   1.332   0.093   5.776 -0.6496  1.0282 -1.7043
 3006SOL    HW220655   1.227   0.025   5.688 -1.2201 -1.0553  0.7633
 3007SOL     OW20656   2.481   1.631   6.094  0.5269  0.5859  0.5150
 3007SOL    HW120657   2.402   1.578   6.081 -0.9518  2.3447  2.3002
 3007SOL    HW220658   2.536   1.579   6.036 -4.3495 -2.4956 -1.3654
 3008SOL     OW20659   4.283   2.290   4.565 -0.3220 -0.3842 -0.4009
 3008SOL    HW120660   4.308   2.214   4.619  0.8306  0.2634 -0.0102
 3008SOL    HW220661   4.278   2.358   4.631  0.8177 -0.7153  0.0366
 3009SOL     OW20662   2.331   3.204   5.087  0.2528  0.0163 -0.5097
 3009SOL    HW120663   2.252   3.155   5.062  1.5218 -2.1352 -0.3792
 3009SOL    HW220664   2.352   3.242   5.002 -1.3442 -0.5500 -1.1649
 3010SOL     OW20665   1.996   1.735   5.575 -0.0531  0.2054 -0.7712
 3010SOL    HW120666   2.067   1.794   5.603 -1.1187  0.7125  0.8435
 3010SOL    HW220667   1.952   1.721   5.659 -1.3983 -0.2725 -1.5711
 3011SOL     OW20668   0.978   3.807   7.924  0.1118  0.1821 -0.2182
 3011SOL    HW120669   1.038   3.870   7.964  0.3911  0.5430 -1.2160
 3011SOL    HW220670   0.899   3.819   7.976 -1.0805 -0.2374 -1.9472
 3012SOL     OW20671   2.581   2.519   1.724 -0.1713  0.0794 -0.1621
 3012SOL    HW120672   2.553   2.453   1.787  1.8896  0.4321  1.1209
 3012SOL    HW220673   2.670   2.489   1.704  0.8675  2.4714  0.8186
 3013SOL     OW20674   0.288   3.146   1.441  0.5265  0.6754 -0.0613
 3013SOL    HW120675   0.229   3.108   1.506 -0.1042  1.2667 -0.2861
 3013SOL    HW220676   0.378   3.140   1.473  0.9309 -1.7174 -1.6416
 3014SOL     OW20677   4.362   3.781   8.587  0.0463  0.0676  0.3444
 3014SOL    HW120678   4.417   3.769   8.664  1.8789 -4.6604 -1.6955
 3014SOL    HW220679   4.394   3.868   8.563  1.2732 -0.2826  0.6869
 3015SOL     OW20680   3.604   0.675  13.900  0.4147 -0.5023 -0.1693
 3015SOL    HW120681   3.627   0.583  13.882  0.1156 -0.4179 -0.9830
 3015SOL    HW220682   3.667   0.699  13.968  0.0687 -1.3309  0.4449
 3016SOL     OW20683   3.326   3.517   9.580  0.4522  0.6264  0.0747
 3016SOL    HW120684   3.391   3.490   9.645  0.1401 -0.8388 -0.2135
 3016SOL    HW220685   3.310   3.609   9.602  2.1103  1.4070 -2.0876
 3017SOL     OW20686   2.313   0.111   4.992  0.4236  0.1515  0.1330
 3017SOL    HW120687   2.397   0.140   4.956  0.4425 -0.8231 -0.6052
 3017SOL    HW220688   2.341   0.024   5.021  1.3057  1.1894  2.3946
 3018SOL     OW20689   1.907   2.108   4.590  0.2236 -0.2168 -0.2997
 3018SOL    HW120690   1.826   2.056   4.589 -0.8805  1.5099  0.3107
 3018SOL    HW220691   1.965   2.073   4.522  0.8874 -0.7401  0.5410
 3019SOL     OW20692   0.327   0.278  15.340 -0.3709  0.1374  0.1705
 3019SOL    HW120693   0.321   0.355  15.283  2.3840 -0.2808 -0.6696
 3019SOL    HW220694   0.410   0.295  15.384 -0.4287  0.0233  0.3227
 3020SOL     OW20695   0.593   3.006  11.840 -0.1978  0.7547  0.4612
 3020SOL    HW120696   0.650   3.014  11.916  1.9374  0.5046 -1.1152
 3020SOL    HW220697   0.627   3.083  11.795  0.6820  0.6750  1.0077
 3021SOL     OW20698   0.861   3.205   2.084  0.2598  0.0080 -0.4826
 3021SOL    HW120699   0.881   3.298   2.076  2.4532 -0.5968 -2.0876
 3021SOL    HW220700   0.779   3.205   2.035  0.5869 -0.4163 -1.0307
 3022SOL     OW20701   3.690   0.983   8.274  0.0375  0.6108  0.0615
 3022SOL    HW120702   3.740   0.969   8.354 -0.4673  2.8997  0.7820
 3022SOL    HW220703   3.606   0.973   8.320  0.0520  0.3341  0.0292
 3023SOL     OW20704   0.409   2.157  11.318  0.1902 -0.8875  0.1971
 3023SOL    HW120705   0.469   2.194  11.383  1.6730 -2.4137 -0.3004
 3023SOL    HW220706   0.474   2.137  11.250 -0.7478  0.3227 -1.0722
 3024SOL     OW20707   0.168   0.029   2.627  0.4183 -0.6442 -0.1934
 3024SOL    HW120708   0.089   4.731   2.583 -1.3070  0.5276  2.0263
 3024SOL    HW220709   0.198   0.090   2.560 -1.1256  0.7407  0.3801
 3025SOL     OW20710   4.616   0.759   5.865  0.0741  0.5184  0.0214
 3025SOL    HW120711   4.556   0.819   5.822 -1.8911 -0.5035  1.3035
 3025SOL    HW220712   4.701   0.786   5.831  0.1964 -1.1453 -1.0106
 3026SOL     OW20713   2.304   1.285   9.633  0.6271  0.1959  0.6016
 3026SOL    HW120714   2.240   1.214   9.644  1.4844 -1.0884 -2.6436
 3026SOL    HW220715   2.299   1.287   9.537  2.8393  0.5578  0.4993
 3027SOL     OW20716   4.381   4.391   4.184  0.0916 -0.2764  0.4057
 3027SOL    HW120717   4.431   4.310   4.182 -0.2754 -0.4349 -2.1460
 3027SOL    HW220718   4.333   4.364   4.106 -0.7988 -0.0032  0.8575
 3028SOL     OW20719   3.757   4.666   4.358  0.4556  0.3879 -0.0094
 3028SOL    HW120720   3.831   4.629   4.311 -0.7065 -0.8153 -0.8872
 3028SOL    HW220721   3.712   4.584   4.378 -0.9382  1.3034  0.6230
 3029SOL     OW20722   2.628   3.200   4.916  0.7174  0.2477 -0.7419
 3029SOL    HW120723   2.598   3.274   4.863 -0.2413 -0.6410 -1.4525
 3029SOL    HW220724   2.595   3.126   4.864 -3.4846  0.4414  1.6977
 3030SOL     OW20725   4.341   0.131  13.566  0.3243 -0.2472 -0.0605
 3030SOL    HW120726   4.348   0.159  13.658  1.7338  2.1438 -0.8882
 3030SOL    HW220727   4.407   0.195  13.540  0.9656 -0.6628  0.5498
 3031SOL     OW20728   3.553   4.484   7.196 -0.2587  0.0153 -0.1513
 3031SOL    HW120729   3.601   4.529   7.265 -1.3443  0.5195  0.2783
 3031SOL    HW220730   3.500   4.559   7.170  1.1588  0.8692 -0.5590
 3032SOL     OW20731   0.188   2.814   9.032  0.0708  0.4587 -0.4730
 3032SOL    HW120732   0.126   2.790   9.101 -1.3282 -1.2691 -2.3075
 3032SOL    HW220733   0.134   2.789   8.957  0.9470 -1.5885 -0.4224
 3033SOL     OW20734   4.678   1.345   4.446 -0.4816 -0.1457 -0.6420
 3033SOL    HW120735   4.633   1.298   4.376 -0.0979 -0.3380 -0.7608
 3033SOL    HW220736   4.630   1.428   4.445  2.4285  1.5353  1.1441
 3034SOL     OW20737   2.264   1.295   7.925 -0.0800  0.1357  0.2738
 3034SOL    HW120738   2.307   1.224   7.972  1.6584 -0.0531 -1.6122
 3034SOL    HW220739   2.339   1.316   7.870 -1.4614  0.0738 -1.6514
 3035SOL     OW20740   3.579   2.353  15.094 -0.2040 -0.3448  0.1480
 3035SOL    HW120741   3.527   2.273  15.094 -2.4409  1.1020 -0.2818
 3035SOL    HW220742   3.664   2.321  15.124  0.8577  1.8240 -0.5676
 3036SOL     OW20743   0.832   3.785   7.682  0.8757  0.3824 -0.5578
 3036SOL    HW120744   0.871   3.767   7.768  0.6157  0.7820 -0.3570
 3036SOL    HW220745   0.783   3.703   7.678  1.1215  0.2505 -0.9260
 3037SOL     OW20746   3.119   4.397  16.313 -0.3609  0.0392  0.1442
 3037SOL    HW120747   3.163   4.416  16.230  0.6492 -1.7222  0.2512
 3037SOL    HW220748   3.115   4.483  16.354 -1.0395  0.4405 -0.7639
 3038SOL     OW20749   3.678   4.045   1.875  0.0992  0.0002  0.1146
 3038SOL    HW120750   3.587   4.015   1.872 -0.2110  0.9668 -0.4016
 3038SOL    HW220751   3.707   3.976   1.934 -0.6450  0.2523  0.7732
 3039SOL     OW20752   2.411   4.626  17.094  0.2063 -0.3277  0.6259
 3039SOL    HW120753   2.426   4.704  17.041  0.4271 -1.0382 -0.3518
 3039SOL    HW220754   2.368   4.571  17.029 -1.1302  1.5878 -0.0929
 3040SOL     OW20755   0.641   4.682   6.029 -0.2346 -0.1967 -0.6469
 3040SOL    HW120756   0.697   4.618   5.985 -1.1546 -0.8232 -0.9226
 3040SOL    HW220757   0.566   4.630   6.058  0.7170 -1.1050  0.1533
 3041SOL     OW20758   3.143   1.639   9.181 -0.0475 -0.4633 -0.3150
 3041SOL    HW120759   3.190   1.664   9.261 -0.9749 -0.6435  0.2784
 3041SOL    HW220760   3.185   1.694   9.116  2.0522 -0.9556  0.6073
 3042SOL     OW20761   0.254   3.809   5.356 -0.5000 -0.1254  0.1584
 3042SOL    HW120762   0.235   3.769   5.271 -0.8523 -0.9116  0.6025
 3042SOL    HW220763   0.342   3.782   5.379 -1.2556 -1.2326  1.8042
 3043SOL     OW20764   2.670   2.424   9.158 -0.1843  0.0353  0.2162
 3043SOL    HW120765   2.685   2.383   9.073  1.0792 -1.2610  1.0784
 3043SOL    HW220766   2.754   2.424   9.204 -0.0410  0.2370 -0.0418
 3044SOL     OW20767   0.942   1.003   5.557 -0.0639 -0.4630  0.5111
 3044SOL    HW120768   1.022   0.952   5.549 -0.5272 -1.2639  0.9858
 3044SOL    HW220769   0.977   1.082   5.598  0.5486  0.0421 -0.9880
 3045SOL     OW20770   4.622   2.442   4.542  0.3992  0.0509 -0.0152
 3045SOL    HW120771   4.576   2.390   4.608 -0.4337 -0.2333 -0.8196
 3045SOL    HW220772   4.552   2.502   4.515 -0.2388 -0.5920  0.1912
 3046SOL     OW20773   4.402   1.542  16.848  0.5120  0.2609  0.1814
 3046SOL    HW120774   4.387   1.519  16.757  1.1133  0.6930 -0.0250
 3046SOL    HW220775   4.495   1.519  16.853  0.5769 -0.0475 -2.6069
 3047SOL     OW20776   2.637   3.203   6.147 -0.1149  0.3968  0.6323
 3047SOL    HW120777   2.596   3.187   6.232  0.0242  0.4186  0.7030
 3047SOL    HW220778   2.570   3.192   6.079  1.2135  1.4681 -0.8376
 3048SOL     OW20779   0.744   0.947   3.533  0.0315 -0.1189  0.0804
 3048SOL    HW120780   0.710   0.873   3.583 -0.5183  0.6894  0.9009
 3048SOL    HW220781   0.804   0.990   3.594 -0.2749 -0.2171  0.4520
 3049SOL     OW20782   1.978   2.177   9.675 -0.2486 -0.5375 -0.3195
 3049SOL    HW120783   1.890   2.138   9.680 -0.4504 -0.1563 -0.8357
 3049SOL    HW220784   1.958   2.215   9.589 -4.0529 -1.9335 -0.0467
 3050SOL     OW20785   3.996   3.981   7.489  0.7002 -0.9303 -0.4484
 3050SOL    HW120786   4.018   3.961   7.580 -3.8356  0.1898  0.8448
 3050SOL    HW220787   3.960   3.902   7.448  2.7674 -1.2029 -1.7601
 3051SOL     OW20788   0.246   3.968  11.992 -0.3297 -0.4287 -0.2483
 3051SOL    HW120789   0.217   4.054  11.962  0.3711  0.4834  1.6891
 3051SOL    HW220790   0.172   3.930  12.039 -0.2129 -0.6849 -0.2723
 3052SOL     OW20791   1.186   0.119   7.942 -0.0727  0.2512 -0.1982
 3052SOL    HW120792   1.119   0.133   7.876  1.3271 -0.6642 -1.8277
 3052SOL    HW220793   1.269   0.151   7.905 -1.1283  2.0983 -0.9533
 3053SOL     OW20794   2.767   2.939  14.726  0.2657  0.3440 -0.5606
 3053SOL    HW120795   2.717   2.864  14.758 -0.4648 -0.1580 -2.8681
 3053SOL    HW220796   2.828   2.956  14.798 -3.0259  0.3320  2.2032
 3054SOL     OW20797   3.206   0.758   4.310  0.0187 -0.0938 -0.3622
 3054SOL    HW120798   3.154   0.820   4.259 -2.5869 -1.9401  0.0767
 3054SOL    HW220799   3.167   0.671   4.301  0.4991 -0.1513 -1.8797
 3055SOL     OW20800   2.911   1.534   5.221  0.3226  0.5953  0.2368
 3055SOL    HW120801   3.002   1.558   5.203  1.4903 -3.5069  0.6524
 3055SOL    HW220802   2.877   1.530   5.131 -0.9504 -0.9514  0.7840
 3056SOL     OW20803   2.111   3.443  14.217  0.4139  0.0171 -0.6049
 3056SOL    HW120804   2.170   3.508  14.179  0.8711 -1.9485 -3.2241
 3056SOL    HW220805   2.033   3.449  14.162  0.6804 -0.8364 -1.0772
 3057SOL     OW20806   1.417   1.778  15.043  0.1855 -1.2989 -0.3227
 3057SOL    HW120807   1.356   1.842  15.006 -0.2952 -0.2792  2.2253
 3057SOL    HW220808   1.464   1.761  14.961  2.5643  1.3704  0.4716
 3058SOL     OW20809   3.461   0.054   1.731 -0.2660 -0.0578 -0.1405
 3058SOL    HW120810   3.410   0.128   1.699  1.1273  1.4878  1.2441
 3058SOL    HW220811   3.521   0.093   1.795  1.0855 -1.7885 -0.3431
 3059SOL     OW20812   0.062   1.898  10.382 -0.5902 -0.2152  0.3148
 3059SOL    HW120813   0.031   1.945  10.305  0.8350  2.6976  1.5406
 3059SOL    HW220814   4.733   1.826  10.385  0.8331 -1.5403 -1.5510
 3060SOL     OW20815   1.506   1.436   7.858 -0.1560 -1.1119 -0.0082
 3060SOL    HW120816   1.461   1.364   7.902  0.4530 -1.5083 -0.0330
 3060SOL    HW220817   1.514   1.502   7.926  2.6045 -0.0715 -1.3024
 3061SOL     OW20818   2.894   0.907   8.878  0.1534  0.0414  0.5158
 3061SOL    HW120819   2.957   0.963   8.924  0.4525  1.0821 -1.1575
 3061SOL    HW220820   2.915   0.825   8.924  0.7877  0.5883  1.1963
 3062SOL     OW20821   1.046   0.550   3.965 -0.1825  0.5070  0.2761
 3062SOL    HW120822   1.086   0.559   3.879 -0.1780 -1.0395  0.1308
 3062SOL    HW220823   0.954   0.564   3.946  0.1278 -1.5083 -2.7339
 3063SOL     OW20824   3.289   2.831   4.359  0.3710 -0.2217 -0.0168
 3063SOL    HW120825   3.296   2.760   4.422  0.9450  0.8129  1.0979
 3063SOL    HW220826   3.235   2.894   4.407 -0.7161 -0.3279 -1.1026
 3064SOL     OW20827   1.703   0.301  17.608 -0.0033  0.0394  0.0662
 3064SOL    HW120828   1.689   0.347  17.525 -0.9121  0.7067  0.5827
 3064SOL    HW220829   1.782   0.347  17.638  0.1752 -0.5620  0.5179
 3065SOL     OW20830   2.784   0.994   3.837  0.3009 -0.6401 -0.1015
 3065SOL    HW120831   2.825   0.975   3.752  0.3652 -1.7813  0.1748
 3065SOL    HW220832   2.839   0.949   3.901  0.8784 -0.6759 -0.6234
 3066SOL     OW20833   2.036   3.957   4.326  0.0431  0.3222  0.0115
 3066SOL    HW120834   2.117   4.004   4.345  0.5714 -0.5792 -0.0296
 3066SOL    HW220835   2.071   3.914   4.248  2.0177  4.0809 -1.1746
 3067SOL     OW20836   1.516   3.782   0.436  0.2426 -0.6697 -0.3822
 3067SOL    HW120837   1.499   3.868   0.397 -0.7565 -1.4326 -1.5982
 3067SOL    HW220838   1.437   3.769   0.487 -0.7437 -0.1169 -1.7863
 3068SOL     OW20839   0.126   1.398  13.804  0.2371 -0.2886  0.1999
 3068SOL    HW120840   0.209   1.427  13.841 -0.1428 -0.1662  0.9506
 3068SOL    HW220841   0.098   1.472  13.750 -1.9085 -0.9558  0.4199
 3069SOL     OW20842   3.753   1.281   1.605 -0.7364  0.3455  0.4298
 3069SOL    HW120843   3.816   1.219   1.641 -3.4135 -2.6298 -0.0349
 3069SOL    HW220844   3.730   1.236   1.524  0.8573  1.1570 -0.4628
 3070SOL     OW20845   2.991   2.042   3.071  0.2283 -0.2858 -0.2721
 3070SOL    HW120846   3.058   1.986   3.031  2.1421  1.5855  0.2590
 3070SOL    HW220847   3.043   2.109   3.116 -3.2457  0.9822  1.8352
 3071SOL     OW20848   1.441   2.511   3.548  0.0183 -0.1401 -0.2277
 3071SOL    HW120849   1.445   2.476   3.459 -1.5961  0.1317 -0.4093
 3071SOL    HW220850   1.528   2.545   3.570  0.2565  0.1623 -1.6848
 3072SOL     OW20851   1.942   3.447   1.884 -0.0783 -0.1746 -0.2770
 3072SOL    HW120852   2.023   3.497   1.901 -0.0808 -0.3371  0.2150
 3072SOL    HW220853   1.956   3.391   1.960 -0.2077 -1.6187 -1.3186
 3073SOL     OW20854   1.045   2.155   3.749 -0.0495 -0.0581  0.0915
 3073SOL    HW120855   1.070   2.227   3.691  0.2883  0.1516  0.4943
 3073SOL    HW220856   1.131   2.125   3.779  0.7417  1.5403 -0.5299
 3074SOL     OW20857   0.162   3.976   9.045  0.0626  0.2490  0.2638
 3074SOL    HW120858   0.194   3.916   9.112  1.6807  1.9574  1.0414
 3074SOL    HW220859   0.245   4.024   9.036 -0.4146  0.6097 -2.1977
 3075SOL     OW20860   2.015   0.712   4.776 -0.2749  0.5408 -0.0565
 3075SOL    HW120861   2.053   0.779   4.832  1.5304 -0.7279  0.2334
 3075SOL    HW220862   2.077   0.697   4.704 -0.0168  0.4515  0.1855
 3076SOL     OW20863   0.170   3.778   4.164  0.3007  0.6310 -0.3269
 3076SOL    HW120864   0.116   3.738   4.232  1.0807 -0.7972 -0.5438
 3076SOL    HW220865   0.247   3.790   4.221 -0.1614 -4.1222  1.2888
 3077SOL     OW20866   4.573   4.498   3.482 -0.3313  0.1222 -0.1019
 3077SOL    HW120867   4.505   4.439   3.514 -0.7827  0.1020 -1.1123
 3077SOL    HW220868   4.550   4.502   3.389 -1.0051 -2.4799 -0.0680
 3078SOL     OW20869   2.065   3.232   2.023  0.0594  0.3735  0.1342
 3078SOL    HW120870   2.093   3.175   2.095 -1.0042 -0.4848 -0.1420
 3078SOL    HW220871   1.986   3.187   1.995 -0.4270  1.8330 -0.8651
 3079SOL     OW20872   4.262   0.465   5.139 -0.0562 -0.2825 -0.0033
 3079SOL    HW120873   4.221   0.519   5.072 -1.2018 -0.4936  0.5310
 3079SOL    HW220874   4.316   0.526   5.189 -0.4865  0.5675 -0.5777
 3080SOL     OW20875   0.762   4.602   8.088 -0.8745  0.7869 -0.3241
 3080SOL    HW120876   0.825   4.674   8.092  0.8611 -0.6073 -2.8159
 3080SOL    HW220877   0.807   4.539   8.032  1.3308  0.3570  1.9462
 3081SOL     OW20878   4.439   3.400   7.525 -0.9783 -0.0518  0.1217
 3081SOL    HW120879   4.395   3.474   7.566 -0.2272  0.5742 -0.2014
 3081SOL    HW220880   4.378   3.394   7.451 -1.1596  1.4419  0.1632
 3082SOL     OW20881   0.327   1.422  11.910 -0.1392  0.6280  0.0180
 3082SOL    HW120882   0.293   1.471  11.985  0.8381  0.7905  0.3484
 3082SOL    HW220883   0.260   1.364  11.874 -0.3164  0.1619  1.1362
 3083SOL     OW20884   3.233   1.064   1.856  0.1796 -0.5547  0.0994
 3083SOL    HW120885   3.221   1.003   1.928  0.6219  1.6320  2.0207
 3083SOL    HW220886   3.319   1.040   1.822 -0.2266 -1.1517 -0.5136
 3084SOL     OW20887   2.163   0.937   8.830 -0.2240 -0.1557 -0.0467
 3084SOL    HW120888   2.220   0.865   8.802 -0.4026 -0.2663 -0.1254
 3084SOL    HW220889   2.155   0.989   8.750 -0.6818 -1.2236 -0.7024
 3085SOL     OW20890   1.181   1.040   1.000  0.1706 -0.1900 -0.0695
 3085SOL    HW120891   1.142   1.023   1.086 -0.3927  0.0699 -0.2780
 3085SOL    HW220892   1.103   1.023   0.949 -1.0854 -0.2511  1.8630
 3086SOL     OW20893   0.482   0.350   9.333 -0.2501 -0.4215 -0.0949
 3086SOL    HW120894   0.532   0.292   9.390  1.0242  0.3371 -0.4399
 3086SOL    HW220895   0.463   0.417   9.398  0.7040  2.1426 -2.4686
 3087SOL     OW20896   1.748   4.165  12.445  0.1062  1.0972 -0.0218
 3087SOL    HW120897   1.823   4.174  12.386  1.1073  0.5115  1.1613
 3087SOL    HW220898   1.686   4.123  12.385  2.7225 -1.7988 -0.6772
 3088SOL     OW20899   1.827   0.703   5.777 -0.3473  0.5826  0.4160
 3088SOL    HW120900   1.802   0.794   5.793 -0.9198  0.8711 -2.2991
 3088SOL    HW220901   1.787   0.677   5.694  2.1595  0.4217 -0.7376
 3089SOL     OW20902   4.048   2.204   5.054 -0.3054  0.0287  0.5445
 3089SOL    HW120903   4.136   2.171   5.036 -0.1774  1.7678 -1.8831
 3089SOL    HW220904   3.991   2.129   5.035  0.8300 -0.6580 -0.1762
 3090SOL     OW20905   2.155   0.666   2.295  0.5562 -0.1807  0.4751
 3090SOL    HW120906   2.098   0.639   2.366  0.1533 -0.4338  0.0567
 3090SOL    HW220907   2.096   0.718   2.240  0.9198 -0.2561  0.0059
 3091SOL     OW20908   4.205   4.223   4.811 -0.4942 -0.1295 -0.0249
 3091SOL    HW120909   4.136   4.272   4.857 -1.4041 -1.0215 -0.4393
 3091SOL    HW220910   4.242   4.277   4.741  0.7091 -0.7389  0.1390
 3092SOL     OW20911   3.492   2.369   3.551  0.3856  0.4408 -0.1275
 3092SOL    HW120912   3.483   2.319   3.470 -0.4874  1.4429 -0.6546
 3092SOL    HW220913   3.582   2.344   3.573 -0.1054 -0.5146  0.7475
 3093SOL     OW20914   1.356   3.282   7.488 -0.6517  0.1836 -0.1440
 3093SOL    HW120915   1.405   3.216   7.439 -1.4626  0.2453 -1.0469
 3093SOL    HW220916   1.316   3.333   7.417 -1.9141  0.0185  0.4542
 3094SOL     OW20917   1.954   4.469   7.271 -0.2749  0.2058 -0.4588
 3094SOL    HW120918   2.039   4.427   7.262 -0.3704  0.0254 -0.5089
 3094SOL    HW220919   1.933   4.473   7.178  1.6199 -2.9917 -1.0114
 3095SOL     OW20920   1.389   1.330   9.965 -0.4668 -0.6816  0.5875
 3095SOL    HW120921   1.324   1.343   9.895  0.4647 -2.6492 -0.6508
 3095SOL    HW220922   1.385   1.234   9.969  0.9364 -0.7916 -0.3629
 3096SOL     OW20923   2.139   3.875   4.098  0.3241  0.4107  0.1118
 3096SOL    HW120924   2.194   3.940   4.054  0.9822 -0.0886  0.1974
 3096SOL    HW220925   2.144   3.804   4.035  0.2670 -1.4086  2.1366
 3097SOL     OW20926   3.730   4.354  12.785 -0.1964 -0.0964  0.3368
 3097SOL    HW120927   3.674   4.367  12.709 -0.4538  1.2051  0.7452
 3097SOL    HW220928   3.775   4.273  12.762  0.4066  0.8554 -1.7827
 3098SOL     OW20929   2.363   0.476  11.574 -0.4490 -0.4650  0.0278
 3098SOL    HW120930   2.439   0.449  11.524  0.6793  2.5891  0.1151
 3098SOL    HW220931   2.371   0.449  11.666  1.1012 -0.0181  0.0156
 3099SOL     OW20932   3.941   1.362  13.825 -0.2714 -0.1577 -0.0401
 3099SOL    HW120933   3.890   1.281  13.814 -2.8957  1.2022  1.9810
 3099SOL    HW220934   4.024   1.315  13.827  1.0024  2.0656 -0.0967
 3100SOL     OW20935   2.343   3.790  10.378 -0.6916  0.6063 -0.4375
 3100SOL    HW120936   2.391   3.778  10.297 -0.2645  0.5560 -0.1759
 3100SOL    HW220937   2.367   3.880  10.402 -0.4787  0.6057 -0.6527
 3101SOL     OW20938   3.085   2.622   5.982  0.2316  0.5556 -0.7595
 3101SOL    HW120939   3.156   2.650   5.924  3.4070 -1.9304  1.9666
 3101SOL    HW220940   3.111   2.659   6.067  1.0250 -0.2556 -0.6556
 3102SOL     OW20941   4.517   1.573   9.465  0.1385  0.2093 -0.0396
 3102SOL    HW120942   4.474   1.541   9.544 -0.2973  1.8577  0.3935
 3102SOL    HW220943   4.506   1.666   9.483  1.3796  0.2869  0.3155
 3103SOL     OW20944   0.369   3.899   3.889  0.3325  0.2094  0.0365
 3103SOL    HW120945   0.387   3.982   3.844 -0.3957 -0.2280 -1.0517
 3103SOL    HW220946   0.283   3.911   3.928 -0.5210 -1.4791 -1.2947
 3104SOL     OW20947   1.925   4.124   7.772  0.3832  0.1315  0.0483
 3104SOL    HW120948   1.997   4.077   7.814 -1.3591 -1.2687  1.4756
 3104SOL    HW220949   1.860   4.054   7.771 -0.4285  0.9351 -1.5380
 3105SOL     OW20950   2.562   2.979   3.678  0.1870 -0.2929  0.0382
 3105SOL    HW120951   2.571   3.028   3.596  1.5653 -0.0032  0.3626
 3105SOL    HW220952   2.645   2.931   3.674  1.9970  2.8620 -0.0351
 3106SOL     OW20953   4.328   3.082   1.452 -0.7409  0.3402 -0.2840
 3106SOL    HW120954   4.238   3.061   1.477 -0.4006 -0.7601  0.0288
 3106SOL    HW220955   4.311   3.131   1.372  0.0717  1.6463  0.3391
 3107SOL     OW20956   1.005   4.253  17.233 -0.6625  0.1822  0.4152
 3107SOL    HW120957   1.030   4.342  17.257  1.2986 -0.0347 -0.8637
 3107SOL    HW220958   0.963   4.220  17.312 -2.1534  0.5305 -0.2309
 3108SOL     OW20959   3.208   4.463   7.811 -0.3038  0.2600  0.3353
 3108SOL    HW120960   3.290   4.511   7.802 -0.2732  0.7656  3.2945
 3108SOL    HW220961   3.216   4.402   7.737 -0.5177  0.1400  0.4114
 3109SOL     OW20962   1.575   4.492   6.655  0.4267 -0.2287 -0.2205
 3109SOL    HW120963   1.647   4.436   6.626 -0.5489 -0.5396 -2.0759
 3109SOL    HW220964   1.546   4.441   6.730  0.5825  1.4603  0.9854
 3110SOL     OW20965   4.105   0.789   5.802  0.7760 -0.1962  0.1175
 3110SOL    HW120966   4.041   0.725   5.772 -0.0021  0.5910  0.1222
 3110SOL    HW220967   4.183   0.736   5.785 -1.1694 -3.3814  1.2075
 3111SOL     OW20968   1.587   4.626   7.583  0.5611  0.0318 -0.2227
 3111SOL    HW120969   1.620   4.658   7.667  0.2934 -1.5637  0.4871
 3111SOL    HW220970   1.656   4.575   7.542  0.7654  1.9854 -2.2893
 3112SOL     OW20971   3.978   1.580   0.619 -0.1357  0.3869  0.2758
 3112SOL    HW120972   4.013   1.619   0.539  0.6134 -2.1515 -0.6510
 3112SOL    HW220973   4.060   1.577   0.669 -0.4000  2.5583  0.8402
 3113SOL     OW20974   0.985   0.033   8.158  0.5734 -0.3629  0.8315
 3113SOL    HW120975   0.982   0.128   8.162  0.3692 -0.2978 -0.5509
 3113SOL    HW220976   1.080   0.023   8.154  0.4855 -0.4142 -1.5106
 3114SOL     OW20977   1.542   1.817  12.936  0.4037  0.3124 -0.0812
 3114SOL    HW120978   1.524   1.893  12.880  0.9858  0.6074  0.1371
 3114SOL    HW220979   1.584   1.765  12.867  0.2179  0.3990 -0.2611
 3115SOL     OW20980   3.591   1.486   2.438  0.3407  0.4485 -0.6025
 3115SOL    HW120981   3.525   1.484   2.508  1.3433 -0.7252  0.3162
 3115SOL    HW220982   3.653   1.425   2.479 -0.9480 -1.8854 -2.1148
 3116SOL     OW20983   4.608   4.639   8.553 -0.0665  0.2079  0.4655
 3116SOL    HW120984   4.673   4.670   8.490 -1.4501  1.5029 -0.3051
 3116SOL    HW220985   4.542   4.611   8.490  1.4288  0.0034 -1.0062
 3117SOL     OW20986   1.906   2.312  17.036  0.0316 -0.3790 -0.0379
 3117SOL    HW120987   1.817   2.302  17.068 -0.3862  0.3839 -0.9722
 3117SOL    HW220988   1.950   2.331  17.119 -1.0009  1.7076  0.0281
 3118SOL     OW20989   1.667   0.174   5.923 -0.1290 -0.1361 -0.4102
 3118SOL    HW120990   1.616   0.095   5.941 -1.2945  0.1026 -2.5383
 3118SOL    HW220991   1.721   0.180   6.001 -1.7780 -1.5469  0.8214
 3119SOL     OW20992   3.529   4.402   0.982 -0.2578  0.1082 -0.0264
 3119SOL    HW120993   3.489   4.334   0.928 -0.1074 -0.4610  0.5757
 3119SOL    HW220994   3.583   4.441   0.914 -1.2697  0.4985 -0.6187
 3120SOL     OW20995   1.236   4.311   7.931  0.1207 -0.1775  0.2443
 3120SOL    HW120996   1.191   4.353   8.004 -0.1678  0.3677 -0.2435
 3120SOL    HW220997   1.206   4.362   7.856  1.3755  1.3858  0.7928
 3121SOL     OW20998   3.640   1.699   2.950 -0.5552  0.5173 -0.4410
 3121SOL    HW120999   3.569   1.637   2.965 -0.9393  1.1769  0.3999
 3121SOL    HW221000   3.614   1.764   3.015  0.6200  2.0481 -1.5081
 3122SOL     OW21001   0.228   0.808  11.304  0.0330 -0.4215 -0.3352
 3122SOL    HW121002   0.150   0.842  11.348  1.2332  1.9582 -0.1032
 3122SOL    HW221003   0.223   0.719  11.339 -2.5718 -0.5665 -1.0463
 3123SOL     OW21004   1.226   4.614   7.608 -0.2303 -0.2664  0.0558
 3123SOL    HW121005   1.139   4.593   7.641  0.1613  0.2023  1.3823
 3123SOL    HW221006   1.270   4.531   7.629 -0.5002  0.0914  2.0325
 3124SOL     OW21007   0.285   1.655   7.122  0.1287 -0.0715 -0.3400
 3124SOL    HW121008   0.352   1.624   7.061  0.7033  0.1330  0.1805
 3124SOL    HW221009   0.343   1.670   7.196 -1.3984  1.0566  0.6218
 3125SOL     OW21010   2.285   3.142   1.720 -0.1177 -0.2574 -0.1632
 3125SOL    HW121011   2.307   3.221   1.770 -0.7991  1.0782 -2.0022
 3125SOL    HW221012   2.197   3.163   1.690 -0.8011 -0.5763  1.5708
 3126SOL     OW21013   3.385   1.798   0.291  0.2420  0.7004  0.3614
 3126SOL    HW121014   3.418   1.880   0.328  0.0066  0.2983  1.4642
 3126SOL    HW221015   3.467   1.750   0.288 -1.4419 -2.1770  0.5268
 3127SOL     OW21016   4.328   0.645   6.402  0.5336  0.1227  0.2985
 3127SOL    HW121017   4.310   0.733   6.437  2.1976  0.6574 -0.1776
 3127SOL    HW221018   4.260   0.635   6.336 -0.7870 -1.2201  1.8637
 3128SOL     OW21019   0.688   2.821  13.174 -0.0533  0.0163 -0.4187
 3128SOL    HW121020   0.672   2.763  13.100 -0.5656 -0.3106 -0.0546
 3128SOL    HW221021   0.598   2.853  13.181 -0.4225 -1.5547  1.9985
 3129SOL     OW21022   0.881   2.442   1.762 -0.3515 -0.2746  0.3756
 3129SOL    HW121023   0.861   2.413   1.673  1.8860 -0.3476 -0.0927
 3129SOL    HW221024   0.821   2.394   1.820 -1.3970  0.3035 -0.2224
 3130SOL     OW21025   1.932   1.308   0.039  0.3182 -0.2129 -0.4335
 3130SOL    HW121026   1.976   1.383   0.079  2.2759 -0.9729 -1.1447
 3130SOL    HW221027   1.840   1.320   0.061 -0.0752 -0.3111 -1.9944
 3131SOL     OW21028   4.633   0.457   4.960  0.5665  0.3017 -0.7057
 3131SOL    HW121029   4.659   0.373   4.997 -1.2439 -0.8127 -1.9943
 3131SOL    HW221030   4.556   0.437   4.907 -0.4608  0.7163  0.6333
 3132SOL     OW21031   4.712   1.287   7.767  0.3516 -0.3199 -0.1055
 3132SOL    HW121032   0.038   1.243   7.826 -2.1297 -1.3497  1.6919
 3132SOL    HW221033   4.649   1.220   7.740 -0.1500 -0.3614  1.2041
 3133SOL     OW21034   4.547   0.296   3.139  0.4983  0.3242  0.1491
 3133SOL    HW121035   4.633   0.314   3.101  0.9203 -2.8416 -0.3907
 3133SOL    HW221036   4.533   0.380   3.182  0.1550  0.7671 -0.8084
 3134SOL     OW21037   0.082   2.365   2.620 -0.0155  1.3713  0.0535
 3134SOL    HW121038   0.158   2.354   2.563  0.3932  1.1625  0.6322
 3134SOL    HW221039   0.116   2.369   2.710 -2.2131  0.8527  0.9117
 3135SOL     OW21040   4.307   4.497   0.425 -0.0342  0.2023 -0.2739
 3135SOL    HW121041   4.238   4.549   0.466 -0.5455 -1.7722  1.3557
 3135SOL    HW221042   4.311   4.538   0.339  0.7176 -0.1685 -0.4194
 3136SOL     OW21043   2.666   2.657   8.836 -0.1283 -0.0540 -0.0602
 3136SOL    HW121044   2.610   2.596   8.790  1.7469 -0.3611 -1.9224
 3136SOL    HW221045   2.749   2.611   8.843 -0.7014 -0.5208  3.6434
 3137SOL     OW21046   1.732   4.503   2.281 -0.0954 -0.6326 -0.5118
 3137SOL    HW121047   1.729   4.477   2.373  0.1302  2.5857  0.4221
 3137SOL    HW221048   1.825   4.495   2.264 -0.1046  1.8352 -1.7869
 3138SOL     OW21049   0.713   3.778  11.383 -0.4746  0.2789 -0.0835
 3138SOL    HW121050   0.742   3.861  11.422  0.0249  0.5439 -1.0098
 3138SOL    HW221051   0.641   3.809  11.328 -0.8744 -0.6097 -0.0535
 3139SOL     OW21052   3.758   2.116   4.537  0.3180 -0.1701  0.3513
 3139SOL    HW121053   3.767   2.143   4.629  0.6016 -0.4995  0.4209
 3139SOL    HW221054   3.668   2.087   4.528  0.2347  0.3466 -0.4757
 3140SOL     OW21055   3.619   3.973   3.970  0.5768  0.2826 -0.3625
 3140SOL    HW121056   3.625   3.933   4.056  0.3705 -0.3214 -0.6352
 3140SOL    HW221057   3.560   3.917   3.920 -0.9936  1.0074  0.6815
 3141SOL     OW21058   1.182   1.394   7.537  0.4066 -0.1228  0.3385
 3141SOL    HW121059   1.115   1.442   7.585  0.4578 -0.6155  0.9087
 3141SOL    HW221060   1.222   1.332   7.599 -1.1283 -0.5463  0.9087
 3142SOL     OW21061   0.090   3.848   6.016 -0.6351 -0.3025 -0.3618
 3142SOL    HW121062   0.171   3.813   6.055  0.7794  2.0682 -1.1625
 3142SOL    HW221063   0.090   3.829   5.922  1.6950 -1.7468 -0.0675
 3143SOL     OW21064   0.681   1.232  12.275 -0.1956 -0.6420  1.0350
 3143SOL    HW121065   0.596   1.208  12.312  0.6473 -0.7986  2.8806
 3143SOL    HW221066   0.651   1.243  12.184  2.7707  0.4597  0.2017
 3144SOL     OW21067   1.367   3.338   6.463  0.6096 -0.2938 -0.1288
 3144SOL    HW121068   1.387   3.382   6.380  0.6166  1.7260  0.9347
 3144SOL    HW221069   1.371   3.247   6.435 -1.1222 -0.9829  1.8785
 3145SOL     OW21070   2.227   1.991   4.912  0.0305 -0.0264  0.3739
 3145SOL    HW121071   2.172   2.049   4.859  0.6642 -1.0251 -1.3579
 3145SOL    HW221072   2.305   1.991   4.857  1.3758 -0.8389  2.2981
 3146SOL     OW21073   4.468   2.056   3.498 -0.5511 -0.0247  0.0578
 3146SOL    HW121074   4.548   2.022   3.536  1.0211  1.5537 -1.8277
 3146SOL    HW221075   4.499   2.137   3.456 -0.9226  1.0364  1.8045
 3147SOL     OW21076   1.113   2.324   7.287 -0.1592 -0.1888 -0.4731
 3147SOL    HW121077   1.153   2.277   7.361  0.6331 -1.8241 -1.9249
 3147SOL    HW221078   1.170   2.306   7.212  0.4336 -0.8195  0.1306
 3148SOL     OW21079   0.133   1.512  10.172 -0.0831  0.3126 -0.0486
 3148SOL    HW121080   0.042   1.536  10.188  0.3717  0.7091  1.9271
 3148SOL    HW221081   0.183   1.589  10.144 -1.9086  1.2880 -0.5914
 3149SOL     OW21082   0.622   2.403   1.046  0.4542 -0.0279  0.3330
 3149SOL    HW121083   0.559   2.344   1.086 -1.3181  0.6114 -1.5084
 3149SOL    HW221084   0.677   2.330   1.016 -0.0548 -0.6949  1.0416
 3150SOL     OW21085   3.050   2.761   3.890  0.5049 -0.0452  0.3209
 3150SOL    HW121086   3.079   2.780   3.979  1.1786  1.1103 -0.1320
 3150SOL    HW221087   2.956   2.742   3.892  1.1076 -2.6184  2.5727
 3151SOL     OW21088   2.686   3.562  17.154  0.5936 -0.1164 -0.1679
 3151SOL    HW121089   2.605   3.512  17.137  1.7713 -1.4532 -1.8490
 3151SOL    HW221090   2.682   3.571  17.249 -1.1871 -0.6080 -0.1805
 3152SOL     OW21091   0.653   3.773   4.090 -0.3501 -0.3887  0.8495
 3152SOL    HW121092   0.713   3.702   4.112  0.9032  0.7037  0.9450
 3152SOL    HW221093   0.718   3.838   4.064 -1.7234  0.5805 -0.1213
 3153SOL     OW21094   3.756   0.101  12.476  0.7314 -0.1302  0.7526
 3153SOL    HW121095   3.811   0.033  12.513  1.4273  0.1495  0.2213
 3153SOL    HW221096   3.805   0.122  12.397  1.4489 -0.6341  1.0728
 3154SOL     OW21097   3.558   4.296   2.366 -0.0695  0.5000  0.0255
 3154SOL    HW121098   3.485   4.339   2.321 -0.0364  0.4453 -0.0825
 3154SOL    HW221099   3.545   4.326   2.455 -1.2783  0.9972 -0.3232
 3155SOL     OW21100   0.450   4.572   6.358 -0.2943 -0.2529 -0.8028
 3155SOL    HW121101   0.359   4.548   6.372 -0.8290  3.3876  1.9037
 3155SOL    HW221102   0.458   4.549   6.265 -0.7368 -0.8213 -0.6979
 3156SOL     OW21103   2.073   4.502   4.015  0.9848  0.2803 -0.4618
 3156SOL    HW121104   2.098   4.411   4.030 -0.5541 -0.0272  0.2767
 3156SOL    HW221105   2.040   4.519   4.103 -2.0923  0.4540 -1.6598
 3157SOL     OW21106   2.322   2.624  14.558 -0.5999  0.3782 -0.1666
 3157SOL    HW121107   2.287   2.568  14.488 -2.1487 -2.3119  2.7539
 3157SOL    HW221108   2.405   2.647  14.517 -0.1458  1.6527  1.4781
 3158SOL     OW21109   4.609   2.110   0.686 -0.1250  0.2367 -0.1977
 3158SOL    HW121110   4.517   2.100   0.661  1.0557 -1.3231 -3.9559
 3158SOL    HW221111   4.615   2.026   0.730 -0.7617  0.1015 -0.3710
 3159SOL     OW21112   2.830   1.228   4.838 -1.1467  0.0461  0.0643
 3159SOL    HW121113   2.851   1.158   4.776 -0.3239  0.2261  0.1433
 3159SOL    HW221114   2.759   1.179   4.879 -1.7810  0.0269 -1.0573
 3160SOL     OW21115   4.076   1.904  14.405  0.0033  0.3156  0.4107
 3160SOL    HW121116   4.035   1.943  14.327 -0.0605 -1.0096 -0.2161
 3160SOL    HW221117   4.079   1.982  14.461  2.9693  0.2979  0.2537
 3161SOL     OW21118   0.085   4.691   4.712  0.5482 -0.4389  0.0508
 3161SOL    HW121119   0.012   4.645   4.754  1.2708  0.1790  2.0001
 3161SOL    HW221120   0.069   0.040   4.755 -0.5677 -0.9680  0.6777
 3162SOL     OW21121   1.763   2.851   6.210  0.4993  0.2331  0.1139
 3162SOL    HW121122   1.824   2.830   6.138  0.0128  3.5443 -1.2738
 3162SOL    HW221123   1.785   2.788   6.278  0.3048 -1.7815 -1.6603
 3163SOL     OW21124   2.029   1.007  10.138  0.1164 -0.0144 -0.6832
 3163SOL    HW121125   2.054   0.992  10.229 -2.1170  2.5627  0.3210
 3163SOL    HW221126   1.987   1.092  10.144  0.3421 -0.0535  1.4640
 3164SOL     OW21127   1.693   1.327  11.975 -0.0439  0.1120  0.1507
 3164SOL    HW121128   1.711   1.348  12.066 -1.2003 -0.9584  0.6257
 3164SOL    HW221129   1.773   1.284  11.946 -1.4149 -3.1544  1.1363
 3165SOL     OW21130   1.990   2.779   6.007  0.5271 -0.2921  0.0115
 3165SOL    HW121131   1.994   2.761   5.913  2.2170 -0.2214  0.0604
 3165SOL    HW221132   2.037   2.709   6.053 -1.7313 -0.2411  2.3865
 3166SOL     OW21133   4.224   2.248   8.651  0.1293  0.6215  0.2348
 3166SOL    HW121134   4.222   2.160   8.613  0.5620  0.5794  0.3196
 3166SOL    HW221135   4.151   2.293   8.608 -1.4230  0.3666  2.5871
 3167SOL     OW21136   4.333   0.235   7.140 -0.2626  0.2533 -0.1251
 3167SOL    HW121137   4.414   0.274   7.109 -0.1628 -2.4678 -3.2811
 3167SOL    HW221138   4.263   0.287   7.100  0.5516  1.2104 -0.3060
 3168SOL     OW21139   3.656   4.664  10.165  0.5086  0.5532 -0.5810
 3168SOL    HW121140   3.643   4.732  10.232  1.1645  1.4054 -1.3278
 3168SOL    HW221141   3.635   4.589  10.220  3.1487 -0.6684 -1.2408
 3169SOL     OW21142   3.374   4.577   9.218  0.2509  0.0576  0.5593
 3169SOL    HW121143   3.291   4.529   9.213 -0.7033  1.5928  1.6016
 3169SOL    HW221144   3.359   4.617   9.304 -1.5724 -2.0087  1.1985
 3170SOL     OW21145   4.477   0.864   7.771 -0.4675  0.4235 -0.1084
 3170SOL    HW121146   4.491   0.832   7.860  0.7760 -1.3436 -0.9460
 3170SOL    HW221147   4.391   0.824   7.759  0.7705 -2.2369 -0.0055
 3171SOL     OW21148   3.959   4.327  15.081 -0.4082  0.1180 -0.0470
 3171SOL    HW121149   3.936   4.402  15.136 -1.0962 -1.0037  1.1930
 3171SOL    HW221150   3.873   4.306  15.045 -0.1172 -1.5071  0.1935
 3172SOL     OW21151   1.257   1.678   2.213 -0.0117 -0.4400  0.3962
 3172SOL    HW121152   1.222   1.759   2.178  2.9512  1.1473  1.1194
 3172SOL    HW221153   1.301   1.643   2.136  0.7314  3.6304 -1.0212
 3173SOL     OW21154   0.853   3.667  15.296  0.6887  0.6638  0.0330
 3173SOL    HW121155   0.932   3.662  15.350  1.3548  0.9752 -0.9248
 3173SOL    HW221156   0.883   3.725  15.226 -1.2885  1.6133 -0.0405
 3174SOL     OW21157   3.778   0.397  17.195  0.0308  0.1157 -1.0666
 3174SOL    HW121158   3.703   0.445  17.160  0.4241  0.6321 -1.2109
 3174SOL    HW221159   3.757   0.374  17.285  1.6688 -1.4698 -1.0785
 3175SOL     OW21160   3.503   1.847   6.116  0.4633  0.2089 -0.3834
 3175SOL    HW121161   3.453   1.766   6.131  3.5385 -1.1631  2.5043
 3175SOL    HW221162   3.442   1.912   6.082 -1.6473 -1.6194 -0.1418
 3176SOL     OW21163   1.094   1.488  15.146  0.3373  0.0921  0.1747
 3176SOL    HW121164   1.145   1.515  15.222 -1.3030 -0.8685  1.6208
 3176SOL    HW221165   1.019   1.455  15.195 -0.7155 -0.2457 -1.6673
 3177SOL     OW21166   2.591   2.326   7.556  0.0313  0.2400  0.4535
 3177SOL    HW121167   2.544   2.366   7.629  0.0571 -0.3133  0.7729
 3177SOL    HW221168   2.679   2.350   7.586 -0.5298  0.4311  1.9804
 3178SOL     OW21169   3.316   2.209   2.461  0.0665 -0.0920 -0.1081
 3178SOL    HW121170   3.226   2.179   2.450 -0.9503  3.1081 -0.5727
 3178SOL    HW221171   3.355   2.126   2.490  0.6309  0.1917 -0.0485
 3179SOL     OW21172   2.992   1.207   4.494 -0.5022  0.0450 -0.0134
 3179SOL    HW121173   3.041   1.287   4.474 -0.5845  0.0109 -0.3364
 3179SOL    HW221174   2.937   1.189   4.419 -0.0231 -2.7873  0.3426
 3180SOL     OW21175   3.042   3.593   3.526  0.0312  0.1623 -0.3798
 3180SOL    HW121176   3.033   3.511   3.576 -0.5768  0.6807  0.3686
 3180SOL    HW221177   2.957   3.612   3.486 -0.7291 -0.3026  0.9796
 3181SOL     OW21178   1.570   4.119   3.723  0.1161 -0.1224 -0.3654
 3181SOL    HW121179   1.587   4.101   3.816  1.2000  1.7808 -0.2016
 3181SOL    HW221180   1.481   4.089   3.705  0.3884 -1.2754  0.1735
 3182SOL     OW21181   2.210   1.632   4.437 -0.4602 -0.1460  0.2939
 3182SOL    HW121182   2.305   1.641   4.426 -0.5414 -1.2547 -1.3520
 3182SOL    HW221183   2.172   1.646   4.351  1.7450 -0.9717 -0.8183
 3183SOL     OW21184   1.945   1.308   0.652  0.2798  0.5725 -0.0078
 3183SOL    HW121185   1.972   1.361   0.577 -0.8804 -1.1887 -1.6694
 3183SOL    HW221186   1.899   1.231   0.618  2.1909 -0.4259 -0.3454
 3184SOL     OW21187   3.063   0.919   3.961 -0.0428  0.1577 -0.4936
 3184SOL    HW121188   3.119   0.843   3.976  2.6784  2.3932  0.6991
 3184SOL    HW221189   3.077   0.940   3.869 -1.5901 -2.6760 -1.3625
 3185SOL     OW21190   1.272   2.593   8.941  0.2119  0.2795  0.1364
 3185SOL    HW121191   1.261   2.505   8.976 -0.9274  0.8206  1.1435
 3185SOL    HW221192   1.182   2.621   8.925 -0.3774 -1.5659  0.2187
 3186SOL     OW21193   3.231   0.440  10.691  0.1237 -0.0363 -0.2520
 3186SOL    HW121194   3.255   0.500  10.762 -2.9477  1.1883 -0.2777
 3186SOL    HW221195   3.191   0.506  10.635 -0.4964 -0.4666 -0.3188
 3187SOL     OW21196   1.968   3.727   4.719 -0.3132 -0.2259  0.2849
 3187SOL    HW121197   1.907   3.672   4.769 -1.8682  0.0267 -1.3440
 3187SOL    HW221198   1.996   3.663   4.653 -0.5820 -0.2337  0.1803
 3188SOL     OW21199   3.573   0.057   3.277 -0.3502 -0.3607 -0.2337
 3188SOL    HW121200   3.557   0.042   3.371 -0.6622 -2.2177 -0.5786
 3188SOL    HW221201   3.562   4.706   3.237  1.4729  0.2715 -2.0809
 3189SOL     OW21202   2.243   2.157   9.511 -0.4272 -0.1009  0.2472
 3189SOL    HW121203   2.172   2.210   9.474  0.5513  0.8179 -0.3252
 3189SOL    HW221204   2.195   2.138   9.592  0.9822 -0.9373  0.8880
 3190SOL     OW21205   1.787   2.520   2.363  0.0589  0.2085  0.0337
 3190SOL    HW121206   1.858   2.467   2.328 -0.8660 -1.5993  0.9387
 3190SOL    HW221207   1.715   2.512   2.301  1.6035 -3.7456 -1.2414
 3191SOL     OW21208   2.534   1.476   4.844 -0.1148 -0.3354 -0.2157
 3191SOL    HW121209   2.557   1.432   4.762 -0.9985 -1.3608  0.0776
 3191SOL    HW221210   2.517   1.566   4.820  0.7598 -0.3821 -0.9961
 3192SOL     OW21211   1.529   2.432   7.254 -0.6614 -0.4075  0.1950
 3192SOL    HW121212   1.615   2.464   7.226 -1.7267  2.1527 -0.1784
 3192SOL    HW221213   1.491   2.503   7.306 -3.7082 -0.9247 -1.3249
 3193SOL     OW21214   0.889   2.646  11.345  0.0396  0.0515  0.1180
 3193SOL    HW121215   0.856   2.572  11.396 -1.9971  2.4484  2.2650
 3193SOL    HW221216   0.828   2.714  11.372 -0.8142 -0.2775 -0.9901
 3194SOL     OW21217   1.168   1.996   4.535 -0.1875  0.1543 -0.3056
 3194SOL    HW121218   1.253   2.022   4.501  1.6273  0.2708  4.2962
 3194SOL    HW221219   1.191   1.983   4.627 -1.0955  1.4338  0.0959
 3195SOL     OW21220   2.890   0.111   2.051 -0.2749 -0.0621 -0.1226
 3195SOL    HW121221   2.806   0.111   2.005 -0.2560 -4.1756 -0.0998
 3195SOL    HW221222   2.912   0.204   2.060  2.0239 -0.1224 -5.2918
 3196SOL     OW21223   0.860   3.577   6.675  0.3542 -0.2125 -0.6170
 3196SOL    HW121224   0.811   3.546   6.599  0.0820  0.4977 -0.7348
 3196SOL    HW221225   0.879   3.667   6.648  2.6122 -0.9270 -1.3956
 3197SOL     OW21226   3.173   3.198   5.807 -0.1985  0.1936  0.7842
 3197SOL    HW121227   3.209   3.148   5.734  0.6631  0.8992  0.7294
 3197SOL    HW221228   3.252   3.201   5.860  0.3302 -0.1477  0.0249
 3198SOL     OW21229   3.375   2.799  12.985  0.8158  0.5477 -0.1210
 3198SOL    HW121230   3.362   2.781  13.078 -2.6524  2.1489 -0.2857
 3198SOL    HW221231   3.420   2.716  12.968 -0.0680 -0.3945  2.2148
 3199SOL     OW21232   0.009   2.343   4.959 -0.2043 -0.3354  0.0753
 3199SOL    HW121233   4.731   2.391   5.041  0.5122  0.5473 -0.3271
 3199SOL    HW221234   0.100   2.365   4.940 -0.3738  1.0751  0.8525
 3200SOL     OW21235   3.207   1.936   8.157 -0.1131 -0.2732 -0.1560
 3200SOL    HW121236   3.207   1.980   8.241 -1.7222 -1.1285  0.2852
 3200SOL    HW221237   3.178   2.008   8.101 -0.1685 -0.6565 -0.6281
 3201SOL     OW21238   1.013   2.290   1.320  0.4332  0.6808 -0.3089
 3201SOL    HW121239   1.107   2.306   1.325  0.6359 -0.6270  0.2140
 3201SOL    HW221240   1.005   2.263   1.228 -0.5418 -1.7390  0.4858
 3202SOL     OW21241   1.365   0.709   7.767  0.3647 -0.1680  0.0450
 3202SOL    HW121242   1.393   0.631   7.719 -1.0283  0.1900 -1.3695
 3202SOL    HW221243   1.414   0.782   7.728  1.2769 -0.5923  0.3907
 3203SOL     OW21244   3.894   2.230   8.961 -0.2211  0.1823 -0.0863
 3203SOL    HW121245   3.803   2.222   8.990  0.2067 -3.2157  0.2622
 3203SOL    HW221246   3.922   2.307   9.010  0.1614 -0.0935  0.1298
 3204SOL     OW21247   4.048   2.938   4.758  0.2089  0.0720 -0.0728
 3204SOL    HW121248   4.080   3.028   4.760 -2.7364  1.1083 -0.0690
 3204SOL    HW221249   4.012   2.924   4.845  2.3674 -2.5208  0.4182
 3205SOL     OW21250   2.308   2.411   9.028  0.3236  0.2297  0.3613
 3205SOL    HW121251   2.283   2.446   9.114 -0.8468  0.4324 -0.0560
 3205SOL    HW221252   2.255   2.461   8.965  3.8745  2.0441 -1.1431
 3206SOL     OW21253   1.437   3.402   3.838 -0.5991  0.3503 -0.0248
 3206SOL    HW121254   1.508   3.446   3.885 -0.7765 -0.9546  1.4542
 3206SOL    HW221255   1.467   3.415   3.747  2.0640 -3.4283  0.3310
 3207SOL     OW21256   0.083   4.429   5.175  0.1446 -0.1507  0.2434
 3207SOL    HW121257   0.018   4.360   5.158  0.1867  0.4550 -2.3645
 3207SOL    HW221258   0.027   4.499   5.210  1.5507  1.4842 -0.8140
 3208SOL     OW21259   3.358   4.673   7.124 -0.7533 -0.5390  0.0730
 3208SOL    HW121260   3.350   0.033   7.117  0.1195 -0.5750 -1.6125
 3208SOL    HW221261   3.337   4.647   7.034  0.3028  2.2176 -0.9682
 3209SOL     OW21262   0.833   0.352   7.024  0.5328 -0.0272  0.1166
 3209SOL    HW121263   0.773   0.414   6.982  0.3395 -0.0414  0.3780
 3209SOL    HW221264   0.899   0.409   7.062 -1.0504  1.2404  0.9209
 3210SOL     OW21265   0.769   4.115   4.384  0.2818 -0.2892  0.1958
 3210SOL    HW121266   0.863   4.097   4.379  0.2809 -0.5566  1.1548
 3210SOL    HW221267   0.759   4.103   4.479 -0.9523  1.4586  0.2762
 3211SOL     OW21268   4.436   3.927   6.626 -0.4600 -0.0692 -0.0984
 3211SOL    HW121269   4.405   3.856   6.569  1.2537 -1.2871  0.4986
 3211SOL    HW221270   4.422   4.003   6.569  1.1057 -0.4638 -1.0150
 3212SOL     OW21271   0.029   1.800  12.020  0.0220 -0.7524  0.3301
 3212SOL    HW121272   0.121   1.820  12.037 -0.0921  0.2273 -0.1879
 3212SOL    HW221273   0.034   1.712  11.984  3.3063  0.3177 -1.8114
 3213SOL     OW21274   1.476   1.968  12.684  0.1947 -0.2668 -0.1027
 3213SOL    HW121275   1.475   1.983  12.590 -0.3501 -1.7941 -0.3269
 3213SOL    HW221276   1.383   1.946  12.690  0.4583 -0.9562  1.4391
 3214SOL     OW21277   1.794   0.032   1.873 -0.3821  0.2863 -0.2732
 3214SOL    HW121278   1.728   0.006   1.938 -0.7549 -0.7689 -1.0637
 3214SOL    HW221279   1.770   0.123   1.859  1.4769  0.7905 -0.0672
 3215SOL     OW21280   3.060   2.133   7.994  0.3538  0.0056  0.0281
 3215SOL    HW121281   2.986   2.187   7.966  0.7588  0.2609 -0.5667
 3215SOL    HW221282   3.020   2.051   8.021  0.4612  0.6716  2.1749
 3216SOL     OW21283   3.759   3.434   2.159  0.5665  0.5164  0.2040
 3216SOL    HW121284   3.721   3.521   2.168 -1.5315 -0.7983  3.8952
 3216SOL    HW221285   3.709   3.413   2.080 -0.1552  0.6744  0.6299
 3217SOL     OW21286   1.668   2.612   6.061  0.4226 -0.4885  0.4188
 3217SOL    HW121287   1.687   2.639   6.151  0.1544  1.4928 -0.1352
 3217SOL    HW221288   1.641   2.523   6.084 -0.2813 -0.8761 -1.9217
 3218SOL     OW21289   2.851   4.051  14.467  0.3344  0.4010 -0.1108
 3218SOL    HW121290   2.773   4.020  14.420  0.2324 -0.5772  0.6908
 3218SOL    HW221291   2.899   3.968  14.473 -0.7266 -0.0655  1.8430
 3219SOL     OW21292   3.938   3.892   9.179 -0.3565 -0.1302 -0.0014
 3219SOL    HW121293   3.972   3.959   9.238 -0.4458  1.8469 -2.2222
 3219SOL    HW221294   4.014   3.843   9.149  0.6048  0.4934  1.4270
 3220SOL     OW21295   3.897   1.814   6.981 -0.2723 -0.2351 -0.6356
 3220SOL    HW121296   3.821   1.837   6.927  0.2426  0.7157 -0.9665
 3220SOL    HW221297   3.898   1.890   7.040  2.7599 -1.8397  1.3474
 3221SOL     OW21298   0.203   1.780   5.378  0.2352 -0.2002 -0.3295
 3221SOL    HW121299   0.240   1.865   5.400  1.1456 -0.6047 -0.2936
 3221SOL    HW221300   0.256   1.716   5.426  2.3952  1.9388  0.0821
 3222SOL     OW21301   2.411   1.808   3.583 -0.1039 -0.5455  1.1074
 3222SOL    HW121302   2.391   1.854   3.502  0.2439  1.1396  1.9869
 3222SOL    HW221303   2.345   1.738   3.587  0.3414 -1.0361 -0.0044
 3223SOL     OW21304   0.217   1.608   4.366  0.3366 -0.5987  0.1067
 3223SOL    HW121305   0.295   1.560   4.395 -0.1681 -0.1180  2.2809
 3223SOL    HW221306   0.206   1.677   4.431  0.6049  0.3452 -0.8608
 3224SOL     OW21307   1.370   1.575   7.480  0.1251  0.4805 -0.1373
 3224SOL    HW121308   1.345   1.612   7.396 -1.5466 -1.2574 -0.4048
 3224SOL    HW221309   1.291   1.521   7.483 -0.6297  1.6770  1.7818
 3225SOL     OW21310   4.288   2.033   1.339  0.8821  0.0217 -0.3315
 3225SOL    HW121311   4.351   2.103   1.322  0.6253  0.3257 -0.0204
 3225SOL    HW221312   4.324   1.947   1.318 -2.3262 -1.1712 -0.8541
 3226SOL     OW21313   0.511   2.288  12.194  0.5524  0.0774 -0.4842
 3226SOL    HW121314   0.439   2.234  12.225 -1.5770  2.6303 -1.0053
 3226SOL    HW221315   0.504   2.364  12.251 -1.6020 -0.9537  0.6194
 3227SOL     OW21316   2.758   1.253  10.938 -0.5164  0.3171  0.5178
 3227SOL    HW121317   2.738   1.174  10.987 -0.1240  0.3104  0.6582
 3227SOL    HW221318   2.834   1.228  10.886  0.6213  1.6006  1.5754
 3228SOL     OW21319   3.095   3.071   8.421 -0.4209 -0.3721  0.3636
 3228SOL    HW121320   3.136   2.987   8.442  1.3432  0.1084 -1.1453
 3228SOL    HW221321   3.003   3.055   8.444 -0.6771  0.4686 -0.0787
 3229SOL     OW21322   1.987   3.266   5.887 -0.8800 -0.1309  0.0678
 3229SOL    HW121323   1.992   3.182   5.932  2.3115 -0.1608 -0.3236
 3229SOL    HW221324   2.052   3.321   5.931 -1.7909  0.2096  0.9881
 3230SOL     OW21325   1.848   3.258   7.926  0.2577 -0.6684 -0.0264
 3230SOL    HW121326   1.765   3.267   7.973  0.4924  0.8605  0.0914
 3230SOL    HW221327   1.821   3.217   7.844 -0.0449  1.9336 -1.2217
 3231SOL     OW21328   0.903   2.525   4.925  0.6541 -0.3499 -0.2219
 3231SOL    HW121329   0.821   2.477   4.915  0.1653  0.6198 -0.8731
 3231SOL    HW221330   0.912   2.559   4.835 -1.5864 -0.8073 -0.6227
 3232SOL     OW21331   1.883   1.046   0.779 -0.2203  0.1732 -0.2891
 3232SOL    HW121332   1.955   0.990   0.809 -1.1291 -0.6289  0.3853
 3232SOL    HW221333   1.931   1.129   0.771 -1.2230  0.9667  1.9721
 3233SOL     OW21334   4.262   1.828   9.085  0.2659  0.1347 -0.3031
 3233SOL    HW121335   4.191   1.770   9.111  0.8865 -1.6143 -2.5652
 3233SOL    HW221336   4.276   1.877   9.166  2.1948  1.6920 -1.5793
 3234SOL     OW21337   2.257   2.978   2.591  0.0211  0.6577  0.2197
 3234SOL    HW121338   2.302   2.895   2.610  1.3708  1.2806 -0.2797
 3234SOL    HW221339   2.182   2.950   2.539  0.3594 -0.4040  0.2941
 3235SOL     OW21340   2.539   4.178   3.662 -0.1811 -0.6234  0.4828
 3235SOL    HW121341   2.624   4.135   3.668 -0.4780 -1.2201  0.3515
 3235SOL    HW221342   2.538   4.223   3.577  2.1329  1.4132  1.5380
 3236SOL     OW21343   2.824   1.772   5.343  0.1012 -0.1274 -0.2223
 3236SOL    HW121344   2.898   1.821   5.377 -0.9556  2.8988 -2.3218
 3236SOL    HW221345   2.860   1.689   5.310  3.0704  0.8583  0.5388
 3237SOL     OW21346   3.888   1.428   4.479  0.6080 -0.2689 -0.3854
 3237SOL    HW121347   3.833   1.401   4.552  0.5729 -1.6227 -0.9026
 3237SOL    HW221348   3.955   1.482   4.521  0.1415  1.2222 -1.5822
 3238SOL     OW21349   1.818   0.481   3.418 -0.0543 -0.3357  0.0554
 3238SOL    HW121350   1.810   0.507   3.510 -2.9979 -0.3213 -0.2201
 3238SOL    HW221351   1.735   0.517   3.386  0.4072 -1.5739 -2.5244
 3239SOL     OW21352   4.075   2.503   3.618  0.2339 -0.1817  0.9206
 3239SOL    HW121353   4.156   2.466   3.653  0.8487  1.9408  1.7194
 3239SOL    HW221354   4.025   2.548   3.686 -1.4688  2.4487 -2.0915
 3240SOL     OW21355   2.709   1.519  14.336 -0.2809 -0.2085 -0.1676
 3240SOL    HW121356   2.734   1.567  14.415 -3.2291 -2.3917  2.0785
 3240SOL    HW221357   2.757   1.576  14.275 -1.2871  1.5565  0.7036
 3241SOL     OW21358   4.240   3.003   3.785  0.3418 -0.0628 -0.2472
 3241SOL    HW121359   4.281   3.089   3.785  0.2241 -0.0054  1.4853
 3241SOL    HW221360   4.214   2.996   3.877 -1.0254 -1.2574 -0.7152
 3242SOL     OW21361   3.267   2.930   9.502  0.1453  0.3504  0.3036
 3242SOL    HW121362   3.226   2.895   9.581 -0.0747  1.3393  0.6265
 3242SOL    HW221363   3.261   3.024   9.519 -0.8937  0.6774 -1.8389
 3243SOL     OW21364   3.864   2.757  14.784  0.6726  0.3917 -0.6475
 3243SOL    HW121365   3.925   2.684  14.771 -0.3551 -0.4117 -1.0323
 3243SOL    HW221366   3.915   2.797  14.855 -0.3446  1.4423 -0.5231
 3244SOL     OW21367   2.598   3.249   7.053 -1.1386 -0.5935  0.3480
 3244SOL    HW121368   2.661   3.298   7.105 -0.4694 -1.5818  0.4772
 3244SOL    HW221369   2.511   3.260   7.092 -1.0525  0.3529  0.2635
 3245SOL     OW21370   3.550   0.800   6.262 -0.0953  0.0903 -0.0725
 3245SOL    HW121371   3.476   0.850   6.297  0.2086  0.4163  0.1052
 3245SOL    HW221372   3.550   0.832   6.171 -1.6570 -1.0472 -0.4763
 3246SOL     OW21373   1.380   1.914   7.933 -0.1156  0.2497 -0.0315
 3246SOL    HW121374   1.285   1.912   7.931 -0.1904  1.7991  1.4728
 3246SOL    HW221375   1.405   1.830   7.893 -0.7320  0.0333  0.0378
 3247SOL     OW21376   2.088   1.998   4.409 -0.0164  0.5659  0.1276
 3247SOL    HW121377   2.160   1.947   4.372 -1.0452 -0.6954 -0.1291
 3247SOL    HW221378   2.084   2.063   4.338  0.6773  1.6954  1.1181
 3248SOL     OW21379   3.141   3.902   1.790  0.1751  0.3432 -0.0264
 3248SOL    HW121380   3.234   3.924   1.780 -0.1132  1.9628  0.9060
 3248SOL    HW221381   3.150   3.807   1.776  3.7837  0.7636 -0.6134
 3249SOL     OW21382   4.249   3.625  16.790  0.0934 -0.3096  0.3711
 3249SOL    HW121383   4.271   3.718  16.790 -2.4480  0.2815  1.7228
 3249SOL    HW221384   4.156   3.626  16.768  0.0251 -1.0894  0.6250
 3250SOL     OW21385   0.201   1.193  11.414 -0.1153 -0.5696  0.2070
 3250SOL    HW121386   0.177   1.285  11.423 -0.6203 -0.6500 -0.3026
 3250SOL    HW221387   0.115   1.152  11.402 -0.7096  0.7910 -0.2313
 3251SOL     OW21388   2.379   0.365   5.611 -0.1798 -0.1583  0.2129
 3251SOL    HW121389   2.415   0.438   5.661 -0.3560  0.1771 -0.1490
 3251SOL    HW221390   2.356   0.417   5.535  0.5143  1.6355  1.2314
 3252SOL     OW21391   2.307   3.955   4.628 -0.3535  0.6537  0.7681
 3252SOL    HW121392   2.333   3.896   4.557  1.5839  1.3900  0.8582
 3252SOL    HW221393   2.362   3.918   4.698 -1.5097  0.8536  1.7884
 3253SOL     OW21394   0.918   4.437  11.198 -0.2407  0.2035  0.5847
 3253SOL    HW121395   0.852   4.388  11.149 -0.3867  1.1958 -0.2187
 3253SOL    HW221396   0.863   4.513  11.216  1.2732  0.9570  2.0995
 3254SOL     OW21397   0.899   0.635   9.947  0.0938  0.2672 -0.0190
 3254SOL    HW121398   0.967   0.655  10.011 -1.2697 -2.5841  2.3595
 3254SOL    HW221399   0.830   0.608  10.008 -0.2914 -1.8572 -1.3816
 3255SOL     OW21400   3.504   1.393  16.828 -0.0519  0.7192 -0.0169
 3255SOL    HW121401   3.463   1.473  16.796  2.5356  1.4391 -1.5658
 3255SOL    HW221402   3.596   1.411  16.808  0.2620 -0.4304  0.3589
 3256SOL     OW21403   3.950   3.364   9.482 -0.0706  0.0460  0.3048
 3256SOL    HW121404   3.988   3.411   9.556 -0.8069 -0.1386  0.7884
 3256SOL    HW221405   3.921   3.286   9.528 -0.9478  1.1692  1.6613
 3257SOL     OW21406   1.074   3.052   6.785 -0.1484 -0.0064 -0.3204
 3257SOL    HW121407   0.999   3.012   6.828  0.6562 -1.8382 -0.6130
 3257SOL    HW221408   1.029   3.122   6.739  1.9432 -0.8389 -3.6535
 3258SOL     OW21409   4.674   1.383   7.279 -0.0491 -0.5250  0.8169
 3258SOL    HW121410   4.633   1.391   7.365 -1.0144 -2.8837  0.5935
 3258SOL    HW221411   4.732   1.457   7.264 -2.0453  0.4487 -2.1037
 3259SOL     OW21412   2.461   4.160   4.198 -0.1776  0.3744 -0.1683
 3259SOL    HW121413   2.546   4.128   4.229  1.2266  0.3710 -4.0697
 3259SOL    HW221414   2.401   4.097   4.239 -0.0899 -0.9402 -2.0615
 3260SOL     OW21415   3.490   3.413   7.020  0.3982 -0.0498 -0.2793
 3260SOL    HW121416   3.474   3.364   7.100 -1.1112 -2.0501 -1.8009
 3260SOL    HW221417   3.576   3.454   7.032 -0.3231  1.2607  0.4464
 3261SOL     OW21418   1.255   3.917   4.973 -0.4288 -0.5875 -0.6336
 3261SOL    HW121419   1.350   3.924   4.969 -0.5568  0.4191 -1.9091
 3261SOL    HW221420   1.227   4.007   4.953  2.2199  1.1084  3.3087
 3262SOL     OW21421   1.285   2.305   6.393 -0.3959  0.5820 -0.4889
 3262SOL    HW121422   1.205   2.302   6.447 -1.0571  2.3636 -1.3848
 3262SOL    HW221423   1.261   2.267   6.309 -1.4196 -2.9246  1.3549
 3263SOL     OW21424   0.443   3.345   8.722 -0.1294 -0.3943  0.4684
 3263SOL    HW121425   0.449   3.427   8.771 -2.3121 -1.3848  2.4220
 3263SOL    HW221426   0.487   3.287   8.785 -1.3263  2.0074  3.4823
 3264SOL     OW21427   1.759   1.216   5.814  0.0679  0.7609  0.0771
 3264SOL    HW121428   1.810   1.288   5.776 -0.1207 -0.0458 -1.7295
 3264SOL    HW221429   1.753   1.245   5.905 -0.4151  0.6015  0.0959
 3265SOL     OW21430   2.280   3.205   3.726 -0.3857 -0.0590  0.4793
 3265SOL    HW121431   2.339   3.130   3.720 -0.3949  0.0832 -1.5632
 3265SOL    HW221432   2.339   3.269   3.686  0.3258 -0.2515  1.2264
 3266SOL     OW21433   1.062   3.306   7.008 -0.2861  0.2973 -0.1086
 3266SOL    HW121434   1.010   3.345   6.938 -0.9349 -0.8831 -0.2843
 3266SOL    HW221435   1.112   3.386   7.028  0.0604  0.1099 -0.2368
 3267SOL     OW21436   0.279   1.953   3.573 -0.2927  0.3311  0.0188
 3267SOL    HW121437   0.189   1.953   3.606 -0.5559 -0.9993 -0.7030
 3267SOL    HW221438   0.322   1.904   3.642 -1.7344  0.0876  0.7352
 3268SOL     OW21439   4.682   1.825  12.602  0.3416 -0.4669 -0.0814
 3268SOL    HW121440   4.702   1.904  12.652  1.1754 -1.0570  0.5178
 3268SOL    HW221441   4.587   1.817  12.608  0.4016 -0.3613  1.0315
 3269SOL     OW21442   0.833   2.357   3.488  0.2192  0.0062  0.4014
 3269SOL    HW121443   0.834   2.327   3.579  1.7614  0.0467  0.4003
 3269SOL    HW221444   0.742   2.387   3.488  0.0121 -0.6225  0.7771
 3270SOL     OW21445   1.822   1.521   3.614 -0.2517  0.3837 -0.0843
 3270SOL    HW121446   1.820   1.549   3.523  2.7266 -1.1560 -0.6128
 3270SOL    HW221447   1.731   1.498   3.633  0.5490 -3.5134 -1.0752
 3271SOL     OW21448   2.642   2.267  12.576  0.7057 -0.5275  0.2352
 3271SOL    HW121449   2.684   2.345  12.540  0.9074 -0.7003  0.0997
 3271SOL    HW221450   2.547   2.278  12.569  0.6532 -0.5758  0.8357
 3272SOL     OW21451   0.566   2.609   3.205 -0.1976  0.1672 -0.3861
 3272SOL    HW121452   0.561   2.689   3.257 -0.9338  0.4841 -0.9328
 3272SOL    HW221453   0.572   2.637   3.113 -0.7318  0.5624 -0.2971
 3273SOL     OW21454   4.249   1.952   5.734 -0.2258  0.5352 -0.3744
 3273SOL    HW121455   4.157   1.934   5.712 -0.3197 -1.8386  1.9556
 3273SOL    HW221456   4.298   1.874   5.709 -2.0642 -1.4093  1.9380
 3274SOL     OW21457   4.365   0.751  17.228 -0.2309 -0.1899 -0.0958
 3274SOL    HW121458   4.393   0.811  17.297  0.4038  0.3853 -0.8455
 3274SOL    HW221459   4.363   0.807  17.150  3.8727 -1.6253 -1.2370
 3275SOL     OW21460   4.711   3.671  12.942  0.0364 -0.0539 -0.4487
 3275SOL    HW121461   0.015   3.589  12.972  0.1932 -0.2253 -1.1161
 3275SOL    HW221462   0.054   3.721  12.966  0.4352 -0.7195 -0.3446
 3276SOL     OW21463   3.960   0.777   6.021  0.3118  0.1214 -0.1713
 3276SOL    HW121464   4.031   0.779   5.957 -1.3140 -0.7116 -1.9627
 3276SOL    HW221465   3.887   0.727   5.986 -0.0457 -0.3240  1.2204
 3277SOL     OW21466   4.353   2.338   2.483 -0.1986 -0.1047  0.3044
 3277SOL    HW121467   4.347   2.368   2.393  1.0283  2.2365  0.9944
 3277SOL    HW221468   4.295   2.398   2.532 -1.7113  0.0161 -1.6269
 3278SOL     OW21469   0.886   3.265   6.304  0.0036  0.6575 -0.3497
 3278SOL    HW121470   0.940   3.196   6.342  0.0323  1.4729  1.1061
 3278SOL    HW221471   0.807   3.211   6.294 -1.0515  2.1454 -0.1260
 3279SOL     OW21472   0.848   2.410  16.467  0.1793  0.0793 -0.3056
 3279SOL    HW121473   0.756   2.420  16.445  0.4929 -0.8939 -2.1008
 3279SOL    HW221474   0.864   2.482  16.528  0.4083  0.4497 -0.8030
 3280SOL     OW21475   0.871   1.143   6.795  0.0664 -0.4329  0.1679
 3280SOL    HW121476   0.930   1.105   6.730  0.8713  0.2630  0.5026
 3280SOL    HW221477   0.911   1.101   6.871 -0.2578  0.5552  0.8704
 3281SOL     OW21478   2.325   1.723   9.308  0.1277 -0.4566  0.0047
 3281SOL    HW121479   2.326   1.815   9.336 -0.1315 -0.6890  0.7982
 3281SOL    HW221480   2.409   1.721   9.263 -1.2454  1.3599 -2.6403
 3282SOL     OW21481   4.124   1.589   5.716 -0.0731 -0.4262  0.5079
 3282SOL    HW121482   4.095   1.572   5.806 -1.0627 -0.4922  0.1699
 3282SOL    HW221483   4.094   1.525   5.652  0.6728  1.8568 -2.1128
 3283SOL     OW21484   1.565   1.782  12.438 -0.3325 -0.2289  0.6836
 3283SOL    HW121485   1.492   1.793  12.499  0.3703  2.9920  0.9398
 3283SOL    HW221486   1.607   1.868  12.450  2.6557 -1.0600 -3.8774
 3284SOL     OW21487   2.397   4.602   5.116 -0.4328  0.5631  0.2007
 3284SOL    HW121488   2.330   4.574   5.179 -0.9181 -1.1881 -1.0787
 3284SOL    HW221489   2.455   4.650   5.176  1.1042  1.6082 -2.1458
 3285SOL     OW21490   4.124   3.262  14.888 -0.2699  0.2073 -0.2346
 3285SOL    HW121491   4.148   3.262  14.796 -1.6924  0.6050 -0.6016
 3285SOL    HW221492   4.195   3.212  14.928 -1.1065  0.1253  1.1392
 3286SOL     OW21493   2.737   0.258  12.219  0.1328 -0.6825  0.0233
 3286SOL    HW121494   2.739   0.354  12.220 -1.6823 -0.6459  0.4268
 3286SOL    HW221495   2.828   0.229  12.219 -0.3176 -2.0972  0.0861
 3287SOL     OW21496   0.583   1.005  13.214 -0.3536 -0.5085  0.3916
 3287SOL    HW121497   0.562   1.018  13.121  2.4463 -0.6478 -0.2803
 3287SOL    HW221498   0.668   1.049  13.220 -1.0382  0.6562  1.4201
 3288SOL     OW21499   2.059   2.379   6.085  0.3707 -0.3310  0.4304
 3288SOL    HW121500   2.087   2.344   6.001  0.6228  1.9867 -0.4309
 3288SOL    HW221501   1.969   2.347   6.094  1.2887 -2.3182  2.5045
 3289SOL     OW21502   4.036   4.413   4.951 -0.4534  0.0459  0.1330
 3289SOL    HW121503   4.050   4.492   5.004  1.2391 -1.6072  2.1663
 3289SOL    HW221504   3.996   4.450   4.872  0.2913 -0.5415 -0.5296
 3290SOL     OW21505   3.073   1.086   9.657  0.0327  0.4902  0.1970
 3290SOL    HW121506   3.035   1.021   9.716 -0.7202  0.6222 -0.1461
 3290SOL    HW221507   3.000   1.146   9.644  0.6154  1.4084  1.0862
 3291SOL     OW21508   2.377   2.645  11.797 -0.0000 -0.0518  0.2384
 3291SOL    HW121509   2.436   2.702  11.748  0.0681  1.6999  2.3735
 3291SOL    HW221510   2.426   2.564  11.781 -0.7839 -0.6125  0.6889
 3292SOL     OW21511   2.702   2.572  10.827 -0.0486 -0.5295 -0.2371
 3292SOL    HW121512   2.721   2.666  10.835  2.8052 -1.2019  0.6244
 3292SOL    HW221513   2.647   2.559  10.904  0.7211  0.0339  0.4009
 3293SOL     OW21514   4.608   2.336   5.631  0.2656  0.3121  0.0412
 3293SOL    HW121515   4.624   2.266   5.694  0.2466  0.0029 -0.2985
 3293SOL    HW221516   4.679   2.400   5.634  0.4829  0.0946 -0.5307
 3294SOL     OW21517   4.180   3.247   1.250 -0.7729  0.3945  1.0855
 3294SOL    HW121518   4.123   3.302   1.304 -0.7974 -0.4226  1.8785
 3294SOL    HW221519   4.193   3.306   1.176  0.2321  0.4596  1.3249
 3295SOL     OW21520   1.620   2.767   4.800 -0.7623 -0.1172  0.2297
 3295SOL    HW121521   1.656   2.756   4.889  0.8668 -1.3257 -0.5751
 3295SOL    HW221522   1.560   2.693   4.807  0.2595 -0.7130  2.6009
 3296SOL     OW21523   3.073   0.982   3.680 -1.0264  0.6008 -0.4326
 3296SOL    HW121524   3.108   1.066   3.650 -1.0047  1.2198  1.3128
 3296SOL    HW221525   3.103   0.932   3.604 -0.6292  1.1713 -0.6502
 3297SOL     OW21526   1.723   4.060  11.781  0.9231  0.4901  0.3832
 3297SOL    HW121527   1.641   4.013  11.764  0.3822  1.4025  0.4806
 3297SOL    HW221528   1.706   4.079  11.874  0.8309 -1.7746  0.8219
 3298SOL     OW21529   3.579   4.626   8.633 -0.5188  0.0578  0.0908
 3298SOL    HW121530   3.543   4.630   8.722 -0.2757  0.1637  0.1845
 3298SOL    HW221531   3.661   4.581   8.653 -1.2281 -1.5439 -0.6679
 3299SOL     OW21532   2.652   3.462   4.691  0.2219 -0.0252 -0.5043
 3299SOL    HW121533   2.650   3.478   4.597  0.1136 -2.7386 -0.9590
 3299SOL    HW221534   2.697   3.378   4.692  0.5843  0.1737 -0.3315
 3300SOL     OW21535   3.528   2.693   7.422  0.7128  0.3531  0.5820
 3300SOL    HW121536   3.563   2.663   7.339  1.7601  0.7916  0.8585
 3300SOL    HW221537   3.562   2.632   7.487  1.2683  0.1767  0.1214
 3301SOL     OW21538   3.076   1.249   9.406 -0.4928 -0.1703  0.7993
 3301SOL    HW121539   3.137   1.317   9.432  0.3884 -0.5273 -0.3330
 3301SOL    HW221540   3.069   1.193   9.483 -0.2318 -1.8438 -0.3742
 3302SOL     OW21541   1.634   2.976  15.922 -0.1050 -0.0824  0.2890
 3302SOL    HW121542   1.685   2.908  15.879 -3.8164 -1.2724 -2.2185
 3302SOL    HW221543   1.557   2.929  15.952 -0.9040  0.9433 -0.1200
 3303SOL     OW21544   2.825   4.098  15.622  0.1685  0.3964 -0.0305
 3303SOL    HW121545   2.852   4.100  15.714  0.8305 -2.0493 -0.1597
 3303SOL    HW221546   2.840   4.187  15.592  1.2298 -0.4698 -2.0778
 3304SOL     OW21547   0.524   1.300   7.063 -0.2445  0.0736 -0.2436
 3304SOL    HW121548   0.620   1.292   7.067 -0.4898 -1.4911  1.9839
 3304SOL    HW221549   0.501   1.227   7.005  0.3081  0.3520 -0.8159
 3305SOL     OW21550   3.605   1.468   4.730 -0.4057  0.6468 -0.1974
 3305SOL    HW121551   3.535   1.443   4.790 -0.3327  1.2590  0.1424
 3305SOL    HW221552   3.630   1.383   4.693  0.9454  1.5592 -1.3472
 3306SOL     OW21553   4.260   2.832   1.915 -0.6935  0.4040 -0.3748
 3306SOL    HW121554   4.350   2.802   1.903 -0.6943 -0.1228  1.0245
 3306SOL    HW221555   4.203   2.764   1.880  0.8261 -1.2582  0.4333
 3307SOL     OW21556   3.016   0.282   7.149 -0.3202 -0.6521 -0.1937
 3307SOL    HW121557   2.986   0.365   7.113  0.7522  0.2903  1.0944
 3307SOL    HW221558   2.974   0.291   7.234  1.5951  0.0029  0.6847
 3308SOL     OW21559   3.832   0.590   7.220 -0.9377  0.2237 -0.4034
 3308SOL    HW121560   3.855   0.638   7.300  2.0697  0.3349 -1.3334
 3308SOL    HW221561   3.788   0.664   7.177 -1.3932 -0.4548 -1.1183
 3309SOL     OW21562   0.859   0.402   7.626  0.2721  0.0161  0.7657
 3309SOL    HW121563   0.809   0.483   7.632 -0.2777 -0.3485  1.0265
 3309SOL    HW221564   0.791   0.344   7.659  0.3052 -0.3735  0.1586
 3310SOL     OW21565   4.036   2.081   4.504  0.5049 -0.5650  0.2009
 3310SOL    HW121566   3.947   2.082   4.539  0.7676 -1.8268  0.9032
 3310SOL    HW221567   4.050   2.176   4.496 -1.8810 -0.1278  1.3910
 3311SOL     OW21568   1.124   0.894  17.443  0.3887  0.3394  0.4408
 3311SOL    HW121569   1.199   0.909  17.502 -2.5440  0.2199  4.1582
 3311SOL    HW221570   1.103   0.803  17.464 -0.4002  0.7018  1.2320
 3312SOL     OW21571   3.013   4.220   9.891 -0.2690 -0.5142  0.3878
 3312SOL    HW121572   3.095   4.250   9.931 -0.9341  2.3426 -0.3659
 3312SOL    HW221573   3.026   4.226   9.796 -2.5374  0.7873  0.1585
 3313SOL     OW21574   0.864   0.426  16.759  0.0004  0.3968 -0.3576
 3313SOL    HW121575   0.888   0.366  16.689 -0.1860 -0.3151  0.1893
 3313SOL    HW221576   0.930   0.496  16.750  0.9007 -0.3777  0.1543
 3314SOL     OW21577   3.940   3.616   2.992  0.2333  0.1420 -0.5064
 3314SOL    HW121578   3.943   3.647   2.902 -0.8554 -1.0185 -0.9580
 3314SOL    HW221579   3.985   3.532   2.983  0.6264  0.4378 -1.2292
 3315SOL     OW21580   2.920   4.021  13.532 -0.5688 -0.0318 -0.1311
 3315SOL    HW121581   2.954   4.057  13.614 -2.0158 -0.8327  0.8273
 3315SOL    HW221582   2.978   4.063  13.468  0.3552  0.8553  1.2922
 3316SOL     OW21583   2.554   3.946  11.697 -0.1637  0.4170 -0.2862
 3316SOL    HW121584   2.523   3.894  11.771 -2.0471  1.6655 -0.2023
 3316SOL    HW221585   2.471   3.983  11.666  0.2761  0.2060 -1.7265
 3317SOL     OW21586   1.725   1.559   6.522 -0.1037  0.3174 -0.0150
 3317SOL    HW121587   1.645   1.590   6.478  0.3041  0.8287 -0.4015
 3317SOL    HW221588   1.771   1.642   6.531  0.9670 -0.6407  3.1245
 3318SOL     OW21589   3.007   4.490   4.694 -0.4568 -0.2979 -0.4602
 3318SOL    HW121590   3.044   4.402   4.688 -1.1563 -0.3956 -3.3487
 3318SOL    HW221591   2.931   4.495   4.636 -0.4376 -1.5476 -0.5912
 3319SOL     OW21592   3.505   3.708   7.418  0.1747 -0.1335  0.0708
 3319SOL    HW121593   3.508   3.630   7.473 -1.3487 -0.3630 -0.1725
 3319SOL    HW221594   3.518   3.775   7.485 -0.0879 -1.9077  1.8831
 3320SOL     OW21595   2.186   2.682  14.795 -0.2310 -0.2569  0.0062
 3320SOL    HW121596   2.244   2.656  14.723  0.1081 -1.3755  0.6814
 3320SOL    HW221597   2.167   2.772  14.766 -0.7154 -0.7826 -1.3132
 3321SOL     OW21598   3.283   1.396   3.222  0.1887  0.0999  0.0677
 3321SOL    HW121599   3.303   1.307   3.193 -0.2862  0.3381 -0.9771
 3321SOL    HW221600   3.188   1.400   3.213 -0.1160  1.7764  3.9173
 3322SOL     OW21601   1.485   1.860   7.629  0.2898 -0.5322  0.7214
 3322SOL    HW121602   1.504   1.920   7.702 -0.1354  0.2664  0.1746
 3322SOL    HW221603   1.437   1.789   7.672  0.2957 -0.6473  0.5367
 3323SOL     OW21604   1.435   4.285   2.646  0.0701  0.2446 -0.0075
 3323SOL    HW121605   1.343   4.274   2.670 -0.3663 -0.4015 -1.9600
 3323SOL    HW221606   1.442   4.377   2.622  1.5332 -0.0589 -0.7320
 3324SOL     OW21607   0.045   1.145   0.398 -0.0422  0.0762 -0.0176
 3324SOL    HW121608   4.729   1.111   0.472 -0.2618  0.3541 -0.0419
 3324SOL    HW221609   0.131   1.155   0.439  0.7428  1.1348 -1.9399
 3325SOL     OW21610   1.227   4.691  11.015 -0.3211  0.1090 -0.8853
 3325SOL    HW121611   1.319   4.703  11.036 -0.3485 -0.7364 -0.2825
 3325SOL    HW221612   1.234   4.601  10.984 -0.9519 -0.1996 -0.1219
 3326SOL     OW21613   4.098   2.145  14.548  0.0935  0.7263  0.1069
 3326SOL    HW121614   4.075   2.216  14.488 -0.0210 -0.9837 -1.8821
 3326SOL    HW221615   4.026   2.144  14.612 -0.7505 -0.1986 -0.8600
 3327SOL     OW21616   1.365   0.709   0.644 -0.9761  0.1626  0.2502
 3327SOL    HW121617   1.358   0.649   0.569  1.6529  1.4881 -1.0167
 3327SOL    HW221618   1.364   0.657   0.724 -0.1328 -0.6616 -0.2790
 3328SOL     OW21619   4.141   3.860   2.908  0.8924 -0.4099 -0.2301
 3328SOL    HW121620   4.122   3.933   2.967  1.6501 -2.5207  2.6472
 3328SOL    HW221621   4.236   3.846   2.917  0.2699 -2.9803  2.3007
 3329SOL     OW21622   2.846   2.859  15.654 -0.1253  0.5815  0.1498
 3329SOL    HW121623   2.907   2.790  15.627  1.1946  0.7285  2.7239
 3329SOL    HW221624   2.877   2.929  15.597  0.2058  0.6940  0.4656
 3330SOL     OW21625   2.256   3.412   8.945 -0.6049  0.1447  0.0080
 3330SOL    HW121626   2.184   3.403   8.883  1.5916 -0.3182 -2.5039
 3330SOL    HW221627   2.264   3.333   8.998 -1.1552 -0.1269 -0.3188
 3331SOL     OW21628   2.150   2.450   2.546 -0.1133 -0.1828 -0.0599
 3331SOL    HW121629   2.100   2.378   2.507  0.3314  0.3060 -1.5191
 3331SOL    HW221630   2.123   2.449   2.638 -0.7390 -1.8040 -0.2699
 3332SOL     OW21631   0.851   1.581   2.949 -0.0179  0.2833  0.1894
 3332SOL    HW121632   0.910   1.598   2.875  0.1904 -0.6247  0.1499
 3332SOL    HW221633   0.912   1.537   3.008 -2.9613 -1.2396  2.0519
 3333SOL     OW21634   4.458   4.450  14.280  0.2280  0.3089 -0.1159
 3333SOL    HW121635   4.543   4.495  14.283  0.5285 -0.3445  1.0668
 3333SOL    HW221636   4.472   4.399  14.200  0.7211  1.4960 -0.8009
 3334SOL     OW21637   0.420   4.490   1.312 -0.0172 -0.2425 -0.0293
 3334SOL    HW121638   0.413   4.532   1.226 -2.1891  0.8299  0.6675
 3334SOL    HW221639   0.342   4.524   1.357 -0.6116 -1.8242  0.1417
 3335SOL     OW21640   1.743   3.109   6.190 -0.1916  0.0323 -0.4031
 3335SOL    HW121641   1.728   3.017   6.213  0.1589  0.6721  2.4379
 3335SOL    HW221642   1.746   3.156   6.274 -1.1636 -1.6664  0.5836
 3336SOL     OW21643   1.092   1.469   3.711  0.1366 -0.3094  0.5805
 3336SOL    HW121644   1.170   1.441   3.662 -0.9715 -4.8600  1.4216
 3336SOL    HW221645   1.130   1.498   3.794  0.9747 -0.6219  0.3082
 3337SOL     OW21646   0.886   3.965   0.746 -0.7585  0.3848  0.0871
 3337SOL    HW121647   0.932   4.016   0.679 -2.2366 -0.3021 -1.4389
 3337SOL    HW221648   0.923   3.878   0.729 -0.9923  0.3089 -0.0290
 3338SOL     OW21649   4.459   0.054  16.540  0.3781 -0.4237  0.1488
 3338SOL    HW121650   4.442   0.127  16.480 -0.5304 -1.5739 -0.9854
 3338SOL    HW221651   4.486   4.722  16.477  0.4946  0.0802 -0.3382
 3339SOL     OW21652   1.470   1.016   7.737  0.2808 -0.7912  0.0140
 3339SOL    HW121653   1.557   1.046   7.711 -0.3917 -0.2493 -1.6601
 3339SOL    HW221654   1.426   1.024   7.652 -1.4463 -0.1029  0.9538
 3340SOL     OW21655   0.248   1.045   0.129 -0.4190  0.1964 -0.3577
 3340SOL    HW121656   0.279   1.004   0.048  2.6161  0.6398  0.5581
 3340SOL    HW221657   0.156   1.022   0.139 -0.1991 -0.8077 -0.6519
 3341SOL     OW21658   0.587   1.699   3.635  0.3772  0.2977 -0.4846
 3341SOL    HW121659   0.562   1.608   3.621  1.6189 -0.3280  1.3553
 3341SOL    HW221660   0.508   1.733   3.676 -0.2189 -2.2562  0.4303
 3342SOL     OW21661   3.973   3.386   9.206  0.2010  0.6386 -0.3653
 3342SOL    HW121662   3.965   3.403   9.300 -0.7634 -1.5163 -0.0702
 3342SOL    HW221663   3.929   3.302   9.201 -0.1286  0.7479  0.6217
 3343SOL     OW21664   4.472   2.717   6.989  0.4816 -0.2162 -0.2844
 3343SOL    HW121665   4.546   2.747   6.936  1.4652  2.9178  2.8936
 3343SOL    HW221666   4.458   2.631   6.948  1.2407 -1.2020  1.5170
 3344SOL     OW21667   3.926   2.248  10.890  0.1064 -0.2081  0.3297
 3344SOL    HW121668   3.853   2.206  10.937  0.7581 -1.6808  0.0260
 3344SOL    HW221669   3.903   2.215  10.803  2.1008 -0.4499 -0.0988
 3345SOL     OW21670   1.705   1.501   2.945  0.4292 -0.0571  0.1702
 3345SOL    HW121671   1.736   1.437   2.881 -1.2685  0.0209 -0.7342
 3345SOL    HW221672   1.788   1.536   2.978  1.3642 -1.9869 -0.0693
 3346SOL     OW21673   4.184   0.584  17.329  0.5418  0.3707 -0.1239
 3346SOL    HW121674   4.243   0.641  17.280 -0.0310  1.4403  0.4528
 3346SOL    HW221675   4.118   0.583  17.260 -1.5326  0.6851  1.8464
 3347SOL     OW21676   4.346   3.259  16.499  0.2136 -0.1742 -0.5453
 3347SOL    HW121677   4.387   3.345  16.512  0.3212 -0.4721  1.1461
 3347SOL    HW221678   4.326   3.230  16.588  2.4431 -1.0978 -0.3492
 3348SOL     OW21679   2.255   1.663   2.006  0.2499  0.4774 -0.6404
 3348SOL    HW121680   2.311   1.633   1.933  1.9502 -0.5197  1.0703
 3348SOL    HW221681   2.299   1.626   2.082 -0.8472 -1.2216 -0.8307
 3349SOL     OW21682   4.311   1.747   6.168  0.2126 -0.5896 -0.1996
 3349SOL    HW121683   4.334   1.663   6.208 -0.6106 -1.1495 -0.8885
 3349SOL    HW221684   4.390   1.766   6.118 -0.4514  2.4660 -0.0751
 3350SOL     OW21685   3.333   3.626   6.972 -0.0808 -0.1751  0.1392
 3350SOL    HW121686   3.248   3.590   6.998  0.2956 -0.2998  1.2124
 3350SOL    HW221687   3.385   3.548   6.993 -0.4898 -0.6611 -0.6578
 3351SOL     OW21688   3.956   0.260   8.907  0.3357  0.0926  0.6937
 3351SOL    HW121689   3.960   0.335   8.848  0.2266 -0.1031  0.4364
 3351SOL    HW221690   3.863   0.262   8.927  0.2988 -0.2067  0.5516
 3352SOL     OW21691   4.519   4.404  16.170  0.4316  0.7027 -0.0161
 3352SOL    HW121692   4.533   4.311  16.191 -0.0308 -0.0085 -2.7879
 3352SOL    HW221693   4.607   4.416  16.134  1.6101 -1.4856  2.0619
 3353SOL     OW21694   1.715   2.030   5.248  0.4425 -0.1037 -0.3076
 3353SOL    HW121695   1.689   2.100   5.307  1.8712  0.7002 -0.6415
 3353SOL    HW221696   1.806   2.014   5.272  0.1873  0.4697  1.0236
 3354SOL     OW21697   2.447   1.279   5.015  0.0247 -0.1941  0.4473
 3354SOL    HW121698   2.444   1.286   5.110 -0.5374 -0.9908  0.4869
 3354SOL    HW221699   2.468   1.368   4.986 -2.3837  0.0193 -0.6502
 3355SOL     OW21700   2.505   2.621   5.994 -0.4748 -0.0542 -0.0049
 3355SOL    HW121701   2.584   2.676   5.993  0.9506 -2.0930 -0.2056
 3355SOL    HW221702   2.538   2.530   5.996  1.0054  0.4604 -0.7088
 3356SOL     OW21703   2.406   3.470   3.964 -0.6950  0.0254 -0.3024
 3356SOL    HW121704   2.431   3.513   4.046 -0.2083  0.5829 -0.7411
 3356SOL    HW221705   2.388   3.539   3.900 -0.4750 -0.1175 -0.5224
 3357SOL     OW21706   4.026   4.064   3.270 -0.2262  0.3521 -0.4517
 3357SOL    HW121707   3.960   4.025   3.213 -0.6067 -1.8757  1.5089
 3357SOL    HW221708   4.088   3.991   3.278 -1.9261 -1.1485 -1.0319
 3358SOL     OW21709   2.892   4.504   6.620 -0.4137  0.0574 -0.1881
 3358SOL    HW121710   2.861   4.521   6.709 -1.6833  3.4781 -1.2918
 3358SOL    HW221711   2.888   4.409   6.605 -2.6939 -0.2651  2.4493
 3359SOL     OW21712   1.139   3.170   9.859  0.3737  0.9149  0.2290
 3359SOL    HW121713   1.126   3.177   9.953 -1.3226  0.6227  0.0148
 3359SOL    HW221714   1.232   3.191   9.850  0.3530  0.4752 -1.1180
 3360SOL     OW21715   3.864   2.224   2.931 -0.6638  0.4369 -0.4976
 3360SOL    HW121716   3.798   2.268   2.878 -1.8067  1.4287  1.7404
 3360SOL    HW221717   3.937   2.284   2.912  0.0886  0.2252  1.7242
 3361SOL     OW21718   0.818   1.850   4.046 -0.0818 -0.5621  0.0954
 3361SOL    HW121719   0.816   1.811   3.958 -1.4193  1.6876 -0.8681
 3361SOL    HW221720   0.780   1.935   4.022 -2.2914 -1.4091  0.6023
 3362SOL     OW21721   2.992   3.172   4.636 -0.0467  0.2673 -0.2113
 3362SOL    HW121722   2.897   3.172   4.624  0.0636  0.1136 -1.1044
 3362SOL    HW221723   3.017   3.207   4.550 -1.3761 -1.7429 -1.4103
 3363SOL     OW21724   1.090   3.559  10.576 -0.1963 -0.1802  0.0156
 3363SOL    HW121725   1.142   3.587  10.652  2.3175  0.6077 -2.0210
 3363SOL    HW221726   1.148   3.486  10.557 -0.6161 -0.4958 -0.0487
 3364SOL     OW21727   2.880   0.276   5.185  0.5188 -0.2609  0.2280
 3364SOL    HW121728   2.870   0.244   5.275  1.5502  1.4502  0.9374
 3364SOL    HW221729   2.974   0.289   5.192  0.5835 -0.5163 -0.1714
 3365SOL     OW21730   0.557   3.527   3.068 -0.1113 -0.2918 -0.0556
 3365SOL    HW121731   0.636   3.498   3.114  2.1672  1.4246 -2.8632
 3365SOL    HW221732   0.510   3.570   3.139  0.8508 -0.3865  0.6350
 3366SOL     OW21733   2.543   2.129  11.651  0.2306 -0.2804  0.0312
 3366SOL    HW121734   2.566   2.037  11.659  0.1396 -0.0803  2.6437
 3366SOL    HW221735   2.452   2.131  11.682 -0.3047  0.3093 -1.5764
 3367SOL     OW21736   2.059   1.092  17.674  0.1395  0.1257 -0.1934
 3367SOL    HW121737   1.974   1.070  17.637  0.7067 -1.0164 -0.8232
 3367SOL    HW221738   2.035   1.175  17.714 -0.2414 -1.2675  2.5002
 3368SOL     OW21739   1.005   2.003  15.669 -0.7070 -0.0789  0.3964
 3368SOL    HW121740   1.026   2.062  15.741  0.6759  0.6693 -0.6254
 3368SOL    HW221741   0.989   2.059  15.594 -2.3625 -1.9724 -0.6770
 3369SOL     OW21742   2.796   4.160   8.096  0.2919  0.4036 -0.0849
 3369SOL    HW121743   2.827   4.131   8.010 -1.5418 -0.3354 -0.4813
 3369SOL    HW221744   2.854   4.108   8.152 -0.2411  0.6245  0.6773
 3370SOL     OW21745   3.205   3.757   9.681 -0.4217 -0.1315 -0.1264
 3370SOL    HW121746   3.178   3.765   9.772 -1.2566  3.4451 -0.6713
 3370SOL    HW221747   3.210   3.850   9.656 -0.1966  0.1276  0.8754
 3371SOL     OW21748   4.394   1.151   6.392 -0.0586  0.0583  0.0049
 3371SOL    HW121749   4.307   1.153   6.352  0.1454 -3.4896 -0.6114
 3371SOL    HW221750   4.424   1.242   6.388 -2.5452  0.9030  0.7638
 3372SOL     OW21751   0.818   1.888  15.911  0.0417  0.2580 -0.1147
 3372SOL    HW121752   0.764   1.963  15.937 -1.2564 -2.1296  4.1530
 3372SOL    HW221753   0.885   1.894  15.979 -0.9122  2.0265  0.6725
 3373SOL     OW21754   4.526   3.288   8.223  0.5510  0.6060  0.2095
 3373SOL    HW121755   4.445   3.335   8.238  2.7484  4.6348 -0.6164
 3373SOL    HW221756   4.590   3.327   8.283  3.2569 -0.4467 -1.9545
 3374SOL     OW21757   1.584   4.410  16.171  0.2854 -0.1675 -0.4426
 3374SOL    HW121758   1.572   4.461  16.091  0.2834  0.5535  0.0215
 3374SOL    HW221759   1.543   4.464  16.239  0.7637  1.4138 -1.4146
 3375SOL     OW21760   2.177   3.708   8.183 -0.1825 -0.0503  0.0363
 3375SOL    HW121761   2.142   3.748   8.263  0.4518 -1.1186  0.8450
 3375SOL    HW221762   2.097   3.694   8.131 -0.6445  1.6518  0.2766
 3376SOL     OW21763   1.074   1.285   6.022  0.6651 -0.1770  0.5083
 3376SOL    HW121764   1.040   1.274   6.111 -0.1967 -0.6889  0.1104
 3376SOL    HW221765   1.113   1.198   6.011  2.3919  0.6855 -0.2294
 3377SOL     OW21766   1.428   0.539   6.175  0.4556  0.1936  0.1764
 3377SOL    HW121767   1.420   0.558   6.268 -1.3262  0.7185 -0.0888
 3377SOL    HW221768   1.509   0.489   6.183  0.1976  0.4514  4.0938
 3378SOL     OW21769   2.787   1.860  12.477 -0.2072 -0.1382 -0.4831
 3378SOL    HW121770   2.801   1.770  12.448  0.2951  0.2947 -1.5781
 3378SOL    HW221771   2.809   1.919  12.405 -0.0909 -1.7610 -1.7771
 3379SOL     OW21772   2.996   3.321   6.534 -0.4580  0.1897  0.2579
 3379SOL    HW121773   3.046   3.334   6.453  0.2359  0.5952  0.7569
 3379SOL    HW221774   2.949   3.404   6.529 -0.3448  0.2751  0.6026
 3380SOL     OW21775   3.386   4.122   7.930  0.6048 -0.3331 -0.0121
 3380SOL    HW121776   3.386   4.089   7.840 -3.2488  0.4922 -0.3198
 3380SOL    HW221777   3.325   4.061   7.971  1.2838 -1.8982 -1.3366
 3381SOL     OW21778   0.600   1.028   6.704  0.3749  0.4522  0.1479
 3381SOL    HW121779   0.561   1.101   6.656 -0.3621  0.3622  0.6251
 3381SOL    HW221780   0.686   1.070   6.709  0.6379  0.0225 -0.5664
 3382SOL     OW21781   4.329   1.869   0.791 -0.4150  0.2001  0.7008
 3382SOL    HW121782   4.360   1.820   0.714  1.6645 -1.1264  2.4105
 3382SOL    HW221783   4.405   1.863   0.849  0.7135 -1.4011 -0.9061
 3383SOL     OW21784   3.603   0.551   3.091  0.1431 -0.1800 -0.3748
 3383SOL    HW121785   3.551   0.555   3.171  0.4638  0.9994 -0.2237
 3383SOL    HW221786   3.690   0.535   3.127 -0.6279 -0.4796  1.3459
 3384SOL     OW21787   2.584   0.239   7.332  0.0376  0.5503  0.4864
 3384SOL    HW121788   2.604   0.270   7.420  3.9019  0.1030 -0.2265
 3384SOL    HW221789   2.517   0.173   7.349  0.3670 -0.5265 -2.2636
 3385SOL     OW21790   2.386   1.800   6.575 -0.4904  0.3942  0.2198
 3385SOL    HW121791   2.336   1.739   6.630 -3.0328  0.9864 -1.4120
 3385SOL    HW221792   2.329   1.877   6.572 -1.6677 -0.5269 -0.9120
 3386SOL     OW21793   0.923   3.554   6.025 -0.3883 -0.1648  0.3391
 3386SOL    HW121794   1.000   3.507   6.059  1.5727  1.4373 -1.8759
 3386SOL    HW221795   0.864   3.552   6.101 -0.2400  0.3678  0.4643
 3387SOL     OW21796   2.522   4.144   2.731  0.0049 -0.4228  0.5102
 3387SOL    HW121797   2.608   4.141   2.688 -0.5757 -1.8050 -0.5439
 3387SOL    HW221798   2.467   4.164   2.656  0.2832 -0.6763  0.2377
 3388SOL     OW21799   2.909   2.343   8.704  0.5375  0.1615 -0.1733
 3388SOL    HW121800   2.924   2.270   8.764 -2.8511  1.3356  2.0311
 3388SOL    HW221801   2.959   2.404   8.758 -0.2998 -0.0525  0.8325
 3389SOL     OW21802   0.283   4.406  16.767 -0.1853 -0.0216 -0.0856
 3389SOL    HW121803   0.280   4.320  16.809 -1.9071 -0.9100 -2.0106
 3389SOL    HW221804   0.359   4.388  16.712  0.2350  0.5967  0.2935
 3390SOL     OW21805   2.059   1.168   4.397 -0.1838 -0.0815  0.4416
 3390SOL    HW121806   2.054   1.078   4.364  2.2287  0.1128 -0.4525
 3390SOL    HW221807   2.152   1.184   4.414 -0.4086  1.7089 -0.0336
 3391SOL     OW21808   1.395   0.591   9.018 -0.4789  0.1486 -0.9357
 3391SOL    HW121809   1.481   0.628   8.999 -0.3286 -0.8196 -2.1799
 3391SOL    HW221810   1.367   0.660   9.078 -2.4931 -0.4307 -1.2215
 3392SOL     OW21811   4.524   4.542   8.792  0.3399  0.1562 -0.0924
 3392SOL    HW121812   4.561   4.570   8.708  1.4467 -0.8681  0.0548
 3392SOL    HW221813   4.510   4.448   8.778 -3.1418  0.3594  2.1027
 3393SOL     OW21814   1.746   3.591   8.769 -0.9625 -0.2917  0.0169
 3393SOL    HW121815   1.786   3.656   8.711  1.8073 -0.8632  1.2642
 3393SOL    HW221816   1.654   3.617   8.771 -0.8146  0.2238  0.1277
 3394SOL     OW21817   3.563   3.125   7.796  0.3210  0.0303 -0.0259
 3394SOL    HW121818   3.643   3.175   7.781  0.7159 -1.1184 -1.7225
 3394SOL    HW221819   3.562   3.063   7.724  1.0741  0.1843 -0.1648
 3395SOL     OW21820   2.047   4.599   4.613 -0.3289  0.1389  0.0313
 3395SOL    HW121821   2.048   4.600   4.517  0.2751  0.2707  0.0383
 3395SOL    HW221822   2.141   4.599   4.632  0.1166  1.0473 -2.1441
 3396SOL     OW21823   4.213   2.936   3.100 -0.0113 -0.1798  0.1432
 3396SOL    HW121824   4.299   2.894   3.101 -0.9082 -2.0575 -1.0319
 3396SOL    HW221825   4.208   2.960   3.193 -0.0265  1.4365 -0.2762
 3397SOL     OW21826   0.577   3.357   8.338  0.2376  0.2559  0.4177
 3397SOL    HW121827   0.644   3.379   8.402  0.4472 -0.9838  0.6317
 3397SOL    HW221828   0.500   3.339   8.392 -0.1427 -2.2778 -0.9901
 3398SOL     OW21829   3.635   2.486   7.595 -0.3049  0.7793 -0.8125
 3398SOL    HW121830   3.678   2.510   7.677 -0.0830  0.4816 -0.8421
 3398SOL    HW221831   3.630   2.391   7.603 -0.1353  0.6363 -2.2584
 3399SOL     OW21832   2.644   0.343  10.207  0.1247  0.0983  0.2869
 3399SOL    HW121833   2.703   0.276  10.173 -0.6642 -0.0357 -0.8144
 3399SOL    HW221834   2.676   0.422  10.162 -0.2527 -0.0511 -0.2436
 3400SOL     OW21835   3.193   3.200   9.527  0.3277  0.5125  0.0362
 3400SOL    HW121836   3.102   3.183   9.549  0.3872 -0.9094 -0.8701
 3400SOL    HW221837   3.209   3.287   9.565  0.8283 -0.2327  1.5440
 3401SOL     OW21838   1.489   3.190   2.669 -0.0898 -0.2009  0.7197
 3401SOL    HW121839   1.476   3.170   2.761  3.9396 -1.9755  0.8805
 3401SOL    HW221840   1.577   3.228   2.666  0.2557 -1.0173  0.4880
 3402SOL     OW21841   1.100   4.510   3.785 -0.4023  1.2486 -0.3282
 3402SOL    HW121842   1.010   4.479   3.773 -0.1151  1.2716 -2.4860
 3402SOL    HW221843   1.087   4.603   3.804 -0.7812  1.2604 -0.6320
 3403SOL     OW21844   0.834   1.391   3.750  0.6458  0.5769  0.1892
 3403SOL    HW121845   0.808   1.467   3.802  0.6432  2.7502 -2.9890
 3403SOL    HW221846   0.923   1.407   3.721  0.6582 -0.3635 -0.2892
 3404SOL     OW21847   1.542   2.595   5.668 -0.3646  0.0828 -0.5783
 3404SOL    HW121848   1.574   2.513   5.707 -0.3818 -0.2659 -1.3122
 3404SOL    HW221849   1.541   2.649   5.747  0.3286  0.2427 -0.6791
 3405SOL     OW21850   0.212   3.673   3.792 -0.0914  0.4807 -0.0170
 3405SOL    HW121851   0.283   3.725   3.754  0.3323  0.8719  1.3146
 3405SOL    HW221852   0.208   3.716   3.877 -0.1618 -0.9731  0.7111
 3406SOL     OW21853   1.629   0.285   8.326 -0.7413  0.2435  0.4673
 3406SOL    HW121854   1.560   0.238   8.280 -0.0795 -0.0080 -0.2566
 3406SOL    HW221855   1.690   0.220   8.359 -0.4007 -1.2436 -3.1202
 3407SOL     OW21856   2.278   2.195   0.390 -0.6151 -0.3281  0.4893
 3407SOL    HW121857   2.235   2.185   0.305 -1.8175  2.5338  0.7804
 3407SOL    HW221858   2.356   2.142   0.373 -2.0023 -2.0821 -0.4587
 3408SOL     OW21859   2.179   0.943   0.912 -0.3434 -0.1321  0.4937
 3408SOL    HW121860   2.171   0.987   0.997  0.7262  1.3108 -0.1544
 3408SOL    HW221861   2.183   0.855   0.948  0.5452 -1.2325 -2.3127
 3409SOL     OW21862   1.250   3.921   1.140  0.4797  0.0566 -0.1044
 3409SOL    HW121863   1.183   3.879   1.087  1.0264  3.2081 -3.2953
 3409SOL    HW221864   1.252   3.856   1.211  0.1248 -1.4436 -1.4759
 3410SOL     OW21865   2.436   4.486   6.000 -0.0734 -0.1776 -0.2682
 3410SOL    HW121866   2.462   4.507   5.910  0.6503 -0.8029 -0.2059
 3410SOL    HW221867   2.453   4.568   6.047 -0.1902 -0.1745 -0.2306
 3411SOL     OW21868   4.341   3.873   6.025 -0.0458 -0.3086 -0.8452
 3411SOL    HW121869   4.397   3.838   6.094 -0.7161  0.0686 -0.1257
 3411SOL    HW221870   4.306   3.790   5.993  0.6069 -1.3827  1.2297
 3412SOL     OW21871   0.642   4.090  17.549 -0.0583  0.2402  0.3693
 3412SOL    HW121872   0.697   4.155  17.592 -0.2020  0.5148  0.1398
 3412SOL    HW221873   0.604   4.044  17.624  1.2303  0.9573  1.4382
 3413SOL     OW21874   0.862   4.545  11.494 -0.5579  0.4326  0.2058
 3413SOL    HW121875   0.822   4.619  11.447 -0.2724  1.1618  1.1208
 3413SOL    HW221876   0.945   4.555  11.448 -0.8602  1.1316 -0.1925
 3414SOL     OW21877   0.141   3.255   8.728 -0.1922  0.1227 -0.2820
 3414SOL    HW121878   0.214   3.309   8.758 -0.5516 -0.2543  1.2582
 3414SOL    HW221879   0.190   3.174   8.714 -0.1690  0.1754 -0.5034
 3415SOL     OW21880   3.683   4.514   5.913 -0.2250 -0.5013  0.0809
 3415SOL    HW121881   3.662   4.584   5.974  2.7022  0.5156 -0.0786
 3415SOL    HW221882   3.734   4.453   5.967 -0.2233  0.7662  1.4924
 3416SOL     OW21883   1.543   2.525   4.120  0.6068 -0.1997  0.0309
 3416SOL    HW121884   1.493   2.490   4.194 -0.1789 -0.1788 -0.4871
 3416SOL    HW221885   1.632   2.517   4.154  0.3070 -0.4350  0.7617
 3417SOL     OW21886   1.228   2.756  10.048 -0.7025  0.4390 -0.0319
 3417SOL    HW121887   1.151   2.735   9.995  0.4052 -2.5496 -0.4298
 3417SOL    HW221888   1.252   2.845  10.020 -2.1325  1.0466  0.6576
 3418SOL     OW21889   0.440   2.154   7.864  0.2397  0.1431  0.0062
 3418SOL    HW121890   0.504   2.204   7.812 -0.2902  0.1535 -0.6355
 3418SOL    HW221891   0.398   2.220   7.918  1.7791  1.7133 -0.7045
 3419SOL     OW21892   0.625   1.726   9.824 -0.3827  0.1133  0.2905
 3419SOL    HW121893   0.704   1.730   9.771 -0.8783 -1.5672 -0.5776
 3419SOL    HW221894   0.610   1.631   9.826 -1.5945  0.2799 -0.8557
 3420SOL     OW21895   0.391   1.910  10.881 -0.1847  0.4080 -0.1102
 3420SOL    HW121896   0.431   1.993  10.908  0.6212  0.1071 -0.3806
 3420SOL    HW221897   0.416   1.862  10.960  1.3361  0.9651 -0.2460
 3421SOL     OW21898   2.822   4.589  15.141  0.0669  0.2641  0.0237
 3421SOL    HW121899   2.742   4.605  15.092 -1.4427 -2.5239  1.5493
 3421SOL    HW221900   2.844   4.497  15.155 -1.8728 -0.1347  0.3870
 3422SOL     OW21901   1.628   2.339   6.109  0.6066  0.2183 -0.4245
 3422SOL    HW121902   1.682   2.339   6.188  0.1669 -0.1118 -0.1238
 3422SOL    HW221903   1.588   2.253   6.105  0.3752  0.3999 -2.2839
 3423SOL     OW21904   2.580   0.844  14.864 -0.2975 -0.3617 -0.2161
 3423SOL    HW121905   2.497   0.806  14.894  0.3837 -0.6688  1.2661
 3423SOL    HW221906   2.557   0.840  14.771  0.0061 -0.3117 -0.2905
 3424SOL     OW21907   0.540   2.238   4.398 -0.0417  0.1792  0.4586
 3424SOL    HW121908   0.591   2.250   4.478  1.8641 -1.3173 -0.5421
 3424SOL    HW221909   0.601   2.236   4.324 -2.7167  0.4554 -1.7590
 3425SOL     OW21910   3.878   2.603   6.503  0.2955  0.5020  0.0750
 3425SOL    HW121911   3.940   2.540   6.541 -0.8272 -0.6673 -0.0156
 3425SOL    HW221912   3.823   2.550   6.445  1.2578 -0.8063  0.3562
 3426SOL     OW21913   1.557   1.434   8.198  0.0017  0.2893 -0.7826
 3426SOL    HW121914   1.645   1.470   8.196  0.0460  0.2926  1.5572
 3426SOL    HW221915   1.571   1.340   8.186  3.0813  1.0679 -3.3825
 3427SOL     OW21916   0.477   0.484   5.001 -0.3395 -0.4854 -0.2705
 3427SOL    HW121917   0.402   0.541   4.983  0.9594  0.1241 -3.7829
 3427SOL    HW221918   0.541   0.511   4.935 -0.9033 -1.7229 -1.3357
 3428SOL     OW21919   2.999   1.555   4.786  0.0462  0.4856 -0.1859
 3428SOL    HW121920   2.958   1.533   4.870 -0.1999 -1.1940 -0.7302
 3428SOL    HW221921   2.961   1.641   4.768 -3.6768 -0.7780  1.6446
 3429SOL     OW21922   1.239   1.867  13.260  0.0040 -0.8705 -0.3298
 3429SOL    HW121923   1.303   1.910  13.316 -1.1289  0.3742  0.0061
 3429SOL    HW221924   1.286   1.785  13.244  0.7611 -0.4462 -0.2895
 3430SOL     OW21925   0.031   2.876   3.484 -0.2446 -0.0062  0.4918
 3430SOL    HW121926   4.680   2.917   3.491 -0.6325 -0.7478  0.0864
 3430SOL    HW221927   0.066   2.929   3.412 -0.9056  0.3093  0.4068
 3431SOL     OW21928   3.324   2.216   7.925  0.8256 -0.4671 -0.4655
 3431SOL    HW121929   3.333   2.205   7.831 -0.3626 -3.6957 -0.2080
 3431SOL    HW221930   3.244   2.173   7.956  0.5677  0.4600  0.1624
 3432SOL     OW21931   0.944   0.002   7.543 -0.0497  0.5535  0.2136
 3432SOL    HW121932   0.966   0.029   7.632 -1.9100  1.6033  0.3496
 3432SOL    HW221933   0.989   0.063   7.485 -0.0218  0.0729 -0.2792
 3433SOL     OW21934   1.116   1.670  14.940 -0.0612  0.1300  0.5052
 3433SOL    HW121935   1.090   1.619  14.863  1.6700 -1.6837  1.1202
 3433SOL    HW221936   1.103   1.605  15.009  0.3296 -1.2843 -0.7412
 3434SOL     OW21937   2.430   2.123   7.428 -0.1259  0.0260  0.0638
 3434SOL    HW121938   2.358   2.172   7.466 -1.2827 -1.4084 -0.2739
 3434SOL    HW221939   2.506   2.177   7.450  0.8889 -1.5419  0.4097
 3435SOL     OW21940   1.836   1.470   8.250  0.1908  0.3362 -0.1629
 3435SOL    HW121941   1.892   1.399   8.282 -1.2261 -1.0328 -0.6976
 3435SOL    HW221942   1.893   1.514   8.187 -0.0821  1.0242  0.0700
 3436SOL     OW21943   1.764   4.466   3.929  0.0437 -0.1157 -0.1700
 3436SOL    HW121944   1.858   4.481   3.937 -0.1781  1.7121 -0.9766
 3436SOL    HW221945   1.752   4.422   3.844 -1.5103 -0.8276  0.4273
 3437SOL     OW21946   3.384   3.220   5.990  0.0049  0.6115 -0.2575
 3437SOL    HW121947   3.430   3.279   6.049 -0.4184 -0.5369  1.2344
 3437SOL    HW221948   3.446   3.147   5.991 -0.8721 -0.1209  0.5979
 3438SOL     OW21949   4.683   1.719   3.561  0.1016  0.0944 -0.1039
 3438SOL    HW121950   0.030   1.677   3.532 -1.4540 -1.9179 -1.5783
 3438SOL    HW221951   4.644   1.744   3.478  0.6708  1.5858  0.0826
 3439SOL     OW21952   2.987   3.960  17.641  0.3312  0.1014 -0.2101
 3439SOL    HW121953   2.969   3.998  17.727 -1.1619  0.2968 -0.6053
 3439SOL    HW221954   2.920   3.891  17.641 -2.0342  2.3617  0.9489
 3440SOL     OW21955   2.251   2.933   8.876  0.1909 -0.0812  0.4694
 3440SOL    HW121956   2.215   2.868   8.936 -0.7000  0.1881  0.2333
 3440SOL    HW221957   2.345   2.930   8.889 -0.0161  0.1162  2.0346
 3441SOL     OW21958   0.863   1.107   8.679  0.0694  0.1678 -0.4906
 3441SOL    HW121959   0.956   1.111   8.701  0.0884 -0.4430 -0.4695
 3441SOL    HW221960   0.857   1.164   8.602  0.7076 -0.8547 -1.3062
 3442SOL     OW21961   0.166   4.120   3.080  0.1189 -0.5943  0.5835
 3442SOL    HW121962   0.099   4.168   3.128  0.8299 -0.6777  1.6639
 3442SOL    HW221963   0.232   4.175   3.038 -0.3658 -0.9421 -0.6276
 3443SOL     OW21964   1.968   3.760  16.732 -0.8498  0.3333  0.0844
 3443SOL    HW121965   1.931   3.703  16.666  0.0569 -0.2241  0.0534
 3443SOL    HW221966   2.042   3.796  16.683 -0.1695 -1.7139 -0.3984
 3444SOL     OW21967   4.069   0.446  15.581 -0.3782  0.4728 -0.6386
 3444SOL    HW121968   4.102   0.400  15.504  2.5926 -0.2358  1.0672
 3444SOL    HW221969   4.008   0.507  15.539 -1.3327 -0.5057 -0.6599
 3445SOL     OW21970   2.599   2.658   3.526  0.0424  0.1464 -0.0197
 3445SOL    HW121971   2.673   2.712   3.554  0.4163 -0.0018 -0.7164
 3445SOL    HW221972   2.640   2.592   3.471  0.2075 -0.7280  1.1665
 3446SOL     OW21973   3.543   3.513   7.836 -0.1227  0.1373  0.2232
 3446SOL    HW121974   3.521   3.454   7.908 -0.4648  2.6127  2.1551
 3446SOL    HW221975   3.633   3.540   7.856  0.5365 -0.8410 -1.4290
 3447SOL     OW21976   1.976   4.241   3.779 -0.3238 -0.9203 -0.5077
 3447SOL    HW121977   1.888   4.267   3.750  0.4626  0.2360 -1.8509
 3447SOL    HW221978   2.030   4.255   3.701 -0.1357  1.1740 -0.0104
 3448SOL     OW21979   2.601   1.749   6.375  0.5319 -0.3150 -0.5446
 3448SOL    HW121980   2.540   1.776   6.443  2.2714  0.3190  0.7722
 3448SOL    HW221981   2.562   1.760   6.288 -0.4375  1.6086  0.1559
 3449SOL     OW21982   0.226   1.142  13.505  0.0385  0.0022  0.0783
 3449SOL    HW121983   0.157   1.077  13.518 -0.2198  0.1035 -0.7406
 3449SOL    HW221984   0.169   1.219  13.503  0.9213  0.6357 -0.7689
 3450SOL     OW21985   2.069   2.714   1.796  0.3964 -0.0932  0.1100
 3450SOL    HW121986   2.125   2.684   1.867  0.7008  0.5679  0.1431
 3450SOL    HW221987   2.089   2.654   1.723  0.2367 -0.6517  0.5266
 3451SOL     OW21988   1.414   3.823   5.650 -0.1935 -0.8733 -0.0166
 3451SOL    HW121989   1.412   3.916   5.670  2.8476 -0.4958 -1.4652
 3451SOL    HW221990   1.333   3.788   5.689 -1.7112  0.7113 -1.7777
 3452SOL     OW21991   2.182   0.825   5.912 -0.6515 -0.2459 -0.1965
 3452SOL    HW121992   2.089   0.838   5.932 -0.5511  0.2171 -0.0321
 3452SOL    HW221993   2.165   0.747   5.860  3.8714 -0.7974 -0.7859
 3453SOL     OW21994   0.570   1.604   9.045 -0.1323 -0.0230  0.0778
 3453SOL    HW121995   0.567   1.605   9.141 -0.6438 -1.7746  0.0801
 3453SOL    HW221996   0.478   1.623   9.024 -0.2501  0.1434  0.7330
 3454SOL     OW21997   2.920   0.522   7.052 -0.8932 -0.5597  0.4161
 3454SOL    HW121998   2.975   0.525   6.974  3.6789  1.1516  3.7702
 3454SOL    HW221999   2.861   0.593   7.025 -0.2824  0.5033  1.8732
 3455SOL     OW22000   4.003   4.660   1.311 -0.0622  0.3709  0.1178
 3455SOL    HW122001   4.098   4.654   1.320 -0.3066 -1.1132  1.8019
 3455SOL    HW222002   3.971   4.656   1.401  1.3828 -1.9917  0.5272
 3456SOL     OW22003   1.255   3.949  13.055 -0.1397  0.1940  0.2206
 3456SOL    HW122004   1.232   3.864  13.093  1.8817 -0.9308 -1.0260
 3456SOL    HW222005   1.270   3.928  12.963 -1.0760 -0.2222  0.1627
 3457SOL     OW22006   0.329   0.609   4.656 -0.6193 -0.0141 -0.2333
 3457SOL    HW122007   0.400   0.550   4.631 -1.3524 -0.5545 -1.0446
 3457SOL    HW222008   0.249   0.566   4.627  1.4733 -2.3224 -2.6298
 3458SOL     OW22009   2.830   4.320  17.328  0.2416 -0.5927  0.2634
 3458SOL    HW122010   2.753   4.352  17.376 -0.1078  0.7771 -1.2152
 3458SOL    HW222011   2.866   4.407  17.312 -2.5493  0.5485  0.1479
 3459SOL     OW22012   2.513   4.400   6.263 -0.0053  0.0589  0.0083
 3459SOL    HW122013   2.498   4.406   6.168  0.1184  0.0734 -0.0105
 3459SOL    HW222014   2.434   4.447   6.287 -0.2802  1.0365 -2.7871
 3460SOL     OW22015   4.696   1.002   2.472  0.0006  0.4132  0.4402
 3460SOL    HW122016   4.710   1.027   2.564 -0.9336  0.7764  0.4740
 3460SOL    HW222017   4.615   1.044   2.445 -0.1730 -1.6366 -2.1940
 3461SOL     OW22018   0.395   4.447  15.824  0.2344 -0.3460 -0.1426
 3461SOL    HW122019   0.381   4.542  15.824 -1.1939 -0.5525 -0.4655
 3461SOL    HW222020   0.307   4.409  15.828  0.6723 -1.1940  1.5924
 3462SOL     OW22021   4.067   3.038   3.378  0.0368  0.3111 -0.2342
 3462SOL    HW122022   4.031   2.981   3.447  1.4356 -0.8982 -0.4893
 3462SOL    HW222023   4.117   3.098   3.433 -0.5702 -0.7811  1.5206
 3463SOL     OW22024   1.105   1.974  17.433  0.9991  0.4216  0.1168
 3463SOL    HW122025   1.030   2.031  17.450  0.8357  0.4528 -0.6874
 3463SOL    HW222026   1.118   1.992  17.340 -0.1451 -2.1569 -0.5328
 3464SOL     OW22027   0.399   1.895   3.167  0.9335  0.5861  0.0737
 3464SOL    HW122028   0.387   1.989   3.153  0.8849 -0.1202 -4.5144
 3464SOL    HW222029   0.373   1.861   3.081  0.2811 -0.5563  0.7179
 3465SOL     OW22030   3.809   3.531   7.878 -0.3435 -0.1942  0.1818
 3465SOL    HW122031   3.879   3.565   7.822 -1.1728  1.9902  0.4768
 3465SOL    HW222032   3.857   3.479   7.943 -1.1464 -1.0285  0.1118
 3466SOL     OW22033   3.373   0.812   9.157  0.2031  0.8533 -0.0944
 3466SOL    HW122034   3.377   0.718   9.176 -2.0949  1.1573  1.7182
 3466SOL    HW222035   3.392   0.853   9.241  1.4179  1.9546 -0.8919
 3467SOL     OW22036   1.744   2.627  12.305  0.1440 -0.0638 -0.6805
 3467SOL    HW122037   1.749   2.572  12.383 -1.7464 -1.2046 -1.3793
 3467SOL    HW222038   1.669   2.584  12.265 -1.9358  2.5703  0.3468
 3468SOL     OW22039   0.522   4.548  17.692  0.2207  0.1079 -0.2360
 3468SOL    HW122040   0.476   4.465  17.706  0.3477  0.3114  1.3939
 3468SOL    HW222041   0.585   4.518  17.626 -1.4399  0.0934 -1.8151
 3469SOL     OW22042   3.675   0.967   7.617  0.3201 -0.2612 -0.3373
 3469SOL    HW122043   3.650   1.057   7.596  0.6938 -0.3912 -1.3348
 3469SOL    HW222044   3.605   0.919   7.573  0.0509  0.0595 -0.2626
 3470SOL     OW22045   1.698   4.508   1.618  0.3815  0.4888 -0.2356
 3470SOL    HW122046   1.673   4.533   1.708  0.9707  1.9099 -0.4636
 3470SOL    HW222047   1.657   4.424   1.600  1.1393 -0.0290  0.4501
 3471SOL     OW22048   2.375   2.313  16.441  0.4936  0.1221  0.3570
 3471SOL    HW122049   2.350   2.254  16.512  0.9012  2.0954  2.1370
 3471SOL    HW222050   2.447   2.366  16.476  0.2730  1.8934 -1.8401
 3472SOL     OW22051   2.410   3.489   3.194  0.4247 -0.0877  0.3989
 3472SOL    HW122052   2.424   3.572   3.238 -0.9214  0.8578 -0.9558
 3472SOL    HW222053   2.462   3.497   3.114 -0.4675  0.7789 -0.0910
 3473SOL     OW22054   3.670   0.399   4.291 -0.0444  0.4175  0.4711
 3473SOL    HW122055   3.633   0.346   4.362 -1.5700  0.1171 -0.5399
 3473SOL    HW222056   3.626   0.483   4.303 -1.9115 -0.2747 -1.3263
 3474SOL     OW22057   0.657   0.825   9.969  0.1399  0.6196  0.3536
 3474SOL    HW122058   0.627   0.739   9.999 -1.4366  0.0991 -2.7138
 3474SOL    HW222059   0.745   0.825  10.007 -0.1878  3.5429  1.1027
 3475SOL     OW22060   4.550   0.689  10.653 -0.2655 -0.7127 -0.8188
 3475SOL    HW122061   4.491   0.712  10.581  0.0271 -0.2303 -0.8988
 3475SOL    HW222062   4.600   0.620  10.609 -2.3267 -1.2097 -2.3749
 3476SOL     OW22063   1.571   4.062   4.386 -0.7848 -0.4366  0.1908
 3476SOL    HW122064   1.659   4.087   4.414 -0.1064 -0.5233 -1.8407
 3476SOL    HW222065   1.528   4.146   4.399 -1.7065 -1.1344  1.6046
 3477SOL     OW22066   0.521   2.102  15.304 -0.2235  0.2927  0.5332
 3477SOL    HW122067   0.562   2.152  15.233  1.5158  1.6743  2.5416
 3477SOL    HW222068   0.473   2.029  15.263  1.4925 -1.0782  0.9623
 3478SOL     OW22069   3.438   1.348   4.953  0.0826 -0.5073  0.3679
 3478SOL    HW122070   3.469   1.296   5.027  0.3555 -0.3272  0.3812
 3478SOL    HW222071   3.402   1.424   4.998 -1.9685 -0.2652 -1.6660
 3479SOL     OW22072   4.667   4.436   6.251 -0.0283  0.0663 -0.2342
 3479SOL    HW122073   4.590   4.382   6.229  1.4598 -1.8350 -0.7636
 3479SOL    HW222074   4.631   4.524   6.242  0.8445  0.3539 -0.8726
 3480SOL     OW22075   1.338   2.221  13.778  0.1777 -0.7782 -0.2916
 3480SOL    HW122076   1.302   2.293  13.830  3.1373 -1.0621  2.1284
 3480SOL    HW222077   1.414   2.268  13.741  0.9640 -1.8759 -0.0581
 3481SOL     OW22078   3.783   4.341  16.334  0.0477  0.2982  0.5822
 3481SOL    HW122079   3.689   4.324  16.325  0.0830  1.5515 -2.1253
 3481SOL    HW222080   3.797   4.371  16.244 -0.5371 -0.8381  0.1115
 3482SOL     OW22081   0.296   0.951   8.336 -0.4188  0.5094  0.1395
 3482SOL    HW122082   0.263   0.997   8.258 -0.8616 -0.7754 -0.4296
 3482SOL    HW222083   0.379   0.916   8.306 -0.7252  1.5015 -1.8401
 3483SOL     OW22084   2.793   1.028   7.361  0.2556  0.2514 -0.8454
 3483SOL    HW122085   2.770   0.978   7.283  0.0619 -3.3201  1.5064
 3483SOL    HW222086   2.712   1.076   7.382  1.3029  0.1513  3.4424
 3484SOL     OW22087   1.595   3.122  11.623 -0.2525 -0.3818 -0.4515
 3484SOL    HW122088   1.636   3.048  11.577 -0.8628 -1.4106  0.6590
 3484SOL    HW222089   1.600   3.089  11.713  0.1457 -2.7676 -1.3500
 3485SOL     OW22090   4.053   2.464   0.192 -0.7217  0.1276 -0.6855
 3485SOL    HW122091   3.993   2.509   0.132 -1.4562  0.0091 -0.0247
 3485SOL    HW222092   4.073   2.532   0.256 -3.3257 -0.9978  1.2945
 3486SOL     OW22093   1.433   2.042   8.815  0.3291 -0.1361 -0.1060
 3486SOL    HW122094   1.429   1.978   8.743  0.7611  0.4562 -0.6592
 3486SOL    HW222095   1.345   2.031   8.852  0.5743  1.1167  0.8276
 3487SOL     OW22096   4.461   2.804   3.084 -0.4548 -0.1000  0.0050
 3487SOL    HW122097   4.426   2.735   3.029 -1.2729 -0.1942  0.6569
 3487SOL    HW222098   4.533   2.751   3.118  0.5072  1.5729  0.5891
 3488SOL     OW22099   3.159   3.082  13.386 -0.3170  0.1740  0.5715
 3488SOL    HW122100   3.106   3.033  13.450  0.9905 -0.5043  1.1275
 3488SOL    HW222101   3.125   3.037  13.309 -0.8610  1.8221 -0.1342
 3489SOL     OW22102   3.794   2.587  16.736  0.4959 -0.4457 -0.4683
 3489SOL    HW122103   3.791   2.618  16.646 -1.7961  2.5885  0.6254
 3489SOL    HW222104   3.720   2.527  16.742 -0.9996  1.6804  2.9086
 3490SOL     OW22105   2.639   4.323   6.851  0.4884 -0.3659 -0.1162
 3490SOL    HW122106   2.582   4.249   6.874  0.1697 -0.2259 -0.4640
 3490SOL    HW222107   2.631   4.317   6.756 -0.3283 -1.8620  0.0322
 3491SOL     OW22108   1.306   4.121   3.230 -0.3855 -0.2988 -0.0637
 3491SOL    HW122109   1.234   4.184   3.240  1.2860  1.6619 -0.4796
 3491SOL    HW222110   1.261   4.042   3.261  0.3407 -0.6455  0.0890
 3492SOL     OW22111   0.443   2.679  16.716 -0.0960  0.1493 -0.1976
 3492SOL    HW122112   0.395   2.759  16.737 -0.6140 -0.5448  1.2463
 3492SOL    HW222113   0.514   2.714  16.662 -0.8361  1.4112 -0.3390
 3493SOL     OW22114   1.330   1.636   4.269  0.2802  0.3121  0.3631
 3493SOL    HW122115   1.380   1.652   4.349 -0.0400  1.1101  0.4018
 3493SOL    HW222116   1.317   1.543   4.289  0.6076  0.4492  1.2186
 3494SOL     OW22117   0.141   0.632   4.296 -0.4197 -0.2464  0.0510
 3494SOL    HW122118   0.075   0.701   4.290 -0.4697 -0.1468  1.8541
 3494SOL    HW222119   0.127   0.615   4.389 -1.2054 -1.0681 -0.2131
 3495SOL     OW22120   4.332   0.382  13.793  0.0981  0.1235 -0.0758
 3495SOL    HW122121   4.239   0.404  13.795 -0.1994 -0.9477 -1.9412
 3495SOL    HW222122   4.369   0.445  13.731 -0.0008 -1.8528 -2.1380
 3496SOL     OW22123   3.927   1.861   8.089 -0.0557  0.0143 -0.4744
 3496SOL    HW122124   3.934   1.804   8.165  3.8173  1.3497  0.1428
 3496SOL    HW222125   3.984   1.935   8.106  0.8528 -0.7093 -0.3801
 3497SOL     OW22126   2.772   2.674   7.403 -0.2173 -0.2056 -0.3545
 3497SOL    HW122127   2.754   2.763   7.432 -1.6902 -0.4121 -0.6300
 3497SOL    HW222128   2.681   2.646   7.397 -1.1982  3.2805 -1.7483
 3498SOL     OW22129   1.596   0.967   5.157 -0.4155 -0.0962  0.0607
 3498SOL    HW122130   1.623   0.877   5.141  0.3783  0.4790 -1.8035
 3498SOL    HW222131   1.574   1.000   5.070  0.1743 -0.8865 -0.3813
 3499SOL     OW22132   1.593   3.502   6.920 -0.4179  0.7251  0.1182
 3499SOL    HW122133   1.585   3.460   7.006 -2.0771 -0.3794 -0.5526
 3499SOL    HW222134   1.539   3.452   6.858  0.2688  2.1555 -1.6261
 3500SOL     OW22135   3.959   2.759   8.535 -0.3058 -0.1813 -0.7269
 3500SOL    HW122136   3.958   2.742   8.629 -0.6425 -0.2993 -0.7526
 3500SOL    HW222137   3.867   2.734   8.524 -0.6963  0.4887  0.9666
 3501SOL     OW22138   0.431   3.004   2.337 -0.0985 -0.2598 -0.2559
 3501SOL    HW122139   0.520   3.038   2.343 -0.4044  0.6358 -0.8459
 3501SOL    HW222140   0.417   2.966   2.424 -1.2675  0.1390 -0.2706
 3502SOL     OW22141   1.326   1.420   8.801  0.0850 -0.0214 -0.2803
 3502SOL    HW122142   1.345   1.340   8.751  1.0126  1.2845 -2.0081
 3502SOL    HW222143   1.389   1.485   8.769 -1.1513 -0.6226 -3.9174
 3503SOL     OW22144   4.668   3.025   6.814 -0.3841  0.8725  0.4486
 3503SOL    HW122145   4.702   2.995   6.898  2.7346  0.4283 -1.0017
 3503SOL    HW222146   4.583   3.063   6.838  0.1180  0.9758  2.0403
 3504SOL     OW22147   3.637   0.460   3.791  0.5659  0.0014 -0.5445
 3504SOL    HW122148   3.572   0.509   3.741  0.4598  0.2291 -0.1889
 3504SOL    HW222149   3.645   0.496   3.879 -1.1031  0.1771 -0.4529
 3505SOL     OW22150   1.514   4.389   8.587  0.3965  0.7577 -0.0283
 3505SOL    HW122151   1.439   4.398   8.646 -0.8311 -0.9886 -1.3366
 3505SOL    HW222152   1.488   4.308   8.543  0.1361  0.1406  1.2690
 3506SOL     OW22153   4.581   3.577   7.064 -0.1634 -0.7517  0.1726
 3506SOL    HW122154   4.531   3.522   7.125  0.7701 -2.2470 -0.3953
 3506SOL    HW222155   4.636   3.510   7.023 -0.1806  0.9538 -2.5804
 3507SOL     OW22156   2.543   2.327  16.183 -0.2060 -0.0412  0.4189
 3507SOL    HW122157   2.584   2.245  16.211 -0.8836 -0.7775 -0.7497
 3507SOL    HW222158   2.622   2.377  16.163 -0.9563  0.8783 -0.2471
 3508SOL     OW22159   3.096   1.831  15.745 -0.1078 -0.1091 -0.5893
 3508SOL    HW122160   3.101   1.797  15.835  0.1210 -1.2930 -1.0524
 3508SOL    HW222161   3.026   1.776  15.712 -1.3306  0.5137  0.9568
 3509SOL     OW22162   0.118   0.387   1.965  0.1450 -0.5596 -0.2646
 3509SOL    HW122163   0.140   0.337   1.886 -2.3635  0.1340 -1.4162
 3509SOL    HW222164   0.104   0.318   2.030 -0.0751 -1.9280 -1.7514
 3510SOL     OW22165   1.974   1.957   5.207  0.2704  0.3276  0.1458
 3510SOL    HW122166   2.056   1.911   5.224  1.5375  1.8602 -1.8740
 3510SOL    HW222167   1.982   2.009   5.127 -1.3967  1.0948  0.4718
 3511SOL     OW22168   3.999   3.695   2.752 -0.4190 -0.3244  0.2822
 3511SOL    HW122169   4.058   3.749   2.804 -1.0233 -1.3829  2.0569
 3511SOL    HW222170   4.065   3.643   2.706  0.9137  1.5105  0.1514
 3512SOL     OW22171   2.367   1.146   8.531 -0.2504  0.1840  0.3971
 3512SOL    HW122172   2.315   1.069   8.556  0.7868 -0.1587  1.5588
 3512SOL    HW222173   2.451   1.108   8.559 -0.8350 -0.0293  1.9025
 3513SOL     OW22174   4.459   0.132   5.539 -0.2957  0.1736  0.0237
 3513SOL    HW122175   4.514   0.149   5.616 -2.1200  1.8927  0.9584
 3513SOL    HW222176   4.411   0.215   5.533  0.7531  0.5394 -2.9887
 3514SOL     OW22177   1.840   1.371   7.039 -0.1544  0.4113  0.1476
 3514SOL    HW122178   1.901   1.439   7.011  1.6039 -0.8976  0.7984
 3514SOL    HW222179   1.834   1.393   7.132 -2.7965  0.1323  0.0380
 3515SOL     OW22180   1.823   4.429   1.382  0.0384  0.3908  0.2070
 3515SOL    HW122181   1.913   4.425   1.413  0.3890  3.8420 -0.3026
 3515SOL    HW222182   1.782   4.477   1.454  2.6313  1.5764  0.8987
 3516SOL     OW22183   1.141   3.769   4.414  0.4704  0.2079  0.3760
 3516SOL    HW122184   1.233   3.787   4.395  0.7497  0.8393  2.3102
 3516SOL    HW222185   1.107   3.785   4.326 -0.0575 -1.2329  0.3187
 3517SOL     OW22186   3.126   0.379   2.531 -0.2846 -0.1853  0.4862
 3517SOL    HW122187   3.219   0.402   2.533  0.1029 -1.6290 -1.3360
 3517SOL    HW222188   3.117   0.361   2.625 -1.8147 -0.8923  0.2043
 3518SOL     OW22189   1.997   1.664   5.848  0.2459  0.1262  0.3105
 3518SOL    HW122190   2.064   1.707   5.900 -0.3747  1.1480  0.2583
 3518SOL    HW222191   1.909   1.687   5.878 -0.9620 -2.7776 -0.9001
 3519SOL     OW22192   2.210   4.675  10.098 -0.0232 -0.0020 -0.0318
 3519SOL    HW122193   2.272   4.605  10.118 -0.9014 -1.3762 -2.1387
 3519SOL    HW222194   2.161   4.695  10.178 -1.1246  0.8055 -0.9108
 3520SOL     OW22195   1.624   3.096   2.221 -0.3130  0.2178 -0.1481
 3520SOL    HW122196   1.620   3.186   2.251  1.2999 -0.1040  1.0272
 3520SOL    HW222197   1.532   3.092   2.195 -0.8789  2.6539  1.5377
 3521SOL     OW22198   0.813   0.620   8.220 -0.3814 -0.2966 -0.6968
 3521SOL    HW122199   0.740   0.580   8.174 -0.7483  2.1395 -2.2227
 3521SOL    HW222200   0.777   0.629   8.308  0.0160  0.7401 -0.6408
 3522SOL     OW22201   2.935   0.890   6.088 -0.0390  0.5465  0.0690
 3522SOL    HW122202   2.941   0.879   5.993 -2.4169  1.7125 -0.2245
 3522SOL    HW222203   3.009   0.948   6.107  0.5518 -0.1970  0.0564
 3523SOL     OW22204   2.901   0.469   6.192  0.0215 -0.0395 -0.2153
 3523SOL    HW122205   2.855   0.502   6.269  1.2139  0.6129  0.2223
 3523SOL    HW222206   2.842   0.484   6.118 -1.3890  1.4885  1.2176
 3524SOL     OW22207   4.377   2.016  15.360  0.5784  0.1164 -0.3650
 3524SOL    HW122208   4.387   1.950  15.292  3.0287 -0.2197  0.3264
 3524SOL    HW222209   4.303   2.069  15.329 -1.5617 -1.9400  1.1990
 3525SOL     OW22210   0.769   1.888   3.548 -0.2249 -0.7320 -0.0998
 3525SOL    HW122211   0.697   1.915   3.492 -0.1872 -2.5922 -1.0268
 3525SOL    HW222212   0.720   1.830   3.606  0.3647 -1.1681 -0.0319
 3526SOL     OW22213   2.166   3.447   3.103 -0.3563  0.1628  0.3002
 3526SOL    HW122214   2.132   3.367   3.143 -0.4220  0.7506  1.4272
 3526SOL    HW222215   2.253   3.458   3.144  0.8037 -1.3736 -1.7699
 3527SOL     OW22216   2.915   3.063  14.923 -0.4724 -0.3176 -0.5803
 3527SOL    HW122217   2.980   3.083  14.856  2.0134  2.3615  2.6205
 3527SOL    HW222218   2.947   3.111  15.000 -2.7420  0.3430 -0.0591
 3528SOL     OW22219   0.449   2.725   4.039  0.0536 -0.0662 -0.4949
 3528SOL    HW122220   0.492   2.809   4.025  0.0039  0.4606  2.6019
 3528SOL    HW222221   0.406   2.708   3.955  1.4358 -1.2683 -0.9579
 3529SOL     OW22222   2.920   3.592   5.599 -0.1251 -0.0321  0.0185
 3529SOL    HW122223   3.009   3.629   5.602 -0.6574  1.2533  0.0655
 3529SOL    HW222224   2.911   3.584   5.504  0.7722  0.5212 -0.1138
 3530SOL     OW22225   2.584   1.111   6.407 -0.4445 -0.0882  0.2958
 3530SOL    HW122226   2.600   1.117   6.501 -0.0083  3.7307 -0.0423
 3530SOL    HW222227   2.655   1.058   6.370  0.2453  1.1263 -0.1026
 3531SOL     OW22228   2.779   3.479   3.089  0.8902  0.0730  0.2251
 3531SOL    HW122229   2.721   3.437   3.026 -0.6590  2.3378  0.1753
 3531SOL    HW222230   2.748   3.569   3.087 -3.0733 -1.2789  0.7148
 3532SOL     OW22231   0.518   0.841   0.075 -0.2031  0.5111  0.7898
 3532SOL    HW122232   0.553   0.821  17.726  1.3209 -0.8281  1.7176
 3532SOL    HW222233   0.429   0.858   0.044 -1.1736  0.3368  3.5002
 3533SOL     OW22234   2.882   1.653   3.585 -0.3347 -0.1462  0.0152
 3533SOL    HW122235   2.882   1.747   3.568  0.3681 -0.4761 -1.9052
 3533SOL    HW222236   2.807   1.624   3.533 -0.1238  0.2551 -0.5178
 3534SOL     OW22237   4.568   3.591   3.084 -0.2736 -0.7159  0.1917
 3534SOL    HW122238   4.655   3.624   3.104 -0.6074  0.0853  0.2999
 3534SOL    HW222239   4.574   3.607   2.989  1.2728  0.7984  0.5542
 3535SOL     OW22240   4.574   0.581  17.357  0.3027  0.1040  0.2599
 3535SOL    HW122241   4.496   0.627  17.328 -0.7954 -2.0345 -0.1534
 3535SOL    HW222242   4.544   0.493  17.334  0.5717 -0.2570  1.2781
 3536SOL     OW22243   1.581   0.397   0.975  0.3709 -0.5524  0.1968
 3536SOL    HW122244   1.656   0.353   0.935  1.4417 -1.1523  2.8620
 3536SOL    HW222245   1.597   0.489   0.951 -0.3617  0.2690  2.8358
 3537SOL     OW22246   1.848   0.745   3.594  0.0851 -0.0353 -0.3837
 3537SOL    HW122247   1.909   0.818   3.609 -0.6665  1.0185 -2.5411
 3537SOL    HW222248   1.895   0.680   3.647 -2.2200  0.3307  2.1210
 3538SOL     OW22249   0.079   1.424   3.207 -0.3034  0.0468 -0.0464
 3538SOL    HW122250   0.041   1.512   3.199  0.5924  0.4742  0.5018
 3538SOL    HW222251   0.153   1.429   3.147  1.3356 -1.6327  1.8201
 3539SOL     OW22252   0.491   2.560   0.868 -0.2503  0.0691 -0.0322
 3539SOL    HW122253   0.525   2.493   0.927 -2.1078 -0.0427  0.9142
 3539SOL    HW222254   0.507   2.513   0.787  1.0663  3.2606 -1.6402
 3540SOL     OW22255   1.154   3.055   9.584  0.0361  0.0731 -0.6110
 3540SOL    HW122256   1.162   3.129   9.645 -1.3972  1.4485 -2.0820
 3540SOL    HW222257   1.091   3.003   9.634  1.0519  0.0900  0.6720
 3541SOL     OW22258   4.475   3.512  11.724 -0.0495  0.2718  0.4859
 3541SOL    HW122259   4.416   3.456  11.774 -0.9858  0.8931  0.0816
 3541SOL    HW222260   4.537   3.441  11.707 -0.7570 -0.5389  1.3180
 3542SOL     OW22261   2.823   2.419   7.699  0.0661  1.0492  0.4818
 3542SOL    HW122262   2.885   2.492   7.705  1.3836 -0.0023 -0.4380
 3542SOL    HW222263   2.817   2.380   7.787 -0.5052  0.1890  0.0571
 3543SOL     OW22264   0.191   4.372   6.648  0.1524 -0.6199 -0.4813
 3543SOL    HW122265   0.198   4.436   6.577  1.7988 -0.0901  0.1482
 3543SOL    HW222266   0.148   4.427   6.713  2.9902  0.3687  0.5687
 3544SOL     OW22267   3.900   4.465   2.276  0.1654  0.1576 -0.1650
 3544SOL    HW122268   3.914   4.467   2.181  0.5715  2.6942 -0.0470
 3544SOL    HW222269   3.946   4.386   2.306 -0.3291 -0.5605 -1.2664
 3545SOL     OW22270   0.264   0.261   6.635  0.1150  0.0516  0.2164
 3545SOL    HW122271   0.317   0.208   6.575 -2.3334 -2.4163  0.2321
 3545SOL    HW222272   0.337   0.258   6.696  1.4189 -1.8148 -1.4349
 3546SOL     OW22273   4.139   0.669   2.978 -0.4193  0.6251 -0.5990
 3546SOL    HW122274   4.233   0.671   2.964 -0.2224  0.2594  0.7491
 3546SOL    HW222275   4.129   0.756   2.940  0.6940  1.0506  0.0883
 3547SOL     OW22276   3.946   0.974   5.038 -0.0210 -0.3115 -0.0863
 3547SOL    HW122277   3.905   1.042   5.092  2.3455  0.2347  1.0593
 3547SOL    HW222278   3.967   0.899   5.094 -1.0105 -0.4599  0.0796
 3548SOL     OW22279   4.653   2.764  13.128 -0.1094  0.0830  0.1220
 3548SOL    HW122280   4.600   2.831  13.171  0.5798 -1.6898  3.7797
 3548SOL    HW222281   4.710   2.817  13.073  0.3818 -1.8037 -1.2145
 3549SOL     OW22282   0.906   0.653  10.810 -0.4586 -0.1832 -0.0293
 3549SOL    HW122283   0.952   0.668  10.892  1.0717 -0.8440 -0.7711
 3549SOL    HW222284   0.975   0.602  10.767 -1.9425 -1.7950 -0.5261
 3550SOL     OW22285   1.648   4.116   6.486  0.2383 -0.3708  0.8535
 3550SOL    HW122286   1.704   4.052   6.443 -0.1695 -0.5777  0.6252
 3550SOL    HW222287   1.622   4.173   6.413 -0.7472 -1.9719 -0.0511
 3551SOL     OW22288   3.748   0.761  11.468  0.4083 -0.0557 -0.4748
 3551SOL    HW122289   3.804   0.770  11.391 -1.5557  0.7587 -1.7993
 3551SOL    HW222290   3.805   0.719  11.533  2.0602  1.6472 -0.8391
 3552SOL     OW22291   2.633   3.224   5.487  0.0524  0.4835  0.1289
 3552SOL    HW122292   2.553   3.276   5.482 -0.7271 -0.9590 -2.7086
 3552SOL    HW222293   2.599   3.162   5.552  1.7404  0.4317  0.9573
 3553SOL     OW22294   3.022   2.705  16.011  0.6222  0.1439  0.1632
 3553SOL    HW122295   2.988   2.792  16.031  0.5399  0.3024 -0.6694
 3553SOL    HW222296   3.112   2.735  16.004  0.6641 -0.0818 -0.3106
 3554SOL     OW22297   1.907   4.684  12.249 -0.4540  0.6685  0.4762
 3554SOL    HW122298   1.929   0.037  12.218  0.1680  0.4042  0.1893
 3554SOL    HW222299   1.926   4.705  12.341 -0.7696  1.6495  0.3131
 3555SOL     OW22300   0.380   1.456  14.718  0.5122 -0.8560 -0.2333
 3555SOL    HW122301   0.464   1.441  14.762  0.6930 -2.0739 -1.0252
 3555SOL    HW222302   0.343   1.501  14.795  1.7118  0.2162 -0.2764
 3556SOL     OW22303   2.159   3.853  12.191  0.1009 -0.5520  0.2364
 3556SOL    HW122304   2.109   3.935  12.188 -1.0666 -1.1899  2.1948
 3556SOL    HW222305   2.109   3.800  12.128  0.9391  1.9669 -2.5115
 3557SOL     OW22306   1.445   0.483   0.463  1.0419  0.0122 -0.1416
 3557SOL    HW122307   1.440   0.501   0.370  0.4824  0.7913  0.0368
 3557SOL    HW222308   1.537   0.498   0.484  0.7223 -0.7437  1.7715
 3558SOL     OW22309   2.981   3.970  11.245 -0.6116  0.2614  0.8229
 3558SOL    HW122310   2.892   3.988  11.276 -0.5422 -1.8838  2.2898
 3558SOL    HW222311   3.029   4.037  11.294  2.0221 -1.1235  0.1601
 3559SOL     OW22312   4.711   2.002   5.339 -0.3642  0.1242 -0.5222
 3559SOL    HW122313   4.623   2.026   5.366  0.9305  2.1796  1.8625
 3559SOL    HW222314   0.020   1.998   5.424 -2.1420 -2.1373  0.2911
 3560SOL     OW22315   0.751   0.958   8.081 -0.1409  0.5719  0.8686
 3560SOL    HW122316   0.673   0.957   8.026  1.0476 -0.0062 -0.8075
 3560SOL    HW222317   0.756   1.050   8.108  1.1400  0.3708  1.3478
 3561SOL     OW22318   2.371   3.651   6.811 -0.0380 -0.1837 -0.4999
 3561SOL    HW122319   2.380   3.563   6.774  0.0942  0.0007 -0.9020
 3561SOL    HW222320   2.443   3.698   6.770  0.5145 -1.7543 -1.3301
 3562SOL     OW22321   3.918   1.705   4.790  0.1656 -0.6856  0.7987
 3562SOL    HW122322   3.948   1.660   4.712 -1.1003  2.9168 -1.7813
 3562SOL    HW222323   3.960   1.792   4.787 -3.6126  0.9976 -3.4518
 3563SOL     OW22324   0.318   0.767   5.780 -0.2712  0.2561 -0.2806
 3563SOL    HW122325   0.364   0.778   5.697 -0.8933  0.3119 -0.6097
 3563SOL    HW222326   0.345   0.679   5.806 -0.8870  0.5415  1.3229
 3564SOL     OW22327   4.698   2.858  10.840  0.4712  0.0859 -0.1507
 3564SOL    HW122328   4.694   2.806  10.759 -2.2556 -0.1498  0.1208
 3564SOL    HW222329   4.617   2.818  10.873 -0.1752  0.9485 -0.7119
 3565SOL     OW22330   3.629   4.650   0.546 -0.3907 -0.0864  0.5317
 3565SOL    HW122331   3.705   4.679   0.495 -1.2159 -0.7547 -1.0724
 3565SOL    HW222332   3.572   4.631   0.472  2.7036 -0.3183 -1.7770
 3566SOL     OW22333   0.401   3.057   4.949  0.0304 -0.2150 -0.4261
 3566SOL    HW122334   0.370   3.027   5.034  2.0637  0.3713  0.5132
 3566SOL    HW222335   0.405   3.152   4.965  1.2030 -0.7428  2.2853
 3567SOL     OW22336   2.820   4.185   9.445  0.4650  0.0319  0.0189
 3567SOL    HW122337   2.862   4.101   9.429 -0.0612 -0.4337  1.0536
 3567SOL    HW222338   2.776   4.203   9.362  0.4686  0.1184  0.0356
 3568SOL     OW22339   3.064   4.697  16.069 -1.1372  0.0044  0.1410
 3568SOL    HW122340   3.077   4.727  15.979  1.7813 -0.0797  0.5344
 3568SOL    HW222341   3.110   4.614  16.061 -0.2879  0.3724  1.1691
 3569SOL     OW22342   2.508   3.106   2.384  0.1741 -0.0725  0.4210
 3569SOL    HW122343   2.435   3.072   2.332  0.9091  0.0588 -0.6928
 3569SOL    HW222344   2.478   3.197   2.390  0.7751  0.1268  0.3522
 3570SOL     OW22345   0.277   1.539  12.163  0.2168  0.3941  0.2705
 3570SOL    HW122346   0.353   1.503  12.208  0.5518 -0.3170 -0.8618
 3570SOL    HW222347   0.263   1.625  12.203  0.0650 -0.5309  2.2228
 3571SOL     OW22348   2.833   1.343   0.194  0.1594  0.5138 -0.3189
 3571SOL    HW122349   2.887   1.375   0.266 -0.1442  1.9893 -0.7483
 3571SOL    HW222350   2.781   1.284   0.249 -0.8020  2.4746  0.8596
 3572SOL     OW22351   3.873   1.731   3.733 -0.1290  0.2876 -0.2947
 3572SOL    HW122352   3.915   1.817   3.738 -1.3275  0.7957  0.9887
 3572SOL    HW222353   3.790   1.742   3.779 -1.3334  1.5108 -2.7396
 3573SOL     OW22354   2.863   2.730   2.119  0.4853 -0.1491 -1.0656
 3573SOL    HW122355   2.895   2.691   2.038  2.1762 -1.5596  0.2710
 3573SOL    HW222356   2.769   2.739   2.104  0.6187  2.0780 -0.5348
 3574SOL     OW22357   3.386   4.196   0.836 -0.0511  0.1181  0.2484
 3574SOL    HW122358   3.303   4.242   0.828  0.3035  0.6096 -0.5862
 3574SOL    HW222359   3.356   4.110   0.867  2.5091 -1.2620 -1.0630
 3575SOL     OW22360   0.180   0.212   3.896 -0.3877 -0.2993 -0.1077
 3575SOL    HW122361   0.141   0.170   3.972 -1.3086  0.6899 -0.0219
 3575SOL    HW222362   0.158   0.304   3.911 -2.1489 -0.5135 -1.3432
 3576SOL     OW22363   4.583   1.392   3.567  0.0413 -0.1279  0.1724
 3576SOL    HW122364   4.529   1.445   3.508 -1.0358  0.0897  1.3557
 3576SOL    HW222365   4.533   1.409   3.647  1.5596  0.3880  1.0023
 3577SOL     OW22366   4.356   0.855   6.776 -0.4836  0.0285  0.2115
 3577SOL    HW122367   4.311   0.920   6.830 -0.3054  1.8140 -1.7828
 3577SOL    HW222368   4.449   0.877   6.780 -0.6471  0.8420 -0.4595
 3578SOL     OW22369   2.743   0.476   0.012  0.0255 -0.0614  0.3010
 3578SOL    HW122370   2.650   0.473  17.728  0.2809 -0.1274 -0.7794
 3578SOL    HW222371   2.736   0.453   0.105  0.3517  1.3311  0.6748
 3579SOL     OW22372   0.126   0.817   6.251  0.3754  0.1765 -0.2170
 3579SOL    HW122373   0.105   0.786   6.339  0.2479  0.7665 -0.0395
 3579SOL    HW222374   0.038   0.805   6.214  0.2129  3.4867 -0.8711
 3580SOL     OW22375   3.088   4.614   0.808 -0.0888 -0.1173  0.0924
 3580SOL    HW122376   3.085   4.694   0.861  0.9152 -2.0126  3.0419
 3580SOL    HW222377   3.176   4.615   0.773 -0.9722 -0.0393 -2.0971
 3581SOL     OW22378   2.442   0.877   5.523 -0.7579 -0.4749  0.1007
 3581SOL    HW122379   2.417   0.922   5.603  0.6909 -0.4729  0.5536
 3581SOL    HW222380   2.488   0.948   5.477 -0.6840 -1.0871 -0.7799
 3582SOL     OW22381   3.486   1.825   5.171  0.1009  0.6697  0.5719
 3582SOL    HW122382   3.460   1.898   5.227  0.2452  0.8368  0.4184
 3582SOL    HW222383   3.493   1.863   5.083 -0.9224  0.6642  0.4820
 3583SOL     OW22384   2.849   2.659   8.565 -0.4837 -0.2531  0.2788
 3583SOL    HW122385   2.873   2.680   8.656  0.3198 -0.1346  0.0343
 3583SOL    HW222386   2.863   2.564   8.558  0.4042  0.0087 -1.3273
 3584SOL     OW22387   0.723   1.402   5.315 -0.1515 -0.2074 -0.1779
 3584SOL    HW122388   0.737   1.496   5.318 -0.0602 -0.2258 -0.0322
 3584SOL    HW222389   0.760   1.367   5.396  0.6358  1.3530  0.1203
 3585SOL     OW22390   1.578   3.516   2.085 -0.8143  0.0353 -0.3814
 3585SOL    HW122391   1.510   3.583   2.069  1.1798  2.2948  0.5502
 3585SOL    HW222392   1.549   3.471   2.164 -4.9397  1.0560 -1.2780
 3586SOL     OW22393   0.521   0.300   7.353  0.6840 -0.3843  0.1950
 3586SOL    HW122394   0.517   0.322   7.446 -0.3459 -3.0319  0.7823
 3586SOL    HW222395   0.583   0.227   7.354  1.3769  0.2057  1.2880
 3587SOL     OW22396   1.810   0.765   1.694  0.4529 -0.2565  0.1432
 3587SOL    HW122397   1.850   0.678   1.696 -0.3505 -0.6251 -0.0205
 3587SOL    HW222398   1.854   0.812   1.765 -0.6548 -0.6072  1.0474
 3588SOL     OW22399   2.745   0.466   3.737  0.3828  0.4587  0.1361
 3588SOL    HW122400   2.725   0.479   3.644 -0.1844  0.3780  0.2490
 3588SOL    HW222401   2.657   0.441   3.763 -0.4105  1.7727 -1.2528
 3589SOL     OW22402   2.881   0.422   8.166  0.2353  0.4292  0.2262
 3589SOL    HW122403   2.922   0.454   8.086 -0.4687  2.2895  0.5930
 3589SOL    HW222404   2.949   0.375   8.213 -1.5780 -2.6549 -0.2611
 3590SOL     OW22405   2.063   4.033  13.645  0.6646  0.2544  0.3888
 3590SOL    HW122406   2.155   4.015  13.666  0.5338 -0.4206  0.3860
 3590SOL    HW222407   2.019   3.966  13.698 -1.0932  1.3190  0.2627
 3591SOL     OW22408   1.122   0.468   8.503 -0.1570 -0.1686  0.2397
 3591SOL    HW122409   1.116   0.546   8.558  1.2967  0.8337 -1.0340
 3591SOL    HW222410   1.162   0.501   8.423 -3.9715  1.3327 -1.0401
 3592SOL     OW22411   3.525   1.150   8.657 -0.1331 -0.3496 -0.1109
 3592SOL    HW122412   3.464   1.093   8.704 -0.2744  0.8933  1.2269
 3592SOL    HW222413   3.594   1.085   8.646  2.1240  1.8166  1.1277
 3593SOL     OW22414   2.489   3.846   5.121 -0.3763 -0.1369 -0.0669
 3593SOL    HW122415   2.397   3.866   5.140  0.2650  1.1119  1.6407
 3593SOL    HW222416   2.499   3.909   5.049 -1.5293 -1.1712 -1.1394
 3594SOL     OW22417   3.255   3.696   5.254 -0.8680 -0.8874 -0.1147
 3594SOL    HW122418   3.161   3.692   5.269 -1.0723  1.2045 -0.7947
 3594SOL    HW222419   3.273   3.617   5.204  3.2580 -0.6524  0.9793
 3595SOL     OW22420   1.107   1.989   5.504  0.1168 -0.8010 -0.3762
 3595SOL    HW122421   1.178   2.036   5.459  1.3565 -2.7208 -0.4257
 3595SOL    HW222422   1.120   2.007   5.597  2.0105  1.9394 -1.1454
 3596SOL     OW22423   4.578   2.315   0.413 -0.6335  0.5221 -0.0549
 3596SOL    HW122424   4.616   2.228   0.417 -2.4466 -0.4121 -3.3037
 3596SOL    HW222425   4.644   2.363   0.363 -1.2762  1.3556 -0.1140
 3597SOL     OW22426   4.730   3.567   8.774 -0.3647  0.2834 -0.0854
 3597SOL    HW122427   4.639   3.598   8.774 -0.2867  0.5107 -0.2498
 3597SOL    HW222428   4.725   3.483   8.818  0.8559  0.9538  1.3225
 3598SOL     OW22429   1.911   2.423  13.015  0.0085 -0.4197 -0.7677
 3598SOL    HW122430   1.924   2.346  13.070  1.6778 -0.7158 -1.5914
 3598SOL    HW222431   1.833   2.412  12.962 -0.7875 -1.4804  0.6306
 3599SOL     OW22432   1.443   3.423   2.328  0.6809  0.1099  0.4884
 3599SOL    HW122433   1.386   3.488   2.370  1.8644  2.0069 -0.8408
 3599SOL    HW222434   1.403   3.344   2.365  2.6006 -1.0406  0.1532
 3600SOL     OW22435   4.720   0.678   6.964 -0.0061 -0.1079  0.5087
 3600SOL    HW122436   4.672   0.736   6.905 -1.5283 -1.5959  0.2553
 3600SOL    HW222437   4.643   0.639   7.006  0.1240  0.2182  1.0364
 3601SOL     OW22438   0.829   3.382   3.813 -0.3645 -0.3451  0.4725
 3601SOL    HW122439   0.859   3.324   3.743 -2.7610 -0.6264 -0.3037
 3601SOL    HW222440   0.914   3.405   3.852  0.0356  1.7348 -1.6831
 3602SOL     OW22441   2.048   2.284   6.731  0.0377 -0.4362  0.0174
 3602SOL    HW122442   2.122   2.341   6.709  1.6813 -2.1083  1.2682
 3602SOL    HW222443   2.017   2.331   6.808  0.0231 -0.3314 -0.0516
 3603SOL     OW22444   1.109   3.136   5.577 -0.3628  0.0060 -0.9720
 3603SOL    HW122445   1.188   3.132   5.630 -1.5464 -2.8085  0.6167
 3603SOL    HW222446   1.126   3.065   5.515 -1.3557 -0.1937 -1.0230
 3604SOL     OW22447   4.249   1.962   3.014  0.4495  0.5111  0.6344
 3604SOL    HW122448   4.300   2.008   2.948  0.0398 -1.8159 -1.2912
 3604SOL    HW222449   4.163   1.978   2.975 -0.9160 -2.9659  2.2389
 3605SOL     OW22450   2.662   4.666   8.696 -0.3157 -0.3910 -0.3603
 3605SOL    HW122451   2.584   4.647   8.748  0.2768  0.7463  0.9291
 3605SOL    HW222452   2.699   4.580   8.676  1.2673  0.2280 -0.0751
 3606SOL     OW22453   4.509   1.770   3.337  0.4496 -0.3846 -0.3719
 3606SOL    HW122454   4.469   1.756   3.251  0.4638 -1.8020 -0.1480
 3606SOL    HW222455   4.511   1.864   3.354  0.6346 -0.5361  0.4372
 3607SOL     OW22456   2.557   4.232   8.168 -0.2972  0.1302 -0.4306
 3607SOL    HW122457   2.649   4.226   8.142 -0.5093  0.7011 -1.3003
 3607SOL    HW222458   2.535   4.141   8.188 -2.3258  0.9246  1.0153
 3608SOL     OW22459   2.547   4.705  11.605 -0.0628 -0.2936  0.7007
 3608SOL    HW122460   2.460   4.680  11.574 -0.7905  3.2376 -0.0034
 3608SOL    HW222461   2.581   4.620  11.633 -0.5785  0.1149  2.6049
 3609SOL     OW22462   0.415   1.420   2.302 -0.0789 -0.0864 -0.6416
 3609SOL    HW122463   0.492   1.378   2.263  0.5373 -2.1896  2.8870
 3609SOL    HW222464   0.427   1.511   2.276 -0.0111  0.3396  0.8474
 3610SOL     OW22465   3.444   2.701   9.472  0.4501  0.9385  0.2730
 3610SOL    HW122466   3.527   2.733   9.506  0.3895  1.6631 -0.2472
 3610SOL    HW222467   3.393   2.782   9.463 -0.5948  0.5499  2.6988
 3611SOL     OW22468   2.599   0.224   8.284  0.5146  0.0295  0.4127
 3611SOL    HW122469   2.673   0.255   8.337 -0.1037  1.3967  0.4768
 3611SOL    HW222470   2.567   0.148   8.331  4.5367 -2.1877 -0.4220
 3612SOL     OW22471   1.344   0.117   2.984 -0.2254 -0.0968 -0.0608
 3612SOL    HW122472   1.390   0.035   3.000  0.7580  0.6818  1.1252
 3612SOL    HW222473   1.273   0.084   2.929  1.5632 -2.6778 -0.8097
 3613SOL     OW22474   2.513   3.344   8.404  0.4248 -0.0819 -0.5963
 3613SOL    HW122475   2.599   3.371   8.434 -0.1121  0.6862  0.2680
 3613SOL    HW222476   2.476   3.426   8.372  0.2431  0.8220  1.9418
 3614SOL     OW22477   1.263   2.501  17.061  0.5257 -0.6567 -0.1957
 3614SOL    HW122478   1.197   2.468  17.123 -1.2379  0.9199 -1.2509
 3614SOL    HW222479   1.341   2.503  17.117 -0.2257  0.0265  0.8132
 3615SOL     OW22480   0.784   0.373  15.370 -0.4137  0.7484  0.3766
 3615SOL    HW122481   0.808   0.390  15.278 -1.4807 -2.5385 -0.4983
 3615SOL    HW222482   0.841   0.432  15.419  0.7380 -0.2941  0.2924
 3616SOL     OW22483   3.298   2.485   6.816  0.0080 -0.0147 -0.3283
 3616SOL    HW122484   3.257   2.431   6.884  1.1869 -0.5887 -0.0695
 3616SOL    HW222485   3.386   2.494   6.853 -0.0660  0.6662 -0.3213
 3617SOL     OW22486   2.873   2.711   7.060  0.6437  0.0713  0.4031
 3617SOL    HW122487   2.834   2.633   7.021  0.9669 -0.0834  0.3893
 3617SOL    HW222488   2.810   2.781   7.041 -0.7243 -1.3468 -0.2424
 3618SOL     OW22489   4.096   1.381   2.951  0.4014 -0.1497  0.7433
 3618SOL    HW122490   4.033   1.399   3.021 -1.9200  0.3063 -1.4849
 3618SOL    HW222491   4.034   1.407   2.884 -1.5268  0.0334  2.5963
 3619SOL     OW22492   3.372   1.849   4.347  0.0197  0.7152  0.0568
 3619SOL    HW122493   3.364   1.760   4.379  0.4438  0.0550 -1.6521
 3619SOL    HW222494   3.291   1.886   4.382 -0.3782 -0.6048  0.4986
 3620SOL     OW22495   3.182   2.199  14.179  0.2015 -0.2189 -0.3297
 3620SOL    HW122496   3.129   2.267  14.220  2.5265 -0.2853  2.7573
 3620SOL    HW222497   3.251   2.249  14.136  0.7942  0.0114  0.9047
 3621SOL     OW22498   0.031   3.486   4.323 -0.2092  0.0923  0.6150
 3621SOL    HW122499   4.715   3.491   4.404 -3.2517 -1.4752 -1.2292
 3621SOL    HW222500   0.102   3.548   4.343 -0.0778 -0.0731  0.6681
 3622SOL     OW22501   0.225   1.684   8.438  0.3949  0.5031  0.4824
 3622SOL    HW122502   0.140   1.717   8.466  0.2340  2.1044 -1.9435
 3622SOL    HW222503   0.221   1.589   8.452  0.6042  0.4260  0.0207
 3623SOL     OW22504   2.732   1.920   5.593 -0.0579 -0.0379 -0.0282
 3623SOL    HW122505   2.675   1.954   5.662  0.1974  1.3526 -0.4982
 3623SOL    HW222506   2.787   1.996   5.574  0.3234 -0.8996 -2.3674
 3624SOL     OW22507   3.969   1.387   3.178  0.0148 -0.4374  0.1233
 3624SOL    HW122508   4.003   1.337   3.253  1.0969  0.4272  0.2117
 3624SOL    HW222509   3.877   1.394   3.204 -0.1071  0.9301 -0.7122
 3625SOL     OW22510   4.145   2.780   2.518  0.1762 -0.0665  0.2554
 3625SOL    HW122511   4.102   2.723   2.454 -0.8295 -0.4844  1.2984
 3625SOL    HW222512   4.175   2.851   2.461  1.9520  0.7521  2.2144
 3626SOL     OW22513   2.269   2.193   2.971  0.6632  0.0785 -0.0842
 3626SOL    HW122514   2.217   2.113   2.977 -1.5858  1.5241 -0.2412
 3626SOL    HW222515   2.228   2.257   3.030 -0.4861 -1.8201  1.1745
 3627SOL     OW22516   0.979   0.249   6.024  0.2441 -0.0478  0.4765
 3627SOL    HW122517   0.983   0.317   6.091  2.9461 -0.2316  0.5308
 3627SOL    HW222518   0.888   0.222   6.033 -0.0221  0.6967 -0.0472
 3628SOL     OW22519   2.330   0.371  11.983  0.1131 -0.1654  0.0835
 3628SOL    HW122520   2.333   0.452  12.034  0.0469  0.2241 -0.5234
 3628SOL    HW222521   2.399   0.385  11.919 -0.5202 -1.5689 -0.9029
 3629SOL     OW22522   1.401   2.880   5.083  0.2467  0.7671 -0.6213
 3629SOL    HW122523   1.361   2.854   5.000  0.5675 -0.1095 -0.4928
 3629SOL    HW222524   1.327   2.857   5.140  2.0147 -1.6490  0.6616
 3630SOL     OW22525   0.602   0.978   7.379 -0.0531  0.2222 -0.5264
 3630SOL    HW122526   0.530   0.928   7.417 -1.1177  0.9236 -1.6127
 3630SOL    HW222527   0.623   0.921   7.305 -1.4890 -0.1053 -0.6840
 3631SOL     OW22528   4.107   2.062   8.128 -0.2028  0.6257  0.0762
 3631SOL    HW122529   4.183   2.057   8.186 -1.3796 -1.5226  1.4283
 3631SOL    HW222530   4.146   2.104   8.052  0.9170 -1.0168 -0.2564
 3632SOL     OW22531   3.286   3.360  14.898  0.6891  0.4130 -0.7952
 3632SOL    HW122532   3.332   3.421  14.840  1.5083  0.5140 -0.0340
 3632SOL    HW222533   3.284   3.281  14.843 -0.3375  0.0318 -0.1960
 3633SOL     OW22534   1.481   4.190   2.277  0.6565 -0.3213 -0.3906
 3633SOL    HW122535   1.564   4.157   2.241  0.6009 -0.9868  0.1122
 3633SOL    HW222536   1.471   4.131   2.351  0.1426 -0.8835 -0.9075
 3634SOL     OW22537   1.870   1.401   2.712  0.6243  0.2091  0.7182
 3634SOL    HW122538   1.931   1.340   2.754  0.7413 -0.4013 -0.3464
 3634SOL    HW222539   1.845   1.350   2.635  1.6468  0.9801 -0.1128
 3635SOL     OW22540   0.203   1.972   7.323  0.0547 -0.0133  0.0721
 3635SOL    HW122541   0.145   1.947   7.251  1.1265  3.7206 -2.1089
 3635SOL    HW222542   0.276   1.911   7.314 -0.0791  0.1456 -2.1136
 3636SOL     OW22543   0.431   0.345   1.268 -0.2651  0.8747  0.2216
 3636SOL    HW122544   0.406   0.381   1.183  1.3425 -0.6958 -0.9289
 3636SOL    HW222545   0.423   0.251   1.251 -1.9819  0.6450  2.2215
 3637SOL     OW22546   1.460   0.397   4.157 -0.5612  0.5353 -0.7987
 3637SOL    HW122547   1.518   0.387   4.081  1.2989  3.2101  0.2803
 3637SOL    HW222548   1.385   0.348   4.124  0.3662  0.8049 -3.3201
 3638SOL     OW22549   1.235   4.339   6.044  0.3835  0.3646  1.0499
 3638SOL    HW122550   1.171   4.389   5.993 -0.7289 -0.7281  1.3708
 3638SOL    HW222551   1.208   4.349   6.136 -1.4960  4.6932  0.0436
 3639SOL     OW22552   3.698   0.261  12.695  0.3581  0.3917 -0.2038
 3639SOL    HW122553   3.672   0.188  12.751  0.2688  1.4966  1.1760
 3639SOL    HW222554   3.712   0.214  12.612 -1.5745 -2.0486  0.8789
 3640SOL     OW22555   3.911   3.968   4.870 -0.2260  0.3041 -0.7745
 3640SOL    HW122556   3.854   3.895   4.844 -3.4621  2.0586  1.4489
 3640SOL    HW222557   3.982   3.959   4.806  1.9026  1.2058  1.4918
 3641SOL     OW22558   4.583   1.729   5.082  0.1290 -0.1862  0.1444
 3641SOL    HW122559   4.662   1.693   5.121  1.1086  0.8815 -0.8673
 3641SOL    HW222560   4.537   1.645   5.077  0.1056 -0.1419 -0.3362
 3642SOL     OW22561   0.329   3.897  17.683  0.6921 -0.1672 -0.0561
 3642SOL    HW122562   0.412   3.870  17.724 -0.8575 -1.9107  1.9640
 3642SOL    HW222563   0.306   3.821  17.630  1.8685 -0.5856  0.0338
 3643SOL     OW22564   1.850   3.040   2.369  0.5323  0.7807 -0.4240
 3643SOL    HW122565   1.816   2.952   2.383  3.4598 -0.1621  0.7278
 3643SOL    HW222566   1.774   3.087   2.334  1.3827  1.2727 -1.6160
 3644SOL     OW22567   0.942   3.374   7.694 -0.1770  0.2665  0.2921
 3644SOL    HW122568   0.990   3.447   7.734  1.2963 -0.1492 -0.7216
 3644SOL    HW222569   1.006   3.338   7.634 -0.3013  0.6996 -0.1033
 3645SOL     OW22570   0.598   4.574   3.770  0.1720  0.6390  0.2585
 3645SOL    HW122571   0.555   4.582   3.856 -1.5340  0.3025 -0.5658
 3645SOL    HW222572   0.522   4.604   3.719  0.2139  1.8204  0.8714
 3646SOL     OW22573   0.501   2.525   4.315  0.2413 -0.2357  0.0770
 3646SOL    HW122574   0.513   2.431   4.302 -1.5118 -0.2396 -1.4531
 3646SOL    HW222575   0.486   2.557   4.226 -0.0638  1.7576  0.8512
 3647SOL     OW22576   2.589   4.219   1.952  0.0555  0.3651  0.0513
 3647SOL    HW122577   2.553   4.233   1.864  3.2292  0.7845 -1.1807
 3647SOL    HW222578   2.583   4.309   1.982 -1.9556  0.6894 -1.2848
 3648SOL     OW22579   4.468   0.616   4.293  0.3472 -0.4335 -0.6253
 3648SOL    HW122580   4.423   0.582   4.216 -0.4889 -1.7765  0.4384
 3648SOL    HW222581   4.490   0.533   4.337 -3.6463 -0.6592  1.0102
 3649SOL     OW22582   3.709   1.470   1.080 -0.5392 -0.1327 -0.2979
 3649SOL    HW122583   3.707   1.566   1.069  2.8940  0.0795  1.0659
 3649SOL    HW222584   3.790   1.444   1.036  0.4889  1.1925  0.8157
 3650SOL     OW22585   2.569   0.310   0.211 -0.4087  0.0888 -0.4757
 3650SOL    HW122586   2.560   0.224   0.252  0.0658  1.7750  3.1807
 3650SOL    HW222587   2.480   0.324   0.178 -0.8013 -0.5006  0.3326
 3651SOL     OW22588   4.265   0.661   5.340 -0.1442 -0.7234  0.2500
 3651SOL    HW122589   4.195   0.723   5.319  0.1257 -0.3846  0.3630
 3651SOL    HW222590   4.341   0.719   5.339 -0.5344 -0.1976  1.8873
 3652SOL     OW22591   3.596   1.862   3.158  0.7326  0.3262  0.2608
 3652SOL    HW122592   3.640   1.914   3.225  3.2182  0.0799 -1.1819
 3652SOL    HW222593   3.530   1.817   3.212 -0.0335  0.3197 -0.6861
 3653SOL     OW22594   4.389   3.815  14.097  0.0600  0.0444 -0.1689
 3653SOL    HW122595   4.365   3.875  14.168 -1.8110 -0.1750 -0.6324
 3653SOL    HW222596   4.396   3.885  14.031  1.6949  0.7480  0.7458
 3654SOL     OW22597   2.025   1.596   6.402  0.3185 -0.3500 -0.1782
 3654SOL    HW122598   1.943   1.646   6.401  0.4945 -0.0526  0.0761
 3654SOL    HW222599   2.095   1.659   6.422 -0.2411  0.3754 -0.4944
 3655SOL     OW22600   1.639   2.861  12.119 -0.7707  0.0887  0.1770
 3655SOL    HW122601   1.695   2.815  12.182  0.1367  0.2368 -0.5262
 3655SOL    HW222602   1.574   2.898  12.179  0.1243  0.0378  1.1808
 3656SOL     OW22603   4.335   1.610   7.693 -0.1879  0.6705 -0.3239
 3656SOL    HW122604   4.367   1.685   7.642 -1.4020  0.8660 -0.7874
 3656SOL    HW222605   4.351   1.639   7.783  1.9307  1.3343 -0.9097
 3657SOL     OW22606   1.516   4.615   0.467  0.2541 -0.0291 -0.6295
 3657SOL    HW122607   1.502   4.698   0.513 -3.1448 -0.5994 -0.6636
 3657SOL    HW222608   1.609   4.630   0.448  0.1521 -0.8547 -1.8276
 3658SOL     OW22609   4.660   3.871   7.609 -0.4104 -0.1044 -0.1075
 3658SOL    HW122610   4.628   3.799   7.556  0.9454 -1.1260  0.4587
 3658SOL    HW222611   4.640   3.946   7.553 -1.4693 -0.3216 -0.0305
 3659SOL     OW22612   2.726   1.485  11.237  0.1950 -0.2545 -0.0649
 3659SOL    HW122613   2.693   1.472  11.326 -0.7265 -0.5323 -0.4458
 3659SOL    HW222614   2.644   1.514  11.196  0.2608 -1.7484 -1.2740
 3660SOL     OW22615   0.576   3.793   4.573 -0.0674 -0.2170  0.5343
 3660SOL    HW122616   0.662   3.825   4.598  0.5107 -1.4612  0.1477
 3660SOL    HW222617   0.587   3.699   4.585  0.3374 -0.0436  1.4732
 3661SOL     OW22618   3.357   2.234   6.322 -0.3130  0.1829 -0.4617
 3661SOL    HW122619   3.295   2.303   6.300  0.1479  1.0085  0.8879
 3661SOL    HW222620   3.378   2.195   6.237  3.1803  1.1246 -0.0265
 3662SOL     OW22621   3.774   4.721   3.936 -0.0852 -0.9291 -0.2463
 3662SOL    HW122622   3.867   4.703   3.923  0.3101  0.9138  0.0991
 3662SOL    HW222623   3.763   0.045   3.861 -1.3295 -0.2228  0.4960
 3663SOL     OW22624   2.860   3.969   0.700 -0.4157 -0.3017 -0.3242
 3663SOL    HW122625   2.955   3.965   0.705 -0.4701 -0.0322  1.0069
 3663SOL    HW222626   2.836   3.990   0.610 -0.0979 -1.1542 -0.6132
 3664SOL     OW22627   0.921   0.615   7.330 -0.1099  0.6543  0.2998
 3664SOL    HW122628   0.931   0.654   7.417  0.0017 -2.7193  1.7978
 3664SOL    HW222629   0.933   0.525   7.360 -1.4864  0.6866  0.9616
 3665SOL     OW22630   2.904   0.949   9.819  0.3294 -0.3410  0.0517
 3665SOL    HW122631   2.827   0.972   9.871  1.1865 -0.5007  1.3792
 3665SOL    HW222632   2.946   0.874   9.861 -0.2095  0.1189  1.4231
 3666SOL     OW22633   4.061   2.687   0.691 -0.7135  0.2195  0.5175
 3666SOL    HW122634   4.147   2.710   0.726 -0.1334  1.3057 -1.6608
 3666SOL    HW222635   4.007   2.766   0.697 -0.9663 -0.2997  4.8259
 3667SOL     OW22636   0.178   2.347   2.864 -0.6106 -0.6305  0.0222
 3667SOL    HW122637   0.154   2.420   2.921 -0.7926  1.1080 -2.2835
 3667SOL    HW222638   0.273   2.360   2.863 -0.9184  1.5348  0.2297
 3668SOL     OW22639   2.935   3.218   3.457  0.0170  0.3112  0.3924
 3668SOL    HW122640   2.947   3.257   3.370  1.4060 -2.1056 -0.5267
 3668SOL    HW222641   2.841   3.201   3.460  0.0468 -0.0304 -0.4134
 3669SOL     OW22642   2.825   1.267   3.564  0.0677  0.3657 -0.0281
 3669SOL    HW122643   2.912   1.306   3.564 -0.3756  1.3396  2.0482
 3669SOL    HW222644   2.844   1.199   3.499 -0.2725 -1.5335  1.8777
 3670SOL     OW22645   2.202   4.682   9.834 -0.0726 -0.0896  0.0729
 3670SOL    HW122646   2.202   4.702   9.927 -0.2123 -2.0326  0.4938
 3670SOL    HW222647   2.175   0.035   9.810  0.6132 -0.0954 -0.7376
 3671SOL     OW22648   3.398   2.375   3.152 -0.2902  0.1473  0.1770
 3671SOL    HW122649   3.437   2.436   3.215  0.6325 -2.3371  2.0194
 3671SOL    HW222650   3.399   2.425   3.071  4.3550  0.7587  0.5922
 3672SOL     OW22651   0.500   2.824   6.050 -0.1299  0.2826 -0.6358
 3672SOL    HW122652   0.570   2.805   5.988  0.3108 -0.7227  0.1658
 3672SOL    HW222653   0.522   2.913   6.078 -0.4295 -0.1241  0.9377
 3673SOL     OW22654   0.486   1.832   4.543 -0.1681 -0.3162 -0.1337
 3673SOL    HW122655   0.394   1.819   4.565 -0.7131 -0.3314 -2.3817
 3673SOL    HW222656   0.514   1.874   4.624 -1.5003 -1.7417  1.0394
 3674SOL     OW22657   4.513   0.288   8.195  0.1777 -0.0146  0.1252
 3674SOL    HW122658   4.430   0.300   8.240 -0.7846  0.5184 -1.8024
 3674SOL    HW222659   4.511   0.196   8.167 -1.6453 -0.1909  0.8239
 3675SOL     OW22660   1.009   3.102   4.285 -0.7942  0.4074  0.2883
 3675SOL    HW122661   0.914   3.116   4.289 -0.9237 -0.7832  1.3961
 3675SOL    HW222662   1.036   3.164   4.218  2.8230 -0.6076  0.7653
 3676SOL     OW22663   3.212   2.395   8.775  0.0150 -0.3643 -0.5369
 3676SOL    HW122664   3.139   2.391   8.838  0.3955  1.4004  0.0135
 3676SOL    HW222665   3.219   2.303   8.750 -1.4889  0.5538 -4.2915
 3677SOL     OW22666   0.832   4.041   9.747  0.5170 -0.3532  0.1774
 3677SOL    HW122667   0.793   3.981   9.685  3.2704 -1.5003 -0.4467
 3677SOL    HW222668   0.815   4.127   9.707 -0.0285 -1.3803 -1.7854
 3678SOL     OW22669   4.065   3.360   4.479 -0.5081 -0.2273  0.1005
 3678SOL    HW122670   4.045   3.267   4.488 -0.6539 -0.2767 -0.6887
 3678SOL    HW222671   3.989   3.403   4.518 -0.3368 -1.0378  1.3380
 3679SOL     OW22672   4.593   1.164   3.733  0.3246 -0.0232  0.0354
 3679SOL    HW122673   4.576   1.232   3.667 -3.1170 -0.4098  0.5217
 3679SOL    HW222674   4.581   1.218   3.811  1.2385 -1.5189  1.1870
 3680SOL     OW22675   2.236   2.773   3.513  0.4159 -0.4471  0.3039
 3680SOL    HW122676   2.146   2.791   3.485  0.7549 -0.0900 -0.5630
 3680SOL    HW222677   2.296   2.838   3.474 -0.2309  1.1745  2.0118
 3681SOL     OW22678   0.919   3.961   5.504  0.6603  0.7811 -0.6064
 3681SOL    HW122679   0.897   3.975   5.412  2.1117  1.0048 -0.9260
 3681SOL    HW222680   0.970   4.039   5.527 -0.9777  1.2225  1.5769
 3682SOL     OW22681   3.915   3.210   7.316 -0.1282 -0.1953  0.0497
 3682SOL    HW122682   3.997   3.202   7.268  0.3328 -1.4303  1.0510
 3682SOL    HW222683   3.897   3.304   7.312  3.2866  0.4341 -0.3086
 3683SOL     OW22684   0.168   2.799   7.263 -1.1005  0.2285  0.0006
 3683SOL    HW122685   0.103   2.808   7.333  1.2449  2.3143  1.8810
 3683SOL    HW222686   0.245   2.764   7.307  0.1092  1.9161 -0.7619
 3684SOL     OW22687   1.204   2.976   2.974  0.8996  0.2159 -0.0951
 3684SOL    HW122688   1.183   3.031   2.899  1.4533  1.4923  0.6881
 3684SOL    HW222689   1.296   3.004   2.970  0.8253  0.6630  1.5209
 3685SOL     OW22690   3.385   0.419  12.563  0.3976 -0.2048 -0.5050
 3685SOL    HW122691   3.461   0.470  12.593 -0.0481 -1.0723  2.0359
 3685SOL    HW222692   3.327   0.487  12.528  1.2371  0.5561 -0.4224
 3686SOL     OW22693   1.415   1.840   4.690  0.7427 -0.1504 -0.0885
 3686SOL    HW122694   1.324   1.870   4.685  0.2876 -1.5385 -0.0496
 3686SOL    HW222695   1.405   1.754   4.731 -2.2997  0.2769  0.0844
 3687SOL     OW22696   2.207   0.555   8.314  0.1835  0.2919  0.2882
 3687SOL    HW122697   2.295   0.576   8.284  0.8428 -0.6093  1.5839
 3687SOL    HW222698   2.161   0.628   8.273 -0.5366 -0.3377 -0.0481
 3688SOL     OW22699   3.696   3.566   1.066  1.3218  0.3415 -0.7422
 3688SOL    HW122700   3.788   3.544   1.079  0.6697 -0.5641  2.3388
 3688SOL    HW222701   3.711   3.623   0.991  0.6807 -1.1174 -1.9805
 3689SOL     OW22702   4.272   0.234   8.345  0.3759 -0.2007  0.2806
 3689SOL    HW122703   4.276   0.200   8.435 -0.0910 -0.2562  0.2832
 3689SOL    HW222704   4.192   0.190   8.315 -0.4916  1.6462 -0.1227
 3690SOL     OW22705   1.992   4.619   0.270 -0.2881 -0.3054 -0.5234
 3690SOL    HW122706   2.009   4.567   0.192 -3.2144 -1.6566 -0.2634
 3690SOL    HW222707   1.975   4.709   0.241  3.2527 -0.4386 -2.9375
 3691SOL     OW22708   1.266   0.581  12.866 -0.6321  0.6903 -0.4388
 3691SOL    HW122709   1.333   0.626  12.816 -0.9198 -1.3680 -2.6964
 3691SOL    HW222710   1.217   0.544  12.792  0.7332 -0.6470 -0.6650
 3692SOL     OW22711   3.410   3.504   5.445 -0.0535  0.0650  0.7188
 3692SOL    HW122712   3.417   3.481   5.352  0.3433  2.2295  0.2167
 3692SOL    HW222713   3.470   3.578   5.445  0.6144 -0.4706 -0.9825
 3693SOL     OW22714   2.139   3.932   8.662 -0.1004  0.0031 -0.3122
 3693SOL    HW122715   2.103   3.893   8.742 -0.9134 -2.1595 -1.7220
 3693SOL    HW222716   2.058   3.969   8.627 -0.5261  0.3863  1.0773
 3694SOL     OW22717   4.604   2.962   7.341  0.6680 -0.4446  0.6142
 3694SOL    HW122718   4.686   3.012   7.342  0.0207  0.5740  3.6960
 3694SOL    HW222719   4.621   2.887   7.397  1.7173 -2.2933 -2.1688
 3695SOL     OW22720   4.002   0.581   4.340 -0.6769  0.2019  0.1451
 3695SOL    HW122721   4.048   0.508   4.381  2.6187  1.8578 -0.5401
 3695SOL    HW222722   3.968   0.552   4.255 -2.2947  1.3379  0.4084
 3696SOL     OW22723   1.944   3.189   8.894  0.7754 -1.3796 -0.0800
 3696SOL    HW122724   1.863   3.140   8.907  0.5684 -0.8775  0.5350
 3696SOL    HW222725   2.005   3.121   8.866  1.4924 -0.6630 -0.2443
 3697SOL     OW22726   1.023   1.062   1.270  0.2474 -0.4047 -0.1807
 3697SOL    HW122727   0.948   1.051   1.211  0.6133  0.5431 -0.8256
 3697SOL    HW222728   0.978   1.039   1.352  2.0861 -1.0325  0.6468
 3698SOL     OW22729   3.835   0.995   0.544 -0.3755  0.6067 -0.3259
 3698SOL    HW122730   3.772   0.928   0.517  0.0563  0.3073 -0.5737
 3698SOL    HW222731   3.809   1.070   0.491  0.8737 -0.3095 -2.2031
 3699SOL     OW22732   3.030   1.653   2.880  0.2610  0.1591 -0.0315
 3699SOL    HW122733   3.055   1.729   2.931 -1.1472  0.5138  0.1319
 3699SOL    HW222734   2.943   1.683   2.852  1.0692  1.9576 -0.5607
 3700SOL     OW22735   0.400   2.267   1.188  0.6291  0.5679 -0.9321
 3700SOL    HW122736   0.345   2.327   1.238 -0.5698 -1.2978  0.0048
 3700SOL    HW222737   0.337   2.205   1.151 -0.4958  0.5551  1.0088
 3701SOL     OW22738   3.465   4.526  10.946 -0.1409  0.3312 -0.4066
 3701SOL    HW122739   3.452   4.621  10.935  1.4107  0.2829 -2.6609
 3701SOL    HW222740   3.435   4.496  10.860  1.0067 -1.1298 -0.2920
 3702SOL     OW22741   0.956   0.295   6.731 -0.7348  0.2154  0.1319
 3702SOL    HW122742   0.974   0.202   6.746 -0.6570  0.0963 -0.7339
 3702SOL    HW222743   1.036   0.337   6.765 -0.1794 -0.6767 -0.0728
 3703SOL     OW22744   3.011   0.623   5.447  0.2963 -0.1774 -0.0432
 3703SOL    HW122745   3.055   0.554   5.498 -1.4312 -1.6960 -0.6008
 3703SOL    HW222746   2.919   0.602   5.463  0.8876 -2.8139 -0.0923
 3704SOL     OW22747   2.552   1.704   5.229 -0.1129  0.0953  0.1980
 3704SOL    HW122748   2.585   1.713   5.140 -1.0662 -0.3957 -0.2024
 3704SOL    HW222749   2.632   1.728   5.276  0.1578  2.3042 -1.3610
 3705SOL     OW22750   4.554   4.325   1.901 -0.6159  1.0590  0.2220
 3705SOL    HW122751   4.547   4.373   1.983 -2.0526 -0.0890  0.7666
 3705SOL    HW222752   4.627   4.268   1.921  0.1934  1.0283 -2.7016
 3706SOL     OW22753   2.210   4.230   6.957  0.1203  0.1373  0.0459
 3706SOL    HW122754   2.179   4.321   6.952  0.4448  0.1625 -1.4895
 3706SOL    HW222755   2.251   4.222   7.043 -0.4576 -2.1716  0.1111
 3707SOL     OW22756   4.299   0.736   3.323 -0.4826  0.8511 -0.0521
 3707SOL    HW122757   4.392   0.733   3.302 -0.4428 -2.3782  0.4842
 3707SOL    HW222758   4.293   0.693   3.408  1.6695 -2.6177 -1.6358
 3708SOL     OW22759   4.152   4.424   8.742  0.3531  1.1061  0.1056
 3708SOL    HW122760   4.173   4.502   8.794  0.6329  1.4217 -0.4913
 3708SOL    HW222761   4.229   4.422   8.686  0.3571 -1.0694  0.1754
 3709SOL     OW22762   4.144   3.628   4.666 -0.1559 -0.0175  0.5036
 3709SOL    HW122763   4.067   3.617   4.722 -0.5431 -1.9097 -0.3975
 3709SOL    HW222764   4.206   3.586   4.725 -0.4682  1.5877  1.9850
 3710SOL     OW22765   3.525   3.331   6.495 -0.1666  0.1228 -0.4679
 3710SOL    HW122766   3.598   3.278   6.528 -1.0968 -0.4072  0.7567
 3710SOL    HW222767   3.500   3.388   6.568  0.7693 -0.8843  0.6459
 3711SOL     OW22768   3.505   1.861  16.753  0.5325 -0.1092 -0.1780
 3711SOL    HW122769   3.478   1.951  16.733 -1.3779 -0.9754 -1.4492
 3711SOL    HW222770   3.550   1.873  16.837  0.1063 -1.2689  0.2054
 3712SOL     OW22771   3.154   2.883   8.788  0.1868  0.2552 -0.8073
 3712SOL    HW122772   3.060   2.893   8.772  0.3254 -0.1776 -1.8818
 3712SOL    HW222773   3.195   2.968   8.802 -1.6041  1.1769 -1.2129
 3713SOL     OW22774   3.208   0.015   5.873  0.2459  1.0767  0.2412
 3713SOL    HW122775   3.279   4.699   5.912 -1.2305  0.9297  2.7644
 3713SOL    HW222776   3.134   4.689   5.876 -0.0510  1.4213 -0.0488
 3714SOL     OW22777   2.319   1.403   6.050 -0.4969  0.3928  0.2836
 3714SOL    HW122778   2.246   1.416   6.111  1.2932  2.5642  1.9969
 3714SOL    HW222779   2.360   1.330   6.096  0.7783 -0.6494 -2.5532
 3715SOL     OW22780   4.019   3.778   3.542  0.2037  0.2316 -0.2470
 3715SOL    HW122781   3.931   3.741   3.534  0.8496 -1.4361  0.3124
 3715SOL    HW222782   4.080   3.706   3.526  0.5660  0.2265  1.1670
 3716SOL     OW22783   4.228   2.869   5.244  0.5458  0.2377 -0.4690
 3716SOL    HW122784   4.168   2.866   5.170  1.2497  0.7812 -1.0604
 3716SOL    HW222785   4.246   2.776   5.252 -0.0473  0.0799 -0.9798
 3717SOL     OW22786   0.817   3.170  16.562 -0.4581 -0.4650  0.4924
 3717SOL    HW122787   0.912   3.159  16.565 -0.7017 -1.8658  2.8561
 3717SOL    HW222788   0.810   3.233  16.490 -1.1403  0.3449  1.2698
 3718SOL     OW22789   1.152   4.246   1.957 -0.2983  0.2871  0.4464
 3718SOL    HW122790   1.177   4.287   1.874 -0.3382  1.9859  1.2632
 3718SOL    HW222791   1.137   4.319   2.017 -1.0467  0.3650  0.1634
 3719SOL     OW22792   0.136   0.469   4.060 -0.2234 -0.1833  0.1664
 3719SOL    HW122793   0.058   0.467   4.004 -1.0133  2.4008  1.1912
 3719SOL    HW222794   0.114   0.525   4.135 -0.5479  1.1796 -0.9397
 3720SOL     OW22795   2.303   0.687  14.746 -0.4331  0.1410 -0.4361
 3720SOL    HW122796   2.302   0.708  14.839  0.9915 -2.2297  0.0880
 3720SOL    HW222797   2.237   0.617  14.745 -0.0181 -0.2667  0.6172
 3721SOL     OW22798   0.696   4.283   3.240  0.5155  0.7389 -0.6052
 3721SOL    HW122799   0.655   4.365   3.268  0.7961  0.5260  0.4402
 3721SOL    HW222800   0.625   4.220   3.244  0.8912  0.4828  2.1298
 3722SOL     OW22801   0.748   3.660   3.738  0.0171  0.1050  0.0945
 3722SOL    HW122802   0.663   3.665   3.782  0.5554 -2.9953  1.4918
 3722SOL    HW222803   0.768   3.577   3.782 -0.9871  0.6505  1.5654
 3723SOL     OW22804   0.194   2.905   3.736  0.0114 -0.4718 -0.1253
 3723SOL    HW122805   0.133   2.930   3.667 -1.0384 -0.9671  0.6256
 3723SOL    HW222806   0.283   2.930   3.710 -0.0600  0.5632  0.5958
 3724SOL     OW22807   0.291   1.659  14.506  0.6038  0.0372 -0.0150
 3724SOL    HW122808   0.213   1.612  14.476  2.5293 -1.3639 -2.7284
 3724SOL    HW222809   0.303   1.616  14.591 -6.0368  1.1371  1.5140
 3725SOL     OW22810   3.427   1.524   0.940 -0.5831  0.3598  0.5655
 3725SOL    HW122811   3.499   1.567   0.894  1.0053 -0.1867  2.5015
 3725SOL    HW222812   3.392   1.605   0.979  0.1637 -0.6337  3.3392
 3726SOL     OW22813   1.306   4.336   8.764  0.0538 -0.0086  0.3817
 3726SOL    HW122814   1.310   4.241   8.751  2.0788  0.4056 -2.0539
 3726SOL    HW222815   1.239   4.358   8.699  0.5038 -0.6120 -0.2933
 3727SOL     OW22816   0.460   0.898  10.984 -0.2979  0.1844  0.0268
 3727SOL    HW122817   0.410   0.928  10.908 -0.1043  0.3774 -0.0243
 3727SOL    HW222818   0.546   0.897  10.942 -0.7703 -1.6556 -0.8965
 3728SOL     OW22819   2.707   1.935  16.659 -0.3266  0.0598 -0.0605
 3728SOL    HW122820   2.615   1.917  16.640 -0.5701  1.2899 -0.0163
 3728SOL    HW222821   2.733   1.997  16.592 -0.2383 -1.6600 -1.6237
 3729SOL     OW22822   1.198   1.677   5.145 -0.0390  0.3639 -0.1434
 3729SOL    HW122823   1.271   1.630   5.187  0.3384  0.2062 -0.9624
 3729SOL    HW222824   1.128   1.624   5.181  1.2071 -1.6264 -0.6414
 3730SOL     OW22825   1.671   2.203  17.132  0.1803 -0.2763  0.3753
 3730SOL    HW122826   1.593   2.164  17.091  0.1353 -3.4586  3.4788
 3730SOL    HW222827   1.675   2.154  17.214 -1.3914  0.9583  1.2000
 3731SOL     OW22828   0.773   0.669   8.500 -0.2333  0.2950  0.0919
 3731SOL    HW122829   0.765   0.761   8.526 -1.9289 -0.4173  2.1776
 3731SOL    HW222830   0.786   0.633   8.588 -3.4490 -0.5847  0.2325
 3732SOL     OW22831   4.682   4.455  11.373 -0.9420 -0.0119 -0.1050
 3732SOL    HW122832   0.024   4.418  11.417 -0.0195 -1.3725 -2.8104
 3732SOL    HW222833   4.721   4.461  11.285  0.4690  0.9240  0.5771
 3733SOL     OW22834   3.606   1.581  15.579 -0.3664  0.0881 -0.0878
 3733SOL    HW122835   3.528   1.637  15.586  2.2995  3.5967  1.3037
 3733SOL    HW222836   3.569   1.523  15.512 -1.1127 -1.2828  1.5052
 3734SOL     OW22837   0.461   0.795   4.772 -0.1598 -0.0579  0.6197
 3734SOL    HW122838   0.538   0.743   4.791  0.4194 -0.6789 -3.4378
 3734SOL    HW222839   0.407   0.739   4.715  0.5510 -0.1656  0.0524
 3735SOL     OW22840   0.185   4.387   8.257  0.0912 -0.2483  0.2997
 3735SOL    HW122841   0.221   4.383   8.346 -1.3186  1.4398  0.9564
 3735SOL    HW222842   0.204   4.300   8.223  0.0896  0.2516 -0.9542
 3736SOL     OW22843   0.692   2.670   1.835  0.2488 -0.5706  0.1757
 3736SOL    HW122844   0.772   2.624   1.809  0.7583 -1.3160  3.0583
 3736SOL    HW222845   0.628   2.605   1.806 -0.6961  0.7684 -0.7597
 3737SOL     OW22846   1.780   1.747   1.914  0.5488 -0.0611  1.1528
 3737SOL    HW122847   1.706   1.717   1.862  0.6281  2.6879 -0.5781
 3737SOL    HW222848   1.743   1.820   1.964  0.3526  0.0738  0.8099
 3738SOL     OW22849   3.183   2.786   6.882  0.8523 -0.5378 -0.2526
 3738SOL    HW122850   3.095   2.769   6.849  1.8999 -1.7809 -2.3674
 3738SOL    HW222851   3.219   2.699   6.902  0.7007 -0.7699 -0.9889
 3739SOL     OW22852   0.773   2.315   9.243  0.3537  0.3148  0.3833
 3739SOL    HW122853   0.733   2.398   9.217  1.4143  1.1460  1.3896
 3739SOL    HW222854   0.716   2.249   9.203 -0.8919  1.2174  0.6623
 3740SOL     OW22855   4.103   4.686   2.035  0.2118 -0.0146  0.1212
 3740SOL    HW122856   4.180   4.692   2.092  2.0087 -3.7382 -1.9091
 3740SOL    HW222857   4.121   0.031   1.985  0.0890 -1.5969 -2.3983
 3741SOL     OW22858   3.204   0.075   0.602  0.3866 -0.5927  0.3758
 3741SOL    HW122859   3.139   0.144   0.595  1.5897  0.4162 -0.8143
 3741SOL    HW222860   3.164   0.003   0.553  1.8416 -0.6438 -0.7323
 3742SOL     OW22861   0.037   2.536   3.930 -0.4364  0.8816 -0.3356
 3742SOL    HW122862   0.069   2.555   3.842  0.5358  1.5592  0.1591
 3742SOL    HW222863   4.726   2.617   3.950 -1.1479  0.7212 -1.3681
 3743SOL     OW22864   3.534   2.416   2.396  0.2149 -0.0887 -0.6196
 3743SOL    HW122865   3.446   2.383   2.410  0.1319  1.2466  2.1389
 3743SOL    HW222866   3.602   2.358   2.430  1.3613  0.1583 -2.5338
 3744SOL     OW22867   0.927   3.762   6.381  0.4352  0.1887  0.1536
 3744SOL    HW122868   1.009   3.715   6.367  0.1631  0.1759 -1.3541
 3744SOL    HW222869   0.928   3.818   6.304  0.1141  0.0511  0.0490
 3745SOL     OW22870   2.613   1.077   4.415 -0.3574  0.2030  0.1751
 3745SOL    HW122871   2.693   1.121   4.444 -1.6698  2.0480  0.9695
 3745SOL    HW222872   2.641   0.986   4.407  2.0022  1.4131 -4.6729
 3746SOL     OW22873   3.264   3.893   6.271  0.0183  0.4127 -0.2209
 3746SOL    HW122874   3.201   3.920   6.204 -1.9542  1.2095  1.9594
 3746SOL    HW222875   3.282   3.971   6.323  3.6095  0.3493 -1.3281
 3747SOL     OW22876   0.137   0.914   7.512 -0.1510  0.1467  0.5458
 3747SOL    HW122877   0.157   0.979   7.444 -1.2384  2.7909  2.7562
 3747SOL    HW222878   0.227   0.904   7.543 -0.2142  1.9330  1.2840
 3748SOL     OW22879   1.135   0.911  14.406  0.4019  0.0374 -0.5066
 3748SOL    HW122880   1.215   0.864  14.430 -1.2461 -2.2480  0.5979
 3748SOL    HW222881   1.144   1.003  14.431 -0.1166 -0.2578  0.7718
 3749SOL     OW22882   0.327   3.800   6.214 -0.0926 -0.5621  0.0648
 3749SOL    HW122883   0.416   3.787   6.184 -0.0119 -2.4830  1.1648
 3749SOL    HW222884   0.328   3.739   6.287  1.1056 -0.9394 -0.2709
 3750SOL     OW22885   3.593   1.720   7.711 -0.5315 -0.0148  0.2901
 3750SOL    HW122886   3.600   1.812   7.685 -0.0788  0.2731  1.4280
 3750SOL    HW222887   3.676   1.680   7.684 -0.3446  0.6166 -0.0767
 3751SOL     OW22888   3.653   4.228  14.430  0.4938 -0.2595  0.3500
 3751SOL    HW122889   3.667   4.292  14.360 -2.1631 -2.0583 -1.7693
 3751SOL    HW222890   3.696   4.273  14.503  1.7467 -1.1029  0.1287
 3752SOL     OW22891   2.569   0.682   6.568  0.0993  0.1234 -0.2122
 3752SOL    HW122892   2.504   0.642   6.626  0.2287  0.4576  0.1611
 3752SOL    HW222893   2.513   0.725   6.502  1.1080  0.7978 -0.6167
 3753SOL     OW22894   1.512   3.801   1.014 -0.8896 -0.0711 -0.0029
 3753SOL    HW122895   1.446   3.851   1.061 -0.7672 -0.9425  1.0897
 3753SOL    HW222896   1.478   3.809   0.925 -1.8601  1.0611  0.4741
 3754SOL     OW22897   1.714   0.280   9.956 -0.3355  0.4242 -0.0394
 3754SOL    HW122898   1.754   0.194   9.969 -3.3958 -0.8199  1.1495
 3754SOL    HW222899   1.734   0.326  10.037 -0.8654  0.1614  0.2401
 3755SOL     OW22900   2.121   3.624   9.886 -0.5755 -0.5737 -0.4717
 3755SOL    HW122901   2.180   3.619   9.810  0.5848  1.8733  0.2523
 3755SOL    HW222902   2.181   3.609   9.959  0.9205  1.8307 -1.1996
 3756SOL     OW22903   2.422   2.961   7.892 -0.0038  0.0776  0.1273
 3756SOL    HW122904   2.462   2.875   7.904 -1.0675 -0.7491 -2.2872
 3756SOL    HW222905   2.489   3.029   7.899 -0.8753  1.3163 -3.5138
 3757SOL     OW22906   3.036   0.653   7.295 -0.2633 -0.2604 -0.2100
 3757SOL    HW122907   2.952   0.638   7.338  0.3957  0.7046  1.4194
 3757SOL    HW222908   3.018   0.627   7.205 -2.2071  0.3228  0.0212
 3758SOL     OW22909   1.233   2.384  16.110 -0.2126 -0.2036 -0.3184
 3758SOL    HW122910   1.201   2.410  16.196  2.0925  1.3576  0.0777
 3758SOL    HW222911   1.158   2.419  16.062  0.5901  2.2788  0.2710
 3759SOL     OW22912   1.765   2.197   2.025  0.5849 -0.0432 -0.5760
 3759SOL    HW122913   1.803   2.121   2.069 -0.5073 -1.3339 -1.8026
 3759SOL    HW222914   1.674   2.189   2.055  0.4379 -1.5231 -1.3728
 3760SOL     OW22915   2.787   4.691   7.381  0.1744  0.6202 -0.5943
 3760SOL    HW122916   2.802   0.024   7.446 -0.0685 -0.2579  0.3815
 3760SOL    HW222917   2.851   4.721   7.317  1.6105  1.0594  1.0573
 3761SOL     OW22918   2.613   0.062   3.279 -0.4624  0.0781  0.0084
 3761SOL    HW122919   2.656   0.109   3.207  0.4370 -3.6828 -1.9065
 3761SOL    HW222920   2.665   0.085   3.355 -0.9287  0.9274  0.0812
 3762SOL     OW22921   4.106   4.440   2.731 -0.0817 -0.0403 -0.6806
 3762SOL    HW122922   4.189   4.486   2.720  0.4416 -0.4874  1.5285
 3762SOL    HW222923   4.074   4.452   2.820  0.3380  0.0400 -0.5432
 3763SOL     OW22924   4.149   2.830   6.081  0.5872  0.1146  0.0187
 3763SOL    HW122925   4.146   2.734   6.090 -2.4089  0.1965 -0.1679
 3763SOL    HW222926   4.058   2.848   6.057  0.4744  0.9752  1.1250
 3764SOL     OW22927   0.032   3.842   5.738 -0.2764 -0.3955 -0.0637
 3764SOL    HW122928   0.044   3.896   5.660 -2.2418  1.3687  0.8595
 3764SOL    HW222929   4.681   3.874   5.767 -0.9215 -0.6538 -1.6950
 3765SOL     OW22930   1.203   4.659   1.740  0.0165  0.0209  0.0486
 3765SOL    HW122931   1.292   4.656   1.774  0.5259  1.1617 -1.1672
 3765SOL    HW222932   1.202   4.573   1.696 -1.6662 -1.9442  3.9234
 3766SOL     OW22933   3.646   4.350   5.360  0.0956 -0.1567 -0.0836
 3766SOL    HW122934   3.659   4.355   5.455  0.5484 -1.1467 -0.0906
 3766SOL    HW222935   3.598   4.268   5.355 -2.0149  1.1515 -1.0439
 3767SOL     OW22936   0.355   2.033  15.881 -0.3292  0.2051  0.2893
 3767SOL    HW122937   0.288   2.068  15.824 -0.7379  0.3202  0.8417
 3767SOL    HW222938   0.423   2.007  15.818 -1.3706 -0.4596 -0.5490
 3768SOL     OW22939   1.836   1.332  14.885 -0.4258  0.6639  0.0204
 3768SOL    HW122940   1.816   1.409  14.938 -0.1406  1.9356 -1.7239
 3768SOL    HW222941   1.931   1.325  14.886 -0.4265  0.5893 -2.5218
 3769SOL     OW22942   1.468   0.383   7.008 -0.2564  0.5986 -0.2636
 3769SOL    HW122943   1.447   0.477   7.005 -1.0350  0.4486  0.6541
 3769SOL    HW222944   1.564   0.381   7.010 -0.2875 -0.6282 -0.0682
 3770SOL     OW22945   2.970   3.259  10.513 -0.1300  0.4389  0.4691
 3770SOL    HW122946   2.971   3.328  10.579 -4.9373 -0.3377  1.3641
 3770SOL    HW222947   2.962   3.186  10.575  0.3495  2.5490  3.0226
 3771SOL     OW22948   4.202   0.001  14.812  0.0862 -0.0707 -0.3724
 3771SOL    HW122949   4.272   4.671  14.821  0.6081  0.5470 -0.0078
 3771SOL    HW222950   4.134   4.679  14.847  1.4796 -2.0474 -0.8965
 3772SOL     OW22951   4.434   3.665   6.865  0.1611 -0.2472 -0.7470
 3772SOL    HW122952   4.444   3.758   6.887 -1.5264 -0.5289  1.2239
 3772SOL    HW222953   4.484   3.623   6.934  0.2682 -2.3839 -2.1340
 3773SOL     OW22954   2.491   2.674  13.462  0.7273 -0.4510  0.1239
 3773SOL    HW122955   2.431   2.735  13.419 -0.4723 -0.6828  1.4690
 3773SOL    HW222956   2.473   2.589  13.422  1.5638 -0.7340  0.3378
 3774SOL     OW22957   0.075   3.161   1.264 -0.1175  0.3034  0.1939
 3774SOL    HW122958   0.149   3.146   1.323 -0.5764  0.5926  0.8293
 3774SOL    HW222959   0.070   3.253   1.286 -0.9555 -0.1111  1.6830
 3775SOL     OW22960   0.362   1.598   8.778 -0.0421  0.6271 -0.0369
 3775SOL    HW122961   0.316   1.556   8.851  0.0264  1.0103  0.2242
 3775SOL    HW222962   0.337   1.543   8.704 -1.3750  1.2385 -0.0519
 3776SOL     OW22963   1.683   0.006   2.857 -0.2035 -0.7593 -0.6626
 3776SOL    HW122964   1.709   0.032   2.769  0.7684  0.9104  0.1085
 3776SOL    HW222965   1.681   0.091   2.900  0.6547  0.3144 -2.7616
 3777SOL     OW22966   3.616   4.658   7.717 -0.2789 -0.2084 -0.1785
 3777SOL    HW122967   3.680   4.655   7.788 -0.0253 -2.2865 -0.4862
 3777SOL    HW222968   3.612   0.018   7.703  1.8841 -0.3364 -1.7394
 3778SOL     OW22969   0.341   1.955  15.524 -0.2600  0.2483  0.0736
 3778SOL    HW122970   0.423   1.970  15.569  0.6606  0.9042 -1.8020
 3778SOL    HW222971   0.322   2.045  15.497 -1.8999 -0.5284 -1.4205
 3779SOL     OW22972   3.889   0.436   3.701  1.0124 -0.6789 -0.2113
 3779SOL    HW122973   3.868   0.362   3.644  1.2724 -0.8842 -0.0419
 3779SOL    HW222974   3.796   0.451   3.719  1.0220 -1.9665  0.9785
 3780SOL     OW22975   1.722   0.185   4.936  0.1763  0.1107  0.1924
 3780SOL    HW122976   1.698   0.225   4.853  1.7643  0.3734 -0.1472
 3780SOL    HW222977   1.815   0.165   4.924  0.2949  0.2376  0.8724
 3781SOL     OW22978   3.169   0.747   6.440 -0.0952  0.2480  0.3695
 3781SOL    HW122979   3.237   0.685   6.415  0.2719  1.2937 -1.1719
 3781SOL    HW222980   3.213   0.819   6.395 -0.2999  0.1299 -0.0113
 3782SOL     OW22981   3.841   2.407   7.769 -0.2199  0.3682 -0.5250
 3782SOL    HW122982   3.768   2.365   7.815 -0.1570 -1.5656 -2.2068
 3782SOL    HW222983   3.903   2.413   7.841 -0.5535 -1.3664 -0.0904
 3783SOL     OW22984   2.046   2.576   5.819 -0.2854 -0.2018 -0.1055
 3783SOL    HW122985   2.132   2.540   5.837 -1.1381 -1.3517  1.6588
 3783SOL    HW222986   2.014   2.515   5.754  0.6371  0.2537 -0.9757
 3784SOL     OW22987   0.990   2.797   5.536  0.3235 -0.1583 -0.4239
 3784SOL    HW122988   0.983   2.852   5.458 -2.6047 -0.3789 -0.3289
 3784SOL    HW222989   0.914   2.739   5.527  0.0022  0.3752 -1.1048
 3785SOL     OW22990   1.764   2.987  11.424 -0.5098 -0.0530  0.4075
 3785SOL    HW122991   1.822   2.910  11.421  1.7507  1.6225  1.4700
 3785SOL    HW222992   1.830   3.056  11.418  0.1598 -0.8244 -1.3718
 3786SOL     OW22993   0.707   0.523   9.084 -0.0909 -0.1226 -0.5807
 3786SOL    HW122994   0.762   0.454   9.046 -0.8975 -0.8526 -0.4016
 3786SOL    HW222995   0.625   0.474   9.090 -0.4808  0.9118  2.2161
 3787SOL     OW22996   1.798   2.310   3.354 -0.2564  0.9945  0.1383
 3787SOL    HW122997   1.788   2.357   3.437 -0.3397 -2.0179  1.8341
 3787SOL    HW222998   1.891   2.291   3.351 -0.7768 -1.4986 -0.1465
 3788SOL     OW22999   4.503   2.291   8.364  0.5346 -0.1763 -0.2710
 3788SOL    HW123000   4.538   2.203   8.379  0.6954  0.2659  1.9877
 3788SOL    HW223001   4.413   2.270   8.340  0.4980 -1.2936  0.8330
 3789SOL     OW23002   3.986   1.206   5.317  0.5795  0.0854  0.5648
 3789SOL    HW123003   4.066   1.251   5.289  1.4186 -1.2753  0.7263
 3789SOL    HW223004   3.932   1.220   5.239  0.4543 -3.0618  0.0857
 3790SOL     OW23005   0.503   0.528   8.613 -0.1935 -0.1686  0.2545
 3790SOL    HW123006   0.561   0.601   8.634  0.8322 -1.3883  1.6848
 3790SOL    HW223007   0.512   0.463   8.683  0.8654  1.0196  1.2063
 3791SOL     OW23008   0.634   1.670   8.504  0.4134  0.3704 -0.1525
 3791SOL    HW123009   0.656   1.693   8.413  1.4812  0.4875  0.1394
 3791SOL    HW223010   0.660   1.579   8.516  1.0279  0.6869  0.8841
 3792SOL     OW23011   0.503   1.511  10.542 -0.1806 -0.5105  0.1170
 3792SOL    HW123012   0.559   1.560  10.482 -0.6226  1.2678  1.1523
 3792SOL    HW223013   0.414   1.534  10.515  0.2306  1.5815  0.5394
 3793SOL     OW23014   1.543   2.968   8.129  0.1045  0.1079 -0.0021
 3793SOL    HW123015   1.478   2.950   8.061 -0.3851 -0.7016  0.6966
 3793SOL    HW223016   1.515   3.055   8.158 -0.1312  0.0599 -0.0878
 3794SOL     OW23017   3.844   2.320   4.218  0.3155 -0.6051 -0.1488
 3794SOL    HW123018   3.846   2.335   4.124  0.8575 -1.1426 -0.2249
 3794SOL    HW223019   3.938   2.325   4.238 -0.1843  1.8889  1.5875
 3795SOL     OW23020   1.395   3.081   6.437 -0.1668 -0.2111 -0.5064
 3795SOL    HW123021   1.431   3.007   6.389  0.6168 -0.9479  1.2094
 3795SOL    HW223022   1.355   3.042   6.515 -0.9242  0.4194 -0.5830
 3796SOL     OW23023   3.580   3.897   0.541 -0.4995 -0.0235 -0.1690
 3796SOL    HW123024   3.599   3.946   0.620 -1.1020 -1.2728  0.7519
 3796SOL    HW223025   3.543   3.819   0.583 -0.7229  0.5656  0.7112
 3797SOL     OW23026   0.217   1.423   8.561 -0.2604 -0.1558  0.5295
 3797SOL    HW123027   0.230   1.331   8.583 -1.1424 -0.3373  0.2828
 3797SOL    HW223028   0.133   1.442   8.601 -1.1857 -1.3214 -0.8325
 3798SOL     OW23029   0.021   1.767   8.799 -0.1342 -0.1710 -0.3638
 3798SOL    HW123030   0.104   1.814   8.806  0.3839 -1.4310  2.3476
 3798SOL    HW223031   4.717   1.788   8.884 -3.3071  0.9150 -2.0899
 3799SOL     OW23032   3.600   1.858  11.532  0.2130  0.1998 -0.2241
 3799SOL    HW123033   3.594   1.922  11.604 -1.9005  0.2804 -0.4786
 3799SOL    HW223034   3.532   1.796  11.559 -0.2382  0.6761 -0.2567
 3800SOL     OW23035   0.233   2.734   7.716  0.0945  0.7182  0.2462
 3800SOL    HW123036   0.254   2.746   7.808 -1.1439  0.9454  0.4950
 3800SOL    HW223037   0.164   2.668   7.721  0.2661  0.6389  1.5232
 3801SOL     OW23038   1.434   1.800   5.927  0.3028  0.1824  0.2116
 3801SOL    HW123039   1.488   1.874   5.900  0.1963  0.2627  0.2202
 3801SOL    HW223040   1.397   1.776   5.842 -0.2628  1.3889  0.1201
 3802SOL     OW23041   3.017   1.357   9.141  1.1034 -0.7320 -0.1338
 3802SOL    HW123042   3.016   1.354   9.236  0.9956  0.1165 -0.1130
 3802SOL    HW223043   3.050   1.443   9.116 -2.3473  0.4446 -0.6305
 3803SOL     OW23044   2.396   4.446   2.062 -0.0142 -0.0181  0.2282
 3803SOL    HW123045   2.360   4.377   2.005  1.3741 -0.1251 -0.5329
 3803SOL    HW223046   2.465   4.480   2.005  0.1432 -1.0977 -0.2398
 3804SOL     OW23047   0.371   0.663  10.984 -0.1430 -0.6819 -0.6561
 3804SOL    HW123048   0.439   0.639  11.046 -0.2845 -0.8624 -0.5716
 3804SOL    HW223049   0.389   0.756  10.991 -3.0914 -0.1004 -0.8732
 3805SOL     OW23050   0.975   3.736   0.676 -0.0670  0.2026  0.5032
 3805SOL    HW123051   1.019   3.692   0.602  1.7921 -0.9509  2.2771
 3805SOL    HW223052   1.012   3.692   0.753  0.8145  1.3514  0.7384
 3806SOL     OW23053   1.193   0.850   7.430 -0.1620  0.1764 -0.2267
 3806SOL    HW123054   1.273   0.798   7.438 -0.7536 -0.6504  0.3573
 3806SOL    HW223055   1.129   0.791   7.470 -1.5371  1.7016 -0.2237
 3807SOL     OW23056   3.931   2.087   3.454  0.1772 -0.0049 -0.2797
 3807SOL    HW123057   3.982   2.070   3.533  0.5298 -0.7219 -0.6629
 3807SOL    HW223058   3.992   2.084   3.380  2.6898 -0.9287  1.8554
 3808SOL     OW23059   3.052   0.599   4.745  0.2187  0.1289 -0.3406
 3808SOL    HW123060   3.055   0.506   4.724  1.5170  0.3181 -0.9879
 3808SOL    HW223061   3.117   0.614   4.814 -1.9709 -1.1712  1.9937
 3809SOL     OW23062   1.977   3.383   6.390 -0.0817 -0.2313 -0.0943
 3809SOL    HW123063   1.958   3.376   6.297  1.7387  1.4959 -0.5941
 3809SOL    HW223064   1.940   3.468   6.414 -0.8139 -1.0918  1.8536
 3810SOL     OW23065   0.917   0.377   2.023  1.4056  0.5849  0.2558
 3810SOL    HW123066   0.890   0.401   2.111  0.1154 -0.3348  0.1083
 3810SOL    HW223067   0.890   0.452   1.971  0.0986  1.4979  2.2625
 3811SOL     OW23068   3.180   4.236   7.233 -0.3333 -0.3440 -0.3591
 3811SOL    HW123069   3.246   4.247   7.302  0.5886  0.9754 -1.4758
 3811SOL    HW223070   3.225   4.190   7.163  1.7117  0.3579  0.4982
 3812SOL     OW23071   3.399   3.122  14.763  0.3259  0.0444 -0.4300
 3812SOL    HW123072   3.469   3.084  14.709  0.1289 -0.5573 -0.2612
 3812SOL    HW223073   3.441   3.199  14.802  2.7951 -1.1542 -0.6935
 3813SOL     OW23074   0.888   3.860   2.288  0.4894  0.3692  0.1418
 3813SOL    HW123075   0.870   3.851   2.195 -0.9947  0.9815  0.3773
 3813SOL    HW223076   0.830   3.934   2.305  0.9741  0.9890 -0.9060
 3814SOL     OW23077   4.016   2.298   2.480 -0.0416  0.0635 -0.1379
 3814SOL    HW123078   4.055   2.319   2.565 -0.5642 -1.2338  0.4173
 3814SOL    HW223079   3.977   2.382   2.457 -1.6704 -0.7142 -0.2462
 3815SOL     OW23080   1.332   0.759   8.444 -0.3446  0.0927  0.3430
 3815SOL    HW123081   1.279   0.759   8.365  1.4728 -3.0960 -0.8409
 3815SOL    HW223082   1.273   0.714   8.505 -0.3673 -0.6368 -0.2279
 3816SOL     OW23083   0.031   4.564  16.390 -0.2280 -0.1474 -0.6846
 3816SOL    HW123084   4.675   4.565  16.359  0.1590 -0.0256 -1.8299
 3816SOL    HW223085   0.052   4.657  16.389  0.5276 -0.3119 -0.4252
 3817SOL     OW23086   2.143   4.100  13.015  0.5384  0.4957  0.2909
 3817SOL    HW123087   2.198   4.146  13.079 -1.1508  1.0288  1.3755
 3817SOL    HW223088   2.075   4.166  13.004  1.0233  1.2292  1.6219
 3818SOL     OW23089   0.820   2.501   6.200  0.4480  0.5174  0.0478
 3818SOL    HW123090   0.743   2.506   6.256  1.2421  1.5135  1.0358
 3818SOL    HW223091   0.770   2.456   6.131  1.2704  0.3830 -0.4652
 3819SOL     OW23092   2.040   4.357   7.807  0.2470  0.2100  0.5289
 3819SOL    HW123093   1.992   4.439   7.795  0.8043  0.7516  2.0515
 3819SOL    HW223094   1.974   4.287   7.805  1.4734 -0.9531  0.7041
 3820SOL     OW23095   1.708   2.802   2.372  0.5656 -0.0479  0.0081
 3820SOL    HW123096   1.644   2.839   2.312  1.1252  0.1643 -0.4663
 3820SOL    HW223097   1.722   2.718   2.329 -0.5626  0.7968 -2.0026
 3821SOL     OW23098   0.520   4.384  14.356 -0.8096 -0.6090  0.1117
 3821SOL    HW123099   0.482   4.438  14.424  0.7637  1.6333 -0.7888
 3821SOL    HW223100   0.443   4.336  14.324 -1.2954  0.3695 -0.1754
 3822SOL     OW23101   2.882   4.066   1.107 -0.0628 -0.6941 -0.0583
 3822SOL    HW123102   2.949   4.135   1.101 -0.4814 -0.2719  0.0749
 3822SOL    HW223103   2.833   4.095   1.030  0.1002 -0.1146  0.0537
 3823SOL     OW23104   3.955   1.333   4.052 -0.1130 -0.2979  0.8279
 3823SOL    HW123105   4.004   1.340   4.134  2.3769 -0.9168 -0.6286
 3823SOL    HW223106   4.026   1.352   3.991 -1.6424  0.2744 -0.7805
 3824SOL     OW23107   0.241   3.635   4.423  0.1750 -0.1183  0.8112
 3824SOL    HW123108   0.239   3.653   4.517 -0.4276  0.9527  0.5950
 3824SOL    HW223109   0.327   3.674   4.406 -0.9014  0.0125 -4.2587
 3825SOL     OW23110   4.662   1.629  16.844  0.3320 -0.3652  0.0311
 3825SOL    HW123111   4.650   1.706  16.789  1.6044 -0.2380 -0.0673
 3825SOL    HW223112   4.719   1.662  16.914  0.7513 -0.3191 -0.3277
 3826SOL     OW23113   1.770   0.885   7.375  0.2614  0.2565  0.4459
 3826SOL    HW123114   1.804   0.863   7.289 -1.5048 -2.4883  0.4417
 3826SOL    HW223115   1.692   0.934   7.351 -0.0519 -0.1912  0.5363
 3827SOL     OW23116   2.638   1.462   3.974  0.7285  0.1254 -0.4762
 3827SOL    HW123117   2.714   1.482   3.919 -0.3735  1.6964 -1.4502
 3827SOL    HW223118   2.629   1.367   3.976 -1.6608  0.3645  0.4222
 3828SOL     OW23119   1.331   3.908   5.391  0.0362 -0.5937 -0.2176
 3828SOL    HW123120   1.356   3.844   5.458 -5.0170  0.1729  2.4475
 3828SOL    HW223121   1.274   3.854   5.337  1.0673 -0.4858 -1.4176
 3829SOL     OW23122   1.925   0.867   3.350 -0.2599  0.4160  0.2792
 3829SOL    HW123123   1.951   0.779   3.324 -1.9045 -0.4322  1.5130
 3829SOL    HW223124   1.861   0.853   3.419  1.1342 -0.0591  1.4721
 3830SOL     OW23125   1.488   0.359   1.822 -0.3603 -0.1686  0.1051
 3830SOL    HW123126   1.402   0.355   1.781  1.0067  1.4376 -2.8957
 3830SOL    HW223127   1.456   0.387   1.908 -0.0603 -1.5138  0.6576
 3831SOL     OW23128   1.885   1.765   8.542 -0.3345  0.4561  0.1550
 3831SOL    HW123129   1.956   1.815   8.501 -2.4812  3.1882 -0.3139
 3831SOL    HW223130   1.929   1.732   8.620 -0.6722 -0.4422 -0.0345
 3832SOL     OW23131   2.180   4.266  12.674  0.7211  0.4239  0.6363
 3832SOL    HW123132   2.160   4.175  12.655 -0.5389  0.5706  1.2463
 3832SOL    HW223133   2.111   4.306  12.622  0.7091  0.1285  0.4295
 3833SOL     OW23134   4.130   3.125   4.293 -0.1648  0.2160  0.1464
 3833SOL    HW123135   4.183   3.077   4.356 -0.9241  0.4631  0.9832
 3833SOL    HW223136   4.154   3.218   4.295  2.4061 -0.4647 -0.4367
 3834SOL     OW23137   2.941   2.058   7.261 -0.3867 -0.2143  0.2521
 3834SOL    HW123138   2.960   2.022   7.347  1.2116 -2.5935 -1.0831
 3834SOL    HW223139   3.008   2.126   7.265 -0.0823 -0.4441 -0.8431
 3835SOL     OW23140   0.618   3.041   1.186  0.1937 -0.5795 -0.0238
 3835SOL    HW123141   0.574   2.966   1.226  0.5021 -0.1635  1.1094
 3835SOL    HW223142   0.557   3.064   1.116  1.9570  1.5651 -0.8663
 3836SOL     OW23143   2.110   1.378   8.789 -0.2407 -0.3875 -0.1678
 3836SOL    HW123144   2.130   1.338   8.705  1.2408  0.6419 -0.2923
 3836SOL    HW223145   2.140   1.307   8.845  0.1868 -0.2686 -0.2514
 3837SOL     OW23146   4.430   0.129  13.858  0.7721 -0.0967 -0.7565
 3837SOL    HW123147   4.505   0.146  13.800  2.0469 -1.9020  0.3341
 3837SOL    HW223148   4.392   0.216  13.850 -2.3983 -1.2322  2.0924
 3838SOL     OW23149   4.242   0.575   1.813  0.2348 -0.0089 -0.6121
 3838SOL    HW123150   4.202   0.643   1.758 -2.4463 -0.1060  1.2547
 3838SOL    HW223151   4.239   0.496   1.759 -0.7880  0.1978 -0.8616
 3839SOL     OW23152   4.458   3.220  16.251  0.2052 -0.3072  0.0787
 3839SOL    HW123153   4.412   3.225  16.335  0.5674  0.3498  0.2376
 3839SOL    HW223154   4.504   3.304  16.254 -0.9152  0.2622  1.3950
 3840SOL     OW23155   0.306   0.121   9.325 -0.0514  0.2262  0.6856
 3840SOL    HW123156   0.363   0.068   9.270 -0.4616  1.5452 -1.0051
 3840SOL    HW223157   0.339   0.207   9.298 -1.9302  0.5245 -0.6382
 3841SOL     OW23158   2.463   1.332   8.898 -0.6197 -0.2285 -0.0793
 3841SOL    HW123159   2.389   1.274   8.881 -0.8280  0.0200 -0.0260
 3841SOL    HW223160   2.416   1.375   8.969  0.0657  1.6396 -0.7475
 3842SOL     OW23161   3.453   0.235  15.466  0.6767 -0.4364 -0.1709
 3842SOL    HW123162   3.510   0.263  15.538  0.4088 -0.5370  0.0782
 3842SOL    HW223163   3.515   0.228  15.393  0.3267  1.3892 -0.6489
 3843SOL     OW23164   1.706   2.226   3.102 -0.2807  0.1972 -0.4996
 3843SOL    HW123165   1.741   2.237   3.190  2.6229  0.1260 -1.6407
 3843SOL    HW223166   1.629   2.178   3.131 -1.1958  0.8858 -1.7750
 3844SOL     OW23167   0.829   1.422   6.874  0.7404 -0.1372 -0.0039
 3844SOL    HW123168   0.832   1.327   6.873  0.3979 -0.1735  1.4403
 3844SOL    HW223169   0.766   1.436   6.803  1.0337 -0.3293 -0.2996
 3845SOL     OW23170   2.118   2.739   6.651  0.3199  0.6331 -0.2819
 3845SOL    HW123171   2.058   2.749   6.724  1.7498 -0.4991  1.0689
 3845SOL    HW223172   2.073   2.721   6.569 -1.9668 -0.4527  1.2193
 3846SOL     OW23173   4.317   2.175   7.986 -0.1761 -0.0644 -0.1389
 3846SOL    HW123174   4.367   2.138   7.914  1.8538  0.7499  0.8616
 3846SOL    HW223175   4.382   2.239   8.013  0.4476  0.3970 -2.7059
 3847SOL     OW23176   1.418   1.511  10.418  0.0776 -0.2585 -0.0294
 3847SOL    HW123177   1.367   1.432  10.434 -1.0724  0.3709 -0.6332
 3847SOL    HW223178   1.509   1.481  10.419  0.2725  0.2886 -1.7198
 3848SOL     OW23179   1.781   2.160  13.096  0.6313 -0.0022  0.3401
 3848SOL    HW123180   1.738   2.153  13.010 -1.3503  3.0537  1.0933
 3848SOL    HW223181   1.719   2.110  13.149  3.3104 -1.2002  2.3172
 3849SOL     OW23182   1.682   3.806   8.564  0.1287 -0.0577  0.3015
 3849SOL    HW123183   1.633   3.785   8.484 -0.2815 -0.4402  0.6563
 3849SOL    HW223184   1.608   3.822   8.622  1.2099 -0.5009  1.7851
 3850SOL     OW23185   2.951   4.402  15.924 -0.1706  0.0947 -0.0726
 3850SOL    HW123186   2.973   4.484  15.880  1.1170 -0.7082 -0.9087
 3850SOL    HW223187   3.039   4.382  15.954  0.8039  3.8640 -0.4061
 3851SOL     OW23188   0.938   3.986   3.368 -0.4163 -0.0246  0.6465
 3851SOL    HW123189   0.864   3.997   3.308 -0.3075 -0.3994  0.4429
 3851SOL    HW223190   0.909   3.920   3.430 -0.7683  0.6533  1.1983
 3852SOL     OW23191   4.439   0.243  16.358  0.3083  0.0604 -0.2544
 3852SOL    HW123192   4.461   0.334  16.336 -1.0352  0.5531  0.4005
 3852SOL    HW223193   4.372   0.242  16.289 -0.3163  1.9499  0.3147
 3853SOL     OW23194   4.054   1.437   9.258  0.0923 -0.0952 -0.0128
 3853SOL    HW123195   4.125   1.374   9.273 -0.0539  0.0074  1.1476
 3853SOL    HW223196   3.997   1.422   9.334 -0.6990  1.2417 -0.3434
 3854SOL     OW23197   3.942   4.285   9.023 -0.4592  0.3658  0.3844
 3854SOL    HW123198   3.906   4.334   8.949 -0.6707 -1.8369 -0.9792
 3854SOL    HW223199   4.010   4.232   8.981 -0.8322 -0.6777  1.1012
 3855SOL     OW23200   1.923   2.620   3.742  0.2979 -0.3274  0.3049
 3855SOL    HW123201   1.990   2.558   3.713  0.5614 -0.7909  1.9450
 3855SOL    HW223202   1.977   2.687   3.781  1.1842  1.9310 -4.7984
 3856SOL     OW23203   2.217   3.697  14.510 -0.1084  0.0832  0.4757
 3856SOL    HW123204   2.298   3.736  14.544 -0.5630  1.3900  0.0526
 3856SOL    HW223205   2.195   3.630  14.574 -1.3261  0.6154  0.6243
 3857SOL     OW23206   4.219   3.399   2.757  0.0660 -0.1458  0.8458
 3857SOL    HW123207   4.205   3.463   2.687 -2.7721  0.1098  1.6569
 3857SOL    HW223208   4.212   3.314   2.712  2.5479 -0.2773  0.7078
 3858SOL     OW23209   0.172   1.912  14.389 -0.2684 -0.2229 -0.2895
 3858SOL    HW123210   0.095   1.876  14.433 -0.0273  1.3106  1.4087
 3858SOL    HW223211   0.248   1.869  14.429  0.3337 -0.1851 -1.3637
 3859SOL     OW23212   4.098   4.370   1.723  0.3072 -0.1658 -0.3363
 3859SOL    HW123213   4.149   4.294   1.749 -0.9039 -0.8401  0.0556
 3859SOL    HW223214   4.077   4.424   1.799  1.3685 -0.4211  0.1285
 3860SOL     OW23215   1.367   2.654   4.421 -0.2590 -0.0303  0.3346
 3860SOL    HW123216   1.443   2.611   4.459 -0.1525 -0.7983 -0.7370
 3860SOL    HW223217   1.295   2.591   4.423 -0.0132 -0.4256 -3.4817
 3861SOL     OW23218   2.727   0.658  15.786  0.4687 -0.1509  0.5373
 3861SOL    HW123219   2.635   0.657  15.811 -0.6775  0.2047 -3.6627
 3861SOL    HW223220   2.760   0.613  15.863  0.5061 -0.5453  0.2864
 3862SOL     OW23221   1.252   0.486   4.541  0.0988  0.1914 -0.2173
 3862SOL    HW123222   1.302   0.540   4.480  0.6561 -1.6647 -1.3917
 3862SOL    HW223223   1.179   0.545   4.562  0.6606  1.7628 -2.7538
 3863SOL     OW23224   1.999   3.121   4.300 -0.3444 -0.5889  0.3646
 3863SOL    HW123225   1.979   3.176   4.375 -1.0968 -0.0416 -0.2358
 3863SOL    HW223226   2.028   3.191   4.242  2.1200 -1.6818  0.2677
 3864SOL     OW23227   1.789   3.548   4.281 -0.1198  0.2435  0.0580
 3864SOL    HW123228   1.739   3.474   4.246  1.3458 -0.3882 -0.7021
 3864SOL    HW223229   1.731   3.588   4.345  0.1899  0.5345  0.1542
 3865SOL     OW23230   2.192   0.766   3.515 -0.0950 -0.4346 -0.2680
 3865SOL    HW123231   2.284   0.748   3.495  0.1257 -0.1031  0.4177
 3865SOL    HW223232   2.143   0.701   3.464 -1.5841  0.0541  0.5282
 3866SOL     OW23233   3.242   0.425   3.218 -0.4321 -0.8790  0.5235
 3866SOL    HW123234   3.284   0.340   3.211 -0.6167 -0.6857 -3.1326
 3866SOL    HW223235   3.173   0.405   3.281  0.4191 -0.4542  1.5828
 3867SOL     OW23236   4.642   2.407  17.368 -0.2249  0.3288 -0.2177
 3867SOL    HW123237   4.662   2.486  17.317 -0.0672  1.8965  2.2588
 3867SOL    HW223238   4.603   2.430  17.452 -0.0881  1.7787 -0.5515
 3868SOL     OW23239   1.977   3.682   7.977 -0.1678  0.7459 -0.3130
 3868SOL    HW123240   2.007   3.596   7.947 -1.1671  0.6712 -1.0885
 3868SOL    HW223241   1.882   3.670   7.980 -0.4082  2.6001 -0.4477
 3869SOL     OW23242   2.208   1.678   2.606 -0.1187 -0.1672 -0.4743
 3869SOL    HW123243   2.118   1.707   2.615  0.1360  0.1340  1.1950
 3869SOL    HW223244   2.231   1.667   2.699 -0.6050 -1.6147 -0.5153
 3870SOL     OW23245   4.597   1.040   6.530  0.2356  0.1472  0.3436
 3870SOL    HW123246   4.512   1.064   6.493  0.0599 -1.4841 -0.2874
 3870SOL    HW223247   4.615   0.958   6.484  1.0911  2.4492 -3.3771
 3871SOL     OW23248   2.022   4.187   1.346 -0.2197  0.4612  0.1345
 3871SOL    HW123249   1.996   4.124   1.278 -0.6925 -1.2016  1.8514
 3871SOL    HW223250   2.094   4.233   1.303  0.2687 -3.7237 -3.5738
 3872SOL     OW23251   0.055   1.342   4.688 -0.5853 -0.4090 -0.2869
 3872SOL    HW123252   0.036   1.341   4.594 -0.1841  0.8945 -0.3951
 3872SOL    HW223253   4.732   1.410   4.721  2.8145  1.3488  2.0802
 3873SOL     OW23254   3.142   0.224   9.167  0.0827  0.5753  0.4519
 3873SOL    HW123255   3.157   0.140   9.211  2.7805  0.1873 -1.2056
 3873SOL    HW223256   3.229   0.239   9.130 -0.3868 -2.5480 -1.9681
 3874SOL     OW23257   2.210   3.410  12.993  0.3974 -0.1629  0.0152
 3874SOL    HW123258   2.182   3.482  12.936  0.2596  1.3418  1.9659
 3874SOL    HW223259   2.137   3.352  13.014 -0.9192  2.3034  2.3301
 3875SOL     OW23260   0.274   2.701   3.457  0.5073  0.0866 -0.1428
 3875SOL    HW123261   0.226   2.770   3.502 -0.1703 -1.0049  0.8051
 3875SOL    HW223262   0.312   2.758   3.390  0.5711  0.9420  0.6235
 3876SOL     OW23263   1.151   2.806   5.203 -0.2041 -0.1468  0.8036
 3876SOL    HW123264   1.080   2.754   5.243 -0.2745 -0.0752  0.7722
 3876SOL    HW223265   1.105   2.826   5.122 -0.7720 -1.6475  0.7509
 3877SOL     OW23266   0.461   3.136  13.977  0.1729  0.1484  0.2091
 3877SOL    HW123267   0.508   3.207  13.933 -1.2099  0.9957  0.1276
 3877SOL    HW223268   0.500   3.148  14.064 -0.2305  1.0286  0.2597
 3878SOL     OW23269   0.118   0.681   7.717  0.3606  0.8351  0.1843
 3878SOL    HW123270   0.087   0.748   7.656 -2.1852  0.6042  1.2247
 3878SOL    HW223271   0.196   0.713   7.763  0.6249  0.6347 -0.1201
 3879SOL     OW23272   2.166   4.046   0.183 -0.3553  0.5752  0.3770
 3879SOL    HW123273   2.250   4.046   0.139 -0.1181 -0.1592  0.8259
 3879SOL    HW223274   2.187   3.998   0.263  1.4058  0.5029 -0.1431
 3880SOL     OW23275   3.193   2.319   5.719  0.2172  0.1527 -0.3178
 3880SOL    HW123276   3.223   2.229   5.730  0.6404  0.3372  0.0723
 3880SOL    HW223277   3.250   2.344   5.647 -1.4816 -2.1206 -2.4542
 3881SOL     OW23278   4.569   3.741  11.871 -0.1302  0.4135  0.0134
 3881SOL    HW123279   4.542   3.669  11.815  0.8097  1.0738 -1.2831
 3881SOL    HW223280   4.660   3.711  11.884 -0.9432 -2.1849 -0.2028
 3882SOL     OW23281   2.467   0.587   5.744 -0.5788 -0.0881  1.0228
 3882SOL    HW123282   2.562   0.599   5.753 -0.5923 -0.5016  1.7593
 3882SOL    HW223283   2.425   0.672   5.730 -0.2125 -0.3688 -1.7486
 3883SOL     OW23284   1.854   4.193   4.067 -0.0380  0.0142 -0.0970
 3883SOL    HW123285   1.820   4.115   4.111  1.3177 -1.2062 -1.2136
 3883SOL    HW223286   1.781   4.250   4.093 -0.7590 -0.9533  0.0121
 3884SOL     OW23287   1.109   0.156   0.144 -0.1343  0.0257 -0.1953
 3884SOL    HW123288   1.177   0.140   0.079 -1.3726 -0.3537 -1.3980
 3884SOL    HW223289   1.031   0.180   0.093 -0.9782  0.6792  1.3922
 3885SOL     OW23290   2.798   0.336   9.858 -0.7346  0.6795  0.5616
 3885SOL    HW123291   2.836   0.290   9.933 -0.3931  1.4989  0.8916
 3885SOL    HW223292   2.753   0.410   9.899 -1.2399  0.4577  0.4071
 3886SOL     OW23293   1.539   2.962  10.432  0.1520  0.2090  0.0478
 3886SOL    HW123294   1.504   2.891  10.379  5.2213 -0.8619 -1.9202
 3886SOL    HW223295   1.515   3.029  10.368  0.9463 -0.9363 -1.4370
 3887SOL     OW23296   3.238   0.973   7.617  0.0008 -0.4140 -0.1538
 3887SOL    HW123297   3.191   0.894   7.590 -2.0921  0.3748  1.1728
 3887SOL    HW223298   3.171   1.041   7.625  1.1264  0.2755  3.2696
 3888SOL     OW23299   3.994   2.355  11.839  0.3184  0.4837 -0.5059
 3888SOL    HW123300   4.025   2.378  11.751  0.0160  2.6236 -0.0456
 3888SOL    HW223301   3.954   2.270  11.821  2.4828 -0.5148 -0.5764
 3889SOL     OW23302   0.321   0.789   7.874 -0.1164 -0.1528 -0.2527
 3889SOL    HW123303   0.351   0.733   7.946  0.6354  1.1048  0.4115
 3889SOL    HW223304   0.299   0.875   7.910 -0.5797  0.4199 -1.9197
 3890SOL     OW23305   2.302   3.010   2.216  0.4368 -0.7268  0.4981
 3890SOL    HW123306   2.287   2.992   2.123 -1.8622  0.6615  0.5973
 3890SOL    HW223307   2.251   2.946   2.266 -2.3725  1.7223  0.7516
 3891SOL     OW23308   3.912   4.425   3.858 -0.0604  0.1862  0.2630
 3891SOL    HW123309   3.966   4.346   3.850 -1.3230 -0.5719 -0.9018
 3891SOL    HW223310   3.879   4.423   3.948 -0.0923 -2.2383  0.2073
 3892SOL     OW23311   2.622   2.255  13.727 -0.4340 -0.4606 -0.2946
 3892SOL    HW123312   2.565   2.270  13.651 -0.3970  1.6023  0.1033
 3892SOL    HW223313   2.710   2.249  13.690 -0.0573 -3.6330  1.0935
 3893SOL     OW23314   0.925   4.013   9.993  0.0102 -0.0453 -0.0800
 3893SOL    HW123315   0.851   4.044  10.045  0.1318 -0.4502  0.3291
 3893SOL    HW223316   0.886   4.016   9.905 -0.0614  3.3287  0.0561
 3894SOL     OW23317   2.161   1.025   3.413 -0.2509 -0.1298 -0.2147
 3894SOL    HW123318   2.209   0.994   3.489 -2.1808 -0.8827  0.6920
 3894SOL    HW223319   2.068   1.009   3.428  0.4830 -2.9286  1.5044
 3895SOL     OW23320   3.393   1.273   8.449  0.2943 -0.2488 -0.1522
 3895SOL    HW123321   3.423   1.214   8.517 -1.3827 -0.5367  0.3300
 3895SOL    HW223322   3.473   1.321   8.426  0.9613 -1.1784  0.2584
 3896SOL     OW23323   2.092   3.205   3.200 -0.0959  0.3590 -0.3743
 3896SOL    HW123324   2.171   3.150   3.198 -1.0898 -1.1361  1.0265
 3896SOL    HW223325   2.052   3.180   3.283 -1.1248  1.0515 -0.6588
 3897SOL     OW23326   2.688   3.787   8.396  0.6477 -0.5246 -0.0938
 3897SOL    HW123327   2.687   3.713   8.457 -0.8910 -0.8200 -0.4666
 3897SOL    HW223328   2.747   3.753   8.328  0.4035  3.0718 -2.1452
 3898SOL     OW23329   1.164   2.660   5.697 -0.0933 -0.3168 -0.0475
 3898SOL    HW123330   1.212   2.641   5.616  0.0047  0.5973 -0.2064
 3898SOL    HW223331   1.078   2.690   5.665  0.2966  0.2632 -0.5416
 3899SOL     OW23332   3.565   0.909  11.797  0.0253 -0.2294  0.1185
 3899SOL    HW123333   3.550   0.815  11.790 -0.0775 -0.0385 -2.0336
 3899SOL    HW223334   3.472   0.929  11.793  0.0030 -0.2867  0.3454
 3900SOL     OW23335   2.566   0.902   1.923  0.2778  0.2799  0.0184
 3900SOL    HW123336   2.533   0.945   2.002  0.1304 -0.6439  0.4664
 3900SOL    HW223337   2.522   0.817   1.930 -0.3002  0.6450  0.7525
 3901SOL     OW23338   3.277   1.421  14.345 -0.0763  0.2054 -0.1116
 3901SOL    HW123339   3.223   1.364  14.400 -1.2422 -0.3199 -1.8002
 3901SOL    HW223340   3.207   1.482  14.323  0.7920  1.2768  0.1009
 3902SOL     OW23341   3.629   4.703   8.302  0.3384  0.0327 -0.1260
 3902SOL    HW123342   3.639   4.686   8.396 -0.3259 -1.0577 -0.2547
 3902SOL    HW223343   3.719   4.679   8.280 -0.3076 -0.2732 -2.4374
 3903SOL     OW23344   0.638   1.437  11.630 -0.0302 -0.1222  0.3171
 3903SOL    HW123345   0.568   1.374  11.613 -0.3209  0.2955 -0.0488
 3903SOL    HW223346   0.626   1.450  11.724  1.8789  0.6869  0.4332
 3904SOL     OW23347   4.178   3.965   5.008  0.3710 -0.1826  0.3705
 3904SOL    HW123348   4.177   3.982   4.914 -2.1568  1.1495  0.6385
 3904SOL    HW223349   4.168   4.056   5.038 -0.3168  0.0836 -0.6620
 3905SOL     OW23350   3.877   2.369   7.513  0.4510  1.0497 -0.4787
 3905SOL    HW123351   3.859   2.339   7.602  1.6575 -1.2389 -0.9891
 3905SOL    HW223352   3.845   2.459   7.517 -1.5627  0.4489 -3.4144
 3906SOL     OW23353   1.256   0.316   1.711  0.3579  0.6373 -0.0631
 3906SOL    HW123354   1.218   0.266   1.783  0.0956  0.9901  0.0480
 3906SOL    HW223355   1.198   0.293   1.637  0.8675 -1.3177  0.1521
 3907SOL     OW23356   3.926   4.256   7.471 -0.3312  0.2148 -0.0674
 3907SOL    HW123357   3.857   4.221   7.414  0.5743  0.5596 -1.3638
 3907SOL    HW223358   3.957   4.170   7.500 -3.2008 -0.0126  2.3362
 3908SOL     OW23359   1.354   2.299   8.414 -0.3582 -0.6362 -0.1498
 3908SOL    HW123360   1.437   2.259   8.391 -1.3467 -0.9789 -3.0482
 3908SOL    HW223361   1.349   2.299   8.510  0.6115 -0.2742 -0.0996
 3909SOL     OW23362   3.490   3.126   3.646  0.1576 -0.5713 -0.2523
 3909SOL    HW123363   3.576   3.088   3.624  0.2013 -0.8100  0.3218
 3909SOL    HW223364   3.479   3.201   3.588 -2.7518 -1.6324 -1.0786
 3910SOL     OW23365   0.042   0.639   8.367  0.3165  0.1055  0.0633
 3910SOL    HW123366   0.015   0.581   8.438 -2.8692  1.6275  0.0923
 3910SOL    HW223367   0.113   0.589   8.328 -0.0579  0.7561 -1.4472
 3911SOL     OW23368   0.443   3.883   6.655  0.1654 -0.2379  0.0987
 3911SOL    HW123369   0.410   3.892   6.565 -0.2569  0.4633  0.3231
 3911SOL    HW223370   0.363   3.892   6.708  1.4468  0.8616  1.8325
 3912SOL     OW23371   3.485   2.515   8.608 -0.3633 -0.0173  0.1383
 3912SOL    HW123372   3.527   2.434   8.581 -0.1920  0.6163 -1.4804
 3912SOL    HW223373   3.445   2.552   8.529 -0.5945  1.0941  0.7649
 3913SOL     OW23374   0.741   0.609   5.850 -0.5013  0.1097 -0.5605
 3913SOL    HW123375   0.647   0.623   5.839 -0.2138 -0.3399 -3.3618
 3913SOL    HW223376   0.775   0.645   5.769 -1.6739  2.2771 -0.0655
 3914SOL     OW23377   1.043   0.991   6.644 -0.7288 -0.0639  0.0416
 3914SOL    HW123378   1.024   0.907   6.685  2.4980 -0.2175  1.2286
 3914SOL    HW223379   1.031   0.967   6.552 -0.5609  0.2375 -0.0589
 3915SOL     OW23380   4.179   2.921  10.382  0.1034  0.5930 -0.9419
 3915SOL    HW123381   4.088   2.895  10.400  0.6460 -0.2593  0.5494
 3915SOL    HW223382   4.170   3.012  10.352 -1.5836  2.0097  3.9048
 3916SOL     OW23383   1.969   4.072  13.344 -0.2209 -0.4453 -0.6329
 3916SOL    HW123384   1.877   4.060  13.366 -0.1349 -2.0770 -1.1523
 3916SOL    HW223385   1.997   4.151  13.389 -3.1346  0.7800 -0.9771
 3917SOL     OW23386   1.246   4.356   6.791 -0.0103  0.7481 -0.0152
 3917SOL    HW123387   1.271   4.275   6.746  2.1370  2.7270 -2.3846
 3917SOL    HW223388   1.330   4.392   6.820  0.1643 -0.2927  0.7561
 3918SOL     OW23389   3.641   3.206   9.255 -0.6651 -0.5661 -0.3718
 3918SOL    HW123390   3.650   3.163   9.340 -2.4169  0.1016  0.1616
 3918SOL    HW223391   3.598   3.286   9.286  0.1623 -0.2126 -0.1531
 3919SOL     OW23392   4.548   4.116   3.042 -0.2478  0.0998  0.0035
 3919SOL    HW123393   4.607   4.174   3.090 -1.3287  1.8026 -0.7586
 3919SOL    HW223394   4.574   4.143   2.955 -0.0113 -0.1646 -0.0070
 3920SOL     OW23395   2.030   3.570  11.029  0.4295  0.2855 -0.2345
 3920SOL    HW123396   2.087   3.612  10.965  1.2787 -0.0200  0.3197
 3920SOL    HW223397   1.951   3.624  11.026 -0.4977 -1.1197 -1.2442
 3921SOL     OW23398   1.130   0.983   4.872 -0.0521  0.3505 -0.4051
 3921SOL    HW123399   1.182   1.062   4.882 -0.0345  0.2756  0.0674
 3921SOL    HW223400   1.083   0.991   4.789 -1.2630 -1.0366  0.1371
 3922SOL     OW23401   4.086   2.423   2.980 -0.3010  0.3551 -0.2580
 3922SOL    HW123402   4.149   2.364   3.023  0.4582  0.6662 -0.9469
 3922SOL    HW223403   4.086   2.495   3.043 -1.4278  0.1082  0.0275
 3923SOL     OW23404   3.662   4.210   0.119 -0.3020  0.0669  0.1943
 3923SOL    HW123405   3.618   4.153   0.182 -0.2344  0.2179  0.3798
 3923SOL    HW223406   3.678   4.147   0.049  2.1200 -0.0058  0.8155
 3924SOL     OW23407   4.439   0.446   2.423 -0.6683  0.1403 -0.3856
 3924SOL    HW123408   4.419   0.497   2.502  1.0829 -1.6646  1.2264
 3924SOL    HW223409   4.435   0.519   2.361  1.7674  0.5304 -0.0842
 3925SOL     OW23410   0.339   1.855  10.344  0.1653 -0.6281  0.6864
 3925SOL    HW123411   0.258   1.904  10.354  0.6190  0.7712 -2.5515
 3925SOL    HW223412   0.350   1.802  10.423 -3.7954 -2.6226 -0.1220
 3926SOL     OW23413   3.980   1.956  16.072 -0.4513 -0.0406  0.0243
 3926SOL    HW123414   3.973   1.947  15.977 -2.6471  0.3664  0.1595
 3926SOL    HW223415   4.036   2.034  16.075 -3.5097  2.0872  0.7503
 3927SOL     OW23416   1.534   3.000  14.832 -0.5672  0.0266  0.1657
 3927SOL    HW123417   1.520   2.966  14.744 -0.1279 -1.3724  0.6326
 3927SOL    HW223418   1.609   3.056  14.812 -0.1751 -0.9155 -1.0486
 3928SOL     OW23419   3.704   0.379   2.175 -0.5712  0.0074  0.0948
 3928SOL    HW123420   3.730   0.329   2.253  0.9782 -2.6669 -2.1189
 3928SOL    HW223421   3.610   0.391   2.180 -0.4257  1.3207 -0.3484
 3929SOL     OW23422   1.050   0.044  11.210 -0.1393  0.4634 -0.2323
 3929SOL    HW123423   0.964   0.049  11.171 -0.3467  0.5685  0.2334
 3929SOL    HW223424   1.109   0.015  11.140  0.6361  0.3327  0.4641
 3930SOL     OW23425   1.566   3.070  16.297  0.6780 -0.1046 -0.0128
 3930SOL    HW123426   1.487   3.107  16.259 -0.2336 -3.6721 -1.6086
 3930SOL    HW223427   1.640   3.115  16.255  0.6978 -1.8040 -1.7800
 3931SOL     OW23428   4.306   4.024   3.500 -0.3392  0.0426  0.4776
 3931SOL    HW123429   4.334   3.936   3.524  0.2658  0.4285  1.1749
 3931SOL    HW223430   4.392   4.057   3.475 -0.7782  1.5131  0.8973
 3932SOL     OW23431   3.703   4.614   2.972 -0.6119 -0.7047 -0.2903
 3932SOL    HW123432   3.646   4.572   2.908 -2.3395  1.8379 -0.4403
 3932SOL    HW223433   3.709   4.546   3.039  1.3830 -1.0290 -0.7912
 3933SOL     OW23434   0.806   2.660   5.409 -0.4046 -0.6908  0.2772
 3933SOL    HW123435   0.858   2.593   5.365 -1.4924 -1.2419 -0.1683
 3933SOL    HW223436   0.719   2.660   5.368 -0.8214 -0.8692  1.1660
 3934SOL     OW23437   2.847   1.048   5.207 -0.4100 -0.6837 -0.1467
 3934SOL    HW123438   2.908   1.052   5.134 -1.1650  1.4056 -0.6513
 3934SOL    HW223439   2.858   1.129   5.257  1.3240 -1.5072  0.8150
 3935SOL     OW23440   3.284   2.013  16.871 -0.1178  0.2974  0.1670
 3935SOL    HW123441   3.334   2.028  16.951  1.0304  2.1760 -0.8747
 3935SOL    HW223442   3.270   1.920  16.882  0.2922 -0.0040 -1.7528
 3936SOL     OW23443   3.568   0.348   4.524  0.2962  0.6313 -0.6656
 3936SOL    HW123444   3.482   0.374   4.557 -0.7059 -4.2708  0.4919
 3936SOL    HW223445   3.620   0.428   4.535 -1.5632  1.7599  0.0806
 3937SOL     OW23446   2.428   0.523   6.086  0.2620  0.3261  0.1672
 3937SOL    HW123447   2.334   0.511   6.103  1.0529 -3.6261  1.7018
 3937SOL    HW223448   2.428   0.613   6.053 -0.6498  0.8249  1.5140
 3938SOL     OW23449   3.246   3.483  14.001  0.3751  0.3798  0.4780
 3938SOL    HW123450   3.311   3.432  14.049  2.0057  0.1554 -1.9325
 3938SOL    HW223451   3.232   3.424  13.927 -0.3908  0.1906  0.7815
 3939SOL     OW23452   1.809   3.426   5.109  0.5141  0.3857  0.0503
 3939SOL    HW123453   1.763   3.497   5.155  0.1305 -0.4971  1.0508
 3939SOL    HW223454   1.789   3.357   5.174  0.2828  0.4060  0.0016
 3940SOL     OW23455   2.947   2.072  15.758  0.6054 -0.0731  0.0505
 3940SOL    HW123456   3.029   2.117  15.775  0.4877 -0.0217  0.4740
 3940SOL    HW223457   2.999   1.998  15.727  0.5588  0.4692 -1.3162
 3941SOL     OW23458   1.118   1.341   4.825  0.5371  0.0057 -0.2735
 3941SOL    HW123459   1.111   1.360   4.732  0.0526 -3.8151 -1.0198
 3941SOL    HW223460   1.124   1.431   4.858 -2.3421 -0.6312  2.1002
 3942SOL     OW23461   3.587   3.742  13.162 -0.6130 -0.2995  0.0800
 3942SOL    HW123462   3.605   3.735  13.255  2.4496  0.1204 -0.4879
 3942SOL    HW223463   3.615   3.833  13.153  0.8224 -0.7976 -0.5088
 3943SOL     OW23464   1.790   3.435   7.385  0.1985  0.3698 -0.7491
 3943SOL    HW123465   1.881   3.433   7.355  0.2282  0.2551 -0.6532
 3943SOL    HW223466   1.777   3.528   7.404 -1.5308 -0.1500  0.6413
 3944SOL     OW23467   1.740   3.004   9.006 -0.5333 -0.3236 -0.0277
 3944SOL    HW123468   1.722   2.969   8.918 -0.1443 -2.2374  0.6468
 3944SOL    HW223469   1.670   3.068   9.018  0.0133  0.2021  0.3207
 3945SOL     OW23470   1.361   0.651   0.211 -0.0782 -0.3407  0.8112
 3945SOL    HW123471   1.266   0.645   0.224  0.1040  0.6723  2.5366
 3945SOL    HW223472   1.389   0.722   0.269 -1.7947 -0.3970  1.7212
 3946SOL     OW23473   4.337   2.088   0.610  0.3028  0.1971 -0.0670
 3946SOL    HW123474   4.304   2.070   0.522  0.1266  0.0212  0.0343
 3946SOL    HW223475   4.301   2.013   0.657  1.3946 -1.5307 -1.9982
 3947SOL     OW23476   1.570   2.734  13.351  0.5492  0.0464 -0.4659
 3947SOL    HW123477   1.654   2.719  13.307  1.7489  0.8377  1.5969
 3947SOL    HW223478   1.515   2.659  13.330  0.1446  0.0524  0.6062
 3948SOL     OW23479   2.963   3.174   7.057 -0.3274 -0.7079  0.2001
 3948SOL    HW123480   2.986   3.083   7.076 -0.7353 -0.7784  0.3705
 3948SOL    HW223481   2.990   3.184   6.966 -1.5324  0.1801 -0.0569
 3949SOL     OW23482   2.528   4.607  13.352 -0.3248 -0.2389  0.5043
 3949SOL    HW123483   2.476   4.589  13.274 -0.5757 -2.1188  1.0943
 3949SOL    HW223484   2.505   4.534  13.409 -0.4401 -1.0342 -0.5696
 3950SOL     OW23485   0.417   4.682   0.497 -0.2640  0.1169 -0.1397
 3950SOL    HW123486   0.363   4.607   0.523  1.6443 -1.8215 -1.8130
 3950SOL    HW223487   0.441   4.647   0.411 -0.6306 -0.5672  0.0315
 3951SOL     OW23488   1.196   2.997   0.181  0.5043 -0.4218 -0.3245
 3951SOL    HW123489   1.180   2.903   0.189 -0.7846 -0.3078 -1.5128
 3951SOL    HW223490   1.269   3.003   0.121  0.3333  0.1972 -0.4740
 3952SOL     OW23491   1.909   4.186   6.336  0.2009 -0.5005 -0.3946
 3952SOL    HW123492   1.887   4.126   6.264  1.7277 -1.4442 -0.0954
 3952SOL    HW223493   1.948   4.121   6.395 -0.7122  0.7992  1.5892
 3953SOL     OW23494   1.680   0.029   5.148 -0.9230 -0.0914  0.1801
 3953SOL    HW123495   1.771   0.047   5.172 -0.2233 -0.6203 -2.0994
 3953SOL    HW223496   1.667   0.100   5.085  0.1847 -1.1261 -1.2323
 3954SOL     OW23497   2.969   1.833   8.397  0.1839 -0.0411 -0.0661
 3954SOL    HW123498   2.905   1.763   8.410  0.1578 -0.3547 -1.8837
 3954SOL    HW223499   3.047   1.778   8.394 -0.9868 -1.5844 -1.9041
 3955SOL     OW23500   4.373   1.938   6.566 -0.4325 -0.2842 -0.2152
 3955SOL    HW123501   4.356   2.023   6.525 -1.7716 -0.2929  0.3318
 3955SOL    HW223502   4.458   1.955   6.607 -0.2821  1.6942 -1.3580
 3956SOL     OW23503   1.055   3.751   7.250  0.2443 -0.4757 -0.2896
 3956SOL    HW123504   1.120   3.804   7.296  0.6674  0.2471 -1.7045
 3956SOL    HW223505   1.039   3.673   7.303 -1.4699 -0.7368 -1.2018
 3957SOL     OW23506   0.041   1.108   6.098 -0.4686  0.4699  0.1138
 3957SOL    HW123507   0.084   1.023   6.090  0.6015  0.5094  5.0877
 3957SOL    HW223508   4.685   1.081   6.110 -0.8233  0.9135 -1.5968
 3958SOL     OW23509   2.556   4.451   2.414 -0.2434  0.3850 -0.5324
 3958SOL    HW123510   2.578   4.520   2.352 -0.7395 -0.2619 -1.4224
 3958SOL    HW223511   2.564   4.370   2.363  0.1275 -0.1280  0.3359
 3959SOL     OW23512   3.746   3.289   5.998  0.1174 -0.3473 -0.2160
 3959SOL    HW123513   3.736   3.224   5.928 -0.2432 -0.8554  0.3089
 3959SOL    HW223514   3.736   3.240   6.079  3.4402 -0.1027  0.3437
 3960SOL     OW23515   2.509   3.302   2.668 -0.8637 -0.4889  0.3293
 3960SOL    HW123516   2.476   3.335   2.752  1.2848 -0.1941  1.0649
 3960SOL    HW223517   2.432   3.275   2.618 -0.1083  1.0549 -1.6607
 3961SOL     OW23518   0.061   3.276   0.448  0.0119  0.0176  0.2472
 3961SOL    HW123519   0.040   3.310   0.361 -0.9650 -0.5148  0.2765
 3961SOL    HW223520   4.732   3.333   0.491  0.6006  0.6669  0.2589
 3962SOL     OW23521   1.526   1.420   4.974 -0.2713 -0.2904  0.1275
 3962SOL    HW123522   1.451   1.362   4.961 -0.0290 -0.3182 -1.1550
 3962SOL    HW223523   1.604   1.365   4.977  1.0711  1.6931  1.4833
 3963SOL     OW23524   0.699   1.369   3.030  0.4507 -0.8037  0.1401
 3963SOL    HW123525   0.673   1.397   3.118  0.9209 -1.1733  0.3958
 3963SOL    HW223526   0.740   1.447   2.993  0.4092 -1.3578 -1.0422
 3964SOL     OW23527   2.086   1.524  15.414  0.1427 -0.6806 -0.4082
 3964SOL    HW123528   2.060   1.572  15.335  3.5488 -0.4976 -1.4413
 3964SOL    HW223529   2.178   1.505  15.393  0.5477 -0.7094  1.3991
 3965SOL     OW23530   1.266   0.081   3.710  0.6128 -0.3134 -0.1147
 3965SOL    HW123531   1.311   0.005   3.746  1.9096  1.2010  1.4580
 3965SOL    HW223532   1.319   0.095   3.632  0.3947 -0.4457 -0.2877
 3966SOL     OW23533   2.814   2.924   8.457  0.2127 -0.0678  0.1183
 3966SOL    HW123534   2.866   2.884   8.527  0.1923 -1.0180 -0.4013
 3966SOL    HW223535   2.742   2.865   8.436  1.2124 -1.6358  1.0702
 3967SOL     OW23536   4.688   3.307   5.940  0.0477 -0.2769  0.0454
 3967SOL    HW123537   0.031   3.252   5.930  1.6431  1.9777 -0.1038
 3967SOL    HW223538   4.627   3.243   5.976  0.8501 -0.7001  0.6441
 3968SOL     OW23539   3.957   2.889  14.556  0.1254 -0.2346 -0.2653
 3968SOL    HW123540   3.920   2.851  14.636  0.4088 -0.2177 -0.1271
 3968SOL    HW223541   3.921   2.976  14.571  0.1417 -0.1048 -0.9611
 3969SOL     OW23542   4.102   2.921   2.780 -0.0686 -0.2217  0.4533
 3969SOL    HW123543   4.093   2.894   2.689  0.8603 -1.4245  0.7296
 3969SOL    HW223544   4.193   2.894   2.788  0.9258  2.6883 -0.8772
 3970SOL     OW23545   2.707   3.070  11.182 -0.0567  0.6133  0.6463
 3970SOL    HW123546   2.615   3.092  11.195  0.3368  1.4305  1.9999
 3970SOL    HW223547   2.717   3.116  11.099  0.6761  1.4555  1.2004
 3971SOL     OW23548   1.764   4.644   0.447  0.4073 -0.1016  0.1843
 3971SOL    HW123549   1.804   4.617   0.364  1.0157  0.8799  0.1585
 3971SOL    HW223550   1.845   4.653   0.497 -0.4630  2.3657  1.1678
 3972SOL     OW23551   2.033   3.091   7.010  0.3033  0.0575  0.0651
 3972SOL    HW123552   2.055   3.145   6.935  2.8611 -1.6698 -0.4093
 3972SOL    HW223553   2.066   3.144   7.083 -0.1696 -0.8957  0.9833
 3973SOL     OW23554   2.053   0.631   3.299 -0.6895  0.1615 -0.5279
 3973SOL    HW123555   2.109   0.554   3.295 -0.6787  0.1390  0.1338
 3973SOL    HW223556   1.975   0.603   3.348 -0.1115  0.5202  0.5807
 3974SOL     OW23557   4.352   4.179   2.339 -0.2463  0.1620  0.4585
 3974SOL    HW123558   4.344   4.139   2.425  1.0808 -0.3195  0.3630
 3974SOL    HW223559   4.271   4.226   2.319 -0.4794 -0.2630  0.3966
 3975SOL     OW23560   2.911   4.299   3.022 -1.1907  0.0069 -0.3886
 3975SOL    HW123561   2.992   4.336   2.988 -0.5788 -0.9304  0.0501
 3975SOL    HW223562   2.843   4.356   2.986 -2.7202 -2.8311 -1.9497
 3976SOL     OW23563   3.617   2.345   3.884 -0.1385  0.4050  0.5602
 3976SOL    HW123564   3.551   2.284   3.918 -0.9918  0.7924 -0.4019
 3976SOL    HW223565   3.689   2.291   3.852 -0.6290  1.0846 -1.6800
 3977SOL     OW23566   2.831   1.716  14.200  0.1227 -0.0678  0.0860
 3977SOL    HW123567   2.758   1.728  14.138  2.2623  0.4052 -2.3596
 3977SOL    HW223568   2.883   1.791  14.170 -1.0410 -0.1807 -2.2910
 3978SOL     OW23569   2.620   1.745  10.024  0.9365 -0.1845  0.0421
 3978SOL    HW123570   2.575   1.742  10.108  1.8754  0.2895  0.5608
 3978SOL    HW223571   2.553   1.733   9.956 -0.1055 -0.8516  1.1801
 3979SOL     OW23572   1.414   0.751   6.939 -0.3084 -0.1755  0.2207
 3979SOL    HW123573   1.499   0.791   6.957  0.5090 -0.6294 -2.7243
 3979SOL    HW223574   1.436   0.712   6.854  1.7573  1.7925 -0.1305
 3980SOL     OW23575   1.194   1.994   8.919 -0.5488 -0.4262 -0.1522
 3980SOL    HW123576   1.123   2.012   8.858  0.5467  2.7545 -0.4977
 3980SOL    HW223577   1.145   1.978   8.999  0.0619 -0.7808  0.1501
 3981SOL     OW23578   4.296   3.331   5.814 -0.3931 -0.3327  0.1379
 3981SOL    HW123579   4.250   3.375   5.744 -2.0663  0.1266  1.5356
 3981SOL    HW223580   4.335   3.410   5.850  0.4773 -0.5452 -0.3186
 3982SOL     OW23581   1.606   0.533   3.703  0.8668  0.7781 -0.4458
 3982SOL    HW123582   1.556   0.534   3.784  0.8982  2.1792 -0.4413
 3982SOL    HW223583   1.542   0.562   3.638 -2.4221 -0.2898  2.3407
 3983SOL     OW23584   4.113   1.006   1.997  0.3803  0.8563  0.0899
 3983SOL    HW123585   4.023   0.986   1.970  0.2012  0.6810  0.8036
 3983SOL    HW223586   4.156   0.921   1.999 -1.4321 -0.0647 -0.3260
 3984SOL     OW23587   1.846   2.123  13.855  0.3268  0.0822  0.1658
 3984SOL    HW123588   1.775   2.167  13.807 -0.1745  0.3309  1.1279
 3984SOL    HW223589   1.819   2.032  13.840  0.9734  0.0294 -0.7264
 3985SOL     OW23590   2.892   4.051   9.136  0.4482 -0.4252 -0.2053
 3985SOL    HW123591   2.965   4.018   9.084  2.2853  0.7552  1.6614
 3985SOL    HW223592   2.894   3.984   9.204 -4.8044  1.1631  1.5350
 3986SOL     OW23593   4.163   1.847  13.654  0.6084 -0.4472 -0.0394
 3986SOL    HW123594   4.203   1.811  13.734  3.0221  0.2009 -0.9613
 3986SOL    HW223595   4.119   1.766  13.629  0.8887 -1.0729  1.4925
 3987SOL     OW23596   4.223   2.970   5.503  0.0528 -0.4208  0.1837
 3987SOL    HW123597   4.212   3.064   5.498 -0.4082 -0.6738 -3.0603
 3987SOL    HW223598   4.277   2.960   5.425  0.8630 -0.6565  0.7657
 3988SOL     OW23599   2.206   4.725  12.050  0.2371  0.4009  0.5940
 3988SOL    HW123600   2.254   4.700  12.129 -0.5750 -0.9686  0.6712
 3988SOL    HW223601   2.271   4.713  11.981 -1.6039 -0.5240 -1.0010
 3989SOL     OW23602   2.628   0.324  17.395 -0.3033 -0.1541  0.3522
 3989SOL    HW123603   2.664   0.332  17.307  1.9828  2.4499  1.5090
 3989SOL    HW223604   2.649   0.414  17.422 -2.2602  0.0506  1.1753
 3990SOL     OW23605   2.439   2.412   8.031 -0.0695 -0.4298 -0.1849
 3990SOL    HW123606   2.380   2.482   8.003 -1.3553 -1.5094 -0.1427
 3990SOL    HW223607   2.407   2.412   8.121  1.2828  3.9186  0.3249
 3991SOL     OW23608   1.436   4.085   5.748 -0.1842 -0.4245  0.1765
 3991SOL    HW123609   1.393   4.094   5.833 -0.3449 -0.4749  0.1012
 3991SOL    HW223610   1.528   4.088   5.774 -0.5969  3.7503  1.0812
 3992SOL     OW23611   0.910   4.507   4.818 -0.0517 -0.2431  0.0262
 3992SOL    HW123612   0.833   4.540   4.771  0.4007  0.9605  0.1122
 3992SOL    HW223613   0.966   4.585   4.826 -0.3621  0.2863 -2.8095
 3993SOL     OW23614   1.545   2.274   4.754  0.5501 -0.1572  0.3841
 3993SOL    HW123615   1.556   2.186   4.790  1.7118 -0.1776 -0.0280
 3993SOL    HW223616   1.452   2.289   4.775  0.8406  3.0164 -0.5749
 3994SOL     OW23617   3.547   4.560  15.048 -0.5121  0.3640  0.5062
 3994SOL    HW123618   3.543   4.500  14.974  0.1239  1.5548 -0.4815
 3994SOL    HW223619   3.635   4.544  15.080 -0.5717 -0.3490  0.3122
 3995SOL     OW23620   2.720   3.656   7.442 -0.7317  0.0097 -0.4543
 3995SOL    HW123621   2.741   3.576   7.491 -2.1625  0.2186  0.5112
 3995SOL    HW223622   2.803   3.669   7.397 -0.1798  0.2372  0.6366
 3996SOL     OW23623   1.213   1.902  12.813 -0.4726 -0.5457 -0.0707
 3996SOL    HW123624   1.237   1.809  12.816 -0.3835 -0.5408 -0.7493
 3996SOL    HW223625   1.125   1.906  12.852  0.3410  2.3934  1.4464
 3997SOL     OW23626   1.870   1.232  10.160  0.2122 -0.1530  0.4508
 3997SOL    HW123627   1.786   1.261  10.195 -0.5714 -3.7036  1.5420
 3997SOL    HW223628   1.890   1.305  10.101  1.3251 -1.0849 -0.3435
 3998SOL     OW23629   4.200   4.358   1.484  0.3395  0.1944  0.0803
 3998SOL    HW123630   4.169   4.362   1.575 -0.5425  0.3306 -0.2283
 3998SOL    HW223631   4.176   4.267   1.467  2.2942 -0.2272 -0.4660
 3999SOL     OW23632   3.180   3.974   8.329  0.5917  1.0409  0.0727
 3999SOL    HW123633   3.247   3.965   8.260 -0.1082  1.3354 -0.6532
 3999SOL    HW223634   3.102   3.977   8.273  1.4050  0.1631 -1.1166
 4000SOL     OW23635   2.306   4.689   3.710 -0.3662 -0.4666  0.1501
 4000SOL    HW123636   2.321   4.595   3.719  1.1766 -0.0615  1.7934
 4000SOL    HW223637   2.249   4.703   3.786 -0.0919 -0.3150  0.3309
 4001SOL     OW23638   2.299   4.643  13.750  0.1675 -0.0655  0.5633
 4001SOL    HW123639   2.226   4.668  13.806 -1.2857 -2.8075 -0.1097
 4001SOL    HW223640   2.343   4.727  13.738 -1.7421  1.0462  1.4373
 4002SOL     OW23641   2.788   2.690   5.924  0.1309 -0.3277 -0.3271
 4002SOL    HW123642   2.868   2.651   5.958  0.9935  1.1949 -0.6152
 4002SOL    HW223643   2.820   2.778   5.944 -0.2291 -0.2433 -0.1210
 4003SOL     OW23644   2.628   0.559   4.373 -0.2171  0.2188  0.5103
 4003SOL    HW123645   2.669   0.483   4.415 -0.0685  1.1146  1.9909
 4003SOL    HW223646   2.590   0.515   4.298  1.5723 -1.3032  0.4796
 4004SOL     OW23647   1.448   0.913  16.463  0.5306 -0.0352  0.0777
 4004SOL    HW123648   1.479   1.002  16.443  1.3291 -0.2841  0.2055
 4004SOL    HW223649   1.510   0.883  16.529  0.8176 -0.8051 -0.5326
 4005SOL     OW23650   3.578   2.261   4.788  0.8865 -0.6022 -0.3647
 4005SOL    HW123651   3.674   2.259   4.780  0.7718  0.0037 -1.8975
 4005SOL    HW223652   3.573   2.235   4.880  2.1626 -2.5327 -0.8369
 4006SOL     OW23653   0.331   3.965  16.073  0.1213  0.2259 -1.1396
 4006SOL    HW123654   0.335   4.058  16.094 -0.2276 -0.4512  2.0021
 4006SOL    HW223655   0.393   3.962  16.000  2.0499 -0.3099  0.5241
 4007SOL     OW23656   0.341   1.683   2.191  0.1764  0.4790  0.4669
 4007SOL    HW123657   0.414   1.745   2.193  0.7509 -0.1556 -1.8267
 4007SOL    HW223658   0.293   1.720   2.266 -1.4953  0.1894 -0.4720
 4008SOL     OW23659   2.772   2.616   9.596 -0.3636  0.2822 -0.3897
 4008SOL    HW123660   2.681   2.631   9.569 -0.5987  2.6527  1.7272
 4008SOL    HW223661   2.744   2.569   9.675  2.3891  1.1566  1.1218
 4009SOL     OW23662   4.233   3.395   4.128  0.1510 -0.6734 -0.0999
 4009SOL    HW123663   4.168   3.443   4.077 -2.5448 -1.6706  2.3638
 4009SOL    HW223664   4.298   3.464   4.144  0.3115 -0.3338 -2.2804
 4010SOL     OW23665   4.324   3.607   7.638  0.2744  0.4347 -0.0761
 4010SOL    HW123666   4.318   3.676   7.704  0.9370  0.9044 -0.5117
 4010SOL    HW223667   4.235   3.601   7.603  0.0275  1.1792  0.4075
 4011SOL     OW23668   4.670   1.074   9.010  0.1898 -0.1225  0.2700
 4011SOL    HW123669   4.731   1.022   8.958 -1.2161 -3.4231  1.9671
 4011SOL    HW223670   4.631   1.144   8.957  1.6413 -0.9114 -1.8700
 4012SOL     OW23671   3.689   0.248   6.731 -0.3772  0.2352  0.1634
 4012SOL    HW123672   3.774   0.207   6.719 -0.7228 -1.0418  2.1562
 4012SOL    HW223673   3.661   0.257   6.640  0.5364 -0.0358 -0.1455
 4013SOL     OW23674   3.770   3.738   2.626  0.1452  0.3734  0.0572
 4013SOL    HW123675   3.864   3.727   2.642 -0.2637 -0.5583  1.7883
 4013SOL    HW223676   3.773   3.752   2.531  0.4096  2.2200  0.3517
 4014SOL     OW23677   3.402   1.531   2.627 -0.2719  0.0622 -0.2556
 4014SOL    HW123678   3.362   1.609   2.589 -1.4788 -0.6053 -0.3654
 4014SOL    HW223679   3.351   1.524   2.708 -0.8819 -2.8966 -0.9017
 4015SOL     OW23680   1.899   4.575   3.125  0.0817 -0.0085 -0.0479
 4015SOL    HW123681   1.924   4.544   3.212 -1.2281 -0.1712  0.2723
 4015SOL    HW223682   1.875   4.666   3.140 -1.9002 -0.9130  2.2643
 4016SOL     OW23683   1.274   1.573   3.138 -0.3625  0.1114  0.2029
 4016SOL    HW123684   1.306   1.549   3.224 -1.5883  0.2606  0.7026
 4016SOL    HW223685   1.205   1.636   3.159 -1.9205 -1.0406 -1.4348
 4017SOL     OW23686   2.077   2.487  11.526  0.1191 -0.0351  0.3912
 4017SOL    HW123687   2.078   2.394  11.501  0.0251  0.2963 -0.8623
 4017SOL    HW223688   2.083   2.491  11.621  1.2538  3.1866  0.1958
 4018SOL     OW23689   1.014   1.278   8.268  0.0239 -0.3151 -0.1680
 4018SOL    HW123690   0.957   1.258   8.194 -0.9203  1.4060  0.0948
 4018SOL    HW223691   1.079   1.344   8.244 -1.9915  1.7994  0.2142
 4019SOL     OW23692   2.930   4.622   3.943  0.2533  0.1882  0.4768
 4019SOL    HW123693   2.873   4.571   3.885  2.1273  0.6163 -1.7409
 4019SOL    HW223694   2.966   4.690   3.886 -0.8275 -0.4185 -0.9312
 4020SOL     OW23695   3.119   3.510   0.676 -0.0228  0.4131 -0.2773
 4020SOL    HW123696   3.102   3.579   0.740 -1.1967  0.0479 -0.1991
 4020SOL    HW223697   3.166   3.551   0.604  1.2644  0.2109  0.4598
 4021SOL     OW23698   0.383   0.421  11.186  0.3370  0.2020 -0.1629
 4021SOL    HW123699   0.346   0.487  11.246 -0.5644  0.4157 -0.9608
 4021SOL    HW223700   0.309   0.413  11.127 -0.4036  0.3064  0.7513
 4022SOL     OW23701   2.224   0.764  16.234  0.0529  0.5297 -0.3202
 4022SOL    HW123702   2.209   0.833  16.170 -0.2078  0.2705 -0.5371
 4022SOL    HW223703   2.301   0.788  16.286 -1.5673 -0.4236  2.5299
 4023SOL     OW23704   1.887   2.783   4.866  0.5646 -0.3553 -0.0254
 4023SOL    HW123705   1.870   2.692   4.891 -2.3310  0.1494 -0.1797
 4023SOL    HW223706   1.809   2.805   4.816  0.0600 -1.7671  0.1181
 4024SOL     OW23707   4.268   0.183  16.137 -0.0889 -0.3416  0.3938
 4024SOL    HW123708   4.320   0.152  16.062 -0.2966  1.1884 -0.3868
 4024SOL    HW223709   4.244   0.098  16.173 -0.2625 -1.0379 -1.3426
 4025SOL     OW23710   0.550   0.774   9.642 -0.5724  0.4053  0.2028
 4025SOL    HW123711   0.576   0.783   9.734 -0.2794  1.2205  0.0452
 4025SOL    HW223712   0.454   0.768   9.640 -0.3673 -3.0721  0.8022
 4026SOL     OW23713   1.174   1.735   6.923  0.2034 -0.0677 -0.6273
 4026SOL    HW123714   1.215   1.776   6.847  2.0136  0.7428  0.7958
 4026SOL    HW223715   1.192   1.643   6.905 -0.9651 -0.5415  0.5626
 4027SOL     OW23716   3.894   2.648   8.150 -0.0331 -0.1601 -0.0948
 4027SOL    HW123717   3.970   2.694   8.187  1.3713 -3.4483  1.0649
 4027SOL    HW223718   3.938   2.595   8.083  0.3560 -0.1740  0.1696
 4028SOL     OW23719   0.762   3.617   0.417  0.5397  0.3490 -0.1908
 4028SOL    HW123720   0.844   3.569   0.411 -1.1951 -2.2468 -2.9363
 4028SOL    HW223721   0.784   3.681   0.485 -0.1471  0.4094 -0.0234
 4029SOL     OW23722   3.723   0.722  17.160  0.4445  0.5341  0.1953
 4029SOL    HW123723   3.641   0.676  17.141  0.0332  0.4426  2.1818
 4029SOL    HW223724   3.723   0.725  17.256  1.8656  1.0252  0.1819
 4030SOL     OW23725   1.240   3.223   9.068  0.1060  0.9066 -0.0709
 4030SOL    HW123726   1.230   3.222   8.973  0.6251  1.1803 -0.1284
 4030SOL    HW223727   1.230   3.318   9.081  0.5616  0.5927  2.5474
 4031SOL     OW23728   4.067   2.667   3.117  0.5464  0.8063 -0.0253
 4031SOL    HW123729   4.102   2.755   3.104 -0.4331  1.3643  1.0162
 4031SOL    HW223730   4.069   2.664   3.213  3.5068 -2.7315 -0.2346
 4032SOL     OW23731   1.097   1.754   4.424  0.5231 -0.5588 -0.1426
 4032SOL    HW123732   1.135   1.831   4.468 -2.5614  0.0986  1.3582
 4032SOL    HW223733   1.120   1.764   4.332 -1.6332 -1.0069 -0.7265
 4033SOL     OW23734   2.542   2.135   4.176  0.4474 -0.0378  0.5916
 4033SOL    HW123735   2.591   2.057   4.148  2.0785  0.6950  1.4005
 4033SOL    HW223736   2.490   2.160   4.099 -1.2881 -2.8497  0.8674
 4034SOL     OW23737   4.510   3.322   1.890  0.5695  0.6093  0.2776
 4034SOL    HW123738   4.589   3.374   1.874  1.0892 -0.1075  0.5289
 4034SOL    HW223739   4.509   3.267   1.811 -1.9004  3.5882 -1.7834
 4035SOL     OW23740   3.178   4.286   0.282 -0.3558  0.2715 -0.2646
 4035SOL    HW123741   3.163   4.291   0.376  1.2167 -2.0563  0.1095
 4035SOL    HW223742   3.108   4.337   0.240 -1.9947 -0.0568  2.1017
 4036SOL     OW23743   2.190   3.034  11.386 -0.1849  0.3163 -0.3356
 4036SOL    HW123744   2.254   3.058  11.452 -0.9813  2.3118 -0.3110
 4036SOL    HW223745   2.117   3.095  11.396 -1.0315 -0.4220 -1.9707
 4037SOL     OW23746   0.546   2.376   7.015  0.0709  0.5128  0.0794
 4037SOL    HW123747   0.477   2.327   7.059  2.1682 -4.0418 -1.7905
 4037SOL    HW223748   0.582   2.313   6.953 -1.8091 -1.7745  1.2982
 4038SOL     OW23749   0.120   2.211  15.371 -0.2325  0.0742 -0.2359
 4038SOL    HW123750   0.047   2.219  15.309 -0.5792 -2.9211 -0.1887
 4038SOL    HW223751   0.072   2.156  15.433  0.5840 -0.8659 -0.4469
 4039SOL     OW23752   1.354   0.177   2.151  0.0287 -0.4646 -0.1099
 4039SOL    HW123753   1.388   0.265   2.167 -0.8077 -0.1558 -0.0539
 4039SOL    HW223754   1.437   0.132   2.136  1.2803  0.6625  3.5828
 4040SOL     OW23755   2.607   4.323   7.786 -0.2875  0.3149  0.7036
 4040SOL    HW123756   2.562   4.352   7.864  0.6689  1.8109  0.6909
 4040SOL    HW223757   2.681   4.382   7.772 -0.0612 -0.2896 -0.6886
 4041SOL     OW23758   4.023   3.223   5.667 -0.5297  0.0935  0.5241
 4041SOL    HW123759   4.084   3.168   5.716 -1.1055  1.2862  2.5813
 4041SOL    HW223760   4.012   3.300   5.722  0.7289 -0.6913  1.8907
 4042SOL     OW23761   2.303   3.732   8.473 -0.4281  0.4453 -0.7430
 4042SOL    HW123762   2.338   3.820   8.483  0.0267  0.1046  0.5986
 4042SOL    HW223763   2.211   3.737   8.446  0.0307 -0.3983 -2.5049
 4043SOL     OW23764   0.369   4.021   6.444  0.4740  0.2004 -0.2636
 4043SOL    HW123765   0.290   4.058   6.482  1.7641  0.8459  1.7537
 4043SOL    HW223766   0.355   3.999   6.352  0.4154  0.0538 -0.2191
 4044SOL     OW23767   0.469   1.303  15.395  0.3471  0.8275  0.2834
 4044SOL    HW123768   0.485   1.210  15.381 -0.5162  0.5869  0.9101
 4044SOL    HW223769   0.380   1.287  15.426 -0.1058 -0.5282 -1.6945
 4045SOL     OW23770   4.231   2.401   6.262  0.3785  0.2494  0.4395
 4045SOL    HW123771   4.264   2.446   6.341 -1.2397 -4.0836  3.5754
 4045SOL    HW223772   4.208   2.317   6.302 -1.1927  0.9875  1.0781
 4046SOL     OW23773   3.459   1.973   5.629 -0.3825 -0.1326 -0.9392
 4046SOL    HW123774   3.489   1.903   5.571 -0.3677 -0.7941 -0.1378
 4046SOL    HW223775   3.519   1.954   5.702 -0.8013  0.8467 -0.3409
 4047SOL     OW23776   0.587   0.100   5.776  0.1880 -0.6026  0.1477
 4047SOL    HW123777   0.643   0.177   5.785 -0.7695  0.5939 -4.0843
 4047SOL    HW223778   0.611   0.040   5.847  0.2374 -0.4967  0.2215
 4048SOL     OW23779   0.123   0.474   1.252  0.0668  0.0300 -0.1616
 4048SOL    HW123780   0.153   0.443   1.167 -0.8268 -0.5652 -0.2577
 4048SOL    HW223781   0.100   0.388   1.285 -0.5405 -0.0751 -0.8515
 4049SOL     OW23782   4.658   1.688  11.365  0.1111  0.2630  0.4891
 4049SOL    HW123783   4.732   1.729  11.322  0.0785  0.9385  1.0880
 4049SOL    HW223784   4.606   1.665  11.287  0.9312  3.7729 -1.0474
 4050SOL     OW23785   0.344   2.875   3.003 -0.0309 -0.1042  0.8115
 4050SOL    HW123786   0.348   2.971   2.996  0.2447 -0.2060 -0.2721
 4050SOL    HW223787   0.249   2.871   3.015 -0.0502 -3.5106 -0.6769
 4051SOL     OW23788   3.605   3.697   5.455 -0.4415  0.0820  0.4221
 4051SOL    HW123789   3.612   3.714   5.549  0.0553  0.9322  0.2335
 4051SOL    HW223790   3.669   3.627   5.445  1.1003  1.7312 -1.3252
 4052SOL     OW23791   4.186   2.667   7.652 -1.0002 -0.3595  0.1929
 4052SOL    HW123792   4.225   2.661   7.739 -1.6446 -1.7862  0.3923
 4052SOL    HW223793   4.153   2.756   7.652 -0.0684 -0.0097  1.6601
 4053SOL     OW23794   1.804   0.858   0.540  0.6197  0.3251  0.6814
 4053SOL    HW123795   1.745   0.896   0.605 -1.6104 -0.7494 -0.7161
 4053SOL    HW223796   1.876   0.921   0.531  1.4313 -0.6795  0.1067
 4054SOL     OW23797   0.425   3.955  10.214 -0.1135 -0.0194 -0.4955
 4054SOL    HW123798   0.451   3.929  10.303 -0.6500 -1.8803 -0.8789
 4054SOL    HW223799   0.330   3.946  10.214 -0.0343 -0.8109  0.1748
 4055SOL     OW23800   3.091   3.038   2.423  0.1041 -0.4583 -0.5140
 4055SOL    HW123801   3.028   3.105   2.447 -1.8335 -2.7935  0.9918
 4055SOL    HW223802   3.053   3.006   2.342 -0.1182  1.3928 -1.1267
 4056SOL     OW23803   0.302   2.197   7.080 -0.0498 -0.4639  0.0662
 4056SOL    HW123804   0.232   2.219   7.018  1.2068 -1.0717 -1.5687
 4056SOL    HW223805   0.285   2.255   7.155 -0.2049 -0.9766  0.4220
 4057SOL     OW23806   4.298   0.583   6.678  0.2675 -0.2745  0.3451
 4057SOL    HW123807   4.318   0.665   6.724  0.8372  0.6591 -1.5704
 4057SOL    HW223808   4.336   0.604   6.592  0.8003 -0.8613  0.4377
 4058SOL     OW23809   3.445   0.764   3.553 -0.1361  0.5390 -0.0867
 4058SOL    HW123810   3.540   0.759   3.541 -0.5178 -0.8026 -2.6330
 4058SOL    HW223811   3.432   0.716   3.634  0.6428 -0.2056 -0.4014
 4059SOL     OW23812   0.524   3.952  12.032  0.1001 -0.2613 -0.1806
 4059SOL    HW123813   0.500   4.034  11.989 -0.5726  0.7314  2.1140
 4059SOL    HW223814   0.433   3.923  12.040  0.1704  0.2275  2.2132
 4060SOL     OW23815   1.481   2.878   6.272  0.1785  0.2782 -0.2819
 4060SOL    HW123816   1.443   2.809   6.219 -3.2811  0.1301  2.3960
 4060SOL    HW223817   1.573   2.868   6.248 -0.2221 -0.2348 -1.5586
 4061SOL     OW23818   2.137   0.117   2.214 -0.2093 -0.0737  0.1597
 4061SOL    HW123819   2.168   0.208   2.210 -0.8884  0.1518  0.0671
 4061SOL    HW223820   2.058   0.125   2.162 -0.8158  0.1482  1.1139
 4062SOL     OW23821   4.056   1.659   3.196  0.6668  0.2735  0.2089
 4062SOL    HW123822   4.103   1.659   3.279  0.7735 -0.6684  0.1404
 4062SOL    HW223823   4.038   1.566   3.183 -0.4306  0.6277 -0.9058
 4063SOL     OW23824   3.279   2.577  11.271 -0.2710 -0.0116 -0.1961
 4063SOL    HW123825   3.189   2.594  11.300  0.0411  0.3675  0.5465
 4063SOL    HW223826   3.259   2.559  11.179  1.4780  0.8005 -0.7257
 4064SOL     OW23827   1.411   0.903   5.705  0.5148 -0.5939  0.3607
 4064SOL    HW123828   1.469   0.827   5.710  2.0316  0.4711 -0.9863
 4064SOL    HW223829   1.394   0.895   5.799  0.8907  0.1846  0.4937
 4065SOL     OW23830   3.808   4.035   6.876  0.0221  0.4699  0.7252
 4065SOL    HW123831   3.862   4.010   6.802  0.7348  2.4157  0.5810
 4065SOL    HW223832   3.721   4.021   6.837  0.3100  2.1059 -0.5355
 4066SOL     OW23833   2.870   3.180   2.463  0.4567  0.0203  0.2067
 4066SOL    HW123834   2.815   3.102   2.463 -0.0994  0.4100  1.0508
 4066SOL    HW223835   2.859   3.219   2.550  2.1194 -0.6898  0.7397
 4067SOL     OW23836   0.000   0.402   2.433 -0.3141 -0.3125 -0.5274
 4067SOL    HW123837   4.640   0.395   2.447  0.0355 -0.8979  1.5792
 4067SOL    HW223838   0.036   0.329   2.484  0.9604 -0.8070 -2.1322
 4068SOL     OW23839   4.408   4.470   0.042  0.5368 -0.0350  0.5567
 4068SOL    HW123840   4.360   4.536   0.092  1.9238  0.7549  0.8528
 4068SOL    HW223841   4.334   4.409   0.042 -0.4277  1.1470 -0.0323
 4069SOL     OW23842   3.951   3.585  16.014 -0.6188 -0.2472  0.0370
 4069SOL    HW123843   3.876   3.607  15.958 -0.8710  0.2055  0.5524
 4069SOL    HW223844   4.016   3.644  15.976  2.0574 -3.4838 -0.3191
 4070SOL     OW23845   3.868   2.849   7.348  0.4614 -0.3560 -0.0982
 4070SOL    HW123846   3.800   2.860   7.282 -2.2865  0.3334  2.8429
 4070SOL    HW223847   3.846   2.921   7.408  0.4510 -1.0217  0.7031
 4071SOL     OW23848   0.737   1.292  15.675  0.2790 -0.9170  0.0847
 4071SOL    HW123849   0.643   1.297  15.692  0.2805  0.2754 -0.3044
 4071SOL    HW223850   0.772   1.379  15.695 -2.4085 -0.1907  1.7147
 4072SOL     OW23851   1.755   1.253   2.536 -0.1813 -0.5442  0.5755
 4072SOL    HW123852   1.663   1.242   2.559 -0.3982  0.9912  0.4210
 4072SOL    HW223853   1.749   1.219   2.447  0.2274 -0.4286  0.5071
 4073SOL     OW23854   2.967   0.120  14.458  0.2304  0.2800  0.4657
 4073SOL    HW123855   2.974   0.207  14.496 -0.3391  0.6545 -0.2819
 4073SOL    HW223856   3.030   0.063  14.503  0.0684 -0.2303  0.0499
 4074SOL     OW23857   2.188   2.995   8.071 -0.3066 -0.7409 -0.2321
 4074SOL    HW123858   2.277   2.986   8.038 -0.7883 -1.3155 -1.3814
 4074SOL    HW223859   2.162   3.068   8.015  0.4969  0.1264  0.5138
 4075SOL     OW23860   1.776   1.460   7.850  0.5797 -0.1295  0.3595
 4075SOL    HW123861   1.687   1.431   7.868  1.3700 -2.0253  1.2542
 4075SOL    HW223862   1.827   1.379   7.848  1.4254  0.5184 -3.6464
 4076SOL     OW23863   1.977   2.415   9.198  0.0533  0.7330 -0.2197
 4076SOL    HW123864   1.920   2.443   9.125  0.3066 -1.6228 -1.3117
 4076SOL    HW223865   2.043   2.485   9.194  2.1140 -1.3435 -2.7674
 4077SOL     OW23866   3.816   0.172   6.185  0.0419 -0.2812 -0.3103
 4077SOL    HW123867   3.908   0.153   6.203  0.5328  0.6216 -1.8043
 4077SOL    HW223868   3.818   0.172   6.089 -0.2637  1.8273 -0.3276
 4078SOL     OW23869   2.191   2.615   6.130  0.2853  0.9655  0.0925
 4078SOL    HW123870   2.284   2.624   6.107 -0.0871 -0.0618 -1.8312
 4078SOL    HW223871   2.165   2.553   6.063 -1.4060  3.7212 -1.8241
 4079SOL     OW23872   3.591   2.187   8.298 -0.2275  0.0445 -0.6750
 4079SOL    HW123873   3.528   2.149   8.237 -1.3818  0.8860 -0.0198
 4079SOL    HW223874   3.639   2.107   8.319 -0.2242  0.1281 -0.3672
 4080SOL     OW23875   2.725   1.465   4.246 -0.2203  0.5793  0.4717
 4080SOL    HW123876   2.717   1.458   4.151 -4.2219 -1.0062  0.9179
 4080SOL    HW223877   2.641   1.426   4.273  0.6616 -1.5158  0.2352
 4081SOL     OW23878   3.605   3.368  16.489 -0.2407  0.0095  0.1010
 4081SOL    HW123879   3.663   3.379  16.564  1.0780 -4.5320 -0.3006
 4081SOL    HW223880   3.519   3.397  16.522 -0.3891  1.4501 -1.5090
 4082SOL     OW23881   4.374   4.006   3.947 -0.5982 -0.2684  0.2914
 4082SOL    HW123882   4.291   3.981   3.987 -0.8861 -1.8016 -1.2897
 4082SOL    HW223883   4.409   4.051   4.025  0.1315 -0.5083  0.0943
 4083SOL     OW23884   2.596   2.877  16.202 -0.3949 -0.8303  0.0242
 4083SOL    HW123885   2.677   2.826  16.191  0.3800  0.6484 -1.1713
 4083SOL    HW223886   2.542   2.822  16.258 -1.5883 -0.3039 -0.6154
 4084SOL     OW23887   2.606   2.769   3.187 -0.5803  0.4039 -0.7332
 4084SOL    HW123888   2.523   2.766   3.139 -1.3782  0.0463  0.6835
 4084SOL    HW223889   2.673   2.762   3.119 -0.9215  2.8620 -1.3516
 4085SOL     OW23890   4.629   2.873  14.153  0.2472  0.4212 -0.5159
 4085SOL    HW123891   4.580   2.950  14.125  0.7306  2.0288  3.0314
 4085SOL    HW223892   4.670   2.854  14.069 -0.0985  0.2226 -0.6394
 4086SOL     OW23893   1.816   4.495  15.408 -0.0232 -0.0897  0.0550
 4086SOL    HW123894   1.817   4.507  15.313 -2.6124  1.1454  0.1885
 4086SOL    HW223895   1.863   4.414  15.424  0.2445  0.1512  0.4870
 4087SOL     OW23896   3.764   2.707   0.330 -0.3983  0.4034  0.1469
 4087SOL    HW123897   3.684   2.758   0.331  0.2663  1.4380  0.2038
 4087SOL    HW223898   3.739   2.615   0.319  2.2469 -0.2379 -0.5794
 4088SOL     OW23899   2.786   4.557   3.227 -0.1791 -0.0183  0.3077
 4088SOL    HW123900   2.698   4.591   3.246 -0.1275 -0.2756  0.9948
 4088SOL    HW223901   2.772   4.465   3.247  0.3620 -0.1351  0.1199
 4089SOL     OW23902   2.460   1.552  10.739 -0.7684  0.1177 -0.6651
 4089SOL    HW123903   2.393   1.524  10.802  0.3118  0.6816  0.7193
 4089SOL    HW223904   2.427   1.506  10.661 -0.5429 -0.3654 -0.4697
 4090SOL     OW23905   3.025   3.953  15.510 -0.2675 -0.2646 -0.0273
 4090SOL    HW123906   3.032   3.979  15.418 -0.9583 -0.3653 -0.1011
 4090SOL    HW223907   2.934   3.977  15.525  0.2637  0.7056  1.6824
 4091SOL     OW23908   4.228   2.255   6.029  0.2716  0.0894  0.8054
 4091SOL    HW123909   4.143   2.296   6.012  0.3373 -0.4438 -0.7689
 4091SOL    HW223910   4.267   2.315   6.093  0.6898  1.2001 -0.4926
 4092SOL     OW23911   3.026   2.232   9.421 -0.0009 -0.1301  0.3986
 4092SOL    HW123912   2.957   2.198   9.478  0.0481  1.3435  1.3565
 4092SOL    HW223913   2.991   2.303   9.367 -0.3154  1.0676  2.1640
 4093SOL     OW23914   4.154   1.154   2.801  0.2146 -0.6877  0.2812
 4093SOL    HW123915   4.212   1.160   2.724  0.9754  0.3604  0.9390
 4093SOL    HW223916   4.183   1.233   2.847  1.5641 -1.0477  0.0638
 4094SOL     OW23917   3.203   3.273  10.358 -0.1727  0.3945  0.0012
 4094SOL    HW123918   3.111   3.251  10.370  0.4698 -1.6372  1.2459
 4094SOL    HW223919   3.233   3.223  10.434 -0.7056 -0.2562 -0.2171
 4095SOL     OW23920   0.748   0.639  11.435  0.3918 -0.2464 -0.9072
 4095SOL    HW123921   0.792   0.634  11.520  0.4595  1.6058 -0.8427
 4095SOL    HW223922   0.705   0.553  11.436 -1.1037  0.4970  0.1994
 4096SOL     OW23923   2.141   0.222   4.081  0.0566 -0.2914 -0.2371
 4096SOL    HW123924   2.140   0.152   4.015  0.3249  0.8395 -1.4478
 4096SOL    HW223925   2.057   0.263   4.064 -0.8227 -2.3586 -0.8117
 4097SOL     OW23926   3.787   1.108  13.315 -0.0129  0.9264 -0.1891
 4097SOL    HW123927   3.721   1.178  13.312 -1.4341 -0.3872  0.5067
 4097SOL    HW223928   3.844   1.144  13.247 -2.3014  1.5516 -1.7895
 4098SOL     OW23929   1.686   0.592   1.908 -0.0023 -0.7181 -0.2677
 4098SOL    HW123930   1.726   0.549   1.832 -0.2209 -0.7342 -0.3717
 4098SOL    HW223931   1.769   0.606   1.955 -0.0468 -0.1511 -0.3563
 4099SOL     OW23932   3.544   0.002   0.926 -0.2893 -0.0483  0.2287
 4099SOL    HW123933   3.584   4.710   1.009 -1.0983  0.2603  0.7114
 4099SOL    HW223934   3.584   0.088   0.911  1.7205 -1.4521 -2.3544
 4100SOL     OW23935   0.168   1.512  10.833 -0.4197  0.1999  0.4374
 4100SOL    HW123936   0.184   1.605  10.816  3.4088 -0.5327  0.0586
 4100SOL    HW223937   0.258   1.481  10.848 -0.5358 -0.0195  0.6785
 4101SOL     OW23938   3.619   0.119   5.254 -0.5034  0.6790 -0.2993
 4101SOL    HW123939   3.709   0.148   5.268 -0.6083  1.4395 -1.2021
 4101SOL    HW223940   3.620   0.043   5.312 -1.8966  1.2576  0.4921
 4102SOL     OW23941   4.411   1.160   4.310  0.6120  0.2837 -0.1360
 4102SOL    HW123942   4.497   1.168   4.269  1.9167 -0.6844  2.4075
 4102SOL    HW223943   4.367   1.114   4.238 -1.8523 -0.8114  2.0546
 4103SOL     OW23944   0.021   2.271   6.958  0.3440  0.2180  0.6238
 4103SOL    HW123945   4.721   2.245   7.044 -1.2558  1.5610  0.3835
 4103SOL    HW223946   4.715   2.208   6.899  1.6611  0.0373 -0.0937
 4104SOL     OW23947   4.647   3.902   6.764 -0.5741 -0.4771  0.3895
 4104SOL    HW123948   4.668   3.991   6.795 -1.6046 -0.0102 -0.2590
 4104SOL    HW223949   4.572   3.929   6.711  0.8064  1.9049 -0.3721
 4105SOL     OW23950   1.270   0.899  15.046  0.5777  0.1122 -0.6901
 4105SOL    HW123951   1.296   0.812  15.074 -1.1213 -0.0700  0.3526
 4105SOL    HW223952   1.338   0.920  14.983  0.3898  4.2607  0.4370
 4106SOL     OW23953   4.426   4.703   7.807 -0.2181 -0.2982  0.7078
 4106SOL    HW123954   4.477   4.624   7.789  0.2796  0.1637  0.1123
 4106SOL    HW223955   4.451   0.034   7.742  0.4152 -0.7480  0.4963
 4107SOL     OW23956   2.411   2.567   5.508 -0.4699 -0.8680  0.1079
 4107SOL    HW123957   2.475   2.497   5.505 -1.0499 -1.4200  0.6297
 4107SOL    HW223958   2.428   2.602   5.420 -0.7330 -1.4231 -0.1649
 4108SOL     OW23959   1.897   1.138   4.640 -0.5555  0.4455 -0.5330
 4108SOL    HW123960   1.935   1.176   4.718 -0.2628 -0.0638 -0.4268
 4108SOL    HW223961   1.975   1.125   4.586 -2.5480  0.6373 -3.5048
 4109SOL     OW23962   1.830   0.187   9.674 -0.3749 -0.2220 -0.0301
 4109SOL    HW123963   1.736   0.177   9.693 -0.1439 -0.4361  0.9851
 4109SOL    HW223964   1.830   0.277   9.642  3.5089  0.1456  1.0309
 4110SOL     OW23965   4.210   3.661   0.932 -0.1312 -0.3963 -0.1573
 4110SOL    HW123966   4.303   3.672   0.954 -0.8156  1.0894  2.0149
 4110SOL    HW223967   4.216   3.665   0.837  1.1152  1.7870  0.0172
 4111SOL     OW23968   1.664   1.642  13.845  0.4310 -0.1674  0.0633
 4111SOL    HW123969   1.686   1.555  13.878 -0.8679  0.7230  3.2113
 4111SOL    HW223970   1.602   1.670  13.913  0.2228 -0.4373 -0.0190
 4112SOL     OW23971   0.076   3.658  15.297  0.0064  0.3731  0.0616
 4112SOL    HW123972   0.153   3.602  15.310  0.1925  0.3533 -1.1590
 4112SOL    HW223973   0.088   3.676  15.204 -0.5024 -2.7034 -0.5885
 4113SOL     OW23974   0.892   3.625  13.103  0.0717  0.1821 -0.0070
 4113SOL    HW123975   0.832   3.571  13.156  2.6016  0.5074  3.1414
 4113SOL    HW223976   0.884   3.577  13.021  0.3796 -1.1613  0.7407
 4114SOL     OW23977   0.041   0.914   1.648  0.4838  0.1817  0.0972
 4114SOL    HW123978   4.701   0.902   1.706  0.7520  0.0531  0.4081
 4114SOL    HW223979   0.107   0.880   1.708  1.5272  0.0082 -1.1390
 4115SOL     OW23980   4.614   1.524   4.788  0.2898 -0.9019  0.6570
 4115SOL    HW123981   4.540   1.529   4.848 -0.8685 -3.3023 -0.5637
 4115SOL    HW223982   4.673   1.570   4.847  0.1606 -0.2957  0.3086
 4116SOL     OW23983   3.634   3.276  16.232 -0.3168  0.2568 -0.3267
 4116SOL    HW123984   3.612   3.302  16.321 -1.0860  1.8087 -0.9646
 4116SOL    HW223985   3.690   3.350  16.208 -1.0448  0.4522 -1.4529
 4117SOL     OW23986   1.741   3.937   3.566  0.4962 -0.1382  0.4119
 4117SOL    HW123987   1.771   3.966   3.653  2.2384  0.8206 -0.5077
 4117SOL    HW223988   1.680   4.004   3.534  1.0583 -0.8251 -2.0803
 4118SOL     OW23989   1.006   2.799   7.484  0.5574 -0.5110 -0.2591
 4118SOL    HW123990   1.005   2.712   7.444 -1.8258 -0.4041 -0.4480
 4118SOL    HW223991   1.026   2.773   7.574 -1.7927 -0.8229  0.1804
 4119SOL     OW23992   0.164   4.322   0.878 -0.0886 -0.0996 -0.8143
 4119SOL    HW123993   0.125   4.326   0.966  1.0600  1.6490 -0.3721
 4119SOL    HW223994   0.100   4.270   0.831 -1.7953  0.6231  0.6688
 4120SOL     OW23995   4.253   4.445   5.678 -0.2353  0.1329 -0.8166
 4120SOL    HW123996   4.284   4.411   5.594 -0.6255 -2.8118  0.2228
 4120SOL    HW223997   4.231   4.536   5.658  0.2482  0.5357  0.4672
 4121SOL     OW23998   1.885   0.552  15.404 -0.8240  0.3680 -0.6511
 4121SOL    HW123999   1.872   0.587  15.492 -0.0665 -1.3174  0.1073
 4121SOL    HW224000   1.915   0.462  15.415 -0.6606  0.3009 -1.6450
 4122SOL     OW24001   3.295   2.026   6.061  0.2498 -0.0306 -0.2147
 4122SOL    HW124002   3.253   1.985   5.985  1.5702  0.4946 -1.2125
 4122SOL    HW224003   3.234   2.024   6.135 -0.2270  0.4937 -0.5988
 4123SOL     OW24004   0.009   0.395   6.628  0.3642  0.8040 -0.4877
 4123SOL    HW124005   0.093   0.349   6.628 -1.7525 -3.0864  0.0678
 4123SOL    HW224006   4.690   0.350   6.562 -1.7715  2.2154  0.2833
 4124SOL     OW24007   2.370   2.184  13.339  0.8536 -0.0015 -0.0468
 4124SOL    HW124008   2.463   2.200  13.350  0.8659  1.6059 -2.5166
 4124SOL    HW224009   2.354   2.169  13.246  1.4578  1.6080 -0.4056
 4125SOL     OW24010   2.468   1.280  14.130 -0.0115  0.3148 -0.1596
 4125SOL    HW124011   2.545   1.313  14.083  0.5623  1.3257  1.4963
 4125SOL    HW224012   2.388   1.315  14.092 -0.4095 -1.8878 -1.3500
 4126SOL     OW24013   1.731   3.030  11.144 -0.0865  0.0853  0.4975
 4126SOL    HW124014   1.711   3.060  11.232 -1.7103 -0.5953  0.3714
 4126SOL    HW224015   1.796   2.961  11.159 -0.4545 -0.4606 -0.4440
 4127SOL     OW24016   0.951   2.797  15.151  0.2223 -0.3179 -0.1736
 4127SOL    HW124017   0.869   2.837  15.180 -0.7228  0.1762 -3.4806
 4127SOL    HW224018   0.955   2.852  15.073 -0.0576 -2.0176 -1.3686
 4128SOL     OW24019   1.981   0.695   5.345 -0.2176  0.2007  0.2656
 4128SOL    HW124020   2.002   0.613   5.300 -0.6351 -0.4844  1.3312
 4128SOL    HW224021   2.066   0.734   5.324 -0.3916  0.1185 -0.6149
 4129SOL     OW24022   1.032   1.461   5.198  0.0465  0.2052 -0.4607
 4129SOL    HW124023   1.089   1.384   5.205 -0.1053  0.2732  1.6447
 4129SOL    HW224024   0.968   1.422   5.139 -0.1103  0.9817 -0.8059
 4130SOL     OW24025   1.520   1.674   6.769 -0.1844 -0.0649 -0.4164
 4130SOL    HW124026   1.493   1.602   6.712  0.9866 -2.5485  2.1897
 4130SOL    HW224027   1.557   1.634   6.848  0.7161 -0.0494 -0.8402
 4131SOL     OW24028   4.111   3.899   4.048  0.2192 -0.4856 -0.5906
 4131SOL    HW124029   4.041   3.888   3.983  0.1516  1.0866 -0.7994
 4131SOL    HW224030   4.075   3.978   4.089  0.2876 -0.9880  0.4208
 4132SOL     OW24031   0.101   3.261  13.408 -0.4999  0.0908 -0.3115
 4132SOL    HW124032   0.024   3.318  13.402 -1.0384 -0.5137  0.7741
 4132SOL    HW224033   0.168   3.323  13.434 -1.0385  0.3396  0.4869
 4133SOL     OW24034   4.561   4.407   6.758 -0.1083 -0.2818 -0.2475
 4133SOL    HW124035   4.634   4.465   6.778 -1.6718  1.6626 -0.1060
 4133SOL    HW224036   4.506   4.422   6.835  0.0052 -0.6502 -0.0939
 4134SOL     OW24037   2.939   1.293  11.166  0.2371  0.0599  0.2458
 4134SOL    HW124038   2.869   1.348  11.131  1.1991  0.6153 -0.7919
 4134SOL    HW224039   2.899   1.250  11.242 -0.6469 -1.1743 -0.9300
 4135SOL     OW24040   0.394   4.515  12.070  0.1345 -0.1151 -0.2360
 4135SOL    HW124041   0.482   4.498  12.104 -0.1423 -1.4331 -0.2045
 4135SOL    HW224042   0.415   4.541  11.980 -0.3578  0.5857 -0.1493
 4136SOL     OW24043   2.494   2.786   2.797 -0.2607  0.3785  0.0249
 4136SOL    HW124044   2.448   2.788   2.881  1.5901  0.5376  1.0380
 4136SOL    HW224045   2.446   2.717   2.750 -2.5340  0.9047  1.5566
 4137SOL     OW24046   0.126   2.214   3.469 -0.5869 -0.7882 -0.5083
 4137SOL    HW124047   0.104   2.131   3.511  5.2488 -1.8647  0.3882
 4137SOL    HW224048   0.055   2.264   3.509  0.8723  0.4462  0.5616
 4138SOL     OW24049   4.337   4.238   7.283  0.3483 -0.0149 -0.1982
 4138SOL    HW124050   4.371   4.192   7.206 -1.8646  1.0051 -1.7787
 4138SOL    HW224051   4.289   4.306   7.235 -1.4516 -0.3923  1.1063
 4139SOL     OW24052   3.158   0.543   8.334 -0.0519  0.6731  0.2400
 4139SOL    HW124053   3.097   0.546   8.408 -0.2147  0.2017  0.1245
 4139SOL    HW224054   3.132   0.458   8.299  0.0564 -0.3812  2.7161
 4140SOL     OW24055   1.278   3.157  11.441 -0.2979  0.6940 -0.0569
 4140SOL    HW124056   1.337   3.082  11.446 -1.9320 -0.6017 -0.0683
 4140SOL    HW224057   1.306   3.212  11.368  3.0282 -2.9842 -1.5477
 4141SOL     OW24058   0.619   2.063  11.179 -0.7670  0.2364 -0.4833
 4141SOL    HW124059   0.697   2.111  11.206  1.6192 -3.5330 -0.8005
 4141SOL    HW224060   0.656   1.975  11.170  2.1107  1.3956  0.0514
 4142SOL     OW24061   1.635   4.189   7.027 -0.3103 -0.0687 -0.0897
 4142SOL    HW124062   1.596   4.224   6.947  2.0691 -2.0209 -2.0996
 4142SOL    HW224063   1.718   4.163   6.988 -0.4558 -0.0531 -0.4104
 4143SOL     OW24064   3.268   2.547   6.571  0.0821 -0.1894 -0.0998
 4143SOL    HW124065   3.240   2.638   6.580 -0.3040 -0.2762 -0.3987
 4143SOL    HW224066   3.289   2.524   6.661  0.6029  0.0078 -0.1701
 4144SOL     OW24067   4.134   1.919   3.272  0.2698  0.0095  0.0794
 4144SOL    HW124068   4.098   1.830   3.261 -0.5766  0.2032  1.1445
 4144SOL    HW224069   4.183   1.934   3.192 -0.8933  1.0667 -0.4442
 4145SOL     OW24070   2.022   2.701   5.526 -0.4234 -0.4613 -0.0603
 4145SOL    HW124071   2.055   2.623   5.571 -1.8444 -1.3940 -0.6346
 4145SOL    HW224072   1.947   2.726   5.580  0.7677  1.3014  0.7818
 4146SOL     OW24073   3.953   2.361   6.598 -0.3974  0.1804  0.4115
 4146SOL    HW124074   3.862   2.331   6.592  0.1074 -1.0648 -0.8846
 4146SOL    HW224075   4.004   2.283   6.578  0.7307  1.3456 -1.3275
 4147SOL     OW24076   1.793   3.187   8.294 -0.2596 -0.4123 -0.2131
 4147SOL    HW124077   1.832   3.261   8.340 -0.6664 -0.3932  0.0971
 4147SOL    HW224078   1.870   3.132   8.281  0.1129  0.1752 -0.4993
 4148SOL     OW24079   0.108   2.169   1.124 -0.4727 -0.3442  0.1199
 4148SOL    HW124080   0.024   2.156   1.169 -0.8860  0.4692 -0.4002
 4148SOL    HW224081   0.113   2.090   1.070 -2.0317  0.9185 -1.8993
 4149SOL     OW24082   4.161   4.113   3.025 -0.0651 -0.4076 -0.1730
 4149SOL    HW124083   4.113   4.119   3.107  2.1345  1.9555  0.9275
 4149SOL    HW224084   4.244   4.148   3.056 -0.8698  0.2370  1.2496
 4150SOL     OW24085   1.059   0.668   7.827  0.1709 -0.0184  0.2755
 4150SOL    HW124086   1.035   0.681   7.919  0.6869  2.0627  0.1061
 4150SOL    HW224087   1.138   0.621   7.852  0.1562  0.3288  0.9752
 4151SOL     OW24088   2.928   1.104   3.321  0.1674 -0.8591  0.2850
 4151SOL    HW124089   2.995   1.041   3.299 -0.1384 -0.4260 -1.8959
 4151SOL    HW224090   2.853   1.046   3.310 -0.5522 -0.1930  1.5760
 4152SOL     OW24091   0.328   2.627   1.271  0.5338 -0.7273  0.0284
 4152SOL    HW124092   0.244   2.673   1.279  0.9170 -0.4309  2.5382
 4152SOL    HW224093   0.302   2.542   1.237  1.7368 -1.3129  0.5717
 4153SOL     OW24094   1.814   2.743   2.057  0.5423 -0.4368 -0.3645
 4153SOL    HW124095   1.874   2.668   2.063  1.1420 -0.1156 -2.3442
 4153SOL    HW224096   1.757   2.721   1.983 -0.2317 -0.7851  0.3276
 4154SOL     OW24097   3.348   2.997  16.870  0.0181 -0.2133 -0.4108
 4154SOL    HW124098   3.357   2.935  16.798  1.7498 -2.1803  1.5019
 4154SOL    HW224099   3.387   2.946  16.942 -1.0560 -1.5282 -0.7441
 4155SOL     OW24100   3.777   3.895   8.970  0.5112  0.8176  0.0107
 4155SOL    HW124101   3.825   3.863   9.047  0.6181  2.2136  0.5206
 4155SOL    HW224102   3.851   3.904   8.909  0.2452  0.7896 -0.3146
 4156SOL     OW24103   0.233   0.238  15.615  0.4070 -0.1935  0.6017
 4156SOL    HW124104   0.142   0.208  15.609 -0.1023  0.7801  3.6859
 4156SOL    HW224105   0.252   0.248  15.522  0.1553 -2.3003  0.3164
 4157SOL     OW24106   4.180   2.189   9.423 -0.1756  0.1941  0.0293
 4157SOL    HW124107   4.231   2.142   9.357 -0.5566  0.6637 -0.6062
 4157SOL    HW224108   4.184   2.281   9.399 -1.1406  0.4769  0.9303
 4158SOL     OW24109   0.401   4.382   3.496 -0.3407  0.0673 -0.1959
 4158SOL    HW124110   0.495   4.401   3.499 -0.0628 -0.9569 -2.4849
 4158SOL    HW224111   0.362   4.439   3.562  1.8659 -1.5692  2.5143
 4159SOL     OW24112   1.783   2.524   2.646  0.1007  0.3259 -0.1170
 4159SOL    HW124113   1.747   2.436   2.657 -1.4135  1.1163  1.1839
 4159SOL    HW224114   1.804   2.518   2.553 -1.0168 -0.7389 -0.2962
 4160SOL     OW24115   0.667   2.335   6.022 -0.1987  0.1295 -0.3860
 4160SOL    HW124116   0.648   2.266   6.086  0.3970  0.5008  0.1969
 4160SOL    HW224117   0.580   2.374   6.009 -0.1928  0.3472  0.1968
 4161SOL     OW24118   2.396   2.662   1.591  0.1942 -0.2653  0.0267
 4161SOL    HW124119   2.473   2.613   1.618  0.3890 -0.1084 -0.2504
 4161SOL    HW224120   2.429   2.751   1.579  1.1132 -0.8136 -1.4778
 4162SOL     OW24121   1.628   4.360   0.533 -0.0332  0.0536 -0.2726
 4162SOL    HW124122   1.575   4.439   0.528 -1.6109 -0.8725  1.7769
 4162SOL    HW224123   1.714   4.385   0.500  0.5429 -0.1199  1.1189
 4163SOL     OW24124   2.115   0.823  14.481  0.3535  0.4778 -0.6757
 4163SOL    HW124125   2.173   0.819  14.405 -0.9844  1.2937 -1.7588
 4163SOL    HW224126   2.167   0.816  14.560  0.0093  0.7118 -0.4276
 4164SOL     OW24127   0.720   0.381   2.925 -0.8903  0.4048  0.0903
 4164SOL    HW124128   0.756   0.300   2.889  0.6693  1.1243  0.0524
 4164SOL    HW224129   0.643   0.348   2.972 -1.6123  1.2719 -0.4911
 4165SOL     OW24130   1.904   4.119   2.785  0.1002 -0.0738 -0.5138
 4165SOL    HW124131   1.815   4.092   2.762  0.2996 -1.5063  0.4105
 4165SOL    HW224132   1.887   4.200   2.833  1.0341  0.4151 -1.0014
 4166SOL     OW24133   1.050   4.683  17.643  0.4041  0.3595 -0.1327
 4166SOL    HW124134   0.978   0.007  17.665 -0.6863 -0.0758 -2.5570
 4166SOL    HW224135   1.122   0.007  17.666 -0.4129  2.1415 -2.2059
 4167SOL     OW24136   0.883   2.263  13.271 -0.0732 -0.1337  0.6991
 4167SOL    HW124137   0.822   2.237  13.341 -0.2662  0.3167  0.7021
 4167SOL    HW224138   0.917   2.180  13.237 -0.5808 -0.5985  1.3181
 4168SOL     OW24139   1.862   1.682   1.505 -0.0592 -0.2867 -0.2292
 4168SOL    HW124140   1.790   1.737   1.476  0.4206  0.1586 -0.5796
 4168SOL    HW224141   1.862   1.625   1.428  1.0574 -1.1810  0.4335
 4169SOL     OW24142   1.447   4.624   1.866 -0.5508 -0.0424  0.8475
 4169SOL    HW124143   1.500   4.670   1.931  2.4486 -1.5949 -0.5099
 4169SOL    HW224144   1.398   4.565   1.924 -3.5443 -0.4080 -2.0762
 4170SOL     OW24145   0.065   3.522   6.237  0.3173 -0.6972 -0.0531
 4170SOL    HW124146   0.042   3.572   6.316 -0.8473 -0.4142 -0.5792
 4170SOL    HW224147   0.053   3.432   6.268  1.2644 -0.3533  1.3453
 4171SOL     OW24148   2.644   1.919  17.120 -0.3959 -0.2137  0.0170
 4171SOL    HW124149   2.724   1.866  17.128  0.0687  0.3240 -1.0378
 4171SOL    HW224150   2.605   1.908  17.206 -0.4276  0.6139  0.1106
 4172SOL     OW24151   3.056   0.548   5.803 -0.5032  0.2764 -0.2709
 4172SOL    HW124152   3.042   0.460   5.838  1.3448  1.1704  2.7226
 4172SOL    HW224153   3.070   0.540   5.709  1.9936 -1.9883  0.3188
 4173SOL     OW24154   0.111   3.890   2.895  0.3037  0.0053 -0.0550
 4173SOL    HW124155   0.115   3.967   2.953  0.3424  0.2340 -0.3601
 4173SOL    HW224156   0.198   3.879   2.855  0.0543 -0.5405 -0.4467
 4174SOL     OW24157   2.833   3.245   1.730  0.3985  0.5100 -0.1789
 4174SOL    HW124158   2.862   3.327   1.770 -4.3359  2.3570 -0.5401
 4174SOL    HW224159   2.782   3.203   1.799  1.4194 -1.2248 -0.5071
 4175SOL     OW24160   0.267   4.041   4.318 -0.7146 -0.2143 -0.5974
 4175SOL    HW124161   0.344   4.032   4.263 -0.5246 -0.4528 -0.2880
 4175SOL    HW224162   0.271   3.971   4.383  0.8039  0.9761  0.5932
 4176SOL     OW24163   4.672   2.916   5.983  0.1276  0.0157 -0.5457
 4176SOL    HW124164   4.601   2.855   6.004  0.7682 -0.1288  1.2607
 4176SOL    HW224165   4.616   2.992   5.969  0.5740  0.9629  2.6241
 4177SOL     OW24166   3.283   1.424   4.192  0.3446 -0.4696 -0.1709
 4177SOL    HW124167   3.283   1.499   4.133  2.4982 -0.9432 -0.7695
 4177SOL    HW224168   3.359   1.376   4.159  0.2836  0.5038 -1.7431
 4178SOL     OW24169   0.931   2.880  11.091 -0.3438  0.0750  0.2931
 4178SOL    HW124170   0.907   2.902  11.181 -1.0422  1.4790 -0.2293
 4178SOL    HW224171   1.015   2.927  11.086  0.4157 -1.3273 -0.0595
 4179SOL     OW24172   4.340   3.450   7.262  0.5722  0.6105  0.0455
 4179SOL    HW124173   4.352   3.544   7.272  2.2159  0.6227 -2.0040
 4179SOL    HW224174   4.254   3.455   7.219  1.0360  0.7626 -0.8589
 4180SOL     OW24175   3.671   0.990   7.995 -0.4002 -0.2637  0.0001
 4180SOL    HW124176   3.705   0.984   8.085  1.5318  1.2578 -0.6171
 4180SOL    HW224177   3.606   1.059   8.006 -2.0137 -1.5919 -1.2648
 4181SOL     OW24178   1.478   3.020   5.311  0.3382 -0.8361 -0.6463
 4181SOL    HW124179   1.445   3.097   5.266  2.6954 -0.3335 -1.5145
 4181SOL    HW224180   1.475   2.957   5.239  1.7966 -1.4469 -0.1747
 4182SOL     OW24181   0.925   3.573   1.666 -0.4660 -0.2337  0.3358
 4182SOL    HW124182   0.843   3.620   1.674 -0.1311  0.2653  0.7996
 4182SOL    HW224183   0.977   3.628   1.724  1.2792 -0.5325 -0.9437
 4183SOL     OW24184   0.261   2.933   7.545 -0.4365 -0.2584 -0.7158
 4183SOL    HW124185   0.328   2.990   7.580  0.4682 -1.3284 -0.7151
 4183SOL    HW224186   0.275   2.855   7.599  0.6514  0.1907 -0.3646
 4184SOL     OW24187   1.534   1.519   3.167 -0.0476  0.1921  0.7056
 4184SOL    HW124188   1.463   1.578   3.142  1.6824  1.4478 -1.2827
 4184SOL    HW224189   1.599   1.524   3.096  0.2419 -1.5067  0.8423
 4185SOL     OW24190   4.570   4.386  13.792  0.9586 -0.1942 -0.1907
 4185SOL    HW124191   4.568   4.468  13.743  1.3010  0.0275  0.1650
 4185SOL    HW224192   4.528   4.334  13.724 -0.1845  0.5980 -0.0947
 4186SOL     OW24193   1.025   1.588   2.737 -0.3102  0.5664 -0.0523
 4186SOL    HW124194   0.977   1.568   2.657 -1.5477 -0.4083  0.9540
 4186SOL    HW224195   1.090   1.518   2.744 -0.1243  0.5210 -2.0890
 4187SOL     OW24196   4.653   3.849   3.739  0.3811  0.0629  0.1794
 4187SOL    HW124197   4.693   3.867   3.823  0.4137 -0.8424  0.3548
 4187SOL    HW224198   4.696   3.920   3.692  1.9747 -0.5978  0.6490
 4188SOL     OW24199   1.554   0.237   4.683 -0.0191  0.5763  0.3539
 4188SOL    HW124200   1.492   0.310   4.692 -2.0722 -1.5581  3.3527
 4188SOL    HW224201   1.594   0.267   4.602 -0.7125 -1.0945 -0.6171
 4189SOL     OW24202   2.619   4.575   3.886 -0.3047  0.3876 -0.4346
 4189SOL    HW124203   2.540   4.553   3.835 -0.2389 -2.4059  0.6581
 4189SOL    HW224204   2.673   4.519   3.830  0.2528  0.2888  0.2065
 4190SOL     OW24205   3.750   0.607   5.331  0.6474 -0.0709  0.1602
 4190SOL    HW124206   3.674   0.614   5.272 -1.0788 -1.2074  2.2594
 4190SOL    HW224207   3.732   0.519   5.363  0.7394 -0.2536 -0.2842
 4191SOL     OW24208   4.501   2.953   2.437 -0.1578  0.2213  0.1152
 4191SOL    HW124209   4.492   2.909   2.352  3.4129 -0.5257  0.1271
 4191SOL    HW224210   4.595   2.945   2.452 -0.4307 -1.3251  0.9762
 4192SOL     OW24211   0.766   0.533   4.110  0.0964 -0.0103 -0.3017
 4192SOL    HW124212   0.752   0.459   4.051 -1.2480  0.2277 -0.2971
 4192SOL    HW224213   0.829   0.499   4.174 -2.1125 -0.3173  1.7722
 4193SOL     OW24214   0.403   0.461   1.842  0.5946 -0.0588  0.0503
 4193SOL    HW124215   0.483   0.506   1.814  0.1980  0.0189 -0.9558
 4193SOL    HW224216   0.432   0.402   1.913 -1.5425 -0.2202  0.7738
 4194SOL     OW24217   1.493   4.486   3.462  0.7949 -0.1032 -0.0409
 4194SOL    HW124218   1.449   4.416   3.510  2.5598 -0.4020  1.1376
 4194SOL    HW224219   1.527   4.434   3.389 -0.5152 -3.0550  1.4279
 4195SOL     OW24220   0.405   4.546   6.078 -0.2748 -0.4009  0.0477
 4195SOL    HW124221   0.321   4.583   6.052 -0.7391 -0.0260  2.0706
 4195SOL    HW224222   0.404   4.457   6.041  0.3615  0.6335 -2.4574
 4196SOL     OW24223   1.334   2.133  12.904 -0.4175 -0.5000 -0.1035
 4196SOL    HW124224   1.281   2.061  12.870 -0.4689 -0.6649  0.3178
 4196SOL    HW224225   1.292   2.138  12.990 -0.5931  0.7984 -0.2745
 4197SOL     OW24226   3.358   4.379   4.362  0.4897  0.2476  0.7474
 4197SOL    HW124227   3.338   4.309   4.424  0.4674  0.3977  0.9090
 4197SOL    HW224228   3.337   4.463   4.402 -0.7706 -1.6181  3.9859
 4198SOL     OW24229   4.156   2.066   2.236  0.1701  0.8867  0.1335
 4198SOL    HW124230   4.099   2.128   2.281 -0.1622 -0.4281  1.5322
 4198SOL    HW224231   4.104   1.994   2.200  1.0706  0.7158 -0.8397
 4199SOL     OW24232   1.733   4.346   3.668  0.2176  0.0273  0.2280
 4199SOL    HW124233   1.655   4.290   3.673 -0.0356  0.2434 -1.2586
 4199SOL    HW224234   1.741   4.343   3.572 -2.8542 -1.4572  0.0043
 4200SOL     OW24235   0.819   1.050  12.471 -0.1155 -0.2611  0.1968
 4200SOL    HW124236   0.905   1.008  12.466  1.2189  2.5262  0.0987
 4200SOL    HW224237   0.831   1.135  12.430 -0.9393 -1.4862 -2.5934
 4201SOL     OW24238   3.935   0.749  13.134 -0.6581 -0.1540  0.0338
 4201SOL    HW124239   3.923   0.811  13.206  0.0701 -0.7363  0.6433
 4201SOL    HW224240   3.842   0.731  13.118 -0.6249 -1.3602  1.2782
 4202SOL     OW24241   2.431   2.305   4.950 -0.1931 -0.3349  0.2191
 4202SOL    HW124242   2.423   2.243   5.022 -2.4580 -0.4222 -0.1115
 4202SOL    HW224243   2.463   2.383   4.995  2.8400 -1.5103  0.1658
 4203SOL     OW24244   1.243   2.198   8.177 -0.1024 -0.3153  0.0411
 4203SOL    HW124245   1.312   2.235   8.121 -0.6504 -0.6859 -0.8897
 4203SOL    HW224246   1.276   2.234   8.259  1.5246  0.7649 -1.0852
 4204SOL     OW24247   3.949   0.946   8.103  0.3683  0.3064 -0.3177
 4204SOL    HW124248   3.931   0.853   8.118  0.3702  0.7731  2.4338
 4204SOL    HW224249   3.970   0.978   8.190 -1.8437  1.1592 -0.0831
 4205SOL     OW24250   2.608   4.297   4.805 -0.4466 -0.1974  0.7658
 4205SOL    HW124251   2.546   4.364   4.831 -1.8275 -1.8024  1.5721
 4205SOL    HW224252   2.685   4.324   4.855 -1.8791  1.8387  1.8371
 4206SOL     OW24253   1.070   0.709   8.303  0.1463 -0.2070  0.0265
 4206SOL    HW124254   0.999   0.699   8.240  0.6843 -1.1262 -0.4439
 4206SOL    HW224255   1.015   0.753   8.367 -1.4517 -0.1053 -1.4190
 4207SOL     OW24256   2.839   3.447  16.740 -0.6104 -0.2481  0.3004
 4207SOL    HW124257   2.815   3.378  16.803  0.2384 -1.6089 -0.8696
 4207SOL    HW224258   2.813   3.524  16.790  1.3665  0.7976 -0.3048
 4208SOL     OW24259   0.685   3.107   2.668 -0.2112  0.4960  0.1224
 4208SOL    HW124260   0.687   3.015   2.693  1.8272  0.3840 -0.4434
 4208SOL    HW224261   0.745   3.144   2.733  0.8494 -1.6531  0.3405
 4209SOL     OW24262   1.993   3.804   1.821 -0.1939 -0.3236 -0.4621
 4209SOL    HW124263   2.042   3.727   1.792 -0.0098 -1.1648  2.0186
 4209SOL    HW224264   1.916   3.761   1.859 -0.4140  1.0264  0.6359
 4210SOL     OW24265   2.015   1.737  15.598  0.0714 -0.4426 -0.1812
 4210SOL    HW124266   1.966   1.771  15.524  3.0473  0.4766 -1.6939
 4210SOL    HW224267   2.036   1.649  15.565  1.3620 -0.1179 -0.2320
 4211SOL     OW24268   1.080   0.004  17.381  0.0085 -0.0536  0.3337
 4211SOL    HW124269   1.053   4.700  17.464 -1.0754 -1.9012 -0.8713
 4211SOL    HW224270   1.064   0.095  17.408 -2.0847  0.4457 -2.5421
 4212SOL     OW24271   3.053   3.787   9.897 -0.1066  0.3851 -0.1685
 4212SOL    HW124272   3.065   3.791   9.992  1.4655 -0.1197 -0.3370
 4212SOL    HW224273   2.974   3.840   9.886  0.2991  0.8233 -1.0277
 4213SOL     OW24274   0.724   3.927  12.849 -0.1813  0.2190  0.4578
 4213SOL    HW124275   0.686   3.993  12.907  3.3256 -0.1010  3.0891
 4213SOL    HW224276   0.814   3.959  12.858  0.4515 -0.9382 -1.7047
 4214SOL     OW24277   0.649   2.431  15.384  1.3645  0.0033  0.5994
 4214SOL    HW124278   0.629   2.524  15.370 -0.1402 -0.1979  1.4645
 4214SOL    HW224279   0.563   2.402  15.414  0.7949  0.1250 -0.9137
 4215SOL     OW24280   4.530   0.473   7.993 -0.2146 -0.2565  0.2826
 4215SOL    HW124281   4.532   0.434   8.081 -0.6703  0.8629  0.8025
 4215SOL    HW224282   4.440   0.456   7.964  0.4049 -1.9549 -0.6119
 4216SOL     OW24283   4.585   0.537  16.070 -0.3312  0.4479 -0.1506
 4216SOL    HW124284   4.537   0.488  16.004 -0.9177 -0.4237  0.9166
 4216SOL    HW224285   4.656   0.474  16.077 -2.3336 -2.0172 -2.1329
 4217SOL     OW24286   1.805   4.145  13.563 -0.1460 -0.1357 -0.2387
 4217SOL    HW124287   1.890   4.136  13.605 -0.6962  0.9866  1.0973
 4217SOL    HW224288   1.779   4.053  13.553  0.5395 -0.2536 -0.9483
 4218SOL     OW24289   3.113   2.574  14.872 -0.3353 -0.1753  0.5867
 4218SOL    HW124290   3.046   2.508  14.889  1.3959 -1.6543  1.6973
 4218SOL    HW224291   3.192   2.524  14.891  0.2368  0.4042 -0.2338
 4219SOL     OW24292   0.746   4.207  12.429  0.5837  0.2338 -0.2024
 4219SOL    HW124293   0.678   4.236  12.489 -0.7878 -2.3226 -0.5449
 4219SOL    HW224294   0.716   4.195  12.339  0.2775 -3.3104  0.3934
 4220SOL     OW24295   4.221   3.847   3.233  0.0835 -0.3037  0.4148
 4220SOL    HW124296   4.239   3.753   3.227 -0.6352 -0.4656  0.7960
 4220SOL    HW224297   4.309   3.873   3.260  0.3211  0.8364 -1.4760
 4221SOL     OW24298   0.917   3.801   7.034  0.3513  0.0189  0.2050
 4221SOL    HW124299   0.977   3.781   7.106 -2.6106  0.4510  2.7920
 4221SOL    HW224300   0.883   3.878   7.079  0.8608 -1.0962  2.4701
 4222SOL     OW24301   1.138   3.309   3.746  0.5688 -0.4041 -0.2843
 4222SOL    HW124302   1.191   3.338   3.671  2.7074  1.4634  1.9445
 4222SOL    HW224303   1.203   3.313   3.816  1.4819 -0.5586 -1.1214
 4223SOL     OW24304   4.138   3.573   3.235 -0.0363 -0.1548  0.3877
 4223SOL    HW124305   4.043   3.583   3.229 -0.0303  0.7187  2.0190
 4223SOL    HW224306   4.167   3.528   3.155  1.3845  0.5250  0.5290
 4224SOL     OW24307   2.376   3.339  14.961  0.6756  0.3517 -0.2818
 4224SOL    HW124308   2.338   3.305  15.042  0.9743  2.5224  0.7684
 4224SOL    HW224309   2.326   3.420  14.955  1.5246  0.7973 -1.4734
 4225SOL     OW24310   2.671   4.162   8.983 -0.0382 -0.7407 -0.3349
 4225SOL    HW124311   2.726   4.136   9.058 -0.5781 -0.1771  0.2496
 4225SOL    HW224312   2.597   4.202   9.028  0.6198  1.4741 -1.2615
 4226SOL     OW24313   1.174   1.945  10.282  0.4931  0.0206  0.2693
 4226SOL    HW124314   1.219   1.871  10.240 -1.1922 -0.3777 -0.8510
 4226SOL    HW224315   1.221   1.959  10.364  1.0069 -0.0776 -0.0079
 4227SOL     OW24316   3.226   4.617  11.373  0.0717 -0.0144  0.3278
 4227SOL    HW124317   3.148   4.561  11.372  0.5005 -0.6157  0.5972
 4227SOL    HW224318   3.220   4.661  11.458  1.4781 -0.1730  0.5034
 4228SOL     OW24319   4.395   3.234   4.293 -0.0813 -0.0970  0.5492
 4228SOL    HW124320   4.386   3.145   4.326  1.2565 -0.0046  1.1567
 4228SOL    HW224321   4.348   3.231   4.210  0.2004 -1.4742  0.4413
 4229SOL     OW24322   2.466   4.071   1.307  0.0380 -0.8338 -0.3048
 4229SOL    HW124323   2.525   4.043   1.376  2.3036 -1.8516 -2.6490
 4229SOL    HW224324   2.399   4.004   1.320 -2.3168  1.7727  1.1102
 4230SOL     OW24325   3.613   1.409   8.707  0.6421  0.3022  0.1019
 4230SOL    HW124326   3.639   1.445   8.792  1.7526 -1.5271  0.5385
 4230SOL    HW224327   3.603   1.317   8.728  2.4738 -0.1430 -0.9246
 4231SOL     OW24328   0.268   0.764   5.253  0.1509 -0.0777 -0.6995
 4231SOL    HW124329   0.249   0.707   5.179 -1.9847 -0.9588  0.5191
 4231SOL    HW224330   0.294   0.846   5.211  0.1096 -0.3258 -1.2008
 4232SOL     OW24331   4.282   3.830   1.805 -0.0742 -0.4057  0.7443
 4232SOL    HW124332   4.214   3.784   1.755  0.0051 -1.6311  1.7888
 4232SOL    HW224333   4.363   3.796   1.767 -0.1667  0.5873 -0.3394
 4233SOL     OW24334   1.338   1.167   4.676 -0.1597 -0.1605 -0.2428
 4233SOL    HW124335   1.432   1.185   4.682  0.0155 -1.3798  0.4784
 4233SOL    HW224336   1.305   1.255   4.654 -1.0841 -0.3281  0.5184
 4234SOL     OW24337   0.695   0.375   1.808 -0.7908  0.3185  0.4748
 4234SOL    HW124338   0.749   0.454   1.809  1.5049 -1.2969  2.2018
 4234SOL    HW224339   0.739   0.322   1.874  0.7966  0.6090 -0.3442
 4235SOL     OW24340   4.088   1.144   7.131  0.5410 -0.0141  0.1223
 4235SOL    HW124341   4.075   1.193   7.213  0.6760  2.6875 -1.4474
 4235SOL    HW224342   4.183   1.149   7.117  0.4991  0.7373  0.1097
 4236SOL     OW24343   2.269   4.252  13.207 -0.0666  0.4609 -0.1920
 4236SOL    HW124344   2.209   4.265  13.281 -0.7078  0.9542 -0.7965
 4236SOL    HW224345   2.339   4.199  13.246  0.0868  0.9844  0.2498
 4237SOL     OW24346   3.589   0.652   2.396  0.0427  0.0457 -0.7985
 4237SOL    HW124347   3.516   0.597   2.427  0.6498 -0.5879 -0.5054
 4237SOL    HW224348   3.659   0.599   2.434 -0.5122  1.6384  2.4433
 4238SOL     OW24349   0.021   2.298   9.833  0.2629 -0.5490 -0.1606
 4238SOL    HW124350   0.020   2.375   9.891 -0.6254 -0.7015  0.0324
 4238SOL    HW224351   0.113   2.274   9.846 -0.4606 -0.8747  4.4120
 4239SOL     OW24352   3.440   4.583   6.271  0.3287  0.1066 -0.3985
 4239SOL    HW124353   3.459   4.504   6.219 -0.1925  0.0386 -0.4820
 4239SOL    HW224354   3.352   4.609   6.243  0.1798  0.4459  0.4067
 4240SOL     OW24355   0.391   3.315   2.104  0.1972 -0.0338  0.4669
 4240SOL    HW124356   0.322   3.381   2.111 -0.3572 -0.6352  0.6971
 4240SOL    HW224357   0.347   3.234   2.129 -1.3349  0.1024 -1.7660
 4241SOL     OW24358   3.591   0.136   0.140 -0.0981  0.5381 -0.5617
 4241SOL    HW124359   3.590   0.088   0.057  1.0976 -3.2360  1.6139
 4241SOL    HW224360   3.503   0.121   0.173  0.5750  1.4706  1.6532
 4242SOL     OW24361   2.444   1.326   7.255 -0.0973  0.1802 -0.3307
 4242SOL    HW124362   2.480   1.313   7.343 -1.4170 -1.5592 -0.0677
 4242SOL    HW224363   2.459   1.421   7.249 -2.4438  0.5537 -0.1551
 4243SOL     OW24364   3.872   2.336   3.197 -0.2738  0.2012 -0.1791
 4243SOL    HW124365   3.844   2.270   3.134  0.1722  1.0376 -1.2524
 4243SOL    HW224366   3.938   2.377   3.142 -0.6947  0.9275 -0.1510
 4244SOL     OW24367   0.481   0.702  13.507 -0.0342 -0.2081  0.9040
 4244SOL    HW124368   0.445   0.616  13.487 -0.7613  0.3219 -0.0780
 4244SOL    HW224369   0.492   0.737  13.419  2.3525  2.0874  2.1249
 4245SOL     OW24370   3.540   2.773   9.158 -0.1216  0.0819 -0.0503
 4245SOL    HW124371   3.525   2.682   9.129 -0.1117  0.5668 -1.6112
 4245SOL    HW224372   3.455   2.793   9.197 -1.0870 -0.1196 -2.0333
 4246SOL     OW24373   2.237   4.308   1.814 -0.3147  0.3951  0.3559
 4246SOL    HW124374   2.199   4.356   1.741  1.8753 -0.2796 -1.2040
 4246SOL    HW224375   2.316   4.266   1.782 -1.7923 -1.4215 -0.8996
 4247SOL     OW24376   0.586   3.968   0.039  0.5053  0.0754  0.6481
 4247SOL    HW124377   0.677   3.940   0.036  0.8450  1.0032  2.4326
 4247SOL    HW224378   0.580   3.961   0.134  0.9753 -1.2645  0.5768
 4248SOL     OW24379   1.923   4.669   8.833  0.9414 -0.4735 -0.6819
 4248SOL    HW124380   1.865   4.702   8.764 -1.3700  1.6589  2.2732
 4248SOL    HW224381   1.878   4.587   8.853 -0.7427  1.0370  1.7584
 4249SOL     OW24382   3.069   3.301  15.833 -0.1323 -0.1499 -0.5615
 4249SOL    HW124383   2.993   3.313  15.775  0.1657 -0.0470 -0.9333
 4249SOL    HW224384   3.024   3.257  15.904  0.8248  0.5472  0.4863
 4250SOL     OW24385   3.095   2.371   7.553 -0.1642  0.0051  0.9122
 4250SOL    HW124386   3.016   2.418   7.582 -0.6184 -0.6789  0.7774
 4250SOL    HW224387   3.156   2.445   7.559 -2.1521  1.7096 -0.0147
 4251SOL     OW24388   0.680   3.810  15.711 -0.2926 -0.7716 -0.5340
 4251SOL    HW124389   0.748   3.876  15.694 -1.7944  1.1982  1.0148
 4251SOL    HW224390   0.641   3.788  15.627  1.5253 -1.0591 -1.2924
 4252SOL     OW24391   3.539   1.695   8.062  0.0471 -0.0792  0.3492
 4252SOL    HW124392   3.614   1.695   8.002 -1.5044 -4.0375 -1.5994
 4252SOL    HW224393   3.472   1.655   8.006 -2.0051  0.9440  2.0568
 4253SOL     OW24394   0.366   2.462   4.573  0.2687 -0.2471  0.5739
 4253SOL    HW124395   0.381   2.516   4.495  1.7587  0.0599  1.0836
 4253SOL    HW224396   0.296   2.516   4.609  1.7716  2.3640 -0.4937
 4254SOL     OW24397   0.571   3.137   8.866  0.0513 -0.0107  0.6031
 4254SOL    HW124398   0.661   3.107   8.859  0.1885  0.6019 -0.2914
 4254SOL    HW224399   0.529   3.083   8.933  0.2287  0.0515  0.7643
 4255SOL     OW24400   0.029   3.624   2.323 -0.3027 -0.6977 -0.3986
 4255SOL    HW124401   0.035   3.534   2.353 -1.4539 -1.1536 -1.5704
 4255SOL    HW224402   4.680   3.648   2.362  1.2878  2.7215  0.9525
 4256SOL     OW24403   0.850   1.421  10.801  0.4119  0.2232 -0.1326
 4256SOL    HW124404   0.760   1.422  10.835  0.0672 -0.1960 -1.0094
 4256SOL    HW224405   0.863   1.509  10.766 -0.6178  0.1917 -0.6225
 4257SOL     OW24406   2.273   4.364   8.372  0.0637  0.0276  0.5168
 4257SOL    HW124407   2.275   4.309   8.294 -2.3620  1.1274 -0.3229
 4257SOL    HW224408   2.366   4.362   8.391  0.2187 -1.7473 -0.5076
 4258SOL     OW24409   4.532   0.400   8.773 -0.2963 -0.1147  0.1878
 4258SOL    HW124410   4.548   0.308   8.749  2.0147  0.6473 -1.2322
 4258SOL    HW224411   4.437   0.403   8.763 -0.2901 -0.8093 -0.0934
 4259SOL     OW24412   0.719   1.799   5.850  0.2725  0.2163 -0.2134
 4259SOL    HW124413   0.781   1.729   5.871  0.9801  1.3630  1.4964
 4259SOL    HW224414   0.656   1.786   5.921  0.3452 -0.9029 -0.3456
 4260SOL     OW24415   1.850   0.020  15.392 -0.1407  0.1892  0.4810
 4260SOL    HW124416   1.786   0.063  15.448 -0.5779 -0.3259  0.3737
 4260SOL    HW224417   1.834   4.663  15.416 -0.1327  0.4181  1.3432
 4261SOL     OW24418   0.010   3.356   7.012  0.1711  0.0586  0.1673
 4261SOL    HW124419   0.070   3.315   6.950  0.4828 -0.7906  1.0343
 4261SOL    HW224420   0.075   3.373   7.080  0.1369 -4.1055  1.2527
 4262SOL     OW24421   4.483   4.226   7.832 -0.3309 -0.7590 -0.1483
 4262SOL    HW124422   4.414   4.272   7.784 -0.1548  0.6580  0.9350
 4262SOL    HW224423   4.442   4.220   7.918 -0.2883 -1.1093 -0.1518
 4263SOL     OW24424   4.622   2.183   9.335 -0.2065  0.3246 -0.3459
 4263SOL    HW124425   4.601   2.272   9.307 -2.1582 -0.3453 -1.0083
 4263SOL    HW224426   4.643   2.188   9.428 -1.0705  0.5898 -0.1676
 4264SOL     OW24427   2.359   3.472   2.122  0.2081 -0.0751  0.5950
 4264SOL    HW124428   2.396   3.475   2.210 -0.2958  1.2114  0.7737
 4264SOL    HW224429   2.287   3.535   2.132  0.2156 -0.0646  0.5835
 4265SOL     OW24430   0.152   2.108   7.888  0.1844  0.0052  0.1159
 4265SOL    HW124431   0.077   2.164   7.865  2.1050  2.6552  0.3133
 4265SOL    HW224432   0.219   2.137   7.826  0.0980 -1.7153 -0.7877
 4266SOL     OW24433   2.049   2.247   3.252  0.0056 -0.0769  0.2273
 4266SOL    HW124434   2.032   2.333   3.214 -0.7552 -1.1540 -1.8538
 4266SOL    HW224435   2.144   2.258   3.261  0.1175 -1.4749  0.8347
 4267SOL     OW24436   2.926   3.482   1.882  0.1493  0.1745  0.0253
 4267SOL    HW124437   3.001   3.481   1.822 -0.4190  0.0160 -0.6958
 4267SOL    HW224438   2.958   3.532   1.957  1.6467 -0.5634 -0.1255
 4268SOL     OW24439   0.265   0.929   6.897  0.0629 -0.3295 -0.2394
 4268SOL    HW124440   0.258   0.897   6.807 -2.7236 -1.1260  0.2635
 4268SOL    HW224441   0.176   0.939   6.930 -0.4572 -0.4199 -1.6046
 4269SOL     OW24442   3.521   1.342   9.881 -0.1770 -0.0512  0.0440
 4269SOL    HW124443   3.517   1.344   9.786 -3.2647  0.1997  0.1664
 4269SOL    HW224444   3.514   1.434   9.904 -0.3979  0.7991 -3.4542
 4270SOL     OW24445   0.030   2.216   8.782  0.2896  0.3548  0.6204
 4270SOL    HW124446   0.125   2.208   8.781  0.3661  1.3223 -0.4971
 4270SOL    HW224447   0.024   2.219   8.686  1.4052 -1.6653  0.4894
 4271SOL     OW24448   2.877   4.562   3.576  0.2649 -0.1866 -0.3593
 4271SOL    HW124449   2.843   4.488   3.525 -1.4114  0.9237 -0.8448
 4271SOL    HW224450   2.828   4.640   3.551  0.6756  0.1146 -0.2267
 4272SOL     OW24451   1.561   0.858   1.653 -0.1028 -0.1981  0.5345
 4272SOL    HW124452   1.543   0.852   1.559 -1.8086  1.0098  0.7917
 4272SOL    HW224453   1.650   0.824   1.660  0.0196 -0.1414 -0.6514
 4273SOL     OW24454   3.946   3.295   7.990 -1.0929 -0.6067  0.4506
 4273SOL    HW124455   3.952   3.272   7.897 -0.0097  0.7600  0.1871
 4273SOL    HW224456   3.871   3.240   8.012 -0.1815 -1.7298  0.7657
 4274SOL     OW24457   4.517   3.197   7.003 -0.6557  0.0020 -0.0970
 4274SOL    HW124458   4.588   3.250   6.967  1.2175 -0.6700  2.6437
 4274SOL    HW224459   4.521   3.211   7.097  0.9430  0.1481 -0.1914
 4275SOL     OW24460   2.574   0.169   5.697 -0.3083  0.0761  0.3039
 4275SOL    HW124461   2.504   0.224   5.663  0.5229  0.8931 -0.0994
 4275SOL    HW224462   2.574   0.098   5.633 -1.0739 -0.3582  0.7885
 4276SOL     OW24463   2.256   1.077   3.726  0.4766  0.5777 -0.7607
 4276SOL    HW124464   2.220   1.103   3.810  0.6097  0.3046 -0.6173
 4276SOL    HW224465   2.349   1.090   3.742  0.9854 -2.3931 -1.2830
 4277SOL     OW24466   0.581   1.321   8.685 -0.5767  0.5452 -0.1774
 4277SOL    HW124467   0.610   1.347   8.773  1.5583  0.2295 -0.8074
 4277SOL    HW224468   0.549   1.236   8.714  2.1034 -0.2943  0.3184
 4278SOL     OW24469   0.352   1.034  10.047  0.7484  0.0629  0.0612
 4278SOL    HW124470   0.352   0.989  10.131  0.3517 -0.8221 -0.4072
 4278SOL    HW224471   0.315   1.117  10.077  0.5511  0.0969 -0.2729
 4279SOL     OW24472   3.542   3.687  14.787 -0.2851  0.1422  0.4829
 4279SOL    HW124473   3.629   3.652  14.765 -0.9200 -1.7406  0.9731
 4279SOL    HW224474   3.567   3.753  14.852 -0.2818  1.3174 -0.7091
 4280SOL     OW24475   3.797   4.332   7.127  0.3888  0.7753 -0.0838
 4280SOL    HW124476   3.708   4.342   7.096  0.4327  1.6367  0.0889
 4280SOL    HW224477   3.772   4.282   7.205 -0.7203  0.4220 -0.6659
 4281SOL     OW24478   2.873   4.358   4.909 -0.4675  0.0678 -0.2346
 4281SOL    HW124479   2.909   4.288   4.855  0.1850  0.4797 -0.3234
 4281SOL    HW224480   2.952   4.393   4.950 -1.2130  1.3306  0.1138
 4282SOL     OW24481   3.722   3.505   4.471  0.2038  0.4556 -0.0250
 4282SOL    HW124482   3.691   3.455   4.395 -1.3887  0.9832  0.2949
 4282SOL    HW224483   3.690   3.455   4.545  1.7579 -1.4682 -0.6454
 4283SOL     OW24484   0.206   1.273  10.046 -0.4908 -0.1145  0.2510
 4283SOL    HW124485   0.182   1.334  10.115  0.9404 -1.4156  1.9025
 4283SOL    HW224486   0.214   1.331   9.970 -0.1626 -2.4792 -1.5145
 4284SOL     OW24487   0.968   2.682   3.602 -0.0223  0.0833 -0.5716
 4284SOL    HW124488   0.999   2.642   3.521  0.0090  1.3582 -1.1797
 4284SOL    HW224489   0.897   2.625   3.633  0.8353 -0.7147 -0.0531
 4285SOL     OW24490   1.289   1.106   9.199 -0.2259  0.4098  0.4089
 4285SOL    HW124491   1.371   1.074   9.238  0.1803  2.1659  1.0252
 4285SOL    HW224492   1.328   1.184   9.158  0.7567  0.4670  1.4267
 4286SOL     OW24493   3.603   2.505   4.711  0.0694 -0.9153  0.4582
 4286SOL    HW124494   3.598   2.410   4.710  0.5881 -0.8942 -2.6055
 4286SOL    HW224495   3.677   2.519   4.651  0.2079  2.6838  1.4469
 4287SOL     OW24496   2.278   3.711   7.683 -0.0223  0.4075  0.4588
 4287SOL    HW124497   2.282   3.800   7.719 -3.9546 -0.4513  3.0058
 4287SOL    HW224498   2.279   3.658   7.763 -0.6953 -0.6333 -0.2221
 4288SOL     OW24499   4.322   2.118   5.116  0.2359  0.1561 -0.7280
 4288SOL    HW124500   4.387   2.055   5.145 -1.1768  0.0926  2.3630
 4288SOL    HW224501   4.360   2.204   5.133 -1.5950  0.6990  0.7132
 4289SOL     OW24502   4.596   3.757  15.475 -0.3963  0.3995 -0.0740
 4289SOL    HW124503   4.658   3.728  15.408  2.0198 -1.1302  2.7897
 4289SOL    HW224504   4.558   3.837  15.439  0.0917 -1.0489 -3.7679
 4290SOL     OW24505   3.591   2.101   2.720 -0.1434 -0.0524  0.2100
 4290SOL    HW124506   3.632   2.138   2.641  0.7675 -0.9126  0.2673
 4290SOL    HW224507   3.617   2.010   2.702  3.4884  1.0172  0.1449
 4291SOL     OW24508   2.387   2.842   3.837  0.0525 -0.3977  0.3691
 4291SOL    HW124509   2.429   2.900   3.774  0.2541  1.0888  1.9013
 4291SOL    HW224510   2.430   2.759   3.814 -0.4827 -0.4315 -0.5233
 4292SOL     OW24511   1.938   2.588   4.524  0.3331 -0.5586  0.2321
 4292SOL    HW124512   1.900   2.546   4.447 -0.9755  1.9508 -0.4822
 4292SOL    HW224513   1.996   2.521   4.560  1.2192  0.7402  1.2561
 4293SOL     OW24514   2.370   1.621   2.861 -0.1345 -0.3250  0.0452
 4293SOL    HW124515   2.438   1.688   2.862  0.3408 -0.8088 -0.1448
 4293SOL    HW224516   2.331   1.631   2.948  2.4258 -0.0022  1.1261
 4294SOL     OW24517   4.475   2.397  15.846  0.0047 -0.4962 -0.4022
 4294SOL    HW124518   4.570   2.391  15.853  0.0959  0.9279 -0.4690
 4294SOL    HW224519   4.482   2.478  15.795  1.4355  0.5018  1.3936
 4295SOL     OW24520   0.866   3.200   7.163  0.0155 -0.1355  0.3407
 4295SOL    HW124521   0.890   3.133   7.227 -1.4442 -2.5762 -1.6290
 4295SOL    HW224522   0.951   3.225   7.127  0.4504 -0.7714  0.9115
 4296SOL     OW24523   3.337   2.736  16.863 -0.1762  0.0696 -1.3494
 4296SOL    HW124524   3.333   2.686  16.781  1.7084 -1.2631 -0.6279
 4296SOL    HW224525   3.292   2.671  16.917  1.3366  0.3560  0.2274
 4297SOL     OW24526   0.452   4.016   8.484  0.4872  0.1901 -0.3079
 4297SOL    HW124527   0.417   3.941   8.531 -1.5365  0.8447 -0.7526
 4297SOL    HW224528   0.545   4.002   8.504  0.3995 -3.0516 -2.2421
 4298SOL     OW24529   3.168   1.252   0.266  0.3382  0.6569  0.1522
 4298SOL    HW124530   3.200   1.205   0.343  1.1643  0.2121 -0.4609
 4298SOL    HW224531   3.116   1.324   0.303  0.4960  1.5698 -1.4285
 4299SOL     OW24532   2.792   0.757   1.884  0.3954  0.7398  0.0277
 4299SOL    HW124533   2.711   0.808   1.884 -1.4537 -2.1815 -1.7468
 4299SOL    HW224534   2.857   0.811   1.931  1.5812 -0.9106  0.2859
 4300SOL     OW24535   1.334   2.856   8.997 -0.0692 -0.3281  0.0118
 4300SOL    HW124536   1.351   2.864   9.091 -0.3768 -0.7055  0.0989
 4300SOL    HW224537   1.326   2.761   8.990 -1.8205 -0.2331  0.7871
 4301SOL     OW24538   4.038   0.404   8.035  0.3563  0.3170 -0.2613
 4301SOL    HW124539   3.966   0.463   8.013  1.6551  1.6544 -0.9149
 4301SOL    HW224540   3.995   0.337   8.088  1.3539 -1.3078 -1.4858
 4302SOL     OW24541   3.269   0.432  15.421 -0.2365  0.3966 -0.0061
 4302SOL    HW124542   3.327   0.359  15.443 -1.3477  0.1638  2.1636
 4302SOL    HW224543   3.318   0.466  15.347 -2.5561 -0.3577 -1.8810
 4303SOL     OW24544   3.701   2.748   8.581  0.1230  0.4303 -0.0839
 4303SOL    HW124545   3.634   2.681   8.564  0.4570 -0.3348  1.6274
 4303SOL    HW224546   3.649   2.827   8.596  0.9974  0.5228  2.3662
 4304SOL     OW24547   4.282   4.036   2.565 -0.1770  0.0798 -0.3464
 4304SOL    HW124548   4.325   3.958   2.600  2.2978  1.3559 -0.4937
 4304SOL    HW224549   4.231   3.997   2.494  0.8967 -1.8728 -0.0473
 4305SOL     OW24550   1.663   1.417   0.389  0.3247  0.2057 -0.2228
 4305SOL    HW124551   1.713   1.336   0.381  0.1367  0.0641  0.0758
 4305SOL    HW224552   1.604   1.395   0.461 -2.3061  3.4724 -1.3863
 4306SOL     OW24553   0.638   3.111   3.024 -0.7824 -0.3278 -0.1797
 4306SOL    HW124554   0.724   3.151   3.035 -2.4131  2.9422  0.9384
 4306SOL    HW224555   0.638   3.061   2.943  0.1321 -2.3935  1.1011
 4307SOL     OW24556   1.023   2.990   9.044  0.2794 -0.0204 -0.0713
 4307SOL    HW124557   1.017   2.934   8.967 -0.9627  1.4503 -1.0375
 4307SOL    HW224558   1.118   2.999   9.052  0.1612  0.2612  1.1656
 4308SOL     OW24559   1.995   0.946   6.589 -0.1418  0.8071 -0.4798
 4308SOL    HW124560   1.958   0.860   6.610 -0.0019  0.3024 -2.2883
 4308SOL    HW224561   2.049   0.919   6.515  0.2953  1.2043 -0.3044
 4309SOL     OW24562   4.148   4.123   8.982 -0.2368  0.2235  0.2294
 4309SOL    HW124563   4.170   4.048   9.036  1.9319 -1.8575 -3.5486
 4309SOL    HW224564   4.141   4.085   8.894  0.4828  0.5384  0.0373
 4310SOL     OW24565   1.404   4.614   7.317 -0.7322 -0.6039 -0.0619
 4310SOL    HW124566   1.344   4.547   7.352  0.3039 -1.5599 -0.1200
 4310SOL    HW224567   1.448   4.649   7.394 -2.7462  1.8627 -0.0557
 4311SOL     OW24568   0.175   0.088  15.190 -0.4864 -0.0366  0.1669
 4311SOL    HW124569   0.210   0.169  15.228 -1.1247 -0.3269  1.3848
 4311SOL    HW224570   0.189   0.022  15.258 -0.0331 -0.2232 -0.1071
 4312SOL     OW24571   2.680   0.143  11.377  0.4344 -0.0650  0.1665
 4312SOL    HW124572   2.650   0.197  11.304 -1.3828 -0.2301  0.7920
 4312SOL    HW224573   2.622   0.067  11.371  2.1516 -1.3537 -0.1321
 4313SOL     OW24574   3.712   4.323   1.965  0.1183 -0.6851 -0.4765
 4313SOL    HW124575   3.695   4.229   1.955 -3.1592  0.0322 -1.9140
 4313SOL    HW224576   3.807   4.327   1.957  0.2479 -1.6229  0.5796
 4314SOL     OW24577   0.604   2.284  17.701 -0.1742  0.0362  0.4901
 4314SOL    HW124578   0.573   2.370  17.731 -2.3155 -0.4919 -0.1946
 4314SOL    HW224579   0.596   2.236   0.045  2.0613 -0.7693  0.2304
 4315SOL     OW24580   2.387   1.094   8.170 -0.0318 -0.4900  0.2755
 4315SOL    HW124581   2.472   1.127   8.140 -0.1661  0.1199  0.5584
 4315SOL    HW224582   2.370   1.169   8.227 -1.1251 -1.6837  1.4953
 4316SOL     OW24583   3.497   0.977  12.062 -0.3661  0.4702 -0.6448
 4316SOL    HW124584   3.512   1.070  12.041 -1.3065  0.3183 -1.9316
 4316SOL    HW224585   3.544   0.942  11.987  0.9186  0.7539  0.0132
 4317SOL     OW24586   1.465   3.043  10.169  0.0235 -1.0138 -0.4647
 4317SOL    HW124587   1.506   3.075  10.088 -0.3772 -1.0777 -0.6936
 4317SOL    HW224588   1.386   3.098  10.170 -0.3845 -1.5774 -1.6850
 4318SOL     OW24589   1.260   2.275   4.774  0.3516 -0.0456 -0.6319
 4318SOL    HW124590   1.191   2.237   4.829  1.2240  0.1097  0.5636
 4318SOL    HW224591   1.209   2.323   4.709  0.2168  2.4560  1.3238
 4319SOL     OW24592   3.559   0.442   4.946 -0.4880 -0.1427  1.6274
 4319SOL    HW124593   3.479   0.400   4.915  0.0797 -1.5314  2.0231
 4319SOL    HW224594   3.555   0.532   4.914 -1.4549 -0.0016  2.1513
 4320SOL     OW24595   2.674   3.133   9.332  0.9827 -0.4059 -0.1397
 4320SOL    HW124596   2.631   3.146   9.247 -0.0102  1.3482  0.6528
 4320SOL    HW224597   2.653   3.041   9.348 -1.3491  0.1489 -0.0980
 4321SOL     OW24598   3.298   1.785   2.385  0.5106 -0.1163  0.1126
 4321SOL    HW124599   3.243   1.731   2.327  0.5121 -1.0335  0.9620
 4321SOL    HW224600   3.247   1.788   2.465  1.9085  1.0590  0.9550
 4322SOL     OW24601   0.804   3.567   5.396 -0.8187 -0.4372 -0.3720
 4322SOL    HW124602   0.875   3.591   5.456  0.4937  0.3547 -2.2755
 4322SOL    HW224603   0.844   3.584   5.311 -0.4350  0.5370  0.0025
 4323SOL     OW24604   4.137   3.206  10.389 -0.5823 -0.1604 -0.5398
 4323SOL    HW124605   4.042   3.218  10.385 -0.3485  1.5401 -0.9266
 4323SOL    HW224606   4.166   3.269  10.324  2.6557  0.1937  1.2362
 4324SOL     OW24607   1.290   3.247   8.808 -0.3759  0.3073  0.5214
 4324SOL    HW124608   1.220   3.303   8.775 -0.7473 -0.2636  0.3279
 4324SOL    HW224609   1.364   3.307   8.811  0.0590 -0.0505 -3.5586
 4325SOL     OW24610   0.725   3.114   1.713  0.0924  0.2287  0.4154
 4325SOL    HW124611   0.691   3.103   1.802  2.5839 -0.5824  1.2943
 4325SOL    HW224612   0.817   3.103   1.739  0.2925  2.7099  0.7618
 4326SOL     OW24613   0.115   0.088   6.392  0.1127 -0.1870  0.3358
 4326SOL    HW124614   0.200   0.120   6.420  0.3761 -0.0966 -0.5422
 4326SOL    HW224615   0.104   0.154   6.323 -1.4850 -0.9066 -0.1049
 4327SOL     OW24616   4.283   2.364   0.448  0.1400 -0.3216 -0.0796
 4327SOL    HW124617   4.352   2.396   0.390 -0.4136 -0.4686 -0.8255
 4327SOL    HW224618   4.291   2.269   0.446 -0.1906 -0.3193 -1.7113
 4328SOL     OW24619   0.943   3.846   1.089 -0.1934  0.4557  0.2138
 4328SOL    HW124620   0.984   3.775   1.038 -0.8958 -0.9884  1.6544
 4328SOL    HW224621   0.967   3.820   1.178  2.0463 -2.5245 -1.2541
 4329SOL     OW24622   3.921   3.275   3.019  0.1221  0.2395  0.1344
 4329SOL    HW124623   3.909   3.195   3.070 -0.2704 -0.9157 -1.7809
 4329SOL    HW224624   4.004   3.261   2.972  0.1670  0.9513 -0.0086
 4330SOL     OW24625   4.719   2.459   1.798 -0.6812  0.1865  0.1286
 4330SOL    HW124626   0.034   2.432   1.875 -0.5047  0.1063 -0.0140
 4330SOL    HW224627   4.635   2.415   1.811 -0.0908 -1.5334 -1.8751
 4331SOL     OW24628   2.329   2.413   9.596  0.1030  0.2544  0.2312
 4331SOL    HW124629   2.372   2.343   9.547  1.2437  1.4328 -0.4666
 4331SOL    HW224630   2.249   2.440   9.552  0.2810  1.7633  0.8123
 4332SOL     OW24631   0.189   2.520   0.630  0.4525  0.1054  0.0319
 4332SOL    HW124632   0.202   2.431   0.660  1.2430  0.3782  0.4957
 4332SOL    HW224633   0.211   2.571   0.708 -1.0152  1.1783 -0.2614
 4333SOL     OW24634   2.071   4.396   6.280 -0.3869  0.2354  0.0922
 4333SOL    HW124635   2.096   4.369   6.192 -0.2974  1.4705 -0.2523
 4333SOL    HW224636   2.006   4.331   6.307  0.5295 -1.1439 -1.0200
 4334SOL     OW24637   3.228   4.423   8.880 -0.0421 -0.6511 -0.1335
 4334SOL    HW124638   3.220   4.430   8.784  0.3812  1.4056 -0.0067
 4334SOL    HW224639   3.135   4.404   8.891  0.4804 -2.5536  0.9343
 4335SOL     OW24640   0.151   0.221   8.241  1.0719 -0.4014 -0.0745
 4335SOL    HW124641   0.215   0.170   8.192  1.0252 -1.4025  0.8826
 4335SOL    HW224642   0.159   0.310   8.208  2.9640  0.0418  1.6182
 4336SOL     OW24643   4.471   0.442  14.496 -0.2466  0.4600 -0.0531
 4336SOL    HW124644   4.539   0.378  14.475 -1.1097 -1.3525  2.7723
 4336SOL    HW224645   4.517   0.509  14.546 -1.7805  0.1984  1.7268
 4337SOL     OW24646   4.065   0.651  10.771 -0.3349 -0.0306 -0.6325
 4337SOL    HW124647   4.140   0.684  10.820 -2.7669  2.5791  1.2895
 4337SOL    HW224648   4.063   0.560  10.801  2.7926 -0.1832 -0.8946
 4338SOL     OW24649   4.013   0.689   5.054  0.0445  0.5221  0.2280
 4338SOL    HW124650   4.027   0.703   4.960  1.1653 -1.6147  0.0712
 4338SOL    HW224651   3.958   0.611   5.045  1.4075 -0.3673 -0.2504
 4339SOL     OW24652   0.891   3.328  10.765  0.4683 -0.0052 -0.4020
 4339SOL    HW124653   0.901   3.404  10.707 -0.3521  0.7559  0.4665
 4339SOL    HW224654   0.937   3.368  10.838  1.4712 -1.2981 -0.3081
 4340SOL     OW24655   4.681   0.219   7.403 -0.1861  0.4455 -0.5901
 4340SOL    HW124656   0.010   0.204   7.472  1.9732  1.4383 -2.3488
 4340SOL    HW224657   4.696   0.311   7.380  1.3433  0.3375 -0.0619
 4341SOL     OW24658   1.986   1.074   7.555  0.2994  0.4684 -0.7769
 4341SOL    HW124659   2.000   1.168   7.569 -1.2152  0.4018  1.2791
 4341SOL    HW224660   1.977   1.069   7.460  1.1037  1.2270 -0.8931
 4342SOL     OW24661   2.310   3.425   4.902  0.2126 -0.0479 -0.1930
 4342SOL    HW124662   2.348   3.466   4.980 -1.0233 -1.2743  1.0455
 4342SOL    HW224663   2.220   3.404   4.926 -0.2403 -0.9442 -2.6006
 4343SOL     OW24664   1.877   4.264   8.271  0.0806 -0.1809 -0.4665
 4343SOL    HW124665   1.826   4.328   8.221 -2.6646 -2.3460 -0.4783
 4343SOL    HW224666   1.829   4.258   8.354  2.4812 -0.9223  0.8630
 4344SOL     OW24667   3.185   0.134   5.601  0.3771 -0.0157 -0.4073
 4344SOL    HW124668   3.222   0.059   5.555 -0.3913 -0.2663 -0.6306
 4344SOL    HW224669   3.160   0.099   5.687 -1.5822 -1.0649 -1.3959
 4345SOL     OW24670   2.946   2.487   6.199  0.1508 -0.4321  0.1757
 4345SOL    HW124671   3.018   2.444   6.245  0.0155  0.7504  1.4905
 4345SOL    HW224672   2.990   2.511   6.117 -0.6180 -2.2403 -0.7806
 4346SOL     OW24673   2.148   2.595  13.852  0.2338  0.3936 -1.3387
 4346SOL    HW124674   2.131   2.501  13.862 -1.9790  0.7151 -2.1425
 4346SOL    HW224675   2.094   2.620  13.777  0.5565  1.0656 -1.3449
 4347SOL     OW24676   0.393   1.801   3.797 -0.4851  0.1151 -0.0566
 4347SOL    HW124677   0.407   1.729   3.859  1.5849 -1.2237 -2.0799
 4347SOL    HW224678   0.397   1.868   3.865 -0.0879 -0.3330  0.3603
 4348SOL     OW24679   0.063   4.045   5.160 -0.2749 -0.1299  0.2191
 4348SOL    HW124680   0.111   4.080   5.235 -0.2507 -1.5537  0.8650
 4348SOL    HW224681   0.130   4.036   5.092 -1.2270 -0.9463 -0.6228
 4349SOL     OW24682   3.992   1.932  10.112  0.0426 -0.0249 -0.2165
 4349SOL    HW124683   4.021   1.924  10.022  0.0488  0.3591 -0.2513
 4349SOL    HW224684   3.979   2.026  10.124  2.5852  0.3352 -0.3900
 4350SOL     OW24685   2.536   4.371   8.403 -0.3546 -1.2827 -0.1093
 4350SOL    HW124686   2.616   4.358   8.455 -1.8272  0.4946  2.6119
 4350SOL    HW224687   2.577   4.360   8.317 -0.8413 -3.1427 -0.1004
 4351SOL     OW24688   3.903   4.166   5.658  0.1880 -0.9732 -0.1820
 4351SOL    HW124689   3.854   4.246   5.638  0.2531 -0.3198  2.3030
 4351SOL    HW224690   3.828   4.115   5.690  0.4494  0.1760  2.2393
 4352SOL     OW24691   3.780   3.902   2.883 -0.1781  0.0538 -0.1674
 4352SOL    HW124692   3.811   3.898   2.973 -0.4483 -0.5881 -0.1042
 4352SOL    HW224693   3.766   3.808   2.871  0.3845 -0.1413  0.7053
 4353SOL     OW24694   1.615   3.455  13.810 -0.2126  0.0742  0.2583
 4353SOL    HW124695   1.599   3.468  13.717 -0.2827  1.9742  0.5393
 4353SOL    HW224696   1.639   3.363  13.803 -0.0326 -0.0163  2.1401
 4354SOL     OW24697   4.345   4.395   9.373 -0.0933 -0.4536 -0.2733
 4354SOL    HW124698   4.302   4.365   9.453  1.2459 -0.1082  0.5735
 4354SOL    HW224699   4.358   4.314   9.324  1.1332  0.4920 -1.5055
 4355SOL     OW24700   1.534   0.678   5.904  0.0014 -0.3586 -0.3428
 4355SOL    HW124701   1.598   0.694   5.974 -0.7975 -0.5503  0.4372
 4355SOL    HW224702   1.537   0.582   5.909  0.3307 -0.4729 -2.9648
 4356SOL     OW24703   4.286   4.548   8.084 -0.2955  0.2830  0.2923
 4356SOL    HW124704   4.302   4.502   8.167 -0.1300  0.3384  0.2921
 4356SOL    HW224705   4.333   4.629   8.104 -2.0100  0.7602  2.3652
 4357SOL     OW24706   2.898   2.866   2.966  0.0787  0.0142 -0.3030
 4357SOL    HW124707   2.855   2.920   2.900 -1.1852  0.4015  0.8235
 4357SOL    HW224708   2.949   2.928   3.018 -2.6055 -1.5117  4.1292
 4358SOL     OW24709   2.614   0.825   7.702 -0.8836  0.0593 -0.5524
 4358SOL    HW124710   2.583   0.872   7.780  3.6246  0.0633  1.2025
 4358SOL    HW224711   2.705   0.809   7.726 -1.0060 -1.0000 -0.7901
 4359SOL     OW24712   4.367   3.005   2.683  0.3130 -0.0821  0.0144
 4359SOL    HW124713   4.291   3.055   2.652  0.6564 -0.8044 -2.0109
 4359SOL    HW224714   4.394   2.961   2.602  0.0161 -0.4579  0.1201
 4360SOL     OW24715   1.429   4.273  12.471  0.6195 -0.1107  0.4467
 4360SOL    HW124716   1.344   4.298  12.506  0.6883  2.3036 -1.1579
 4360SOL    HW224717   1.469   4.360  12.479 -0.7625  0.7696 -2.3294
 4361SOL     OW24718   4.582   0.812  10.940 -0.4049 -0.0497 -0.2189
 4361SOL    HW124719   4.597   0.906  10.948  2.6183 -0.6012  0.4827
 4361SOL    HW224720   4.560   0.809  10.846 -1.6279 -2.3730  0.1296
 4362SOL     OW24721   3.546   1.285   6.656 -0.3257  0.0148 -0.2177
 4362SOL    HW124722   3.507   1.218   6.711 -1.4119 -1.3111 -2.6087
 4362SOL    HW224723   3.638   1.268   6.676  0.3004 -0.0588 -3.1006
 4363SOL     OW24724   3.299   4.463   3.976  0.0974 -0.0018 -0.1068
 4363SOL    HW124725   3.276   4.476   3.884  0.4907 -1.6016 -0.4333
 4363SOL    HW224726   3.384   4.506   3.978  1.1626 -2.1354 -0.0612
 4364SOL     OW24727   3.891   1.823   8.571 -0.2449 -0.1545  0.0381
 4364SOL    HW124728   3.805   1.785   8.588 -1.1721  1.4881 -0.9550
 4364SOL    HW224729   3.939   1.764   8.629  0.1814 -1.9653 -2.1688
 4365SOL     OW24730   4.650   1.262   9.687  0.6518 -0.4596  0.5546
 4365SOL    HW124731   4.733   1.274   9.639  1.8517  0.7890  2.9230
 4365SOL    HW224732   4.632   1.353   9.710  2.7179  0.8572 -2.8869
 4366SOL     OW24733   2.769   0.967  15.800  0.0353 -0.0464  0.3248
 4366SOL    HW124734   2.740   0.876  15.799 -1.4501  0.4286  0.3764
 4366SOL    HW224735   2.800   0.984  15.889 -1.3674  0.4073  0.7247
 4367SOL     OW24736   1.580   0.147  10.801  0.1320  0.1893  0.3695
 4367SOL    HW124737   1.626   0.224  10.837 -1.8199  1.0982  0.8963
 4367SOL    HW224738   1.534   0.117  10.878  1.0135 -1.7935  0.1095
 4368SOL     OW24739   0.062   1.183   3.060 -0.6506  0.2461  0.0789
 4368SOL    HW124740   0.125   1.206   3.128 -0.2627 -1.1002  0.1738
 4368SOL    HW224741   0.045   1.273   3.033  1.8356  1.0893  1.3104
 4369SOL     OW24742   0.695   0.192   6.148  0.3687  0.0293 -0.5359
 4369SOL    HW124743   0.683   0.103   6.116  2.3244 -0.5110  0.2124
 4369SOL    HW224744   0.698   0.176   6.243 -1.0014  0.7943 -0.3630
 4370SOL     OW24745   4.285   2.010   4.202 -0.5545  0.1656 -0.9826
 4370SOL    HW124746   4.330   1.999   4.285 -1.8890 -2.0708 -0.5581
 4370SOL    HW224747   4.209   2.054   4.240  0.3759 -0.1481  1.2487
 4371SOL     OW24748   4.279   2.537   8.098 -0.3137 -0.3541  0.1933
 4371SOL    HW124749   4.292   2.450   8.134 -1.6751 -0.3345  0.7303
 4371SOL    HW224750   4.245   2.579   8.177 -1.8968 -0.7110 -0.3117
 4372SOL     OW24751   2.676   4.001   8.556 -0.0396  0.1518  0.0714
 4372SOL    HW124752   2.694   3.940   8.484 -0.8112  0.4326 -0.3598
 4372SOL    HW224753   2.582   4.013   8.542  0.0504 -1.4315 -2.0637
 4373SOL     OW24754   2.288   1.743   0.326  0.0878  0.7050  0.4110
 4373SOL    HW124755   2.282   1.771   0.235  1.0119  1.8686  0.7173
 4373SOL    HW224756   2.353   1.807   0.355 -0.3765  0.5725  1.7418
 4374SOL     OW24757   3.336   0.921   7.856 -0.1742  0.2991 -0.2063
 4374SOL    HW124758   3.314   0.929   7.763  0.8539  2.1543 -0.2878
 4374SOL    HW224759   3.386   1.000   7.875  1.1990 -0.7480  0.5775
 4375SOL     OW24760   2.584   2.439  15.240  1.2623  0.1654  0.8739
 4375SOL    HW124761   2.662   2.384  15.232  0.7235 -0.5799  0.7099
 4375SOL    HW224762   2.523   2.368  15.220 -0.9139  0.9796  4.4523
 4376SOL     OW24763   1.385   1.239   2.213  0.5792 -0.1537 -0.0614
 4376SOL    HW124764   1.295   1.224   2.243  1.0043  0.0385  1.3063
 4376SOL    HW224765   1.429   1.231   2.297 -0.2137  0.9288  0.4571
 4377SOL     OW24766   4.680   1.446   5.801  0.1287  0.3510  0.0741
 4377SOL    HW124767   4.712   1.358   5.781  2.6438  0.8659  1.8275
 4377SOL    HW224768   4.638   1.472   5.718  1.1654 -0.2333 -0.6313
 4378SOL     OW24769   0.986   4.386   0.997  0.0873  0.4468 -0.3311
 4378SOL    HW124770   0.979   4.294   1.023  0.9803  0.4528 -0.0539
 4378SOL    HW224771   0.907   4.398   0.945 -1.1887 -1.8713  1.0996
 4379SOL     OW24772   2.950   3.051   6.514 -0.2647  0.4861 -0.4178
 4379SOL    HW124773   2.951   3.057   6.418  1.2508 -0.1716 -0.4496
 4379SOL    HW224774   2.947   3.145   6.529  1.6155  0.5842 -0.6621
 4380SOL     OW24775   3.437   1.688   8.377 -0.5939  0.1260  0.4491
 4380SOL    HW124776   3.480   1.668   8.294 -0.4189 -1.1022  0.8374
 4380SOL    HW224777   3.348   1.668   8.346  1.2592 -2.2635 -3.4099
 4381SOL     OW24778   3.917   3.649   8.902 -0.1307 -0.4454 -0.1512
 4381SOL    HW124779   3.897   3.556   8.893 -0.3231 -0.4264  0.0663
 4381SOL    HW224780   3.987   3.654   8.967  2.7373  0.2757 -3.3223
 4382SOL     OW24781   2.666   0.023   6.917 -0.0185 -0.5909  0.4784
 4382SOL    HW124782   2.668   0.111   6.955 -0.6219 -1.0719  1.6527
 4382SOL    HW224783   2.754   4.731   6.892  0.2243  1.7356 -1.1385
 4383SOL     OW24784   1.534   1.937   6.669  0.1745  0.4126 -0.0161
 4383SOL    HW124785   1.609   1.997   6.667  0.8691 -0.4209  0.7480
 4383SOL    HW224786   1.575   1.853   6.648 -3.6097 -1.8315  1.5729
 4384SOL     OW24787   3.073   3.990   2.401 -0.2666  0.4256  0.0166
 4384SOL    HW124788   3.072   4.086   2.399 -0.8099  0.3878 -1.9878
 4384SOL    HW224789   3.120   3.964   2.480 -0.5692 -0.7377 -0.1804
 4385SOL     OW24790   0.302   2.369   8.406 -0.0016 -0.6128  0.0044
 4385SOL    HW124791   0.354   2.313   8.464 -1.7597  0.0307  2.2183
 4385SOL    HW224792   0.220   2.324   8.389 -0.4034  0.1229 -0.0048
 4386SOL     OW24793   0.038   1.648   7.267 -0.7303 -0.4252 -0.5108
 4386SOL    HW124794   0.014   1.709   7.197  2.9829  0.6846 -0.8012
 4386SOL    HW224795   0.128   1.631   7.240 -0.3324 -1.5566  1.5048
 4387SOL     OW24796   2.526   4.380   9.481 -0.3362  0.4657 -0.1571
 4387SOL    HW124797   2.504   4.287   9.490 -2.2557  0.7378 -2.1196
 4387SOL    HW224798   2.444   4.428   9.471  0.3145  1.6827  0.3495
 4388SOL     OW24799   2.770   4.485   5.809  0.1266  0.0670 -0.3040
 4388SOL    HW124800   2.744   4.408   5.860  1.2649 -0.2023 -0.1354
 4388SOL    HW224801   2.685   4.522   5.785  1.0082  0.6438 -2.5481
 4389SOL     OW24802   1.706   3.249   5.952  0.4854 -0.2542  0.4893
 4389SOL    HW124803   1.710   3.200   6.034 -3.4891 -0.3420  0.6038
 4389SOL    HW224804   1.800   3.267   5.940  0.7103 -1.7399 -0.0279
 4390SOL     OW24805   1.672   3.693   1.214 -0.1587  0.4290  0.0477
 4390SOL    HW124806   1.606   3.733   1.156 -2.0243 -2.5543  0.0424
 4390SOL    HW224807   1.741   3.696   1.148  1.1920 -0.0303  1.4469
 4391SOL     OW24808   3.000   0.116  15.304  0.2643 -0.2593 -0.0620
 4391SOL    HW124809   3.043   0.114  15.389  0.0428  1.2455  0.0764
 4391SOL    HW224810   2.911   0.110  15.336  0.2120 -0.8073 -0.3077
 4392SOL     OW24811   0.896   1.953   4.291 -0.0156  0.1272 -0.1289
 4392SOL    HW124812   0.814   1.909   4.315  0.0750  0.1763  0.2633
 4392SOL    HW224813   0.900   1.912   4.204 -0.0275 -0.3418  0.0913
 4393SOL     OW24814   1.783   0.976   4.202 -0.3640  0.5546 -0.4234
 4393SOL    HW124815   1.735   1.023   4.133  0.9486 -1.8965 -2.9716
 4393SOL    HW224816   1.716   0.959   4.269 -0.7009 -1.3106 -1.2256
 4394SOL     OW24817   3.342   2.583   7.088 -0.2009  0.6326 -0.0730
 4394SOL    HW124818   3.397   2.519   7.134  1.7220  1.2931 -1.4663
 4394SOL    HW224819   3.409   2.635   7.043  0.5762 -1.5550 -1.4242
 4395SOL     OW24820   2.020   4.495  17.258 -1.3352  0.5533  0.3457
 4395SOL    HW124821   1.951   4.441  17.297 -1.0657  1.5013  2.1477
 4395SOL    HW224822   2.019   4.468  17.166  1.4426  0.1810  0.4268
 4396SOL     OW24823   1.997   0.777  10.499  0.3505 -0.0166  0.3177
 4396SOL    HW124824   2.066   0.815  10.444 -1.1288  3.7494  1.0798
 4396SOL    HW224825   1.924   0.821  10.456 -0.8652 -0.8963  1.4983
 4397SOL     OW24826   0.527   2.449  16.528  0.0138 -0.5492 -0.5635
 4397SOL    HW124827   0.500   2.439  16.619 -0.0968  2.3750 -0.2652
 4397SOL    HW224828   0.463   2.515  16.499  0.0551 -0.9172 -1.5082
 4398SOL     OW24829   4.196   1.909   7.081  0.4428  0.0010 -0.0806
 4398SOL    HW124830   4.107   1.924   7.114  0.4176  1.0684 -0.6374
 4398SOL    HW224831   4.181   1.891   6.989  1.7659 -2.0551  0.1229
 4399SOL     OW24832   1.502   1.164   5.603  0.3344  0.0113 -0.2805
 4399SOL    HW124833   1.586   1.169   5.648  0.8722 -0.4615 -1.2248
 4399SOL    HW224834   1.497   1.070   5.591 -1.3070 -0.1112  1.4392
 4400SOL     OW24835   2.958   2.627   3.507  0.3627  0.3256  0.4049
 4400SOL    HW124836   3.020   2.654   3.439 -0.4739  1.0756 -0.0673
 4400SOL    HW224837   2.941   2.701   3.566  0.5054  2.3611 -2.0936
 4401SOL     OW24838   0.646   2.670   2.582  0.1213 -0.0997 -0.0998
 4401SOL    HW124839   0.567   2.615   2.587  0.3861 -0.4822 -0.0971
 4401SOL    HW224840   0.603   2.754   2.598  0.3571  0.1261 -0.6513
 4402SOL     OW24841   0.890   3.802   9.038 -0.4111 -0.0961 -0.4113
 4402SOL    HW124842   0.946   3.729   9.065 -3.3989 -2.1548  0.3031
 4402SOL    HW224843   0.943   3.837   8.967 -2.3289 -1.2798 -2.4336
 4403SOL     OW24844   0.035   0.751  16.086 -0.4624 -0.1758  0.5530
 4403SOL    HW124845   0.057   0.775  16.176  0.1077  0.0561  0.3547
 4403SOL    HW224846   4.690   0.699  16.085 -0.4397 -0.2025  0.2499
 4404SOL     OW24847   3.604   4.711   6.640  0.3594  0.4692 -0.0423
 4404SOL    HW124848   3.609   4.626   6.597 -2.5175  0.1833  0.1697
 4404SOL    HW224849   3.595   0.030   6.562 -2.0223 -1.0981 -0.8404
 4405SOL     OW24850   3.684   2.594   0.606  0.3150  0.2910 -0.9531
 4405SOL    HW124851   3.723   2.674   0.571 -1.3052  1.4474 -0.1164
 4405SOL    HW224852   3.674   2.547   0.523 -0.8887 -2.3894  0.7064
 4406SOL     OW24853   2.034   2.864   4.504 -0.3298 -0.0028 -0.9284
 4406SOL    HW124854   2.056   2.845   4.413 -2.5931 -0.9901 -1.2877
 4406SOL    HW224855   1.960   2.803   4.517  0.1640 -1.0071 -2.7910
 4407SOL     OW24856   2.051   3.363   7.304 -0.1275  0.3134  0.1546
 4407SOL    HW124857   2.102   3.444   7.295  3.2696 -2.0346 -2.0389
 4407SOL    HW224858   2.084   3.314   7.379 -1.9235 -0.7178  0.2505
 4408SOL     OW24859   0.141   3.672  12.104 -0.0269 -0.3581 -0.5367
 4408SOL    HW124860   0.141   3.696  12.011  1.8648  0.6871 -0.2485
 4408SOL    HW224861   0.182   3.748  12.146  1.0649 -1.2720  0.0400
 4409SOL     OW24862   2.398   2.730   6.635  0.0274  0.0160  0.1920
 4409SOL    HW124863   2.374   2.716   6.726 -0.7940  0.2289  0.0122
 4409SOL    HW224864   2.311   2.706   6.601 -0.8390  1.7888  1.1540
 4410SOL     OW24865   2.173   3.210   0.094  0.1917  0.3499  0.5461
 4410SOL    HW124866   2.109   3.162   0.041  0.8614 -0.1985  0.2417
 4410SOL    HW224867   2.219   3.149   0.151  1.5089 -1.2558 -2.2435
 4411SOL     OW24868   2.752   1.459   7.346 -0.1098  0.2075 -0.1681
 4411SOL    HW124869   2.825   1.400   7.324 -1.3781 -1.8613  1.1626
 4411SOL    HW224870   2.703   1.399   7.403  0.8632 -0.5436 -0.1184
 4412SOL     OW24871   2.507   3.677  15.506  0.1824  0.5120  0.0863
 4412SOL    HW124872   2.426   3.715  15.540  0.7470  0.7952  1.1046
 4412SOL    HW224873   2.475   3.606  15.451 -0.1465  0.8048 -0.1055
 4413SOL     OW24874   2.715   0.292   4.065  0.1287 -0.7064 -0.6008
 4413SOL    HW124875   2.648   0.357   4.088 -2.5021 -3.1778 -1.3701
 4413SOL    HW224876   2.699   0.218   4.124 -0.3682  0.0078  0.1707
 4414SOL     OW24877   1.404   0.589   3.493  0.5998  0.1779 -0.2086
 4414SOL    HW124878   1.456   0.540   3.429  0.3572 -0.7331  0.2900
 4414SOL    HW224879   1.316   0.578   3.457  0.0960 -1.2072  1.4886
 4415SOL     OW24880   3.321   3.554  10.015 -0.3201  0.6297  0.4864
 4415SOL    HW124881   3.295   3.625  10.074 -0.7532  0.0251  1.0181
 4415SOL    HW224882   3.259   3.485  10.035 -1.0057  1.2129  0.3570
 4416SOL     OW24883   1.568   1.711   1.733  0.2798 -0.1496 -0.3350
 4416SOL    HW124884   1.508   1.685   1.663  1.0045 -2.0740 -0.2474
 4416SOL    HW224885   1.620   1.777   1.688 -0.3933  1.0512  0.6178
 4417SOL     OW24886   3.834   0.165   5.909  0.4461  0.2580 -0.1703
 4417SOL    HW124887   3.762   0.135   5.853  0.4098 -0.8009  0.4379
 4417SOL    HW224888   3.885   0.089   5.883  0.6419  0.4435 -0.3262
 4418SOL     OW24889   2.002   2.577  16.914 -0.5358  0.6665 -0.5308
 4418SOL    HW124890   1.936   2.599  16.848 -0.0227  0.2907 -1.1668
 4418SOL    HW224891   1.954   2.509  16.962  1.1387  0.7226  1.2127
 4419SOL     OW24892   3.916   3.006   5.283 -0.7420 -0.2277  0.0689
 4419SOL    HW124893   3.910   3.025   5.376  1.3693 -3.6133  0.9182
 4419SOL    HW224894   3.925   3.093   5.244 -0.1266 -0.9654 -1.4369
 4420SOL     OW24895   2.123   4.706   8.510 -0.3704  0.6958 -0.6198
 4420SOL    HW124896   2.069   4.635   8.478  0.0110 -0.6369  1.6768
 4420SOL    HW224897   2.071   0.045   8.478 -1.2960 -0.1129 -0.9827
 4421SOL     OW24898   0.878   4.702  13.372 -0.0394  0.6025  0.6367
 4421SOL    HW124899   0.938   4.712  13.446 -0.7803 -0.3148  1.3784
 4421SOL    HW224900   0.931   4.705  13.292  0.3493 -2.0544  0.7906
 4422SOL     OW24901   3.484   1.372   9.636 -0.2740  0.2002  0.6886
 4422SOL    HW124902   3.396   1.383   9.600  0.4293  1.5321 -0.5964
 4422SOL    HW224903   3.520   1.310   9.572 -0.8295  1.4058 -0.7913
 4423SOL     OW24904   1.345   0.273   5.731  0.2272 -0.2708 -0.1624
 4423SOL    HW124905   1.333   0.339   5.800 -0.2169 -1.1788  0.6312
 4423SOL    HW224906   1.322   0.326   5.654  0.9914  2.1410  1.2521
 4424SOL     OW24907   3.188   2.910   5.866 -0.1368 -0.1462  0.7745
 4424SOL    HW124908   3.111   2.901   5.809  0.4171 -0.2457  0.0444
 4424SOL    HW224909   3.249   2.939   5.798  1.7843  0.1578  2.6620
 4425SOL     OW24910   2.983   4.141   1.808  0.0131 -0.0070  0.5783
 4425SOL    HW124911   3.048   4.075   1.833  1.8666  1.3414 -0.6542
 4425SOL    HW224912   2.916   4.102   1.864  0.3541 -0.2288  0.8349
 4426SOL     OW24913   2.550   0.043   2.397 -0.0627  0.8131 -0.5971
 4426SOL    HW124914   2.543   0.122   2.344 -0.7476  0.7957 -0.5324
 4426SOL    HW224915   2.483   4.725   2.353 -0.4599 -0.5717  1.6565
 4427SOL     OW24916   0.688   2.947  15.241 -0.3989  0.1082  0.2074
 4427SOL    HW124917   0.603   2.912  15.267 -1.0166  1.3600 -0.1559
 4427SOL    HW224918   0.670   3.032  15.202 -1.4826  0.4094  1.3878
 4428SOL     OW24919   0.009   3.962   8.386  0.3527  0.9918 -0.7444
 4428SOL    HW124920   4.702   3.903   8.323  0.9927 -0.1739 -0.0800
 4428SOL    HW224921   0.090   3.911   8.396 -2.0488 -2.9685 -1.7754
 4429SOL     OW24922   1.310   2.201   6.098 -0.0874  0.5880  0.0662
 4429SOL    HW124923   1.301   2.294   6.077 -1.6909  0.3923 -0.1059
 4429SOL    HW224924   1.220   2.173   6.085 -0.9601  2.1198  2.7772
 4430SOL     OW24925   2.196   1.989  10.088 -0.1384  0.2118  0.3862
 4430SOL    HW124926   2.215   2.052  10.158 -1.7621 -0.0829  1.0975
 4430SOL    HW224927   2.142   2.043  10.030 -3.2365 -2.0010  1.2075
 4431SOL     OW24928   3.657   0.732   0.538  0.1952  0.0987 -0.5615
 4431SOL    HW124929   3.611   0.679   0.603  1.2988 -0.2593 -0.0706
 4431SOL    HW224930   3.746   0.699   0.547  0.1526  0.4045  1.1044
 4432SOL     OW24931   0.571   2.393   5.271  0.4209  0.0545  0.2514
 4432SOL    HW124932   0.533   2.375   5.185 -0.0534 -0.1860  0.5093
 4432SOL    HW224933   0.612   2.478   5.254 -2.0966  1.5696  1.7748
 4433SOL     OW24934   0.071   4.537   7.451 -0.0040 -0.4209  0.2510
 4433SOL    HW124935   0.024   4.571   7.374 -1.3792 -1.0657  0.8097
 4433SOL    HW224936   0.135   4.475   7.416  1.6325  1.5432 -0.2713
 4434SOL     OW24937   3.212   4.160   8.565  0.2113  0.1007  0.1843
 4434SOL    HW124938   3.210   4.092   8.633  0.0416 -0.3902 -0.3143
 4434SOL    HW224939   3.274   4.113   8.510 -0.0724  0.8828 -0.8114
 4435SOL     OW24940   3.115   0.159   7.695  0.4914 -0.4468 -0.4271
 4435SOL    HW124941   3.153   0.214   7.764 -0.8080 -1.6360  1.2391
 4435SOL    HW224942   3.165   0.198   7.624 -0.0490  0.6194 -0.2305
 4436SOL     OW24943   4.082   0.098   6.278 -0.0786 -0.0789  0.0889
 4436SOL    HW124944   4.058   0.011   6.308  0.0347  0.5681  2.0925
 4436SOL    HW224945   4.123   0.131   6.358 -2.0247 -0.9720  1.4626
 4437SOL     OW24946   2.489   0.780   5.148 -0.4648 -0.9746 -0.3752
 4437SOL    HW124947   2.560   0.716   5.152 -0.2330 -0.7126 -0.3265
 4437SOL    HW224948   2.495   0.826   5.065  0.2126  0.8952  0.7114
 4438SOL     OW24949   0.072   1.283   0.170  0.1778  0.6324  0.0360
 4438SOL    HW124950   0.037   1.238   0.247 -0.0738  1.3813  0.3597
 4438SOL    HW224951   0.158   1.242   0.167  0.6653  1.5910  1.0330
 4439SOL     OW24952   1.802   3.586  17.273 -0.7551  0.2135 -0.3477
 4439SOL    HW124953   1.763   3.563  17.357 -1.1245 -0.1531 -0.6216
 4439SOL    HW224954   1.871   3.649  17.294 -0.3391  0.3742 -2.2499
 4440SOL     OW24955   2.386   3.119   8.523  0.0540  0.5469 -0.1992
 4440SOL    HW124956   2.439   3.185   8.479  0.0743 -0.8040 -2.1751
 4440SOL    HW224957   2.378   3.046   8.462 -2.2535  1.7351 -1.3490
 4441SOL     OW24958   1.007   0.019   6.778  0.2024 -0.2583 -0.1955
 4441SOL    HW124959   1.051   4.698   6.842 -0.5694  1.0538  1.4657
 4441SOL    HW224960   0.966   4.686   6.724  0.9087 -0.2821 -0.6936
 4442SOL     OW24961   4.224   3.404   3.023  0.2148 -0.3169  0.1624
 4442SOL    HW124962   4.236   3.416   2.928 -0.6509 -0.2955  0.0593
 4442SOL    HW224963   4.230   3.309   3.025 -1.2025 -0.4465 -2.0881
 4443SOL     OW24964   1.749   4.247  12.128  0.3487  0.6871 -0.8925
 4443SOL    HW124965   1.733   4.333  12.166 -0.7672  0.6899 -1.3885
 4443SOL    HW224966   1.662   4.211  12.114 -0.4050  1.9575  0.5833
 4444SOL     OW24967   0.495   3.381   2.418  0.2020  0.2496 -0.3143
 4444SOL    HW124968   0.487   3.361   2.325 -1.7218  0.1781 -0.1409
 4444SOL    HW224969   0.582   3.348   2.440 -0.1571 -0.8598 -0.5239
 4445SOL     OW24970   1.200   2.879   2.368 -0.4130 -0.1337 -0.2614
 4445SOL    HW124971   1.264   2.816   2.402  1.3087  1.0190 -1.3829
 4445SOL    HW224972   1.151   2.895   2.449  0.2486  0.4817  0.0136
 4446SOL     OW24973   2.622   4.098   3.040  0.0027  0.4035 -0.6032
 4446SOL    HW124974   2.564   4.169   3.066 -2.1478 -2.3357  2.0463
 4446SOL    HW224975   2.627   4.135   2.952 -2.6918  1.8285 -0.1361
 4447SOL     OW24976   1.678   2.661   3.345 -0.0631  0.3926 -0.1960
 4447SOL    HW124977   1.710   2.609   3.272 -0.3499 -0.1867  0.0885
 4447SOL    HW224978   1.723   2.642   3.428 -1.3302 -0.1719  0.3569
 4448SOL     OW24979   2.808   3.399   8.222 -0.4478  0.1976 -0.0913
 4448SOL    HW124980   2.844   3.456   8.291 -0.4716 -0.6643  0.6388
 4448SOL    HW224981   2.823   3.313   8.262 -1.6566  1.0488  2.1807
 4449SOL     OW24982   2.131   4.030   5.096 -0.1184  0.2667  0.1537
 4449SOL    HW124983   2.037   4.029   5.079  0.4772  3.2236 -3.2919
 4449SOL    HW224984   2.150   3.939   5.121  0.7669  0.5393  0.4850
 4450SOL     OW24985   0.957   0.219   5.604  0.2824  0.2331 -0.5577
 4450SOL    HW124986   0.998   0.298   5.569 -0.0201  0.5225 -0.2623
 4450SOL    HW224987   0.876   0.218   5.553 -0.5913  0.5993  0.8261
 4451SOL     OW24988   1.349   2.511   6.589 -0.7971 -0.5449  0.3413
 4451SOL    HW124989   1.290   2.541   6.658 -2.4236  0.2103 -1.3690
 4451SOL    HW224990   1.290   2.468   6.527 -2.2172  2.0916 -0.1665
 4452SOL     OW24991   2.064   4.718   6.112 -0.5486  0.0632 -0.2082
 4452SOL    HW124992   2.143   4.700   6.164 -2.1499 -1.7316  1.6208
 4452SOL    HW224993   2.023   4.634   6.089  0.6769  0.2656 -3.1895
 4453SOL     OW24994   1.961   0.300   3.641  0.1904 -0.3501 -0.1381
 4453SOL    HW124995   2.050   0.331   3.622 -0.3291  0.2436 -1.6171
 4453SOL    HW224996   1.953   0.235   3.571  1.6415 -0.2578 -0.3931
 4454SOL     OW24997   2.348   2.312   7.774 -0.5299  0.2140  0.1205
 4454SOL    HW124998   2.384   2.229   7.742 -0.0177  0.1220  0.9252
 4454SOL    HW224999   2.374   2.319   7.866  2.2849  1.4471 -0.7570
 4455SOL     OW25000   2.957   0.961  13.727 -0.2771  0.0659  0.1211
 4455SOL    HW125001   3.036   0.966  13.779 -0.1493  2.3499 -0.3029
 4455SOL    HW225002   2.980   1.008  13.647 -0.4063  0.3598  0.2573
 4456SOL     OW25003   0.298   3.988  16.351  0.2338 -0.3596 -0.1005
 4456SOL    HW125004   0.358   3.937  16.406  0.4778  0.4007  0.3326
 4456SOL    HW225005   0.305   3.938  16.270 -1.7140  2.1212 -1.7875
 4457SOL     OW25006   3.076   4.216  15.261 -0.1885  0.5007 -0.0041
 4457SOL    HW125007   2.995   4.261  15.235 -1.0409 -0.1280  1.5869
 4457SOL    HW225008   3.046   4.127  15.241  1.4096  0.2274 -1.1934
 4458SOL     OW25009   1.040   4.620   0.576 -0.2526 -0.5151 -0.0636
 4458SOL    HW125010   1.116   4.603   0.633 -0.6556 -0.6335  0.4390
 4458SOL    HW225011   1.043   4.553   0.508 -2.1897 -0.6887  0.0320
 4459SOL     OW25012   4.407   0.526   7.543 -0.0426 -0.3443 -0.0315
 4459SOL    HW125013   4.487   0.477   7.523 -0.9018 -3.2257  3.6685
 4459SOL    HW225014   4.435   0.616   7.524 -1.3619  0.1857  0.5465
 4460SOL     OW25015   3.722   2.983   7.149  0.5129  0.5149  0.2807
 4460SOL    HW125016   3.661   3.015   7.083  2.3569  0.5500 -1.4194
 4460SOL    HW225017   3.714   3.049   7.217 -0.6677  1.7122 -1.0460
 4461SOL     OW25018   2.501   0.737   3.004  0.6950  0.7222  0.6369
 4461SOL    HW125019   2.422   0.689   2.976  1.3126 -1.0310  1.8878
 4461SOL    HW225020   2.562   0.670   2.974  0.1246  0.7532 -0.6165
 4462SOL     OW25021   2.855   1.737   9.812 -0.1526  0.3125 -0.1023
 4462SOL    HW125022   2.866   1.830   9.791 -0.2636 -0.2101 -2.4730
 4462SOL    HW225023   2.818   1.750   9.899  1.3619 -2.3279  0.9056
 4463SOL     OW25024   4.573   4.562  14.951 -0.1985 -0.1447  0.4037
 4463SOL    HW125025   4.569   4.495  15.019  0.9924  0.3040  0.9156
 4463SOL    HW225026   4.660   4.548  14.913 -0.9424 -0.1931 -1.2983
 4464SOL     OW25027   1.854   0.329   5.379  0.0902 -0.4400  0.4511
 4464SOL    HW125028   1.794   0.265   5.416  0.5100 -0.4325  1.1483
 4464SOL    HW225029   1.791   0.374   5.323  2.0318 -0.5915 -1.8351
 4465SOL     OW25030   1.670   3.117   6.872  0.5163 -0.8147 -0.3428
 4465SOL    HW125031   1.643   3.052   6.807  1.5723  0.0823 -1.6635
 4465SOL    HW225032   1.605   3.183   6.845  0.1327 -0.7575  0.7296
 4466SOL     OW25033   4.175   2.106   7.599 -0.3936  0.3571  0.1794
 4466SOL    HW125034   4.156   2.134   7.510 -0.9347  1.1257  0.5345
 4466SOL    HW225035   4.256   2.057   7.588 -0.9304  0.1366 -2.8105
 4467SOL     OW25036   0.527   0.506   7.175  0.3277 -0.2477 -0.2792
 4467SOL    HW125037   0.617   0.526   7.201  0.2466 -1.0876  0.6481
 4467SOL    HW225038   0.511   0.426   7.225 -1.2915  1.1818  1.5021
 4468SOL     OW25039   2.193   2.933  12.372 -0.3096 -0.0620 -0.4858
 4468SOL    HW125040   2.230   3.019  12.394 -1.5718  0.7906 -1.7260
 4468SOL    HW225041   2.270   2.880  12.392 -1.4515 -1.8603 -0.9258
 4469SOL     OW25042   4.411   1.399  10.739  0.1088 -0.9504 -0.3071
 4469SOL    HW125043   4.359   1.353  10.805  0.6162 -2.3739 -0.8942
 4469SOL    HW225044   4.343   1.412  10.673 -2.3448 -1.1442  2.1584
 4470SOL     OW25045   3.628   2.648   8.166  0.0879 -0.1823 -0.2886
 4470SOL    HW125046   3.719   2.677   8.162  0.1982 -0.6938 -1.7357
 4470SOL    HW225047   3.638   2.554   8.153  2.5584  0.1441 -0.7620
 4471SOL     OW25048   3.029   4.702  14.929  0.0847 -0.1660 -0.5164
 4471SOL    HW125049   3.101   4.651  14.965  0.1898  1.3816  1.4131
 4471SOL    HW225050   2.964   4.703  14.998 -0.2074 -0.2392 -0.7896
 4472SOL     OW25051   2.285   0.379  15.244  0.5335  0.0788  0.4932
 4472SOL    HW125052   2.262   0.296  15.204  0.1212  1.5941 -2.3678
 4472SOL    HW225053   2.273   0.353  15.336  1.3977 -0.6157  0.4078
 4473SOL     OW25054   1.847   0.475   9.662  0.3960 -0.0952 -0.2332
 4473SOL    HW125055   1.926   0.473   9.608  1.3553 -1.9473  1.2780
 4473SOL    HW225056   1.878   0.493   9.750  3.2905 -0.0232 -1.2714
 4474SOL     OW25057   3.366   2.881  13.279  0.3654 -0.6042 -0.2391
 4474SOL    HW125058   3.353   2.961  13.331  2.5909 -0.1577 -0.3843
 4474SOL    HW225059   3.273   2.871  13.258  0.3024 -0.3093 -0.1039
 4475SOL     OW25060   0.651   4.590   5.074  0.0678  0.0101 -0.1075
 4475SOL    HW125061   0.667   4.496   5.067 -0.6723 -0.0175 -1.4803
 4475SOL    HW225062   0.614   4.591   5.163 -0.9983 -0.4794 -0.5497
 4476SOL     OW25063   2.173   4.003   9.219  0.2938  0.3475 -0.1527
 4476SOL    HW125064   2.184   4.096   9.238 -0.3204  0.4639 -0.3596
 4476SOL    HW225065   2.221   3.997   9.136 -0.7932 -1.6948 -0.6421
 4477SOL     OW25066   1.604   1.089   4.908  0.3591 -0.3468 -0.0289
 4477SOL    HW125067   1.683   1.137   4.934  0.5809  0.0669 -1.4995
 4477SOL    HW225068   1.632   1.051   4.825  0.0439  0.0833 -0.3312
 4478SOL     OW25069   2.969   2.982   2.183 -0.1853 -0.6372  0.2246
 4478SOL    HW125070   2.931   2.895   2.176 -0.6518 -0.2942 -1.4846
 4478SOL    HW225071   2.887   3.031   2.193  0.8231  0.7023  1.9353
 4479SOL     OW25072   0.284   1.712   9.047 -0.5051 -0.6470  0.0588
 4479SOL    HW125073   0.290   1.756   8.962  0.6905 -1.1460 -0.1123
 4479SOL    HW225074   0.265   1.787   9.103 -2.8825 -0.7741 -0.5669
 4480SOL     OW25075   4.620   2.331  16.590  0.6417  0.1477 -0.6159
 4480SOL    HW125076   4.535   2.362  16.622  0.6356 -0.1375 -0.3560
 4480SOL    HW225077   4.590   2.262  16.531 -2.7392  0.7890  0.3137
 4481SOL     OW25078   2.430   0.673   4.586  0.3902  0.2893  0.8834
 4481SOL    HW125079   2.520   0.674   4.619  0.8378  0.1904 -0.3460
 4481SOL    HW225080   2.442   0.633   4.500  0.2873  0.2592  0.8839
 4482SOL     OW25081   0.534   3.042  14.300 -0.0116 -0.1190  0.6792
 4482SOL    HW125082   0.556   3.135  14.293  0.0769 -0.3872 -2.3741
 4482SOL    HW225083   0.443   3.040  14.331  0.0896 -2.4896  0.8085
 4483SOL     OW25084   1.287   1.851   9.732 -0.7339  0.5655  0.6646
 4483SOL    HW125085   1.234   1.822   9.806 -1.7556  0.7669  0.0182
 4483SOL    HW225086   1.266   1.944   9.724  0.6526  0.6824 -1.7498
 4484SOL     OW25087   2.063   2.028   6.119 -0.0078 -0.7593  0.2610
 4484SOL    HW125088   2.076   2.005   6.211  0.3219  0.2334  0.4541
 4484SOL    HW225089   2.042   2.121   6.119  1.0749 -0.4991 -5.1171
 4485SOL     OW25090   4.273   2.976   6.280  0.1739  0.1203  0.4904
 4485SOL    HW125091   4.209   2.935   6.223  0.0803  0.2902  0.4759
 4485SOL    HW225092   4.307   3.052   6.234  0.1050 -0.2242 -0.1252
 4486SOL     OW25093   1.703   4.391   4.167 -0.2468 -0.3729  0.3031
 4486SOL    HW125094   1.787   4.416   4.207 -0.8476  0.4872  1.0269
 4486SOL    HW225095   1.720   4.418   4.077 -1.4931 -1.2773 -0.2058
 4487SOL     OW25096   1.038   2.869   2.606 -0.5358 -0.3287  0.0688
 4487SOL    HW125097   0.981   2.810   2.555 -0.1952 -0.5183 -0.0885
 4487SOL    HW225098   1.051   2.812   2.681 -0.9787 -1.3377 -0.6119
 4488SOL     OW25099   3.641   4.102   5.116  0.4390  0.4517  0.0172
 4488SOL    HW125100   3.583   4.031   5.091  0.9126  0.8727 -2.2963
 4488SOL    HW225101   3.672   4.074   5.202 -0.8866  0.8916  0.6362
 4489SOL     OW25102   3.406   0.926   1.324  0.0517 -0.2487 -0.4573
 4489SOL    HW125103   3.393   0.849   1.379  0.1607 -0.2989 -0.5012
 4489SOL    HW225104   3.351   0.903   1.249  0.4099  0.2927 -0.8941
 4490SOL     OW25105   3.728   4.239   4.025  0.1659 -0.3999  0.1468
 4490SOL    HW125106   3.669   4.182   3.976 -2.0007  1.1981  0.9115
 4490SOL    HW225107   3.664   4.253   4.094 -0.8675 -0.5609 -0.7705
 4491SOL     OW25108   3.315   4.117   8.934 -0.1744  0.0236 -0.0549
 4491SOL    HW125109   3.281   4.202   8.959 -0.5159 -0.0808 -0.1669
 4491SOL    HW225110   3.342   4.084   9.020 -0.2950  0.7517  0.2621
 4492SOL     OW25111   3.655   3.131   8.588 -0.4336 -0.1458 -0.3944
 4492SOL    HW125112   3.682   3.213   8.547  3.5945 -0.8904  0.7177
 4492SOL    HW225113   3.636   3.160   8.677  2.1214 -0.7511  0.3404
 4493SOL     OW25114   2.666   2.852   5.714  0.5411 -0.0082 -0.0294
 4493SOL    HW125115   2.726   2.864   5.788 -0.9402 -0.8506  1.3113
 4493SOL    HW225116   2.642   2.762   5.734 -0.3069  0.0734 -0.6761
 4494SOL     OW25117   0.773   4.101  15.493 -0.1647  0.4526  1.5391
 4494SOL    HW125118   0.692   4.143  15.464  1.2958  1.8670 -0.5442
 4494SOL    HW225119   0.828   4.179  15.491 -0.3027  0.4965 -1.7303
 4495SOL     OW25120   3.403   2.663   2.667 -0.0118 -0.1803  0.0956
 4495SOL    HW125121   3.331   2.697   2.722  0.6583 -1.9547  2.0697
 4495SOL    HW225122   3.365   2.602   2.604 -0.8533  0.2449  0.1861
 4496SOL     OW25123   0.765   0.079   4.931  0.2642  0.2476  0.2067
 4496SOL    HW125124   0.837   0.049   4.987  0.8704  0.1518 -0.6117
 4496SOL    HW225125   0.700   0.017   4.962 -0.3433  0.7121 -0.1484
 4497SOL     OW25126   4.039   0.919   2.845  0.8285  0.5765  0.0781
 4497SOL    HW125127   4.066   1.008   2.824  0.6412  0.5780 -0.1610
 4497SOL    HW225128   4.076   0.870   2.772 -2.6079 -0.7484 -0.8205
 4498SOL     OW25129   1.503   3.745  14.877 -0.0890  0.4255  0.4448
 4498SOL    HW125130   1.510   3.772  14.786  3.6475 -1.5360  0.1707
 4498SOL    HW225131   1.590   3.761  14.915 -0.0215 -0.6649  0.7462
 4499SOL     OW25132   2.501   4.725   0.068  0.2177  0.7468  0.9173
 4499SOL    HW125133   2.556   0.009  17.730 -1.4287  2.6189  0.1928
 4499SOL    HW225134   2.441   0.065   0.067 -0.3724  0.2664  0.2419
 4500SOL     OW25135   2.076   2.394   7.780  0.4179  1.1174 -0.8358
 4500SOL    HW125136   2.166   2.364   7.773 -0.1991 -0.6018 -1.4458
 4500SOL    HW225137   2.038   2.347   7.706  0.7344  1.3339 -1.1321
 4501SOL     OW25138   2.459   4.543   9.862 -0.3301  0.0222 -0.0975
 4501SOL    HW125139   2.455   4.447   9.866 -2.2440 -0.0167 -2.5153
 4501SOL    HW225140   2.369   4.571   9.843  0.1831  0.2684 -2.1883
 4502SOL     OW25141   0.768   1.466   7.454  0.0867  0.4450  0.1939
 4502SOL    HW125142   0.695   1.405   7.457  0.7450 -0.2238  2.2348
 4502SOL    HW225143   0.719   1.542   7.488  0.8380  0.8314  0.4109
 4503SOL     OW25144   1.749   2.419   1.751  0.0640 -0.0314 -0.6140
 4503SOL    HW125145   1.733   2.509   1.721  0.2375  0.6701  1.4530
 4503SOL    HW225146   1.663   2.378   1.755  0.0155  0.4631  2.6787
 4504SOL     OW25147   4.656   2.459   8.843 -0.0291  0.0157 -0.0201
 4504SOL    HW125148   4.587   2.415   8.794 -0.2229  1.0979 -0.7261
 4504SOL    HW225149   4.724   2.392   8.837  1.6181  1.7261 -0.6812
 4505SOL     OW25150   1.030   1.851   3.610 -0.3744 -0.4145  0.0417
 4505SOL    HW125151   1.016   1.811   3.696 -1.5950  0.7632  0.3798
 4505SOL    HW225152   0.943   1.881   3.585  0.0339 -0.2814 -1.2287
 4506SOL     OW25153   2.905   3.074   3.925 -0.3048  0.1384 -0.0899
 4506SOL    HW125154   2.932   3.022   3.849  1.2208 -0.3699  0.7960
 4506SOL    HW225155   2.978   3.136   3.919 -1.0338  1.1379  1.5457
 4507SOL     OW25156   4.240   2.359   0.016  0.3856 -0.4620 -0.2286
 4507SOL    HW125157   4.226   2.409  17.673 -0.6896 -2.7220 -1.4460
 4507SOL    HW225158   4.166   2.383   0.071  0.7986  0.6949 -0.1872
 4508SOL     OW25159   2.957   3.373  16.511 -0.2171 -0.1349  0.2944
 4508SOL    HW125160   2.911   3.403  16.589  0.3457 -0.1605  0.6368
 4508SOL    HW225161   2.893   3.384  16.441 -0.4022 -2.4825  0.0932
 4509SOL     OW25162   1.132   4.119  13.977  0.2479 -0.1103  0.7534
 4509SOL    HW125163   1.082   4.060  14.034  0.7775  0.8542  2.2098
 4509SOL    HW225164   1.079   4.112  13.898  2.0440 -1.1177 -0.3606
 4510SOL     OW25165   3.371   2.612   5.453 -0.0815  0.1787  0.2499
 4510SOL    HW125166   3.444   2.582   5.507 -0.2821  0.1626  0.5067
 4510SOL    HW225167   3.406   2.641   5.368 -1.7289 -0.6002 -0.6950
 4511SOL     OW25168   2.654   3.104  14.250 -0.0460 -0.0127 -0.4776
 4511SOL    HW125169   2.677   3.112  14.343  1.1599  0.9797 -0.8574
 4511SOL    HW225170   2.728   3.153  14.215 -0.3067  1.0165  0.4202
 4512SOL     OW25171   3.772   3.261   2.349 -0.3038  0.7536 -0.0699
 4512SOL    HW125172   3.681   3.237   2.330 -0.8997  2.8817  0.1130
 4512SOL    HW225173   3.786   3.338   2.293 -0.4873 -0.2803 -1.5331
 4513SOL     OW25174   2.826   2.289   7.955  0.2893 -0.0587  0.0094
 4513SOL    HW125175   2.833   2.341   8.035 -0.3962 -0.0482  0.0593
 4513SOL    HW225176   2.742   2.244   7.964  0.0308  0.2981 -0.6161
 4514SOL     OW25177   1.506   3.905  17.224 -0.0074 -0.4407  0.1990
 4514SOL    HW125178   1.534   3.951  17.145 -0.9489 -1.5734 -0.7970
 4514SOL    HW225179   1.452   3.831  17.196 -0.8470  0.4389 -0.4987
 4515SOL     OW25180   0.724   2.213  17.163  0.1662 -0.4165  0.1778
 4515SOL    HW125181   0.631   2.229  17.183 -0.6236 -2.2004 -2.0353
 4515SOL    HW225182   0.736   2.256  17.078 -1.9320 -0.8601 -0.3620
 4516SOL     OW25183   1.623   3.158   9.979 -0.1048 -0.1166  0.5059
 4516SOL    HW125184   1.677   3.158  10.058 -0.1852 -0.2717  0.5594
 4516SOL    HW225185   1.689   3.116   9.924 -0.7318  1.1773 -1.2170
 4517SOL     OW25186   0.462   1.567   5.185  0.0199 -0.8303 -0.1167
 4517SOL    HW125187   0.408   1.573   5.264 -1.6352 -0.5904 -1.2608
 4517SOL    HW225188   0.544   1.605   5.216 -0.6742 -0.1373  0.8854
 4518SOL     OW25189   0.403   1.257   2.886  0.0571  0.3356 -0.1267
 4518SOL    HW125190   0.375   1.344   2.916  0.0564  0.0097  0.8213
 4518SOL    HW225191   0.463   1.228   2.955  0.0410  1.0111  0.1711
 4519SOL     OW25192   0.270   2.837  14.259  0.4417  0.2905 -0.2507
 4519SOL    HW125193   0.362   2.834  14.283  0.1915 -1.0253  0.5479
 4519SOL    HW225194   0.241   2.914  14.308  1.6813  0.1499  0.6912
 4520SOL     OW25195   1.124   3.256   7.991 -0.2005 -0.1779  0.1245
 4520SOL    HW125196   1.215   3.226   7.979 -0.6244 -2.4241  2.4239
 4520SOL    HW225197   1.118   3.283   7.900  1.1518  1.5147  0.5347
 4521SOL     OW25198   4.359   1.883  17.482  0.6762  0.1098  0.7651
 4521SOL    HW125199   4.282   1.898  17.538 -0.4468 -1.1802 -0.4360
 4521SOL    HW225200   4.319   1.874  17.396 -0.0412 -2.4815  1.3598
 4522SOL     OW25201   3.879   1.980  14.880 -0.0678 -0.0749 -0.0364
 4522SOL    HW125202   3.897   2.039  14.807 -3.5454 -0.5696 -1.2985
 4522SOL    HW225203   3.796   1.939  14.855 -0.1462 -2.4481  4.1291
 4523SOL     OW25204   2.422   1.868   7.359 -0.2094  0.0601  0.5912
 4523SOL    HW125205   2.397   1.960   7.368  1.7213  0.4520  1.9973
 4523SOL    HW225206   2.516   1.872   7.341 -0.5858  1.0720 -1.1596
 4524SOL     OW25207   3.008   3.959   8.142 -0.7191  0.1124 -0.8804
 4524SOL    HW125208   2.976   3.872   8.168 -2.8719  0.9528 -0.7186
 4524SOL    HW225209   2.984   3.967   8.050 -0.2008 -0.2480 -1.0457
 4525SOL     OW25210   3.229   0.113   4.659  0.3879  0.5909  0.5184
 4525SOL    HW125211   3.292   0.052   4.697  1.7662  2.2265  0.8650
 4525SOL    HW225212   3.190   0.053   4.596 -1.1093  0.0615  1.9405
 4526SOL     OW25213   2.217   1.182   3.976 -0.6961 -0.2604 -0.3163
 4526SOL    HW125214   2.279   1.137   4.033 -0.1303  1.2495  0.2739
 4526SOL    HW225215   2.136   1.132   3.980  0.9838 -2.6403  3.5622
 4527SOL     OW25216   2.723   1.546   2.953 -0.0623  0.2285  0.3336
 4527SOL    HW125217   2.722   1.493   3.033 -0.4368 -0.7091 -0.2867
 4527SOL    HW225218   2.770   1.626   2.976 -2.5674  1.6799  0.3919
 4528SOL     OW25219   3.159   0.107   6.793  0.1951 -0.1001  0.2799
 4528SOL    HW125220   3.164   0.190   6.840  1.5695 -0.4347  0.7148
 4528SOL    HW225221   3.247   0.074   6.810  0.8164  1.6117  0.3800
 4529SOL     OW25222   0.214   0.493   2.255  0.1678 -0.0642 -0.5417
 4529SOL    HW125223   0.126   0.463   2.277 -0.0904  1.3086  0.2773
 4529SOL    HW225224   0.196   0.579   2.217  1.1441  1.0845  1.6273
 4530SOL     OW25225   2.197   0.116   7.126  0.3252 -0.0180 -0.0158
 4530SOL    HW125226   2.235   0.028   7.124  0.4963  0.1337 -3.2273
 4530SOL    HW225227   2.230   0.149   7.210  1.3285  1.0057 -0.8237
 4531SOL     OW25228   1.416   4.406   7.603 -0.7165 -0.0390  0.1120
 4531SOL    HW125229   1.444   4.318   7.626  0.5811 -0.1582 -1.8973
 4531SOL    HW225230   1.494   4.462   7.607 -0.3280 -0.4154 -1.9459
 4532SOL     OW25231   4.256   0.707   7.737  0.1609 -0.1241  0.4831
 4532SOL    HW125232   4.223   0.620   7.714 -3.0696  1.2808 -0.2834
 4532SOL    HW225233   4.268   0.742   7.648 -1.0077 -1.8432 -0.3616
 4533SOL     OW25234   0.978   4.237   5.615 -0.1424  0.0142  0.8878
 4533SOL    HW125235   1.003   4.329   5.605  0.3434 -0.3942 -1.4528
 4533SOL    HW225236   1.062   4.194   5.604  0.0098  1.0772 -1.9177
 4534SOL     OW25237   1.832   3.535   5.449 -0.3473  0.9059  0.0841
 4534SOL    HW125238   1.894   3.497   5.511 -2.1775 -0.4452  1.1074
 4534SOL    HW225239   1.781   3.456   5.433  1.0584 -0.2629  1.4335
 4535SOL     OW25240   3.676   2.740   6.058 -0.0918 -0.0763 -0.3981
 4535SOL    HW125241   3.595   2.711   6.016  1.5203 -1.4657 -2.5157
 4535SOL    HW225242   3.649   2.733   6.150 -0.5893  1.8697 -0.3854
 4536SOL     OW25243   3.175   0.666   4.000 -0.2448 -0.2490 -0.1650
 4536SOL    HW125244   3.151   0.641   3.911 -4.7717  0.3428  0.8570
 4536SOL    HW225245   3.130   0.597   4.049 -0.6822  0.6718  0.7168
 4537SOL     OW25246   2.890   3.174   5.795  0.5863  0.1770 -0.7335
 4537SOL    HW125247   2.980   3.144   5.788  0.5250 -0.2079  0.1485
 4537SOL    HW225248   2.842   3.096   5.767  0.3554  0.2294 -0.4856
 4538SOL     OW25249   2.456   3.712   4.487 -0.2510  0.4785 -0.0608
 4538SOL    HW125250   2.389   3.644   4.498 -0.0015  0.5166  1.6031
 4538SOL    HW225251   2.484   3.737   4.575  0.5802 -0.2860 -0.1004
 4539SOL     OW25252   0.145   3.347   7.473 -0.2229  0.3848 -0.1422
 4539SOL    HW125253   0.152   3.441   7.459  6.0907 -0.3531 -1.8368
 4539SOL    HW225254   0.173   3.345   7.565 -0.7850 -3.6035 -0.0388
 4540SOL     OW25255   4.041   3.918   0.865  0.0516 -0.2747 -0.7433
 4540SOL    HW125256   4.108   3.850   0.872  0.3384 -0.2170 -2.8737
 4540SOL    HW225257   4.071   3.990   0.921 -0.4022  0.5140 -1.5038
 4541SOL     OW25258   3.495   3.725  12.836 -0.5038 -0.7087  0.1686
 4541SOL    HW125259   3.515   3.634  12.815  0.5408 -0.1253 -1.3506
 4541SOL    HW225260   3.502   3.737  12.931  1.1276  0.2834 -0.0620
 4542SOL     OW25261   2.546   4.439   2.858  0.6750  0.2716  0.5288
 4542SOL    HW125262   2.529   4.352   2.821 -5.0341  1.3480  0.5268
 4542SOL    HW225263   2.485   4.491   2.805  2.0055 -0.2721 -1.5237
 4543SOL     OW25264   2.359   3.614   9.704 -0.0231 -0.2633 -0.4104
 4543SOL    HW125265   2.393   3.687   9.653 -1.4666 -0.0828 -1.1288
 4543SOL    HW225266   2.421   3.545   9.682 -1.9904 -1.3704 -2.4619
 4544SOL     OW25267   0.583   1.926  15.764  0.2552 -0.5776 -0.3354
 4544SOL    HW125268   0.669   1.886  15.778  0.6639 -0.3306 -2.0988
 4544SOL    HW225269   0.609   1.971  15.683 -2.2126  1.6322  0.1320
 4545SOL     OW25270   0.083   3.772  15.007  0.1273 -0.1772 -0.0328
 4545SOL    HW125271   4.733   3.811  15.029 -0.0943 -1.0615  0.6565
 4545SOL    HW225272   0.077   3.747  14.915  2.5004 -0.9845  0.0282
 4546SOL     OW25273   3.846   0.935   1.477  0.0720  0.0129  0.4614
 4546SOL    HW125274   3.881   0.992   1.546 -1.4417  0.6648  0.6850
 4546SOL    HW225275   3.911   0.865   1.479  0.1299  0.0398 -0.2563
 4547SOL     OW25276   3.428   1.632   7.179  0.6093 -0.6214 -0.0217
 4547SOL    HW125277   3.332   1.630   7.170  0.7223  1.3944 -1.7074
 4547SOL    HW225278   3.456   1.584   7.101 -0.9144 -0.8110 -0.4598
 4548SOL     OW25279   3.134   4.275   2.345  0.0749 -0.5220 -0.3173
 4548SOL    HW125280   3.201   4.326   2.300 -0.7657  1.1975  0.3750
 4548SOL    HW225281   3.135   4.317   2.431 -2.3067 -0.3191 -0.4144
 4549SOL     OW25282   4.208   3.428   1.882 -0.2775 -0.0264 -0.7737
 4549SOL    HW125283   4.179   3.344   1.915 -1.3509  1.0534  1.0259
 4549SOL    HW225284   4.301   3.438   1.903 -0.3719 -0.6195 -0.0640
 4550SOL     OW25285   3.624   3.099  13.376  0.0546 -0.1854 -0.1037
 4550SOL    HW125286   3.628   3.006  13.355 -0.2121 -0.4462  1.0215
 4550SOL    HW225287   3.537   3.115  13.339 -0.9615 -0.8277  1.9902
 4551SOL     OW25288   4.606   0.519   5.748 -0.4437 -0.1701 -0.1386
 4551SOL    HW125289   4.607   0.604   5.791 -1.1166  0.1635 -0.7883
 4551SOL    HW225290   4.653   0.538   5.667 -4.6070  0.2619 -2.4837
 4552SOL     OW25291   0.599   1.666  14.013  0.0342 -0.2910  0.2579
 4552SOL    HW125292   0.524   1.720  14.038 -1.0871 -2.2723  1.0851
 4552SOL    HW225293   0.661   1.733  13.982 -1.2909  0.4870 -0.7393
 4553SOL     OW25294   1.828   0.475   1.653 -0.5503  0.0478  0.2787
 4553SOL    HW125295   1.809   0.464   1.560  1.0414  1.8307 -0.2639
 4553SOL    HW225296   1.923   0.476   1.637 -0.1795 -0.6967  2.3475
 4554SOL     OW25297   2.247   3.391   6.315  0.0609  0.5372  0.1205
 4554SOL    HW125298   2.240   3.359   6.225 -2.6788  0.4339  0.3644
 4554SOL    HW225299   2.165   3.361   6.354 -0.3958 -1.5875 -2.5061
 4555SOL     OW25300   3.151   3.389  10.110 -0.7653 -0.5090  0.5089
 4555SOL    HW125301   3.158   3.352  10.198  2.0520  1.4552  1.1019
 4555SOL    HW225302   3.085   3.340  10.062 -1.6552 -0.2865  1.4999
 4556SOL     OW25303   4.483   0.143   4.869 -0.2234  0.3234 -0.6326
 4556SOL    HW125304   4.452   0.224   4.830  0.0479  0.4052 -0.6742
 4556SOL    HW225305   4.521   0.174   4.951  0.5918 -1.1487 -0.4473
 4557SOL     OW25306   4.558   1.854   9.484 -0.5454 -0.0958  0.4148
 4557SOL    HW125307   4.619   1.923   9.511  2.4896 -2.0319 -1.6314
 4557SOL    HW225308   4.590   1.831   9.397  0.5979  1.1112  0.5106
 4558SOL     OW25309   2.862   4.259   0.065 -1.1278  0.1755 -0.2843
 4558SOL    HW125310   2.803   4.195   0.024 -0.4700 -0.1132 -0.7882
 4558SOL    HW225311   2.916   4.291  17.730  0.9350  1.2481  1.7364
 4559SOL     OW25312   0.143   0.521   6.807  0.2107  0.4474  0.0177
 4559SOL    HW125313   0.083   0.468   6.755  1.1779 -0.7415  0.1158
 4559SOL    HW225314   0.081   0.568   6.863 -2.0846  0.2392 -2.3327
 4560SOL     OW25315   2.403   3.914  11.945 -0.1428 -0.1844 -0.0988
 4560SOL    HW125316   2.384   4.002  11.975 -0.0957 -0.0570 -0.4463
 4560SOL    HW225317   2.314   3.897  11.913  0.4732 -2.3210 -0.7012
 4561SOL     OW25318   1.912   0.339   3.169  0.0053 -0.3262 -0.1328
 4561SOL    HW125319   1.861   0.405   3.123  0.3802 -1.2137 -1.8116
 4561SOL    HW225320   1.916   0.382   3.255  0.3735  2.1354 -1.3879
 4562SOL     OW25321   1.008   4.591  12.436 -0.1624 -0.4200 -0.1341
 4562SOL    HW125322   1.056   4.640  12.369  1.1264 -1.5149 -0.0201
 4562SOL    HW225323   1.066   4.609  12.510  0.4940 -1.1201 -0.4673
 4563SOL     OW25324   4.308   4.280  15.325 -0.4059  0.0917  0.4874
 4563SOL    HW125325   4.308   4.361  15.377  0.0550  1.2772 -1.3939
 4563SOL    HW225326   4.303   4.306  15.234 -0.5987  0.9946  0.7555
 4564SOL     OW25327   2.802   2.743   9.865 -0.1767 -0.4644 -0.3280
 4564SOL    HW125328   2.762   2.715   9.783  0.2641  0.7232 -0.9391
 4564SOL    HW225329   2.893   2.728   9.840 -0.0963 -0.3348 -0.1148
 4565SOL     OW25330   2.151   3.689   7.162  0.0995  0.2491  0.0563
 4565SOL    HW125331   2.200   3.737   7.095 -0.8357  0.2804 -0.5940
 4565SOL    HW225332   2.147   3.608   7.111 -0.2054  1.0312 -1.1703
 4566SOL     OW25333   0.217   0.688  13.121  0.1952  0.2906  0.2155
 4566SOL    HW125334   0.298   0.644  13.150  0.8273  1.5553  0.3632
 4566SOL    HW225335   0.250   0.775  13.143  0.7469  0.5798 -1.7337
 4567SOL     OW25336   1.080   0.695   4.614  0.6220 -0.0616  0.6390
 4567SOL    HW125337   1.022   0.644   4.670  1.1081 -1.3182  0.0140
 4567SOL    HW225338   1.045   0.782   4.632  0.7645 -0.5970  3.5067
 4568SOL     OW25339   1.869   2.089  10.124 -0.4748  0.2666 -0.5249
 4568SOL    HW125340   1.931   2.132  10.066  0.9620 -0.9366  0.1212
 4568SOL    HW225341   1.787   2.123  10.087 -1.5280  0.1729  1.7273
 4569SOL     OW25342   0.789   2.201   2.126  0.0764 -0.2639  0.7456
 4569SOL    HW125343   0.773   2.172   2.036  0.9976 -0.8263  0.7771
 4569SOL    HW225344   0.700   2.187   2.160 -0.4084  0.7028 -0.1179
 4570SOL     OW25345   2.075   4.660   2.404 -0.1173 -0.0113 -0.7460
 4570SOL    HW125346   2.042   4.578   2.366 -0.6429  0.7102 -1.8459
 4570SOL    HW225347   2.114   4.710   2.332  1.7508 -1.4746 -0.7548
 4571SOL     OW25348   3.771   4.466   3.193  0.5489 -0.2075  0.5822
 4571SOL    HW125349   3.789   4.499   3.281  2.4276 -1.5653  0.7202
 4571SOL    HW225350   3.792   4.372   3.199 -0.9993 -0.7440 -2.6528
 4572SOL     OW25351   0.918   1.302   5.014  0.2419 -0.5187  0.2858
 4572SOL    HW125352   0.973   1.311   4.937  1.0649  0.7521  1.0275
 4572SOL    HW225353   0.893   1.210   5.001 -0.6420 -0.2868  0.3147
 4573SOL     OW25354   4.576   1.669   4.062  0.1379 -0.0461 -0.9701
 4573SOL    HW125355   4.665   1.633   4.070 -0.5696 -1.6327 -0.1458
 4573SOL    HW225356   4.524   1.593   4.089 -0.9534  1.2307  0.5267
 4574SOL     OW25357   4.563   0.803   3.328 -0.2574 -0.0012 -0.3043
 4574SOL    HW125358   4.498   0.863   3.291  1.3948 -0.0583 -3.2685
 4574SOL    HW225359   4.638   0.863   3.332  1.4448 -2.3684  2.6492
 4575SOL     OW25360   4.161   1.033   4.678  0.1900 -0.2434  0.3475
 4575SOL    HW125361   4.245   0.997   4.707  1.3037  1.2337 -1.0279
 4575SOL    HW225362   4.163   1.047   4.584  3.9453  0.4582  0.5457
 4576SOL     OW25363   0.258   0.234   1.720  0.5313  0.3181 -0.5731
 4576SOL    HW125364   0.303   0.318   1.716  0.6674  0.3149  0.7973
 4576SOL    HW225365   0.331   0.180   1.750  1.8511  1.9283 -0.8595
 4577SOL     OW25366   4.119   4.425   6.733  0.2329  0.0024 -0.3814
 4577SOL    HW125367   4.134   4.366   6.658 -0.1624 -0.7899  0.1582
 4577SOL    HW225368   4.049   4.381   6.781 -2.9003  1.5025 -3.5354
 4578SOL     OW25369   3.191   0.523   2.211  0.5202 -0.1393  0.3567
 4578SOL    HW125370   3.157   0.470   2.139 -1.5139  0.8035  0.6415
 4578SOL    HW225371   3.107   0.553   2.244  0.3222 -0.0919 -0.1921
 4579SOL     OW25372   4.714   1.174   5.433  0.3005 -1.2334 -0.2078
 4579SOL    HW125373   4.650   1.165   5.504  0.2263  1.9233  0.1187
 4579SOL    HW225374   4.717   1.085   5.398 -1.4099 -1.6730  0.7086
 4580SOL     OW25375   2.174   0.464   2.015 -0.8049  0.1323 -0.0901
 4580SOL    HW125376   2.111   0.396   1.990 -0.3381 -0.2652 -0.1705
 4580SOL    HW225377   2.190   0.429   2.102  0.7834  0.0775 -0.4145
 4581SOL     OW25378   3.359   3.383   8.853 -0.1314 -0.6051 -0.1271
 4581SOL    HW125379   3.454   3.375   8.845 -0.2968 -0.3054 -2.5208
 4581SOL    HW225380   3.337   3.476   8.850  3.2914  0.2289  1.5137
 4582SOL     OW25381   2.566   2.043   9.782 -0.3611 -0.0057  0.3331
 4582SOL    HW125382   2.560   2.139   9.777 -0.2637 -0.0800 -1.2304
 4582SOL    HW225383   2.472   2.027   9.794 -0.7088  1.4051 -0.3856
 4583SOL     OW25384   2.797   0.919  13.941  0.4672  0.1242  0.4172
 4583SOL    HW125385   2.855   0.931  13.866 -0.7948  0.5149 -0.4854
 4583SOL    HW225386   2.712   0.946  13.906  0.8110  0.2798 -0.2850
 4584SOL     OW25387   2.180   0.419   7.076 -0.2209  0.0210  0.5864
 4584SOL    HW125388   2.269   0.404   7.107  0.3519  0.6588 -0.7687
 4584SOL    HW225389   2.142   0.341   7.117 -0.7812  0.6311  1.2419
 4585SOL     OW25390   4.232   4.719   5.653  0.0487  0.1962 -1.0605
 4585SOL    HW125391   4.163   0.048   5.633  0.4607  0.7945 -0.5508
 4585SOL    HW225392   4.315   0.024   5.628 -1.0451  2.5680 -0.9215
 4586SOL     OW25393   3.146   2.421  13.097 -0.1542 -0.0217  0.0491
 4586SOL    HW125394   3.106   2.334  13.104  0.9771 -0.6086 -0.6184
 4586SOL    HW225395   3.071   2.469  13.130  0.0001  2.4523 -3.1999
 4587SOL     OW25396   0.032   2.100   0.456 -0.2263 -0.7654  0.0517
 4587SOL    HW125397   4.716   2.098   0.537 -0.4159 -0.7295 -0.0657
 4587SOL    HW225398   0.045   2.006   0.443  0.4249 -0.5114 -1.1435
 4588SOL     OW25399   1.147   2.077   5.758 -0.3830 -0.3575 -0.1008
 4588SOL    HW125400   1.173   2.169   5.749  2.2789 -1.2113 -1.4466
 4588SOL    HW225401   1.126   2.066   5.851  1.5458 -3.8124 -0.0765
 4589SOL     OW25402   0.517   0.080   6.990  0.9052 -0.7644 -0.1308
 4589SOL    HW125403   0.612   0.074   6.985  1.0046 -0.3949  1.3117
 4589SOL    HW225404   0.491   0.049   7.077  0.5661 -1.2295 -0.4002
 4590SOL     OW25405   0.364   4.254  14.967  0.1975  0.4578  0.1920
 4590SOL    HW125406   0.391   4.282  14.879 -0.5259 -2.2143 -0.9016
 4590SOL    HW225407   0.388   4.339  15.002  0.2464  0.8539 -0.8031
 4591SOL     OW25408   4.603   0.883   1.835  0.3379 -0.3408 -0.2871
 4591SOL    HW125409   4.565   0.798   1.856  0.0625 -0.1542 -0.0196
 4591SOL    HW225410   4.646   0.908   1.917  2.0273 -0.5639 -1.1046
 4592SOL     OW25411   0.389   1.941   8.165  0.3934  0.3199 -0.0786
 4592SOL    HW125412   0.307   1.892   8.173 -0.1983  1.1645 -1.0412
 4592SOL    HW225413   0.352   2.029   8.176 -1.1585 -0.5639  2.0026
 4593SOL     OW25414   1.074   4.503   7.213 -0.2795  0.4875 -0.8445
 4593SOL    HW125415   1.075   4.485   7.119 -0.9244  0.5950 -0.8680
 4593SOL    HW225416   1.102   4.422   7.255  1.3946  2.7874  2.5158
 4594SOL     OW25417   4.215   2.292   8.913 -0.3764  0.1604  0.0409
 4594SOL    HW125418   4.202   2.271   8.820 -0.0120 -0.4521  0.1314
 4594SOL    HW225419   4.163   2.372   8.927 -1.0555 -0.3657  0.5000
 4595SOL     OW25420   2.616   3.827   4.291  0.9840  0.5496  0.5677
 4595SOL    HW125421   2.592   3.786   4.374 -0.4304  0.7623  0.2615
 4595SOL    HW225422   2.654   3.911   4.315  1.3781 -0.1047  2.2633
 4596SOL     OW25423   3.878   0.396   0.754 -0.4988  0.4952  0.1328
 4596SOL    HW125424   3.869   0.324   0.816 -1.1509 -0.1155 -0.6784
 4596SOL    HW225425   3.812   0.363   0.693 -0.9879 -0.9342  1.4484
 4597SOL     OW25426   0.010   0.102  15.484 -0.2854 -0.8203  0.8154
 4597SOL    HW125427   0.008   0.124  15.391 -0.1969  0.9209  1.2262
 4597SOL    HW225428   4.725   0.009  15.483 -0.2027 -0.8220 -0.2996
 4598SOL     OW25429   3.785   4.453   8.890 -0.3605  0.5417 -0.1638
 4598SOL    HW125430   3.794   4.547   8.905  0.5635  0.5085 -0.5566
 4598SOL    HW225431   3.702   4.437   8.936 -0.4276  0.6556 -0.2457
 4599SOL     OW25432   1.978   0.065   6.602 -0.1003  0.3131  0.4232
 4599SOL    HW125433   2.056   0.088   6.551  0.2986 -0.6977  0.5562
 4599SOL    HW225434   2.009   4.709   6.600  1.9478  1.0741 -2.5291
 4600SOL     OW25435   4.690   0.826  11.508 -0.3150 -0.2278  0.2334
 4600SOL    HW125436   4.673   0.917  11.483 -0.1161 -0.2853 -0.1094
 4600SOL    HW225437   4.604   0.787  11.526 -0.8817  0.6575 -0.5604
 4601SOL     OW25438   3.880   3.374   6.360 -0.3633 -1.2190 -0.4773
 4601SOL    HW125439   3.830   3.436   6.413  0.3979  0.2836 -1.5374
 4601SOL    HW225440   3.881   3.418   6.275  2.4563 -0.1983  0.0857
 4602SOL     OW25441   4.047   2.405   4.849 -0.6151  0.3846  0.0507
 4602SOL    HW125442   4.071   2.332   4.905  0.6930  0.4707 -0.3962
 4602SOL    HW225443   3.989   2.452   4.909 -2.5314 -1.7426 -0.1477
 4603SOL     OW25444   1.375   2.910  11.343  0.1256 -0.6987 -0.4423
 4603SOL    HW125445   1.345   2.829  11.384 -0.1938 -0.6074 -0.4988
 4603SOL    HW225446   1.468   2.892  11.332  0.1424 -1.6232  1.3690
 4604SOL     OW25447   2.626   1.751   6.757  0.1201  0.3069 -0.6164
 4604SOL    HW125448   2.559   1.765   6.690 -1.5107 -0.4850  0.8640
 4604SOL    HW225449   2.700   1.800   6.719  2.0942 -0.5749  2.0750
 4605SOL     OW25450   0.111   4.110   1.873 -0.0928  1.3138  0.2378
 4605SOL    HW125451   0.182   4.070   1.822 -1.9553 -0.8030 -0.6691
 4605SOL    HW225452   0.051   4.037   1.861 -0.5676  1.5292  1.2768
 4606SOL     OW25453   2.628   4.695   4.132 -0.2555 -0.3011  0.2826
 4606SOL    HW125454   2.549   4.661   4.174 -0.6963  1.7613  1.1396
 4606SOL    HW225455   2.616   4.680   4.038 -0.2136  0.9607  0.0691
 4607SOL     OW25456   1.308   3.225   1.841 -0.5070  0.1867  0.7127
 4607SOL    HW125457   1.325   3.239   1.748 -0.0417 -0.2510  0.7361
 4607SOL    HW225458   1.234   3.285   1.856 -1.1398 -0.1885 -0.8964
 4608SOL     OW25459   0.035   4.076   4.168  0.2325  0.3226 -0.1294
 4608SOL    HW125460   0.037   4.171   4.179  1.1953  0.2131  0.6433
 4608SOL    HW225461   0.112   4.051   4.219 -0.1462 -1.1421 -0.2687
 4609SOL     OW25462   4.115   2.338   4.307 -0.1168 -0.2910  0.1332
 4609SOL    HW125463   4.171   2.330   4.230 -0.0054 -0.5841  0.2456
 4609SOL    HW225464   4.181   2.346   4.376  1.7085  1.7989 -1.8204
 4610SOL     OW25465   0.389   0.337   2.111 -0.0127  0.9778 -0.3597
 4610SOL    HW125466   0.321   0.271   2.098  0.5511 -0.0586  1.8476
 4610SOL    HW225467   0.333   0.409   2.142  0.1173  1.1120 -0.4388
 4611SOL     OW25468   0.258   0.147   3.146  0.1803  0.3019 -0.1707
 4611SOL    HW125469   0.256   0.089   3.069  0.8111  2.0389 -1.4949
 4611SOL    HW225470   0.188   0.210   3.129 -0.2291  0.1896  1.0736
 4612SOL     OW25471   3.508   4.505   2.053  0.1955 -0.3645 -0.0207
 4612SOL    HW125472   3.570   4.574   2.029 -0.6215  0.6681  0.8252
 4612SOL    HW225473   3.566   4.429   2.045 -1.3922 -1.5614 -0.1105
 4613SOL     OW25474   3.862   1.337   0.619  0.1005  0.0676  0.2291
 4613SOL    HW125475   3.914   1.292   0.685  0.6581  2.3056  1.2986
 4613SOL    HW225476   3.912   1.418   0.622  2.1927 -1.2322  0.7547
 4614SOL     OW25477   4.549   2.816   5.335  0.2370 -0.3236  0.0935
 4614SOL    HW125478   4.552   2.865   5.417 -0.0168  3.0451 -1.8971
 4614SOL    HW225479   4.496   2.867   5.274 -1.3545 -2.1971 -0.0904
 4615SOL     OW25480   2.617   1.191  12.148 -0.0244 -0.0028  0.5261
 4615SOL    HW125481   2.689   1.134  12.119 -1.9697 -1.4319 -1.5144
 4615SOL    HW225482   2.669   1.268  12.169 -1.9933  1.1382  1.1976
 4616SOL     OW25483   2.807   1.236  11.446  0.1553  0.1407  0.2521
 4616SOL    HW125484   2.777   1.287  11.521 -1.9772 -0.8262  0.0426
 4616SOL    HW225485   2.899   1.263  11.444 -0.2170  1.5120  1.4054
 4617SOL     OW25486   1.072   4.396   8.185 -0.1092 -0.5093 -0.2025
 4617SOL    HW125487   1.049   4.481   8.147  1.4599  0.9629  2.1411
 4617SOL    HW225488   1.138   4.430   8.246  1.1068 -2.8914 -0.1688
 4618SOL     OW25489   3.361   0.181   6.330 -0.2516  0.3210  0.1110
 4618SOL    HW125490   3.299   0.251   6.348 -1.0551 -0.7373  1.4989
 4618SOL    HW225491   3.305   0.105   6.348  1.9946 -1.4783 -0.3710
 4619SOL     OW25492   0.998   2.838   8.823  0.1173  0.3744 -0.3024
 4619SOL    HW125493   0.917   2.862   8.777 -0.6284  1.1304  1.4241
 4619SOL    HW225494   1.022   2.766   8.764  1.1340 -0.1167  0.7215
 4620SOL     OW25495   0.339   1.747  14.059 -0.1787  0.1995  0.2397
 4620SOL    HW125496   0.293   1.824  14.094 -0.7306  0.7747 -1.7177
 4620SOL    HW225497   0.274   1.676  14.061  0.2063 -0.0897  1.8017
 4621SOL     OW25498   0.514   3.643   3.894 -0.1004  0.5353  0.1455
 4621SOL    HW125499   0.552   3.696   3.964 -0.8675 -0.0765  1.0117
 4621SOL    HW225500   0.437   3.697   3.876 -0.4636  0.3124  1.0556
 4622SOL     OW25501   0.187   0.580   1.507  0.1194  0.2616 -0.5286
 4622SOL    HW125502   0.147   0.580   1.420  1.3871  0.4399 -1.1137
 4622SOL    HW225503   0.280   0.601   1.496  0.1467  0.4746  0.0882
 4623SOL     OW25504   2.392   3.322  11.840  0.4256  0.4729 -0.3016
 4623SOL    HW125505   2.349   3.239  11.860 -0.0407  0.6381 -0.6094
 4623SOL    HW225506   2.482   3.294  11.854  0.6416  0.9661 -0.6796
 4624SOL     OW25507   3.487   3.618  11.469  0.1169  0.2486  0.3190
 4624SOL    HW125508   3.524   3.601  11.556 -1.6698 -2.4636  0.5585
 4624SOL    HW225509   3.425   3.545  11.471  0.1713  0.2282  1.7178
 4625SOL     OW25510   4.487   1.232   4.690  0.0706 -0.1924 -0.9931
 4625SOL    HW125511   4.421   1.275   4.636 -0.7836 -0.0287  0.1728
 4625SOL    HW225512   4.548   1.304   4.675  3.0710 -2.6621 -0.7216
 4626SOL     OW25513   4.170   4.240  12.460  0.1023 -0.3928 -0.3125
 4626SOL    HW125514   4.248   4.194  12.490 -0.7157 -1.9748 -0.6275
 4626SOL    HW225515   4.178   4.211  12.369 -0.9158  1.8502 -1.1146
 4627SOL     OW25516   4.024   4.621  11.284 -1.0480  0.3096  0.5907
 4627SOL    HW125517   4.117   4.637  11.270 -1.4001  0.9036 -1.0566
 4627SOL    HW225518   4.027   4.542  11.338 -1.0709 -1.0197 -1.3582
 4628SOL     OW25519   4.308   0.905   6.490  0.2706 -0.1635 -0.2769
 4628SOL    HW125520   4.313   0.991   6.448 -1.4846  0.1883  0.2429
 4628SOL    HW225521   4.329   0.908   6.583  2.3506 -0.9220 -0.7203
 4629SOL     OW25522   0.611   1.352   5.808  0.5730  0.0112 -0.0298
 4629SOL    HW125523   0.521   1.383   5.810 -0.1656 -2.2307  0.7223
 4629SOL    HW225524   0.595   1.262   5.778 -1.3758  1.2950 -2.8620
 4630SOL     OW25525   2.955   0.744  12.531  0.1865  0.3179  0.1521
 4630SOL    HW125526   2.967   0.734  12.626  0.4838 -1.6565 -0.0985
 4630SOL    HW225527   2.905   0.665  12.510 -0.7664  0.8678  0.3524
 4631SOL     OW25528   1.861   0.109   2.421 -0.2086 -0.3616 -0.4783
 4631SOL    HW125529   1.901   0.187   2.461  2.1659 -0.5771 -2.4164
 4631SOL    HW225530   1.921   0.035   2.427  0.5779  0.3275  0.0945
 4632SOL     OW25531   0.473   4.373   0.782 -0.3760 -0.1302  0.6250
 4632SOL    HW125532   0.480   4.290   0.734 -1.0342 -1.0438  2.0931
 4632SOL    HW225533   0.397   4.406   0.735 -1.5797  0.2021  2.7844
 4633SOL     OW25534   0.912   4.352  15.439 -0.0822  0.1134  0.0971
 4633SOL    HW125535   0.860   4.409  15.496  1.1998  1.3036  0.0704
 4633SOL    HW225536   1.001   4.364  15.474 -1.5188  2.7442  2.8546
 4634SOL     OW25537   0.620   1.196   3.445 -0.1186  0.3968 -0.1192
 4634SOL    HW125538   0.580   1.134   3.384  0.9567  1.5030 -1.9716
 4634SOL    HW225539   0.662   1.131   3.502 -0.6785  2.7609  2.9987
 4635SOL     OW25540   2.564   3.606   2.981  0.3780 -0.2756  0.0326
 4635SOL    HW125541   2.494   3.568   2.926 -0.9450  1.7695  0.3054
 4635SOL    HW225542   2.569   3.696   2.949 -1.3563 -0.0104  0.5033
 4636SOL     OW25543   0.321   4.473   7.329 -0.1986 -0.8169  0.3236
 4636SOL    HW125544   0.370   4.498   7.407 -1.9150 -0.4577  1.2930
 4636SOL    HW225545   0.340   4.548   7.272 -0.6664 -1.4226 -0.6343
 4637SOL     OW25546   0.809   1.523   2.535  0.0630  0.5491  0.3034
 4637SOL    HW125547   0.855   1.472   2.469 -3.2743  1.2541 -2.6412
 4637SOL    HW225548   0.785   1.457   2.600  0.0531  0.7600  0.5144
 4638SOL     OW25549   4.362   4.494   5.224 -0.5415 -0.4364 -0.0177
 4638SOL    HW125550   4.314   4.505   5.305 -0.6785  0.2751 -0.1916
 4638SOL    HW225551   4.451   4.463   5.241 -0.1919  0.2406 -0.5827
 4639SOL     OW25552   4.669   1.881   0.837 -0.4942  0.3708 -0.4580
 4639SOL    HW125553   4.631   1.866   0.923 -0.3973 -2.0573 -0.8588
 4639SOL    HW225554   0.021   1.897   0.873 -0.4281  0.8220 -0.8151
 4640SOL     OW25555   3.005   1.095   9.059  0.3544  0.3658  0.2537
 4640SOL    HW125556   3.030   1.187   9.048  1.1067 -0.1701 -2.5531
 4640SOL    HW225557   2.970   1.095   9.148 -1.3239 -0.2238 -0.4064
 4641SOL     OW25558   1.793   2.473   8.074 -0.1576  0.4959 -0.3792
 4641SOL    HW125559   1.768   2.399   8.019 -1.1064  1.3478 -1.0908
 4641SOL    HW225560   1.708   2.490   8.115  0.2579  0.3391  0.5527
 4642SOL     OW25561   0.789   1.363   6.179 -0.4540 -0.2032  0.0671
 4642SOL    HW125562   0.782   1.279   6.134  1.2549 -1.1984  1.6399
 4642SOL    HW225563   0.880   1.354   6.210 -0.7383  0.8930  1.2338
 4643SOL     OW25564   4.504   2.282   8.672 -0.1090 -0.2838 -0.2530
 4643SOL    HW125565   4.410   2.286   8.689 -0.4187  0.9099 -2.2984
 4643SOL    HW225566   4.501   2.203   8.618  2.1184 -1.7438  1.7149
 4644SOL     OW25567   1.472   2.528  16.018 -0.4670  0.2981 -0.1393
 4644SOL    HW125568   1.541   2.467  15.991 -0.8048  0.6637 -1.8487
 4644SOL    HW225569   1.436   2.492  16.099 -1.0364  1.7543  0.2525
 4645SOL     OW25570   4.070   4.009   4.385 -0.6557  0.4100  0.1564
 4645SOL    HW125571   4.165   4.012   4.400 -0.7815  2.3403  0.6241
 4645SOL    HW225572   4.062   4.021   4.291  0.4423 -2.0830 -0.2591
 4646SOL     OW25573   0.905   0.619  11.666  0.4664  0.5182  0.4472
 4646SOL    HW125574   0.985   0.608  11.615 -0.1351 -0.3947 -0.3131
 4646SOL    HW225575   0.937   0.635  11.755  0.8498  0.4891  0.3124
 4647SOL     OW25576   2.616   0.569   8.986  0.2040 -0.0640 -0.3671
 4647SOL    HW125577   2.619   0.619   8.905 -2.1339  0.1731 -0.2963
 4647SOL    HW225578   2.690   0.508   8.979  1.7214  1.6605  0.5840
 4648SOL     OW25579   2.980   4.435  12.576  0.1864 -0.0802  0.2397
 4648SOL    HW125580   2.993   4.340  12.577 -0.4890 -0.1805 -0.3215
 4648SOL    HW225581   2.890   4.450  12.606 -0.5843 -0.6118 -1.8366
 4649SOL     OW25582   0.993   0.410   4.816  0.2700  0.1059 -0.1827
 4649SOL    HW125583   0.939   0.489   4.823 -0.7268 -0.6257  0.4328
 4649SOL    HW225584   0.922   0.351   4.794  1.6993 -1.8051  0.2838
 4650SOL     OW25585   4.505   0.782  16.287  0.0486  0.4097  0.7959
 4650SOL    HW125586   4.490   0.741  16.201  0.0637 -0.0352  1.0043
 4650SOL    HW225587   4.445   0.856  16.277  1.3839  1.2492 -0.9970
 4651SOL     OW25588   2.650   4.152  17.183  0.1351  0.4442 -0.0768
 4651SOL    HW125589   2.707   4.145  17.106 -1.1272  0.5153 -1.0202
 4651SOL    HW225590   2.693   4.228  17.223  0.7552  0.2451 -0.3540
 4652SOL     OW25591   1.771   1.560   0.180 -1.4623  0.3129  0.3136
 4652SOL    HW125592   1.732   1.532   0.263  0.3692  0.1127  1.1069
 4652SOL    HW225593   1.864   1.557   0.204 -1.4365  0.8137  0.2835
 4653SOL     OW25594   1.502   1.835   8.408  0.6898  0.4245 -0.5326
 4653SOL    HW125595   1.511   1.857   8.315 -1.9090  2.0470 -0.4127
 4653SOL    HW225596   1.568   1.771   8.433 -0.5542 -0.0859  1.4879
 4654SOL     OW25597   3.364   0.974  12.475 -0.2724  0.6400  0.3115
 4654SOL    HW125598   3.434   0.961  12.540 -0.0782  0.4834  0.0707
 4654SOL    HW225599   3.408   0.935  12.399  0.5016 -0.3454  1.2741
 4655SOL     OW25600   2.472   0.488   3.609 -0.1366  0.3206 -0.1225
 4655SOL    HW125601   2.526   0.431   3.555  0.1640 -2.9288  3.5639
 4655SOL    HW225602   2.455   0.560   3.548  0.7395  0.0216 -0.7118
 4656SOL     OW25603   0.772   0.976   4.294  0.1429 -0.2773 -0.4623
 4656SOL    HW125604   0.696   0.960   4.351 -0.9765  2.3620 -1.1964
 4656SOL    HW225605   0.724   1.007   4.217 -0.8232  2.6279  1.3005
 4657SOL     OW25606   2.024   2.072   2.846  0.3045  0.0871 -0.3418
 4657SOL    HW125607   2.009   2.022   2.766  0.1570  0.5508 -0.6026
 4657SOL    HW225608   1.960   2.142   2.843  1.4680  1.2155  1.2109
 4658SOL     OW25609   2.837   2.344   7.109  0.0698  0.5033  0.3079
 4658SOL    HW125610   2.857   2.413   7.173  0.0904  0.5503  0.2513
 4658SOL    HW225611   2.809   2.389   7.030 -1.3820 -1.6106 -0.3533
 4659SOL     OW25612   2.881   2.096   6.551  0.7931 -0.6107 -0.1066
 4659SOL    HW125613   2.912   2.161   6.613 -0.2922  0.5444 -0.7667
 4659SOL    HW225614   2.966   2.062   6.524  1.0105 -1.5524  1.7579
 4660SOL     OW25615   3.970   3.952   5.877 -0.7512 -0.3033 -0.8229
 4660SOL    HW125616   3.994   3.861   5.890  0.3390  0.0736 -0.1577
 4660SOL    HW225617   3.900   3.969   5.939  0.9778  0.5973  0.8811
 4661SOL     OW25618   3.669   0.981  16.320  0.2793 -0.1610 -0.0094
 4661SOL    HW125619   3.709   1.036  16.387  1.0890  2.1627 -2.4225
 4661SOL    HW225620   3.730   0.907  16.321  0.1068 -0.3142 -0.8653
 4662SOL     OW25621   2.139   0.884   7.695 -0.0501  0.1970 -0.1588
 4662SOL    HW125622   2.107   0.821   7.630 -1.9458  1.6317 -0.6269
 4662SOL    HW225623   2.083   0.955   7.663  1.1140  1.1186 -0.1537
 4663SOL     OW25624   0.037   2.247  14.067  0.4782 -0.2966  0.2648
 4663SOL    HW125625   0.074   2.299  14.138 -1.5770 -0.4071  1.4170
 4663SOL    HW225626   4.713   2.185  14.110 -1.9433  1.9111  0.1342
 4664SOL     OW25627   1.375   0.976   7.130  0.0698  0.3342  0.2506
 4664SOL    HW125628   1.363   0.895   7.082 -0.5322 -0.6236  2.0170
 4664SOL    HW225629   1.358   1.038   7.059  1.4507 -0.0606 -0.4126
 4665SOL     OW25630   0.271   2.079   9.761 -0.7329 -0.4135 -0.2277
 4665SOL    HW125631   0.321   2.006   9.796  3.6795  3.0554  0.6503
 4665SOL    HW225632   0.281   2.140   9.835 -1.8848 -0.4321 -0.0447
 4666SOL     OW25633   2.269   2.782  16.274  0.1065  0.5181 -0.1256
 4666SOL    HW125634   2.298   2.764  16.364 -0.6218 -0.6052 -0.1182
 4666SOL    HW225635   2.322   2.717  16.230  1.7356  2.0893 -0.5062
 4667SOL     OW25636   4.060   4.226   2.331 -0.3929 -0.7068  0.2863
 4667SOL    HW125637   4.029   4.223   2.421  0.1956 -1.4693  0.4591
 4667SOL    HW225638   4.047   4.134   2.308 -2.2524 -0.4286  0.2441
 4668SOL     OW25639   2.621   3.587   8.980 -0.7004  0.7683  0.3273
 4668SOL    HW125640   2.704   3.549   8.951 -0.5206  0.7402  0.8800
 4668SOL    HW225641   2.638   3.681   8.971  1.5887  0.3658  0.4480
 4669SOL     OW25642   1.380   4.061   0.775 -0.2888  0.1440 -0.1468
 4669SOL    HW125643   1.318   4.126   0.806 -0.4370 -0.2416  0.3571
 4669SOL    HW225644   1.397   4.106   0.692 -0.9306  0.9871  0.1839
 4670SOL     OW25645   1.488   1.555   7.050 -0.1981 -0.0439 -0.1308
 4670SOL    HW125646   1.490   1.472   7.097 -0.5588 -1.1349 -2.0602
 4670SOL    HW225647   1.423   1.604   7.102  1.4803  1.5983  0.4229
 4671SOL     OW25648   0.015   1.692   6.482  0.1723 -0.3356 -1.0846
 4671SOL    HW125649   4.710   1.616   6.440  2.4621 -1.3598 -1.4205
 4671SOL    HW225650   0.104   1.682   6.448  1.4519  1.4374  1.6801
 4672SOL     OW25651   3.606   3.688   8.201 -0.3366 -0.4648  0.0122
 4672SOL    HW125652   3.643   3.740   8.130  0.6085 -1.4857 -0.2459
 4672SOL    HW225653   3.593   3.756   8.267  1.2532 -0.8086  0.6867
 4673SOL     OW25654   2.094   3.095   4.716 -0.7506 -0.0877  0.5787
 4673SOL    HW125655   2.086   3.031   4.645  0.6868  0.5104 -0.1099
 4673SOL    HW225656   2.024   3.149   4.679  0.9522  2.3298  0.9225
 4674SOL     OW25657   3.074   3.309  16.873  0.3384  0.4376 -0.5437
 4674SOL    HW125658   3.024   3.322  16.954  0.4344 -3.3112  0.1187
 4674SOL    HW225659   3.054   3.395  16.835 -1.2169  1.0697  1.6533
 4675SOL     OW25660   2.545   2.177   8.099  0.0835  0.0324  0.0241
 4675SOL    HW125661   2.498   2.253   8.066  1.2941  0.0494 -1.6508
 4675SOL    HW225662   2.559   2.197   8.192  0.6631 -0.8947  0.1282
 4676SOL     OW25663   0.307   0.851   2.473  0.3790 -0.2782  0.0539
 4676SOL    HW125664   0.239   0.787   2.451  0.4734 -0.6792  0.9058
 4676SOL    HW225665   0.339   0.867   2.385 -0.1060 -0.9863 -0.2501
 4677SOL     OW25666   1.727   3.392   9.677 -0.1651  0.0971 -0.0906
 4677SOL    HW125667   1.641   3.426   9.701 -0.4168  0.4007 -1.4337
 4677SOL    HW225668   1.781   3.424   9.749  0.6878 -2.7999  0.5848
 4678SOL     OW25669   1.419   4.181   0.543  0.4151 -0.1179  0.3318
 4678SOL    HW125670   1.371   4.211   0.465  1.6430 -1.9521 -1.1258
 4678SOL    HW225671   1.501   4.229   0.532 -0.9848  2.5731  1.5373
 4679SOL     OW25672   1.480   1.561  16.244 -0.1702 -0.0129  0.6494
 4679SOL    HW125673   1.412   1.544  16.179 -0.7856  1.0738  1.0044
 4679SOL    HW225674   1.551   1.523  16.192 -1.5984 -0.9528 -0.6026
 4680SOL     OW25675   3.194   4.033   9.644 -0.2850 -0.1918  0.0439
 4680SOL    HW125676   3.141   4.042   9.565  0.2573 -1.5494 -0.4612
 4680SOL    HW225677   3.277   4.073   9.620  0.3988 -3.2188 -2.5544
 4681SOL     OW25678   1.700   4.525  17.281 -0.2265  0.4067  0.4798
 4681SOL    HW125679   1.678   4.432  17.277 -2.1012  0.9247 -0.8320
 4681SOL    HW225680   1.691   4.554  17.190  2.5341 -0.5940 -0.1375
 4682SOL     OW25681   3.897   2.531   5.060 -0.3647  0.0492 -0.4466
 4682SOL    HW125682   3.871   2.563   5.147 -2.1333  2.2136 -1.7498
 4682SOL    HW225683   3.819   2.552   5.008  0.6069  0.4898 -1.7218
 4683SOL     OW25684   1.137   3.183   4.772  0.5209 -0.2054  0.0984
 4683SOL    HW125685   1.062   3.138   4.810  0.3250 -1.2650 -1.5564
 4683SOL    HW225686   1.157   3.116   4.707  2.0197 -0.1996  0.5476
 4684SOL     OW25687   0.647   0.760   5.534 -0.3108 -0.1547 -0.2514
 4684SOL    HW125688   0.735   0.723   5.531  0.2276  1.0694  0.3138
 4684SOL    HW225689   0.664   0.854   5.540 -0.6071 -0.2317  1.9689
 4685SOL     OW25690   0.845   1.725   3.798  0.0404 -0.1974  0.4030
 4685SOL    HW125691   0.795   1.663   3.851 -1.9204  0.3223 -0.8403
 4685SOL    HW225692   0.828   1.685   3.713  1.3030  2.2986 -1.0222
 4686SOL     OW25693   3.701   2.340   6.991  0.3893 -0.0076 -0.2649
 4686SOL    HW125694   3.751   2.269   6.952  0.4285 -0.5504  0.7711
 4686SOL    HW225695   3.738   2.345   7.079  0.0377 -1.2454 -0.0456
 4687SOL     OW25696   2.753   0.557  11.553 -0.0374  0.0698  0.9923
 4687SOL    HW125697   2.702   0.508  11.489  0.7217 -0.5186  0.8414
 4687SOL    HW225698   2.712   0.643  11.539  0.6338  0.2561  0.1112
 4688SOL     OW25699   4.509   4.532   8.325  0.3431  0.2080  0.2790
 4688SOL    HW125700   4.555   4.568   8.250  1.4007 -2.0969 -0.1824
 4688SOL    HW225701   4.522   4.438   8.315  1.3917  0.4219 -0.3520
 4689SOL     OW25702   0.653   1.531   8.036 -0.1356  0.6375  0.2345
 4689SOL    HW125703   0.574   1.522   8.090  0.2944  1.7155  1.0571
 4689SOL    HW225704   0.623   1.483   7.959  2.3881  0.0192 -0.3723
 4690SOL     OW25705   3.111   4.709   8.347  0.2516  0.1533 -0.0729
 4690SOL    HW125706   3.111   4.685   8.254  0.5269 -2.6386  0.6306
 4690SOL    HW225707   3.204   4.712   8.370 -0.1497  1.0535  1.4177
 4691SOL     OW25708   0.385   0.947  10.718  0.3752 -0.3845  0.3764
 4691SOL    HW125709   0.300   0.930  10.676  0.2875 -0.4026  0.5586
 4691SOL    HW225710   0.430   1.004  10.656 -0.8416 -0.9600 -1.0327
 4692SOL     OW25711   1.582   2.248   2.418  0.0804  0.0249 -0.2166
 4692SOL    HW125712   1.497   2.292   2.408  0.1320  0.0792 -0.4232
 4692SOL    HW225713   1.625   2.288   2.342 -0.9675 -1.0084 -1.3558
 4693SOL     OW25714   3.775   0.864   9.349  0.2498  0.6062 -0.1835
 4693SOL    HW125715   3.828   0.930   9.304  1.8869 -0.5988 -0.0023
 4693SOL    HW225716   3.834   0.832   9.417 -1.0132  0.8850  1.0525
 4694SOL     OW25717   0.869   2.290   8.030 -0.5102  0.0476 -0.8829
 4694SOL    HW125718   0.837   2.307   8.118  1.2326 -1.6113  0.0815
 4694SOL    HW225719   0.873   2.378   7.993  0.2723 -0.0766 -1.0938
 4695SOL     OW25720   0.440   1.288   6.067 -0.9116  0.0381 -0.0020
 4695SOL    HW125721   0.461   1.331   5.984 -0.7858 -0.6004 -0.3007
 4695SOL    HW225722   0.469   1.200   6.045 -1.4366  0.0441 -0.6956
 4696SOL     OW25723   3.215   2.468  11.013 -0.7777  0.6619  0.1620
 4696SOL    HW125724   3.124   2.497  11.015 -1.0785 -0.3606  1.0371
 4696SOL    HW225725   3.229   2.463  10.918  3.8732  1.5095  0.8064
 4697SOL     OW25726   1.372   2.460  10.049 -0.5682  0.5991 -0.4883
 4697SOL    HW125727   1.370   2.483  10.142 -1.0073  2.1603 -0.8967
 4697SOL    HW225728   1.319   2.530  10.011  1.7877  1.6181 -1.8877
 4698SOL     OW25729   1.539   3.825   6.389 -0.4394  0.1840 -0.3443
 4698SOL    HW125730   1.457   3.875   6.389 -0.2032  0.5719  0.0146
 4698SOL    HW225731   1.601   3.875   6.335  1.4845 -2.4452 -0.5630
 4699SOL     OW25732   1.073   1.186  14.822 -0.3987  0.4127 -0.2443
 4699SOL    HW125733   1.024   1.106  14.844  0.9056  0.4253  2.6704
 4699SOL    HW225734   1.008   1.241  14.778  0.5151  1.2834 -0.5110
 4700SOL     OW25735   4.481   2.243   1.278  0.8856 -0.0999  0.4096
 4700SOL    HW125736   4.525   2.307   1.335  1.5940  0.1509 -0.4223
 4700SOL    HW225737   4.444   2.299   1.211  3.9391  0.9609 -0.3982
 4701SOL     OW25738   1.136   1.296   8.999  0.3572  0.0990  0.0368
 4701SOL    HW125739   1.213   1.335   8.958 -1.3300  1.6343 -1.6870
 4701SOL    HW225740   1.100   1.247   8.926  1.0164 -0.9544  0.4213
 4702SOL     OW25741   4.586   3.850   4.448 -0.4439  0.3194  0.0756
 4702SOL    HW125742   4.543   3.779   4.496 -1.4710  0.9410  0.0738
 4702SOL    HW225743   4.536   3.856   4.366  0.3970  0.2631 -0.4370
 4703SOL     OW25744   3.020   1.087   8.132 -0.2650  0.5582 -0.2807
 4703SOL    HW125745   3.056   1.119   8.215 -1.1673 -1.1099  0.7352
 4703SOL    HW225746   2.926   1.104   8.142  0.0970  0.0394  3.9844
 4704SOL     OW25747   2.265   1.149  10.179  0.0397 -0.4163 -0.0330
 4704SOL    HW125748   2.215   1.201  10.242  1.6536  0.7607  0.2636
 4704SOL    HW225749   2.193   1.118  10.123 -0.6486 -1.5653  1.4950
 4705SOL     OW25750   2.252   0.592  11.362  0.3523  0.5344  0.8792
 4705SOL    HW125751   2.198   0.661  11.401  1.7838  0.6511  2.6477
 4705SOL    HW225752   2.289   0.557  11.443  0.3903 -1.5853 -0.0560
 4706SOL     OW25753   0.982   2.961  16.772  0.2070  0.0421 -0.0472
 4706SOL    HW125754   1.012   2.878  16.734  0.0922  0.3206 -0.7311
 4706SOL    HW225755   0.995   3.022  16.700  1.1722 -2.9321 -2.4276
 4707SOL     OW25756   4.112   1.556   2.547  0.0702  0.1874  0.0848
 4707SOL    HW125757   4.207   1.569   2.550  0.3722 -1.7768 -1.2018
 4707SOL    HW225758   4.078   1.621   2.485  0.5473  0.2905 -0.0715
 4708SOL     OW25759   2.325   1.868   4.263 -0.0050 -0.2003  0.5851
 4708SOL    HW125760   2.362   1.800   4.207  1.3672  0.3583  0.8122
 4708SOL    HW225761   2.394   1.899   4.321  0.7797  1.1015 -1.0434
 4709SOL     OW25762   3.945   2.559   2.519  0.4198  0.7079  0.6928
 4709SOL    HW125763   3.855   2.591   2.512  0.3635  0.1386 -1.1840
 4709SOL    HW225764   3.961   2.589   2.609  1.8724  2.5804 -0.2116
 4710SOL     OW25765   3.619   1.688   4.561 -0.5956 -0.0549 -0.4890
 4710SOL    HW125766   3.539   1.654   4.522 -1.7175 -0.0682  1.8276
 4710SOL    HW225767   3.621   1.624   4.632  0.6219  1.5374  0.9042
 4711SOL     OW25768   2.455   0.419   4.218 -0.0664 -0.0862  0.3696
 4711SOL    HW125769   2.366   0.455   4.221 -0.8446 -2.0223  0.5572
 4711SOL    HW225770   2.442   0.331   4.253 -0.9259 -0.5435 -1.1022
 4712SOL     OW25771   1.700   3.313   5.344 -0.1277  0.0751  0.3132
 4712SOL    HW125772   1.630   3.278   5.289 -0.6427  0.9698  0.3978
 4712SOL    HW225773   1.654   3.298   5.427 -0.6878 -3.5412 -0.6551
 4713SOL     OW25774   4.495   1.269   2.082  0.7610  0.9711 -0.5671
 4713SOL    HW125775   4.571   1.313   2.044  3.1876 -2.1819  0.6417
 4713SOL    HW225776   4.473   1.335   2.147 -1.0634 -0.3718  0.1648
 4714SOL     OW25777   3.657   1.978   8.689  0.0211 -0.4707  0.3319
 4714SOL    HW125778   3.714   1.930   8.750  2.2881  0.5130 -0.9929
 4714SOL    HW225779   3.684   2.067   8.713 -1.8222  0.0814  0.3179
 4715SOL     OW25780   4.198   2.876   8.433 -0.4064 -0.3490  0.4684
 4715SOL    HW125781   4.147   2.928   8.371 -0.3182 -1.8195 -0.8391
 4715SOL    HW225782   4.130   2.824   8.476 -0.6167  0.9617  1.7492
 4716SOL     OW25783   3.379   1.017   7.376 -0.0060 -0.7649  0.1940
 4716SOL    HW125784   3.303   0.975   7.335  1.6778 -2.1403 -1.5089
 4716SOL    HW225785   3.343   1.012   7.465 -0.2269 -3.1322 -0.0173
 4717SOL     OW25786   3.276   3.119   8.835  0.2033  0.2218 -0.1583
 4717SOL    HW125787   3.354   3.110   8.890  1.1779 -1.4167 -1.8180
 4717SOL    HW225788   3.277   3.214   8.821 -0.4421  0.2607  0.0649
 4718SOL     OW25789   0.222   3.433  15.300  0.1781 -0.4593 -0.3740
 4718SOL    HW125790   0.276   3.442  15.379 -0.5383  2.5782 -0.2416
 4718SOL    HW225791   0.292   3.396  15.245 -1.3256  0.2510 -2.7601
 4719SOL     OW25792   0.939   1.509   3.469 -0.5862 -0.8216 -0.3539
 4719SOL    HW125793   0.983   1.498   3.553 -0.9841 -0.4719 -0.1010
 4719SOL    HW225794   0.998   1.456   3.415 -1.3041 -0.2308 -1.7117
 4720SOL     OW25795   2.161   1.004  16.088  0.0879 -0.1310  0.0570
 4720SOL    HW125796   2.112   1.076  16.050 -0.3622  0.4445  1.7129
 4720SOL    HW225797   2.232   0.992  16.025  0.9226  0.3037  0.9061
 4721SOL     OW25798   2.825   2.444   1.448  0.6807  0.6207  0.1477
 4721SOL    HW125799   2.745   2.401   1.417  0.9664  0.9618 -1.0629
 4721SOL    HW225800   2.845   2.484   1.363 -1.4742  1.4497  0.0405
 4722SOL     OW25801   4.559   1.192  12.481 -0.1085 -0.2398 -0.3233
 4722SOL    HW125802   4.558   1.243  12.562 -1.7461 -0.9153  0.0884
 4722SOL    HW225803   4.614   1.123  12.519 -1.1247  0.3896  2.3148
 4723SOL     OW25804   0.113   3.714   6.711  0.0877  0.0640 -0.1717
 4723SOL    HW125805   0.175   3.766   6.763 -0.9336  0.1037  0.9991
 4723SOL    HW225806   0.031   3.755   6.736 -0.1489  0.1395 -1.0790
 4724SOL     OW25807   3.124   1.911   4.455  0.1424 -0.2404  0.1546
 4724SOL    HW125808   3.109   2.006   4.451 -0.0904 -0.2607  0.4931
 4724SOL    HW225809   3.040   1.884   4.492  0.0066 -0.1448 -0.0913
 4725SOL     OW25810   0.122   1.831  11.191 -0.0599  0.4138  0.0933
 4725SOL    HW125811   0.147   1.756  11.137 -2.0342 -0.3009  0.1524
 4725SOL    HW225812   0.203   1.858  11.233  1.3990 -1.7050 -1.3407
 4726SOL     OW25813   0.580   1.991  16.548  0.1962 -0.4376  0.1145
 4726SOL    HW125814   0.492   1.998  16.585 -0.3085  1.6557 -1.4552
 4726SOL    HW225815   0.625   1.950  16.622  1.1950 -0.4891 -0.5240
 4727SOL     OW25816   3.939   0.170   1.608  0.1523  0.3978 -0.1670
 4727SOL    HW125817   3.929   0.090   1.557  1.6540  1.7096 -2.4892
 4727SOL    HW225818   3.852   0.188   1.643 -0.6028  0.3542 -2.0561
 4728SOL     OW25819   0.776   2.815  16.886  0.3590  0.6007  0.6380
 4728SOL    HW125820   0.866   2.848  16.880  0.2010  1.2100  1.6873
 4728SOL    HW225821   0.734   2.892  16.847  2.8641  0.6750 -1.9457
 4729SOL     OW25822   3.841   4.567  16.470 -0.0357  0.2021  0.0315
 4729SOL    HW125823   3.852   4.606  16.383 -0.3249 -2.2670 -1.1003
 4729SOL    HW225824   3.799   4.484  16.450  1.1178 -0.5529  0.7721
 4730SOL     OW25825   3.308   1.653   4.031 -0.3355  0.0461  0.4218
 4730SOL    HW125826   3.394   1.689   4.009 -0.2049 -1.5336 -1.6726
 4730SOL    HW225827   3.254   1.684   3.959  1.6736 -1.8274 -1.9033
 4731SOL     OW25828   0.526   0.831   3.901 -0.0815  1.1481  0.3172
 4731SOL    HW125829   0.463   0.759   3.907 -0.8004  1.6406 -1.4147
 4731SOL    HW225830   0.467   0.900   3.930 -0.4782  0.9015  0.0935
 4732SOL     OW25831   1.188   0.960   2.135 -0.2744  0.3373  0.1355
 4732SOL    HW125832   1.168   1.052   2.119 -0.0504  0.9581  3.4145
 4732SOL    HW225833   1.183   0.926   2.046  0.7308 -2.7714  1.2689
 4733SOL     OW25834   4.539   3.066  15.189  0.5389 -0.2029  0.0340
 4733SOL    HW125835   4.555   3.009  15.265  0.2182 -2.4217 -1.5644
 4733SOL    HW225836   4.617   3.120  15.179  0.4133 -0.0779 -0.2691
 4734SOL     OW25837   3.169   4.345   3.468 -0.1955 -0.0584  0.1394
 4734SOL    HW125838   3.098   4.313   3.413 -0.1120 -0.5924  0.3452
 4734SOL    HW225839   3.245   4.348   3.410 -0.0698  1.3671  0.3877
 4735SOL     OW25840   4.266   4.158   7.537  0.2162 -0.3086  0.2762
 4735SOL    HW125841   4.226   4.082   7.495  1.3749  0.3440 -1.9674
 4735SOL    HW225842   4.311   4.194   7.462  2.6185 -0.9018  1.4433
 4736SOL     OW25843   3.457   3.688   6.299 -0.4463  0.4730 -0.0004
 4736SOL    HW125844   3.414   3.774   6.293  1.2216  1.3157  0.2985
 4736SOL    HW225845   3.475   3.675   6.392 -0.1981 -0.5910 -0.1998
 4737SOL     OW25846   1.109   3.219   8.453  0.0609 -0.5538  0.8501
 4737SOL    HW125847   1.128   3.187   8.541  1.6183 -0.8671  0.3935
 4737SOL    HW225848   1.191   3.266   8.442  0.5435 -1.6552 -0.1328
 4738SOL     OW25849   2.000   2.631  13.642 -0.0235  0.4129  0.0783
 4738SOL    HW125850   2.033   2.659  13.557 -0.3853  1.4959  0.3011
 4738SOL    HW225851   1.922   2.582  13.617  0.2250  0.7012 -1.2284
 4739SOL     OW25852   2.271   2.051   6.568 -0.0038 -0.0530 -0.1868
 4739SOL    HW125853   2.201   2.104   6.605 -0.4931 -0.4476 -0.5473
 4739SOL    HW225854   2.335   2.075   6.635  1.3183 -1.8469 -0.8224
 4740SOL     OW25855   1.267   0.343   4.776  0.4797  0.2406  0.1776
 4740SOL    HW125856   1.291   0.385   4.693  1.6328  0.1834  0.4815
 4740SOL    HW225857   1.180   0.380   4.793 -0.0974 -0.8435 -0.4595
 4741SOL     OW25858   0.684   3.109   2.340 -0.2957  0.0683  0.3149
 4741SOL    HW125859   0.708   3.153   2.421  2.3876 -1.3240  0.2897
 4741SOL    HW225860   0.735   3.166   2.282  1.1210 -1.1789  0.3293
 4742SOL     OW25861   4.504   1.361   5.346 -0.5087 -0.5530  0.6417
 4742SOL    HW125862   4.501   1.411   5.428 -0.6438 -0.3622  0.5190
 4742SOL    HW225863   4.577   1.306   5.374 -0.6481 -1.6552 -1.1370
 4743SOL     OW25864   2.774   1.261   8.472  0.1314  0.0479  0.1899
 4743SOL    HW125865   2.722   1.320   8.526 -0.0400 -0.0974  0.1857
 4743SOL    HW225866   2.861   1.298   8.458  0.6360 -1.7792 -1.6101
 4744SOL     OW25867   3.297   1.332   7.508 -0.6863 -0.0301 -0.4238
 4744SOL    HW125868   3.343   1.341   7.425  0.0579 -0.6512 -0.0725
 4744SOL    HW225869   3.290   1.426   7.524 -0.5976  0.2361 -1.8896
 4745SOL     OW25870   4.484   3.710   0.969  0.6637 -0.1219 -0.1677
 4745SOL    HW125871   4.557   3.759   0.931  0.2942  0.5650  0.0012
 4745SOL    HW225872   4.520   3.628   1.002 -1.0757 -1.0174 -0.4771
 4746SOL     OW25873   1.202   0.776   5.076 -0.0865 -0.6493 -0.0374
 4746SOL    HW125874   1.117   0.794   5.116 -0.4071 -1.0706 -0.5181
 4746SOL    HW225875   1.190   0.808   4.986  2.5006 -0.4053 -0.2884
 4747SOL     OW25876   0.396   0.078   6.459 -0.4302  0.2986 -0.2078
 4747SOL    HW125877   0.449   0.058   6.536 -0.3924  0.7887 -0.1080
 4747SOL    HW225878   0.427   0.007   6.403 -0.0003 -0.2151  0.6972
 4748SOL     OW25879   3.220   4.161  15.782  0.2219  0.4815 -0.3355
 4748SOL    HW125880   3.240   4.197  15.695 -0.2322 -1.2833 -1.1723
 4748SOL    HW225881   3.130   4.131  15.767  0.1751  0.6633 -0.4153
 4749SOL     OW25882   0.154   1.684   9.540  0.0780 -0.2036 -0.2222
 4749SOL    HW125883   0.105   1.629   9.601 -3.1920  3.1831  0.2155
 4749SOL    HW225884   0.084   1.702   9.477 -1.0976 -0.1477  1.1153
 4750SOL     OW25885   2.396   1.002   4.107  0.4338  0.0074 -0.4443
 4750SOL    HW125886   2.389   0.984   4.201  3.1728 -2.5523 -0.7145
 4750SOL    HW225887   2.383   0.911   4.079 -1.8706 -0.5866  2.5783
 4751SOL     OW25888   3.084   1.772   5.781 -0.1613 -0.3370 -0.2913
 4751SOL    HW125889   3.058   1.789   5.871 -0.6900 -3.6239  0.1407
 4751SOL    HW225890   3.161   1.715   5.786  2.6975  3.5433  0.0141
 4752SOL     OW25891   1.415   0.412  16.198 -0.3930 -0.2491 -0.1814
 4752SOL    HW125892   1.408   0.500  16.160 -2.4388  0.9414  2.8926
 4752SOL    HW225893   1.436   0.440  16.287 -0.1312  1.6019 -0.8131
 4753SOL     OW25894   1.147   4.692  11.671  0.1773 -0.5209 -0.4245
 4753SOL    HW125895   1.136   4.663  11.581  1.0146 -2.7657  0.1790
 4753SOL    HW225896   1.134   4.607  11.714  0.6010 -1.0147 -1.2722
 4754SOL     OW25897   2.482   4.070   0.907  0.3226 -0.0410  0.8618
 4754SOL    HW125898   2.531   3.992   0.879  1.3016  0.9628 -0.2128
 4754SOL    HW225899   2.532   4.097   0.985 -0.5027  2.2905  0.5688
 4755SOL     OW25900   0.019   3.079  14.344 -0.1805  0.1804  0.6259
 4755SOL    HW125901   4.684   3.144  14.349 -0.4877 -0.0524 -0.7177
 4755SOL    HW225902   4.706   3.016  14.289  1.0903 -0.7000  0.5228
 4756SOL     OW25903   1.852   1.569   6.764  0.3847 -0.8231  0.0218
 4756SOL    HW125904   1.793   1.625   6.814  1.8179  1.0831 -0.3959
 4756SOL    HW225905   1.782   1.548   6.701  0.0353  0.7731 -0.1248
 4757SOL     OW25906   0.549   3.159   9.501  0.2697 -0.1506 -0.1066
 4757SOL    HW125907   0.505   3.234   9.542 -1.7617 -1.6514  0.4868
 4757SOL    HW225908   0.513   3.167   9.413  1.2327  0.0213 -0.4748
 4758SOL     OW25909   3.715   2.064  10.943 -0.6739  0.0342 -0.3968
 4758SOL    HW125910   3.755   1.991  10.990  0.2180  1.3750  0.9143
 4758SOL    HW225911   3.622   2.074  10.961 -0.8770 -0.0148 -1.3772
 4759SOL     OW25912   2.736   0.410   2.247 -0.1145  0.7387 -0.8799
 4759SOL    HW125913   2.711   0.318   2.258  1.0485  0.1781 -3.0754
 4759SOL    HW225914   2.792   0.414   2.170  0.7629  0.0955 -0.2714
 4760SOL     OW25915   3.134   4.644   8.094  0.6769 -0.2881 -0.5847
 4760SOL    HW125916   3.069   4.629   8.025  0.6656 -0.7718 -0.4713
 4760SOL    HW225917   3.218   4.634   8.048  0.3393 -0.6380 -1.1259
 4761SOL     OW25918   4.138   1.683   0.933 -0.3751  0.5818  0.3493
 4761SOL    HW125919   4.183   1.739   0.870  1.1630 -0.7694  0.2627
 4761SOL    HW225920   4.105   1.757   0.984  1.4588  1.3947  0.3430
 4762SOL     OW25921   1.174   1.827   6.109  0.7083  0.1022 -0.2097
 4762SOL    HW125922   1.113   1.785   6.048  0.6213 -1.7359  1.1438
 4762SOL    HW225923   1.259   1.806   6.070  0.8942 -1.4848  1.0460
 4763SOL     OW25924   1.167   1.943   5.089  0.1404  0.2335  0.0949
 4763SOL    HW125925   1.134   1.976   5.173  2.2556 -0.8873  1.3708
 4763SOL    HW225926   1.170   1.850   5.108  0.9578  0.2626  0.1108
 4764SOL     OW25927   2.468   1.575   8.560 -0.1364 -0.1438 -0.5576
 4764SOL    HW125928   2.526   1.650   8.554 -0.0251 -0.2583 -0.9325
 4764SOL    HW225929   2.530   1.505   8.579 -0.6752 -0.4912 -0.0679
 4765SOL     OW25930   1.219   0.008  16.469  0.0446  0.1541  0.1218
 4765SOL    HW125931   1.248   4.699  16.389  0.3298 -0.5099  0.5924
 4765SOL    HW225932   1.292   0.067  16.484  1.3501 -1.0917 -1.3092
 4766SOL     OW25933   0.028   0.302  16.062  0.0402 -0.1890 -0.1708
 4766SOL    HW125934   0.107   0.264  16.101 -0.6720  0.4404  1.8577
 4766SOL    HW225935   4.723   0.222  16.026  1.0746  0.0685 -1.8721
 4767SOL     OW25936   1.840   4.688   5.822  0.1480 -0.7788 -0.2908
 4767SOL    HW125937   1.760   4.658   5.866  1.1262 -4.3166 -0.8737
 4767SOL    HW225938   1.824   0.047   5.826  1.6558 -0.6632  3.5905
 4768SOL     OW25939   3.250   3.748   3.987 -0.2569  0.2298  0.1166
 4768SOL    HW125940   3.264   3.722   4.078  0.0381  0.1618  0.0528
 4768SOL    HW225941   3.156   3.741   3.975 -0.0115  0.4292 -1.8881
 4769SOL     OW25942   2.750   1.419   9.196 -0.4614 -0.0175  0.2646
 4769SOL    HW125943   2.767   1.383   9.109  0.5301 -0.0021  0.4569
 4769SOL    HW225944   2.781   1.352   9.256  0.9793 -0.0254 -0.4911
 4770SOL     OW25945   3.324   1.048  11.679 -0.0589 -0.3969  0.9654
 4770SOL    HW125946   3.347   0.988  11.608 -1.0804 -2.4210  2.3707
 4770SOL    HW225947   3.230   1.035  11.689 -0.4019  0.6859 -0.7725
 4771SOL     OW25948   2.717   1.789   8.813  0.2597  0.1141 -0.5595
 4771SOL    HW125949   2.672   1.720   8.862  0.9719  0.3968  0.4911
 4771SOL    HW225950   2.735   1.853   8.882 -0.0324 -0.1577 -0.2328
 4772SOL     OW25951   0.200   0.572   2.975  0.0837  0.3671 -0.1045
 4772SOL    HW125952   0.215   0.653   3.025 -2.1023  0.0102  1.1575
 4772SOL    HW225953   0.184   0.605   2.887  2.6910 -0.6021 -0.9312
 4773SOL     OW25954   0.239   2.699   1.927 -0.2241  0.3872 -0.0891
 4773SOL    HW125955   0.330   2.719   1.950  0.5453  0.0878 -2.8186
 4773SOL    HW225956   0.233   2.695   1.832 -1.5312  1.1611 -0.0341
 4774SOL     OW25957   3.064   2.596   9.823 -0.1730  0.4291  0.3070
 4774SOL    HW125958   3.087   2.534   9.893  2.1253  0.1010 -0.7632
 4774SOL    HW225959   3.084   2.537   9.750  1.1044  3.2022 -1.5491
 4775SOL     OW25960   1.091   1.937   8.545  0.3318  0.8242 -0.0310
 4775SOL    HW125961   1.057   1.882   8.615  4.0614 -0.1665  1.0019
 4775SOL    HW225962   1.182   1.930   8.575 -0.2897  0.5327  1.7680
 4776SOL     OW25963   4.444   1.394   8.794  0.5173 -0.0310 -0.1247
 4776SOL    HW125964   4.439   1.299   8.795 -0.3698  0.0074 -0.8345
 4776SOL    HW225965   4.524   1.416   8.841 -0.0738 -0.7793  1.2341
 4777SOL     OW25966   1.724   1.064   1.859  0.3215 -0.3207  0.2159
 4777SOL    HW125967   1.686   1.133   1.913 -1.7252 -2.0792  1.0279
 4777SOL    HW225968   1.672   0.988   1.885  1.0315 -0.9057 -0.0620
 4778SOL     OW25969   0.411   0.540   2.688  0.4045  0.3181 -0.0891
 4778SOL    HW125970   0.333   0.596   2.690  0.3216  0.2095 -0.2345
 4778SOL    HW225971   0.417   0.531   2.593  0.9748  2.4783 -0.2537
 4779SOL     OW25972   3.340   1.774   3.230 -0.3350  0.2080  0.1623
 4779SOL    HW125973   3.264   1.731   3.270 -0.2163  0.8377  1.0491
 4779SOL    HW225974   3.361   1.820   3.311  0.3435 -1.0290  0.6915
 4780SOL     OW25975   1.349   4.166   1.104  0.3960  0.4162 -0.0639
 4780SOL    HW125976   1.310   4.229   1.043 -2.4070 -2.3070 -1.0823
 4780SOL    HW225977   1.284   4.099   1.122 -0.4812  1.3150  0.1352
 4781SOL     OW25978   0.461   3.342   5.563  0.2560 -0.4772 -0.0440
 4781SOL    HW125979   0.428   3.291   5.489  0.9579  2.1198 -2.1613
 4781SOL    HW225980   0.530   3.288   5.600  1.0344  0.2705 -0.3983
 4782SOL     OW25981   4.531   2.380   0.772  0.3348  0.0546  0.1637
 4782SOL    HW125982   4.541   2.312   0.705  1.9721  1.0881 -0.6567
 4782SOL    HW225983   4.493   2.332   0.846 -2.1683 -0.5759 -1.5237
 4783SOL     OW25984   0.159   4.619  13.066  0.0746 -0.3585  0.1966
 4783SOL    HW125985   0.084   4.610  13.124  1.3866  1.5092  2.1984
 4783SOL    HW225986   0.224   4.608  13.136  1.0225 -2.9514 -1.0788
 4784SOL     OW25987   1.909   1.043  16.219  0.4362  0.1088 -0.4849
 4784SOL    HW125988   1.919   1.094  16.139 -0.9302  0.3624 -0.5017
 4784SOL    HW225989   1.999   1.012  16.217  1.0250  1.8374  0.3362
 4785SOL     OW25990   3.927   0.639  15.776  0.3767  0.5965  0.0161
 4785SOL    HW125991   3.837   0.650  15.807  0.5454  0.9934  0.3514
 4785SOL    HW225992   3.910   0.577  15.704  0.0971  0.9574 -0.2296
 4786SOL     OW25993   1.496   3.073   2.968  0.3848  0.0606 -0.3188
 4786SOL    HW125994   1.582   3.053   3.005 -1.0646 -2.1943  1.7760
 4786SOL    HW225995   1.511   3.010   2.897 -0.5405 -1.6412  1.0084
 4787SOL     OW25996   0.910   1.755   7.826  0.5399 -0.0089 -0.3704
 4787SOL    HW125997   0.978   1.755   7.893  0.5342 -0.8682 -0.3559
 4787SOL    HW225998   0.833   1.789   7.871 -0.2142  0.2365 -1.8490
 4788SOL     OW25999   1.127   4.351   2.698 -0.5734 -0.2329 -0.0157
 4788SOL    HW126000   1.103   4.311   2.614  0.5811 -2.1497  0.5645
 4788SOL    HW226001   1.126   4.281   2.762 -0.1469  0.2631  0.5296
 4789SOL     OW26002   2.664   3.604   5.674  0.1815 -0.3089 -0.3597
 4789SOL    HW126003   2.687   3.551   5.750 -0.9835  0.9778  0.8588
 4789SOL    HW226004   2.747   3.590   5.627 -0.3536  1.4058 -1.8187
 4790SOL     OW26005   4.529   0.985  15.959  0.0320  0.0452 -0.3500
 4790SOL    HW126006   4.532   0.894  15.928 -0.8688  0.5436 -1.8856
 4790SOL    HW226007   4.455   0.983  16.020 -0.6705  0.1222 -1.2034
 4791SOL     OW26008   0.055   0.938   8.033 -0.5477 -0.1230  0.1808
 4791SOL    HW126009   0.032   0.858   7.987  2.2841 -1.3629  0.8851
 4791SOL    HW226010   0.029   0.924   8.124  0.0025 -2.1044  0.0206
 4792SOL     OW26011   0.376   4.195   0.037 -0.1539 -0.0548 -0.4512
 4792SOL    HW126012   0.371   4.105   0.004 -0.1544  0.1319 -0.9627
 4792SOL    HW226013   0.359   4.162   0.125 -0.8612  0.6878 -0.3179
 4793SOL     OW26014   3.618   0.957  12.624 -0.2490  0.0568 -0.3382
 4793SOL    HW126015   3.686   0.901  12.661 -2.3850 -2.5447 -0.3767
 4793SOL    HW226016   3.645   1.046  12.644  0.3308 -0.7495  2.4864
 4794SOL     OW26017   4.181   3.562   3.503 -0.2672  0.1158 -0.3633
 4794SOL    HW126018   4.270   3.587   3.477  0.2709 -1.6093 -0.1857
 4794SOL    HW226019   4.141   3.550   3.416  0.5670 -0.4466 -0.6756
 4795SOL     OW26020   2.742   3.631   3.850 -0.6500  0.1795 -0.1095
 4795SOL    HW126021   2.774   3.542   3.869 -1.6337  0.3404  2.2745
 4795SOL    HW226022   2.765   3.677   3.930  2.0098 -0.2309 -0.6520
 4796SOL     OW26023   3.508   3.369   4.921  0.1506 -0.2664 -0.1942
 4796SOL    HW126024   3.440   3.315   4.880  0.0878  1.2660 -2.1206
 4796SOL    HW226025   3.534   3.420   4.844 -0.1130 -1.3292 -0.9903
 4797SOL     OW26026   2.627   0.409   1.646 -0.6279  0.1264  0.5255
 4797SOL    HW126027   2.640   0.491   1.598  2.7730 -2.1263 -2.3447
 4797SOL    HW226028   2.689   0.432   1.716 -0.5962  1.3644  0.0981
 4798SOL     OW26029   0.436   2.445   3.896 -0.2084 -0.1953  0.0316
 4798SOL    HW126030   0.404   2.470   3.983 -3.4838  0.8775 -1.4955
 4798SOL    HW226031   0.400   2.514   3.841 -0.8012  0.6706  1.5093
 4799SOL     OW26032   2.460   0.852  14.589  0.5471  1.2156  0.0033
 4799SOL    HW126033   2.415   0.835  14.506  0.5585 -0.4858  0.3444
 4799SOL    HW226034   2.420   0.783  14.642  2.2273 -1.0534 -1.6813
 4800SOL     OW26035   3.262   3.937   6.919  0.0325  0.3413 -0.3134
 4800SOL    HW126036   3.191   3.937   6.855  1.2127  0.7581 -1.6276
 4800SOL    HW226037   3.222   3.868   6.972  2.0505  0.6278  1.5649
 4801SOL     OW26038   1.551   3.363   4.249  0.3365 -0.1420 -0.4096
 4801SOL    HW126039   1.571   3.274   4.220 -0.6749  0.0124 -1.5717
 4801SOL    HW226040   1.509   3.347   4.334  0.7372 -0.4057 -0.2596
 4802SOL     OW26041   3.158   3.282   5.144  0.1257 -0.0109  0.1713
 4802SOL    HW126042   3.134   3.236   5.224 -0.1070  1.7009  1.0685
 4802SOL    HW226043   3.127   3.222   5.075  0.3977 -2.0452  1.8090
 4803SOL     OW26044   4.430   4.319   6.132  0.1097 -0.0411  0.0452
 4803SOL    HW126045   4.472   4.236   6.111  1.4108 -0.0936  2.9087
 4803SOL    HW226046   4.373   4.327   6.056  0.1346  0.1117  0.0427
 4804SOL     OW26047   4.683   0.966   4.849  0.1517 -0.6432  0.1065
 4804SOL    HW126048   4.725   0.886   4.881  1.3463 -0.1637 -0.2596
 4804SOL    HW226049   0.025   1.024   4.845  0.1055 -0.5531  0.5307
 4805SOL     OW26050   3.510   2.723   8.802 -0.1397 -0.4168 -0.2957
 4805SOL    HW126051   3.486   2.658   8.737  1.6730 -0.1216 -1.2350
 4805SOL    HW226052   3.469   2.675   8.874 -1.2737  0.6199 -0.2415
 4806SOL     OW26053   2.825   3.954  13.131 -0.1497 -0.1627 -0.2516
 4806SOL    HW126054   2.742   4.001  13.141  0.0471  0.2096 -0.3585
 4806SOL    HW226055   2.805   3.899  13.207 -1.8378 -0.2125 -0.7232
 4807SOL     OW26056   3.944   0.298   4.753  0.2234 -0.7020  0.7084
 4807SOL    HW126057   3.864   0.247   4.744 -1.1156  1.4638  0.2208
 4807SOL    HW226058   3.914   0.375   4.705  0.5481 -0.6505  0.5894
 4808SOL     OW26059   2.957   4.274   6.403  0.0843  0.3836  0.3326
 4808SOL    HW126060   2.909   4.331   6.344 -1.0826 -3.1803 -2.1718
 4808SOL    HW226061   2.945   4.194   6.352  1.5705  1.1585 -1.2398
 4809SOL     OW26062   3.898   4.237   4.524  0.8718  0.4399  0.2775
 4809SOL    HW126063   3.883   4.143   4.525 -1.7631  0.8581 -0.9834
 4809SOL    HW226064   3.994   4.229   4.521  0.6458 -3.2899  3.0416
 4810SOL     OW26065   2.874   4.608  17.339 -0.0501  0.2293 -0.3011
 4810SOL    HW126066   2.851   4.667  17.267 -2.2118  0.1357  0.3367
 4810SOL    HW226067   2.809   4.641  17.401  0.4757 -0.0187  0.3852
 4811SOL     OW26068   3.473   0.839   8.092 -0.0484  0.3014  0.3417
 4811SOL    HW126069   3.563   0.871   8.084 -0.1231  0.2139 -0.7804
 4811SOL    HW226070   3.444   0.839   8.001  2.8215  2.1135 -0.5688
 4812SOL     OW26071   4.473   2.368   3.743  0.2551  0.0518 -0.0967
 4812SOL    HW126072   4.527   2.336   3.815 -0.7977  0.5707  0.9230
 4812SOL    HW226073   4.443   2.446   3.791  0.5721  0.3790 -0.4266
 4813SOL     OW26074   3.805   1.932   6.682 -0.2258 -0.2103 -0.4880
 4813SOL    HW126075   3.891   1.974   6.673 -0.8066  0.6494 -1.9972
 4813SOL    HW226076   3.821   1.861   6.744 -2.4351 -0.7082 -0.4821
 4814SOL     OW26077   3.220   1.751   9.423 -0.6164  0.4030 -0.3141
 4814SOL    HW126078   3.161   1.725   9.494  0.9682  0.6087  1.0891
 4814SOL    HW226079   3.196   1.843   9.411 -2.6986  0.2712  2.6871
 4815SOL     OW26080   0.984   2.496  16.098 -0.1214 -0.3625  0.4110
 4815SOL    HW126081   0.965   2.465  16.187 -1.0405 -0.9896 -0.0022
 4815SOL    HW226082   0.896   2.506  16.063  0.3433 -0.2421 -0.7259
 4816SOL     OW26083   2.176   0.785   6.398 -0.0553 -0.5701  0.1286
 4816SOL    HW126084   2.185   0.820   6.310  2.0748  2.2750  1.4585
 4816SOL    HW226085   2.236   0.832   6.455 -1.8629  0.2151  1.4140
 4817SOL     OW26086   3.025   1.922   5.407  0.0138 -0.1511  0.2711
 4817SOL    HW126087   3.014   1.988   5.476  0.2368  1.8641 -1.6534
 4817SOL    HW226088   3.085   1.858   5.447  0.5615 -0.7106 -1.4640
 4818SOL     OW26089   3.540   2.813   6.622  0.1552 -0.1448  0.2047
 4818SOL    HW126090   3.552   2.738   6.564  1.0114 -0.0153  0.2061
 4818SOL    HW226091   3.619   2.864   6.602  0.7818 -1.6188 -1.0415
 4819SOL     OW26092   0.533   0.083  11.138 -0.4006  0.0416 -0.3891
 4819SOL    HW126093   0.465   0.063  11.074  0.7402 -3.0995 -0.6088
 4819SOL    HW226094   0.524   0.178  11.147 -1.9688 -0.1374 -0.1767
 4820SOL     OW26095   4.416   0.415   4.833 -0.4975 -0.1990  0.1211
 4820SOL    HW126096   4.322   0.430   4.842 -0.4965 -0.6063  0.8293
 4820SOL    HW226097   4.412   0.421   4.737  1.0220  1.5856  0.1682
 4821SOL     OW26098   0.021   0.971   6.971  0.3030  0.4939  0.1405
 4821SOL    HW126099   0.018   1.061   7.004  1.6795 -0.0219  1.6822
 4821SOL    HW226100   4.704   0.936   7.044 -0.2600  0.1522 -0.4236
 4822SOL     OW26101   0.632   4.636   2.989 -0.5697 -0.8645 -0.2852
 4822SOL    HW126102   0.661   4.565   2.931  1.4268 -0.1739 -0.1494
 4822SOL    HW226103   0.613   4.702   2.923  1.2278 -1.4064 -1.3362
 4823SOL     OW26104   1.691   0.523   7.474  0.5545 -0.5142 -0.4836
 4823SOL    HW126105   1.726   0.535   7.386  0.4145  0.5573 -0.3920
 4823SOL    HW226106   1.723   0.600   7.520  0.2133  0.4856 -1.8988
 4824SOL     OW26107   3.296   4.352   6.898 -0.1285  0.0484  0.5073
 4824SOL    HW126108   3.339   4.366   6.983 -0.9130 -0.4502  0.9829
 4824SOL    HW226109   3.373   4.313   6.856  0.5085  0.8948  0.8893
 4825SOL     OW26110   2.307   0.648   7.373  0.3475  0.2366 -0.3497
 4825SOL    HW126111   2.341   0.581   7.432 -1.1536  2.4151  2.9734
 4825SOL    HW226112   2.300   0.599   7.291 -1.0028  0.3879 -0.3177
 4826SOL     OW26113   2.840   3.724   8.901  0.0312 -0.1153  0.0282
 4826SOL    HW126114   2.820   3.803   8.850 -2.1569 -0.5704  0.1837
 4826SOL    HW226115   2.908   3.673   8.857 -0.6087 -2.3092  1.5917
 4827SOL     OW26116   0.464   0.398   9.050 -0.1294 -0.4736  0.1340
 4827SOL    HW126117   0.384   0.445   9.025 -0.5242 -0.9476  0.5093
 4827SOL    HW226118   0.454   0.389   9.145  1.0196 -0.2477  0.2760
 4828SOL     OW26119   3.085   4.377  14.805  0.0693 -0.0532  0.1134
 4828SOL    HW126120   3.112   4.392  14.896 -0.4139  0.5040  0.1594
 4828SOL    HW226121   3.009   4.435  14.799  0.2152 -0.0073 -1.3477
 4829SOL     OW26122   3.375   0.521  15.188 -0.4340  0.1316 -0.0234
 4829SOL    HW126123   3.398   0.474  15.107 -1.1599  2.0678 -1.3440
 4829SOL    HW226124   3.301   0.579  15.173 -1.3148 -0.5572  1.7432
 4830SOL     OW26125   4.452   2.762  17.657 -0.2482  0.4692 -0.5689
 4830SOL    HW126126   4.368   2.808  17.646 -0.1366  0.6493 -0.6717
 4830SOL    HW226127   4.512   2.819  17.609  2.1427 -2.6413 -1.2637
 4831SOL     OW26128   1.897   1.902  13.584  0.4167  1.1630 -0.4022
 4831SOL    HW126129   1.981   1.941  13.607  1.2345 -2.0609  2.1652
 4831SOL    HW226130   1.881   1.859  13.668 -1.8026  0.4431 -1.1848
 4832SOL     OW26131   2.164   0.702   4.551 -0.1595 -0.4749  0.0631
 4832SOL    HW126132   2.164   0.796   4.533  1.0105 -0.7301 -1.2798
 4832SOL    HW226133   2.256   0.683   4.569  0.0192 -1.7406 -2.2241
 4833SOL     OW26134   3.423   4.549   1.601 -0.3931 -0.2562  0.2525
 4833SOL    HW126135   3.458   4.617   1.657  1.1324 -0.0823 -0.8980
 4833SOL    HW226136   3.490   4.482   1.613  0.0347 -0.0659 -0.9880
 4834SOL     OW26137   1.005   0.610  11.924 -0.1897 -0.6680 -0.3020
 4834SOL    HW126138   1.061   0.637  11.996  0.2649  0.1280 -0.9550
 4834SOL    HW226139   1.011   0.514  11.921  0.8445 -0.6516  1.5247
 4835SOL     OW26140   3.525   1.878   2.244 -0.3621  0.4406 -0.4952
 4835SOL    HW126141   3.518   1.972   2.256 -0.0601  0.4160 -0.1301
 4835SOL    HW226142   3.461   1.841   2.306 -0.4055  0.3998 -0.5639
 4836SOL     OW26143   0.727   1.516   4.923 -0.3483 -0.2297 -0.0862
 4836SOL    HW126144   0.633   1.496   4.922 -0.9148  2.3889 -1.3879
 4836SOL    HW226145   0.766   1.438   4.961  0.1564 -0.2121 -0.5713
 4837SOL     OW26146   1.914   3.679   6.976 -0.0778  0.0371 -0.0469
 4837SOL    HW126147   1.980   3.680   6.906  0.0056 -0.7388  0.0263
 4837SOL    HW226148   1.858   3.610   6.943 -1.1273  0.5243  0.7286
 4838SOL     OW26149   1.389   2.178   9.242  0.1478  0.1825  0.2357
 4838SOL    HW126150   1.453   2.108   9.253 -0.7821 -0.7743 -0.4202
 4838SOL    HW226151   1.336   2.171   9.322 -0.6511  1.0898 -0.2083
 4839SOL     OW26152   1.977   3.050   6.042  0.1006  0.0665 -0.4298
 4839SOL    HW126153   1.914   3.050   6.114 -0.6939 -0.4298 -1.1369
 4839SOL    HW226154   1.975   2.956   6.023 -1.0188  0.1785 -0.8359
 4840SOL     OW26155   0.663   1.173   2.411 -0.7266  0.1488 -0.7942
 4840SOL    HW126156   0.596   1.202   2.472 -1.4933  0.7447 -1.9137
 4840SOL    HW226157   0.701   1.253   2.373  0.2678 -0.1527 -0.4301
 4841SOL     OW26158   3.810   2.428  14.771  0.2648 -0.1011  0.0681
 4841SOL    HW126159   3.888   2.484  14.776  0.7238 -0.5572 -1.7704
 4841SOL    HW226160   3.735   2.488  14.770  0.2133 -0.1555  0.6142
 4842SOL     OW26161   4.595   4.419  10.590  0.1718 -0.5331 -0.2468
 4842SOL    HW126162   4.549   4.427  10.673 -0.6800 -1.1186 -0.6512
 4842SOL    HW226163   4.675   4.371  10.613  0.7342  0.5595  0.0297
 4843SOL     OW26164   1.714   0.761   6.119  0.1052  0.2978  0.0949
 4843SOL    HW126165   1.634   0.794   6.159 -0.2418  2.0658 -2.0640
 4843SOL    HW226166   1.778   0.764   6.191  0.9469  2.8026 -0.7545
 4844SOL     OW26167   1.907   1.721   8.988 -0.1846 -0.1989 -0.3742
 4844SOL    HW126168   1.865   1.777   8.923 -0.3413 -1.6282 -1.5051
 4844SOL    HW226169   1.978   1.682   8.937  0.9671 -0.4614  1.4072
 4845SOL     OW26170   1.441   3.241   0.260  0.6044 -0.3604  0.0530
 4845SOL    HW126171   1.449   3.199   0.174 -1.2168  0.3724 -0.4584
 4845SOL    HW226172   1.477   3.172   0.317 -2.8574 -2.3080 -0.1182
 4846SOL     OW26173   1.877   4.107   6.928 -0.1505 -0.2037 -0.5116
 4846SOL    HW126174   1.915   4.157   6.856  0.0649 -0.0984 -0.3272
 4846SOL    HW226175   1.947   4.048   6.954  0.1456 -0.3862 -1.7612
 4847SOL     OW26176   3.667   0.880   2.654  0.1548 -0.0222 -0.0282
 4847SOL    HW126177   3.615   0.834   2.720 -0.7379  1.8815  0.6024
 4847SOL    HW226178   3.620   0.963   2.667  0.7516  0.6963 -2.4925
 4848SOL     OW26179   0.740   1.053  11.279 -0.1458 -0.0375 -0.1257
 4848SOL    HW126180   0.789   0.977  11.311 -0.9596 -0.1319  0.8991
 4848SOL    HW226181   0.657   1.010  11.258  1.4469 -1.2731 -3.9323
 4849SOL     OW26182   3.214   0.354  16.634 -0.3197  0.4425 -0.3633
 4849SOL    HW126183   3.132   0.341  16.586  1.2410 -2.4929 -2.2710
 4849SOL    HW226184   3.225   0.448  16.624  0.4309  0.4842  0.9079
 4850SOL     OW26185   0.205   3.652   1.340 -0.0981 -0.5164 -0.0709
 4850SOL    HW126186   0.172   3.734   1.377 -1.4214  0.4739 -3.4312
 4850SOL    HW226187   0.263   3.671   1.266  1.0932 -1.0746  0.7263
 4851SOL     OW26188   0.189   1.324   6.174 -0.2506 -0.1730 -0.1110
 4851SOL    HW126189   0.280   1.324   6.144 -0.5417 -0.5600 -1.0269
 4851SOL    HW226190   0.160   1.239   6.140  0.5619 -0.6265  0.3589
 4852SOL     OW26191   3.577   1.126   2.672 -0.2272 -0.3238  0.2259
 4852SOL    HW126192   3.625   1.209   2.678  0.2593 -0.5305 -0.8489
 4852SOL    HW226193   3.493   1.167   2.651 -1.2401 -3.1475 -1.1834
 4853SOL     OW26194   2.808   3.068  14.490  0.4423 -0.4097 -0.6977
 4853SOL    HW126195   2.813   3.003  14.560  1.3188 -1.0699 -1.3659
 4853SOL    HW226196   2.797   3.152  14.535 -2.4913 -1.5102  0.6350
 4854SOL     OW26197   3.215   0.213  13.412 -0.5016 -0.1780  0.2917
 4854SOL    HW126198   3.298   0.212  13.365  0.6184  0.5872  2.2924
 4854SOL    HW226199   3.181   0.123  13.411  2.5597 -1.3143 -0.2881
 4855SOL     OW26200   0.224   3.723   1.957  0.2372  0.3911 -0.2319
 4855SOL    HW126201   0.275   3.766   1.889  2.9117 -0.7549  1.0435
 4855SOL    HW226202   0.205   3.800   2.010  1.0713 -0.1491  0.8640
 4856SOL     OW26203   4.170   1.865   5.071  0.0602  0.5361  0.2351
 4856SOL    HW126204   4.233   1.931   5.100  1.2723 -0.7842  0.5758
 4856SOL    HW226205   4.209   1.783   5.103 -1.6544 -0.0973  0.7402
 4857SOL     OW26206   1.111   0.967   4.414  0.1152  0.1189  0.7900
 4857SOL    HW126207   1.142   1.027   4.346 -0.6724 -2.4561 -1.8094
 4857SOL    HW226208   1.054   1.024   4.465  0.4035  0.5791  0.6019
 4858SOL     OW26209   0.619   0.400  11.372 -0.0290  0.3357  0.5874
 4858SOL    HW126210   0.560   0.365  11.305 -2.5558  3.4047  1.1588
 4858SOL    HW226211   0.633   0.318  11.420  1.0496 -1.2643 -2.4945
 4859SOL     OW26212   0.612   4.569   4.158 -0.1171  0.5531  0.1554
 4859SOL    HW126213   0.586   4.502   4.222  0.9266  0.6454  0.6752
 4859SOL    HW226214   0.580   4.640   4.214  2.2713  2.4857 -0.9278
 4860SOL     OW26215   0.158   2.453   2.019  0.0933 -0.0938  0.0468
 4860SOL    HW126216   0.236   2.432   2.071  0.0895 -1.0051 -0.3221
 4860SOL    HW226217   0.186   2.539   1.986 -0.2720  0.5198  1.3487
 4861SOL     OW26218   2.191   0.612  15.135 -0.1582 -0.2195 -0.1860
 4861SOL    HW126219   2.228   0.524  15.148  0.5158  0.1165  0.1702
 4861SOL    HW226220   2.100   0.591  15.117 -0.7493  0.3952  2.0695
 4862SOL     OW26221   2.549   1.832  17.369 -0.1757  0.3376  0.1453
 4862SOL    HW126222   2.559   1.749  17.416 -0.3114  0.4069  0.2960
 4862SOL    HW226223   2.472   1.869  17.412 -0.6701 -0.3652 -0.1276
 4863SOL     OW26224   2.204   4.430   5.770  0.7665  0.1812  0.3740
 4863SOL    HW126225   2.245   4.510   5.738  1.4463 -0.0189  0.7424
 4863SOL    HW226226   2.232   4.368   5.703  1.2835  0.4482  0.3505
 4864SOL     OW26227   3.949   0.819   1.834  0.2832  0.7034  0.3526
 4864SOL    HW126228   4.034   0.808   1.791  0.3029 -1.9781  1.1289
 4864SOL    HW226229   3.935   0.745   1.892 -1.1552  2.5124  2.3286
 4865SOL     OW26230   4.316   0.366   2.102  0.3220  0.1961  0.1320
 4865SOL    HW126231   4.271   0.431   2.155 -0.0970  0.1141 -0.1202
 4865SOL    HW226232   4.368   0.332   2.175  2.9374  1.8248 -0.9817
 4866SOL     OW26233   2.228   4.669   7.391 -0.9004  0.6779  0.1259
 4866SOL    HW126234   2.309   4.710   7.422  0.7401 -1.8337 -0.9196
 4866SOL    HW226235   2.255   4.645   7.303  1.4264 -1.2853  1.3553
 4867SOL     OW26236   0.335   1.551  15.178  0.5938  0.0558 -0.1941
 4867SOL    HW126237   0.412   1.604  15.159  0.8471 -0.3644 -0.3493
 4867SOL    HW226238   0.365   1.493  15.248  3.0503  2.9054  1.0820
 4868SOL     OW26239   2.985   2.081   5.593  0.5269 -0.1665  0.4640
 4868SOL    HW126240   2.939   2.118   5.668  1.7724 -0.3927  1.3476
 4868SOL    HW226241   3.062   2.052   5.642 -0.4286 -1.3514  1.2428
 4869SOL     OW26242   0.650   2.488   5.604  0.1729  0.7498  0.1062
 4869SOL    HW126243   0.690   2.408   5.570 -1.1923  0.4263 -0.7662
 4869SOL    HW226244   0.734   2.530   5.622 -0.5858  1.9662  0.8695
 4870SOL     OW26245   0.722   2.692   1.389  0.1662 -0.2180  0.2943
 4870SOL    HW126246   0.786   2.742   1.439  0.5306 -0.4230  0.0345
 4870SOL    HW226247   0.665   2.766   1.365  0.8768  0.0352 -0.6482
 4871SOL     OW26248   4.627   0.211  13.700  0.4005 -0.0766  0.4543
 4871SOL    HW126249   4.618   0.287  13.757  1.2578  0.4179 -0.0611
 4871SOL    HW226250   4.690   0.250  13.640 -1.1616 -0.5388 -1.4652
 4872SOL     OW26251   0.711   4.245   9.637  0.2387 -0.6071  0.2640
 4872SOL    HW126252   0.758   4.300   9.699  1.2588 -1.4540  0.2339
 4872SOL    HW226253   0.625   4.239   9.680  0.7252  3.7146  1.8224
 4873SOL     OW26254   2.783   4.157   2.622 -0.0971  0.2362  0.4524
 4873SOL    HW126255   2.869   4.186   2.652  0.0084 -1.5906  1.8603
 4873SOL    HW226256   2.786   4.193   2.533 -2.0939  0.4226  0.4698
 4874SOL     OW26257   1.026   4.013   3.709  0.1200 -0.1374 -0.2904
 4874SOL    HW126258   1.104   3.983   3.756  0.7133  0.4561 -0.9112
 4874SOL    HW226259   0.974   4.071   3.764 -0.2046 -1.2784  0.6120
 4875SOL     OW26260   1.241   2.370   1.080  0.6174 -0.5055 -0.1507
 4875SOL    HW126261   1.274   2.460   1.069  0.0439 -0.1858  0.7450
 4875SOL    HW226262   1.260   2.343   1.170 -2.2425 -0.1312  0.5596
 4876SOL     OW26263   4.354   2.585   0.724 -0.4372 -0.5022 -0.3257
 4876SOL    HW126264   4.409   2.586   0.645  0.2107 -0.6820  0.1256
 4876SOL    HW226265   4.398   2.521   0.780  0.3553  0.4364  0.1243
 4877SOL     OW26266   1.046   1.901   2.708  0.3114  0.4208  0.5922
 4877SOL    HW126267   1.051   1.812   2.674 -0.7195  0.1000  1.2855
 4877SOL    HW226268   1.033   1.901   2.803 -0.2570 -1.0128  0.5077
 4878SOL     OW26269   4.726   1.195   9.284 -0.4966  0.0564  0.2415
 4878SOL    HW126270   0.014   1.286   9.304  0.2781  0.4627 -2.5563
 4878SOL    HW226271   0.000   1.195   9.189 -0.6314 -0.9613  0.2241
 4879SOL     OW26272   2.676   1.189   2.191  0.0541  0.2155 -0.0540
 4879SOL    HW126273   2.600   1.130   2.185  1.6585 -1.7871 -0.8350
 4879SOL    HW226274   2.645   1.276   2.165 -0.5387 -0.0522 -0.2638
 4880SOL     OW26275   2.638   2.500  17.727 -0.1504 -0.1248 -0.1957
 4880SOL    HW126276   2.661   2.467   0.076  0.7468 -0.3249 -0.5073
 4880SOL    HW226277   2.710   2.457  17.680 -0.1714 -0.5902  0.1978
 4881SOL     OW26278   3.989   1.301   7.571  0.0464 -0.5564  0.3709
 4881SOL    HW126279   4.012   1.212   7.596 -0.4151 -0.7701  0.0553
 4881SOL    HW226280   4.026   1.356   7.639  0.1146 -0.9691  0.6654
 4882SOL     OW26281   4.694   0.019   4.098  0.4800  0.4448  0.1231
 4882SOL    HW126282   4.662   4.710   4.177  4.0912 -2.6854 -0.1696
 4882SOL    HW226283   0.043   4.709   4.091  0.2704  0.2854 -1.2858
 4883SOL     OW26284   0.789   3.391   8.526  0.0809 -0.2976 -0.1841
 4883SOL    HW126285   0.794   3.446   8.604  0.0872 -0.7858  0.1552
 4883SOL    HW226286   0.806   3.303   8.559 -1.1041 -1.5484 -2.8911
 4884SOL     OW26287   3.389   1.171   3.137  0.2099  0.4922 -0.6693
 4884SOL    HW126288   3.370   1.181   3.044 -2.8925 -1.2862 -0.2460
 4884SOL    HW226289   3.472   1.123   3.130  0.1421  0.0512  1.5675
 4885SOL     OW26290   0.058   3.066   7.901 -0.3078  0.5117  0.5825
 4885SOL    HW126291   4.710   3.072   7.949 -1.2320  0.3093 -0.9794
 4885SOL    HW226292   0.094   3.152   7.922 -1.2970  0.9973  0.2907
 4886SOL     OW26293   1.901   4.494   6.045  0.8151  0.2271 -0.3093
 4886SOL    HW126294   1.914   4.413   5.997  0.2225  0.3703 -0.7166
 4886SOL    HW226295   1.896   4.562   5.978  0.9428  0.5695  0.0289
 4887SOL     OW26296   0.688   4.138   9.381 -0.0207  0.6570  0.1628
 4887SOL    HW126297   0.711   4.180   9.464 -0.4511  0.5188  0.3498
 4887SOL    HW226298   0.780   4.116   9.362 -0.4980 -1.8407  0.7461
 4888SOL     OW26299   2.763   3.797  11.495 -0.2703  0.1910  0.6740
 4888SOL    HW126300   2.737   3.724  11.552 -0.1354  0.9200  1.6609
 4888SOL    HW226301   2.681   3.828  11.457 -1.4202 -1.0753  2.1115
 4889SOL     OW26302   1.720   3.394  12.761 -0.2814  0.0491  0.3105
 4889SOL    HW126303   1.802   3.355  12.792 -0.7392 -2.0240 -1.0962
 4889SOL    HW226304   1.739   3.408  12.669  1.3124 -1.0967  0.4616
 4890SOL     OW26305   3.454   2.925   5.435  0.1968 -0.1728  0.2984
 4890SOL    HW126306   3.441   2.860   5.366 -1.9080  0.7093 -0.1128
 4890SOL    HW226307   3.436   3.008   5.392  1.3098  0.5815  1.2683
 4891SOL     OW26308   0.767   1.738   6.877  0.1204 -0.3820  0.2802
 4891SOL    HW126309   0.704   1.685   6.828  0.1871  2.2903 -2.6259
 4891SOL    HW226310   0.838   1.746   6.814  1.0877 -2.2890  1.1183
 4892SOL     OW26311   1.937   3.974   3.791  0.3383 -0.6942  0.2229
 4892SOL    HW126312   1.958   4.062   3.822  0.8609 -0.0382 -1.9903
 4892SOL    HW226313   1.985   3.963   3.709 -1.6398  2.3281 -1.3331
 4893SOL     OW26314   3.619   3.589   8.940  0.0905 -0.0451 -0.1124
 4893SOL    HW126315   3.581   3.677   8.951  0.2677 -0.0421  0.5082
 4893SOL    HW226316   3.712   3.600   8.956 -0.1540  1.8673  0.0429
 4894SOL     OW26317   0.482   4.600  13.510 -0.0807  0.3488 -0.6116
 4894SOL    HW126318   0.457   4.535  13.575  0.4594 -0.1543 -0.9003
 4894SOL    HW226319   0.527   4.659  13.569  3.5774 -0.9006 -2.1635
 4895SOL     OW26320   4.553   3.221   3.658  0.4258 -0.3930  1.2816
 4895SOL    HW126321   4.570   3.299   3.605  0.8463 -1.1966  0.2236
 4895SOL    HW226322   4.619   3.241   3.724  1.4341 -1.4382  0.6087
 4896SOL     OW26323   1.717   4.481   8.194  0.3407 -0.1103 -0.2044
 4896SOL    HW126324   1.787   4.547   8.189  0.7426 -0.6781 -1.8828
 4896SOL    HW226325   1.675   4.532   8.263 -1.0336 -2.0742  0.3769
 4897SOL     OW26326   4.720   2.671   5.639  0.0516  0.3744 -0.7139
 4897SOL    HW126327   4.638   2.720   5.637  0.2701  0.8105  0.9278
 4897SOL    HW226328   4.723   2.648   5.732 -1.9583  0.9283 -0.5185
 4898SOL     OW26329   0.064   3.834  16.546  0.3945  0.1449 -0.2201
 4898SOL    HW126330   0.018   3.872  16.622 -2.6011 -2.0339 -0.9590
 4898SOL    HW226331   0.153   3.868  16.555  0.3946  0.5043 -1.5569
 4899SOL     OW26332   4.648   0.073   1.954 -0.5944  0.1645 -0.5794
 4899SOL    HW126333   4.621   4.727   1.998 -0.2872  2.1696  3.2519
 4899SOL    HW226334   4.710   0.031   1.894 -2.0178 -0.5269 -1.5832
 4900SOL     OW26335   0.047   0.994   3.365  0.8837 -0.1434 -0.1741
 4900SOL    HW126336   0.140   1.006   3.348  1.2999  1.2373  3.1192
 4900SOL    HW226337   0.015   1.084   3.356  0.1688 -0.4389 -0.6194
 4901SOL     OW26338   2.614   4.302   6.585 -0.0224  0.5731 -0.0010
 4901SOL    HW126339   2.627   4.208   6.570  0.4486  0.2732  2.1622
 4901SOL    HW226340   2.626   4.342   6.499 -0.6811  0.9652  0.0933
 4902SOL     OW26341   0.351   0.497  12.353  0.4129  0.7705  0.2622
 4902SOL    HW126342   0.418   0.512  12.287  1.7553 -0.4800  1.3522
 4902SOL    HW226343   0.286   0.449  12.303 -0.8130  0.6347  1.9714
 4903SOL     OW26344   2.908   3.032   7.572 -0.6897 -0.0337  0.0378
 4903SOL    HW126345   2.895   3.088   7.649 -1.7518  1.0864 -0.9475
 4903SOL    HW226346   2.842   3.075   7.518 -1.5343 -0.1382  0.9882
 4904SOL     OW26347   0.680   3.332   5.296  0.0200  0.4586  0.4666
 4904SOL    HW126348   0.718   3.419   5.307 -0.4386  0.7824 -0.4329
 4904SOL    HW226349   0.742   3.288   5.354  0.4825  1.7219  0.9197
 4905SOL     OW26350   0.226   4.073   0.575 -0.4375 -0.1574  0.1009
 4905SOL    HW126351   0.306   4.107   0.616 -1.6308  1.9429  0.7114
 4905SOL    HW226352   0.159   4.108   0.634 -1.0198 -0.0266 -0.6385
 4906SOL     OW26353   0.176   3.909   8.064 -0.1536  0.9849  0.0047
 4906SOL    HW126354   0.220   3.845   8.008  0.4130  1.2949  0.0950
 4906SOL    HW226355   0.099   3.931   8.011  0.1743  0.0288 -0.8582
 4907SOL     OW26356   1.213   4.519   1.033  0.0070  0.0113  0.3155
 4907SOL    HW126357   1.232   4.540   1.125  1.8085  1.2030 -0.3364
 4907SOL    HW226358   1.126   4.479   1.041 -0.4315  0.8139 -0.4987
 4908SOL     OW26359   3.348   0.280  16.878 -0.5069  0.5303 -0.5053
 4908SOL    HW126360   3.324   0.285  16.785  1.2205  2.9084 -0.8051
 4908SOL    HW226361   3.436   0.242  16.874 -0.1273  1.2329  1.3008
 4909SOL     OW26362   1.833   3.654  15.898 -0.1923 -0.4035 -0.1060
 4909SOL    HW126363   1.906   3.594  15.884  1.0523  1.6253 -2.2609
 4909SOL    HW226364   1.790   3.603  15.967 -2.2077  1.3625 -0.0403
 4910SOL     OW26365   1.044   0.188   0.782 -0.4868  0.6081 -0.0586
 4910SOL    HW126366   1.099   0.158   0.854 -0.4245 -0.1278 -0.4099
 4910SOL    HW226367   1.099   0.161   0.709 -2.6377  0.4788 -1.6373
 4911SOL     OW26368   3.211   2.128  15.754  0.3516 -0.1733 -0.4377
 4911SOL    HW126369   3.272   2.059  15.730  1.4496 -0.0023  1.8691
 4911SOL    HW226370   3.259   2.173  15.824 -3.1330  1.2829  1.0198
 4912SOL     OW26371   4.443   2.908  13.241  0.1678 -0.2453  0.3397
 4912SOL    HW126372   4.431   2.978  13.177  1.5698 -0.7568 -0.4810
 4912SOL    HW226373   4.401   2.942  13.319  0.8782  0.5901  0.3524
 4913SOL     OW26374   4.508   0.881   9.291 -0.1914  0.4592  0.3681
 4913SOL    HW126375   4.603   0.871   9.280 -0.1532  2.1307 -0.7915
 4913SOL    HW226376   4.513   0.948   9.358  2.7617  0.2547  0.3566
 4914SOL     OW26377   1.119   4.731   7.320 -0.3160  0.0393  0.5257
 4914SOL    HW126378   1.116   4.642   7.286  0.0778 -0.6641  2.3172
 4914SOL    HW226379   1.145   0.039   7.239 -0.4165  2.2343  1.6666
 4915SOL     OW26380   3.015   1.761   1.986 -0.1742  0.0469  0.2955
 4915SOL    HW126381   3.024   1.853   1.959 -1.9354  0.3316  0.7045
 4915SOL    HW226382   3.065   1.728   1.911  0.9531  2.3040  0.0488
 4916SOL     OW26383   1.029   3.835   5.104 -0.4369 -0.0861 -0.3570
 4916SOL    HW126384   1.071   3.774   5.165 -1.6941 -1.2344 -0.6348
 4916SOL    HW226385   1.108   3.881   5.075 -0.6053  1.5563  1.8442
 4917SOL     OW26386   4.672   0.442  13.850  0.0377  0.1080  0.0256
 4917SOL    HW126387   4.652   0.526  13.891 -1.2422  0.5652 -1.5096
 4917SOL    HW226388   0.031   0.451  13.835 -0.1546  0.3118 -1.1394
 4918SOL     OW26389   2.103   0.523   1.609  0.2003  0.5610 -0.1574
 4918SOL    HW126390   2.183   0.472   1.624 -0.3492  0.2469  1.8013
 4918SOL    HW226391   2.126   0.583   1.538 -3.1127  0.0764 -1.6454
 4919SOL     OW26392   0.399   2.388   2.152 -0.3533 -0.0138 -0.0268
 4919SOL    HW126393   0.489   2.413   2.171 -1.0267  1.5917  1.1030
 4919SOL    HW226394   0.398   2.393   2.056  1.0144 -2.8878 -0.1866
 4920SOL     OW26395   4.691   0.506   7.546 -0.0484  0.5683 -0.3272
 4920SOL    HW126396   0.033   0.562   7.557 -0.8034  1.6599 -0.5756
 4920SOL    HW226397   0.003   0.426   7.570 -2.3457 -0.8524 -0.6156
 4921SOL     OW26398   3.045   3.329   7.484 -0.0967 -0.0409  0.1506
 4921SOL    HW126399   2.950   3.338   7.478  0.0056  0.6795 -0.3379
 4921SOL    HW226400   3.063   3.409   7.434  0.5863 -0.5905 -0.4896
 4922SOL     OW26401   2.913   0.723   8.165  0.1371  1.0532 -0.3867
 4922SOL    HW126402   2.905   0.784   8.092 -2.6041  1.3008  0.1409
 4922SOL    HW226403   3.004   0.690   8.161  0.2985  1.4198  0.3002
 4923SOL     OW26404   2.875   2.344   4.529  0.5684  0.1536  0.1829
 4923SOL    HW126405   2.908   2.349   4.619  0.1785 -0.9319  0.3834
 4923SOL    HW226406   2.833   2.259   4.535  0.0372  0.2337 -2.9029
 4924SOL     OW26407   3.007   1.156  13.524  0.7418  0.8237  0.1848
 4924SOL    HW126408   3.053   1.222  13.473  1.0024 -0.8003 -1.6677
 4924SOL    HW226409   2.944   1.131  13.457  2.6219 -1.1843 -0.8431
 4925SOL     OW26410   2.587   0.601  14.350 -0.3430 -0.0566 -0.7185
 4925SOL    HW126411   2.620   0.686  14.377  0.9593 -0.8743  0.2553
 4925SOL    HW226412   2.662   0.541  14.342  2.4936  3.0972  2.2696
 4926SOL     OW26413   1.766   4.466   8.910 -0.6223 -0.1197  0.0109
 4926SOL    HW126414   1.671   4.461   8.902 -0.6459 -0.7325  0.7116
 4926SOL    HW226415   1.762   4.492   9.003 -0.5359 -3.4205  0.9280
 4927SOL     OW26416   2.543   4.202  11.475 -0.1517  0.0353  0.6594
 4927SOL    HW126417   2.501   4.284  11.451 -2.3563 -0.7038  2.0367
 4927SOL    HW226418   2.463   4.156  11.500  1.8151 -4.1051 -0.4656
 4928SOL     OW26419   0.068   3.080  15.626  0.5378 -0.8037  0.6094
 4928SOL    HW126420   0.139   3.069  15.690  1.2370 -0.0757 -0.0423
 4928SOL    HW226421   0.018   3.146  15.674  0.8363  1.0870 -1.6904
 4929SOL     OW26422   4.690   2.034   2.775  0.4352  0.0911  0.7381
 4929SOL    HW126423   4.647   2.110   2.736  0.2501  0.2278  1.2139
 4929SOL    HW226424   4.642   1.966   2.728  2.0775 -0.6064  0.0307
 4930SOL     OW26425   4.019   2.419   0.681  0.5648  0.7747  0.9732
 4930SOL    HW126426   4.061   2.499   0.712  1.9563  2.0546 -4.2534
 4930SOL    HW226427   3.939   2.454   0.642  1.6116 -0.7095 -2.4744
 4931SOL     OW26428   0.977   3.554   9.156  0.6660  0.6619 -0.1777
 4931SOL    HW126429   1.064   3.520   9.133  0.1642  0.4916 -1.7444
 4931SOL    HW226430   0.997   3.615   9.228  2.0716  2.0291 -1.7269
 4932SOL     OW26431   1.350   3.676   2.045 -0.3239 -0.0537 -0.6815
 4932SOL    HW126432   1.340   3.763   2.005 -0.8410  0.8459  1.3876
 4932SOL    HW226433   1.281   3.620   2.011 -0.7753  1.0690 -1.6198
 4933SOL     OW26434   1.513   2.507   7.596  0.4156  0.4411  0.3527
 4933SOL    HW126435   1.485   2.438   7.536  0.9912  2.0403 -1.7623
 4933SOL    HW226436   1.582   2.467   7.650 -0.5395 -2.2136 -0.4189
 4934SOL     OW26437   1.031   1.220  15.760  0.6560 -0.1357  0.9682
 4934SOL    HW126438   1.066   1.142  15.716  2.9558  1.4634 -0.0102
 4934SOL    HW226439   0.944   1.230  15.722 -0.3515 -2.3992  2.6939
 4935SOL     OW26440   1.848   1.841  13.852 -0.9521 -0.2229  0.4810
 4935SOL    HW126441   1.773   1.786  13.830 -0.4554  0.7003 -3.5739
 4935SOL    HW226442   1.861   1.821  13.945  1.5606 -0.6348  0.0456
 4936SOL     OW26443   3.875   1.590  13.986  0.4235  0.2816  0.3565
 4936SOL    HW126444   3.897   1.515  13.931  1.1646  0.5602  0.2574
 4936SOL    HW226445   3.802   1.627  13.936 -0.3467 -0.5450  0.8794
 4937SOL     OW26446   0.618   1.646  10.762 -0.3025  0.0356  0.1695
 4937SOL    HW126447   0.564   1.607  10.693 -0.6089  2.5044 -1.0012
 4937SOL    HW226448   0.625   1.736  10.731 -3.7527  1.0701  2.3936
 4938SOL     OW26449   4.424   1.458   4.122 -0.2359 -0.3160  0.2681
 4938SOL    HW126450   4.353   1.517   4.099  1.1156  1.7102  1.2299
 4938SOL    HW226451   4.384   1.408   4.193  0.6555 -1.1531  0.1898
 4939SOL     OW26452   4.444   2.039  10.150  0.0852 -0.2875 -0.1004
 4939SOL    HW126453   4.392   1.969  10.111 -0.7558 -0.7356  1.8231
 4939SOL    HW226454   4.529   2.029  10.108  0.5255  2.8318  0.0615
 4940SOL     OW26455   4.137   1.839   4.430 -0.0187  0.1165  0.0915
 4940SOL    HW126456   4.209   1.902   4.431 -0.2915  0.4283 -0.0924
 4940SOL    HW226457   4.063   1.897   4.446 -0.8568 -0.3689 -2.0853
 4941SOL     OW26458   3.007   0.394  16.478  0.5805 -0.7514  0.3214
 4941SOL    HW126459   2.999   0.320  16.417 -1.1941 -0.8882  0.7233
 4941SOL    HW226460   2.990   0.476  16.431 -2.0413 -0.8170  1.1609
 4942SOL     OW26461   1.832   2.244   8.424 -0.7686 -0.5250 -0.0801
 4942SOL    HW126462   1.891   2.280   8.358 -1.2591 -0.5195 -0.5183
 4942SOL    HW226463   1.862   2.153   8.427 -1.4845 -0.7146  1.4256
 4943SOL     OW26464   2.535   3.972   5.665 -0.1091 -0.0626  0.1569
 4943SOL    HW126465   2.559   3.950   5.755 -1.6050 -0.2210  0.5154
 4943SOL    HW226466   2.507   3.890   5.625 -0.1344 -1.3829  2.9392
 4944SOL     OW26467   0.888   2.980   5.714  0.4579 -0.1780  0.2847
 4944SOL    HW126468   0.889   3.051   5.650 -2.7193 -2.1772 -2.0217
 4944SOL    HW226469   0.957   2.930   5.672  1.8759  0.6642  1.6169
 4945SOL     OW26470   2.291   1.117   4.831 -0.0304 -0.5144 -0.2178
 4945SOL    HW126471   2.329   1.182   4.772 -0.7636  0.5688  0.5114
 4945SOL    HW226472   2.354   1.126   4.902  1.4511 -3.1094 -1.1740
 4946SOL     OW26473   0.074   2.719   1.314 -0.1753  0.3633  0.4374
 4946SOL    HW126474   4.727   2.700   1.268 -0.3396  1.2026  0.3900
 4946SOL    HW226475   0.043   2.799   1.357  1.7214 -0.1940  2.8252
 4947SOL     OW26476   4.013   1.705   6.625 -0.3146  0.5576 -0.0554
 4947SOL    HW126477   3.939   1.748   6.581 -1.4569 -0.8682  0.4373
 4947SOL    HW226478   3.988   1.613   6.624  1.6988  0.0165  0.0619
 4948SOL     OW26479   4.548   1.125  15.385 -0.3256 -0.0683 -0.0244
 4948SOL    HW126480   4.590   1.077  15.456 -0.4995  0.0219  0.1401
 4948SOL    HW226481   4.459   1.137  15.419 -1.1856  0.5359 -2.4738
 4949SOL     OW26482   3.639   0.673   7.796  0.0489  0.2924 -0.2491
 4949SOL    HW126483   3.555   0.647   7.759  0.1253  0.7974 -0.7690
 4949SOL    HW226484   3.655   0.762   7.765 -1.3131  0.5050 -0.3113
 4950SOL     OW26485   1.366   3.942   6.674 -0.4380  0.4252  0.4546
 4950SOL    HW126486   1.340   3.951   6.582 -0.4299 -0.6137  0.3569
 4950SOL    HW226487   1.388   3.849   6.682 -0.5270  0.7127  4.1649
 4951SOL     OW26488   1.792   2.707   1.783  0.1342  0.1141 -0.2480
 4951SOL    HW126489   1.829   2.794   1.792 -0.4204  0.3161  0.1407
 4951SOL    HW226490   1.874   2.665   1.758 -0.5368  0.8249 -3.6597
 4952SOL     OW26491   0.025   1.330  13.518  0.6901 -0.0030  0.0702
 4952SOL    HW126492   4.704   1.392  13.470 -1.7741 -0.7288  2.0451
 4952SOL    HW226493   0.095   1.392  13.538  1.1576 -0.4459 -0.2065
 4953SOL     OW26494   2.205   1.895   5.696 -0.1220  0.0301 -0.1616
 4953SOL    HW126495   2.299   1.914   5.689  0.4072 -2.2327  0.8088
 4953SOL    HW226496   2.195   1.866   5.786 -0.6290  0.0064 -0.2271
 4954SOL     OW26497   3.672   3.372   4.206  0.1525  0.0455 -0.3966
 4954SOL    HW126498   3.744   3.309   4.209  1.0786  1.1044 -0.4204
 4954SOL    HW226499   3.614   3.319   4.261  2.9493 -1.6629  0.9627
 4955SOL     OW26500   3.817   4.000   3.536  0.1114 -0.0167  0.2646
 4955SOL    HW126501   3.807   3.905   3.532  0.5932  0.1190 -4.6045
 4955SOL    HW226502   3.898   4.014   3.586  1.2550 -1.1151 -1.2670
 4956SOL     OW26503   2.867   0.718  13.626 -0.2104 -0.7047 -0.0028
 4956SOL    HW126504   2.916   0.664  13.688  2.8743  0.7168 -1.2079
 4956SOL    HW226505   2.892   0.807  13.651 -1.6531 -0.1504 -0.5474
 4957SOL     OW26506   0.995   3.863   3.039  0.2645  0.3031 -0.5908
 4957SOL    HW126507   0.980   3.772   3.013  1.0040 -0.4113  1.4950
 4957SOL    HW226508   0.905   3.881   3.066  0.4030 -1.5390  1.0814
 4958SOL     OW26509   0.649   3.811   1.178  0.4411 -0.3955  0.0991
 4958SOL    HW126510   0.597   3.891   1.170  0.7175 -0.0549  1.5731
 4958SOL    HW226511   0.738   3.848   1.180 -0.3371  1.3653  2.0352
 4959SOL     OW26512   3.258   2.511   3.927  0.1243 -0.3851  0.5334
 4959SOL    HW126513   3.181   2.567   3.940 -0.1229 -0.3460 -1.2077
 4959SOL    HW226514   3.223   2.424   3.946 -0.8342 -0.0645  0.2735
 4960SOL     OW26515   2.348   1.065   2.643 -0.2594  0.1375 -0.2289
 4960SOL    HW126516   2.327   1.057   2.736 -2.1563 -1.7786 -0.8257
 4960SOL    HW226517   2.364   1.159   2.634 -0.9201  0.3416  0.8540
 4961SOL     OW26518   1.807   4.261   3.409  0.7510  0.1715 -0.2049
 4961SOL    HW126519   1.843   4.243   3.322 -2.2896  1.2931 -1.7196
 4961SOL    HW226520   1.739   4.193   3.410  0.7837  0.1324 -0.6283
 4962SOL     OW26521   0.755   4.448   6.407  0.3924  0.3311 -0.0166
 4962SOL    HW126522   0.730   4.421   6.318  1.1599 -0.9254  0.1525
 4962SOL    HW226523   0.669   4.457   6.447 -0.1712 -0.3923 -1.0605
 4963SOL     OW26524   4.365   1.495   9.952 -0.4720  0.0041 -0.1281
 4963SOL    HW126525   4.347   1.524   9.862  0.3810  0.6105 -0.0970
 4963SOL    HW226526   4.441   1.440   9.935 -1.0922 -0.6111 -0.9169
 4964SOL     OW26527   2.475   3.822  10.123 -0.6231 -0.6225 -0.7188
 4964SOL    HW126528   2.546   3.855  10.179 -0.1115 -2.8734  0.0051
 4964SOL    HW226529   2.473   3.887  10.053  1.8182  0.8603  0.5844
 4965SOL     OW26530   3.818   1.383   8.444  0.1600  0.1872  0.0792
 4965SOL    HW126531   3.775   1.403   8.360  0.3606  0.6886  0.0954
 4965SOL    HW226532   3.743   1.380   8.503  0.3848 -1.4212  0.2779
 4966SOL     OW26533   1.604   2.595   9.457 -0.8015  0.2878 -0.2724
 4966SOL    HW126534   1.595   2.575   9.364 -0.8332  1.7838 -0.5973
 4966SOL    HW226535   1.521   2.640   9.473 -0.1833  1.0984  0.6800
 4967SOL     OW26536   4.437   1.433  16.603  0.0120  0.4474 -0.2120
 4967SOL    HW126537   4.430   1.343  16.572  0.7680 -0.4511  2.1734
 4967SOL    HW226538   4.432   1.477  16.519 -1.1337  2.2801  0.8123
 4968SOL     OW26539   4.198   3.951   6.802  0.1549 -0.0219 -0.2135
 4968SOL    HW126540   4.177   4.034   6.758 -3.0723 -2.2290 -2.8242
 4968SOL    HW226541   4.272   3.922   6.748  2.1014  2.1190  1.2684
 4969SOL     OW26542   1.816   1.539  12.909  0.4863 -0.4767 -0.2808
 4969SOL    HW126543   1.911   1.528  12.910  0.9127  3.1487  0.2923
 4969SOL    HW226544   1.800   1.569  12.998 -1.3033 -1.8226 -0.1631
 4970SOL     OW26545   1.932   3.791  10.609 -0.8877  0.2435 -0.3938
 4970SOL    HW126546   1.950   3.720  10.546  1.9680  0.2633  0.4256
 4970SOL    HW226547   1.914   3.867  10.553  0.7655 -0.4162 -1.8376
 4971SOL     OW26548   2.924   0.960   7.576 -0.3498  0.0052 -0.1056
 4971SOL    HW126549   2.955   1.050   7.578 -2.1297  0.6148  0.2862
 4971SOL    HW226550   2.873   0.964   7.495  0.6227  0.3674 -0.7012
 4972SOL     OW26551   2.903   2.536  12.051  0.1641 -0.0952  0.3551
 4972SOL    HW126552   2.912   2.571  11.962  0.4703  1.2670  0.9271
 4972SOL    HW226553   2.962   2.461  12.062 -2.0974 -1.9949 -0.4434
 4973SOL     OW26554   1.645   3.225  14.147  0.2981  0.1482 -0.3098
 4973SOL    HW126555   1.667   3.318  14.134 -0.6160  0.5696  1.2249
 4973SOL    HW226556   1.682   3.184  14.069  1.8743 -1.3458  1.2556
 4974SOL     OW26557   2.383   2.464  13.333 -0.1533  0.8303 -0.4708
 4974SOL    HW126558   2.398   2.374  13.363  1.0291  0.9940 -0.5739
 4974SOL    HW226559   2.290   2.475  13.355  0.3326  1.0068  1.5197
 4975SOL     OW26560   2.474   2.639   9.526  0.0810 -0.2661  0.1583
 4975SOL    HW126561   2.441   2.553   9.549  1.2348 -0.6168  0.5133
 4975SOL    HW226562   2.398   2.696   9.519 -0.5293 -0.9823  1.0959
 4976SOL     OW26563   4.002   0.576  12.252  0.3090 -0.7007  0.4386
 4976SOL    HW126564   4.048   0.505  12.296  0.1312 -0.6454  0.7152
 4976SOL    HW226565   3.920   0.545  12.290 -0.2365  0.3440  0.1169
 4977SOL     OW26566   0.577   0.759  17.540 -0.1471  0.1626 -0.0606
 4977SOL    HW126567   0.561   0.665  17.538 -0.1056  0.1669 -0.6437
 4977SOL    HW226568   0.663   0.755  17.498 -0.1233  3.1979 -0.3086
 4978SOL     OW26569   0.154   3.804   4.892 -0.1586  0.2808  0.4228
 4978SOL    HW126570   0.065   3.833   4.870  0.2058  1.1164  0.0352
 4978SOL    HW226571   0.178   3.867   4.959  1.2420 -0.8463  0.9739
 4979SOL     OW26572   3.822   1.157  16.494  0.6026 -0.5694  0.1300
 4979SOL    HW126573   3.861   1.217  16.558 -0.3977 -1.3356  1.4721
 4979SOL    HW226574   3.828   1.216  16.419  0.0095  0.6540  1.0437
 4980SOL     OW26575   1.700   2.315   9.909  0.2407  0.8576 -0.0990
 4980SOL    HW126576   1.649   2.256   9.964 -0.2006  1.2605 -0.0698
 4980SOL    HW226577   1.718   2.263   9.830 -2.8700  0.9567 -0.9031
 4981SOL     OW26578   0.303   2.762   6.828  0.2648  0.2299  0.1939
 4981SOL    HW126579   0.279   2.704   6.900  1.9786  1.7267  1.9971
 4981SOL    HW226580   0.357   2.693   6.791 -2.1080 -1.2000 -0.5965
 4982SOL     OW26581   4.476   3.669   0.592  0.1307 -0.3409 -0.0377
 4982SOL    HW126582   4.402   3.688   0.534 -0.5184 -1.1977  0.5046
 4982SOL    HW226583   4.464   3.737   0.659  3.6136  0.7902 -0.5805
 4983SOL     OW26584   1.482   1.135   1.637  0.4458  0.8206 -0.4620
 4983SOL    HW126585   1.521   1.048   1.654  0.0296  0.9778  1.3592
 4983SOL    HW226586   1.447   1.163   1.722 -0.9364 -2.4976  0.0866
 4984SOL     OW26587   0.030   2.928   6.307 -0.1813 -0.0926 -0.8002
 4984SOL    HW126588   0.081   2.847   6.308 -2.3926 -1.4850  1.1587
 4984SOL    HW226589   4.674   2.900   6.320 -0.9370  3.7744  2.3699
 4985SOL     OW26590   3.225   4.476  16.049  0.3554  0.2602  0.0613
 4985SOL    HW126591   3.273   4.495  15.968  1.5857 -1.8545  0.2866
 4985SOL    HW226592   3.263   4.388  16.060  1.3685  0.6333 -0.4357
 4986SOL     OW26593   2.198   0.412   3.293 -0.1038  0.1226  0.0040
 4986SOL    HW126594   2.272   0.380   3.344 -1.9372 -0.9782  1.9824
 4986SOL    HW226595   2.240   0.416   3.207 -1.4421 -0.3973 -0.6604
 4987SOL     OW26596   0.863   3.939   4.082 -0.3277 -0.5070  0.3439
 4987SOL    HW126597   0.924   3.866   4.066  0.5818  0.2002  0.6099
 4987SOL    HW226598   0.909   3.986   4.151 -0.1762  0.1137 -0.1852
 4988SOL     OW26599   4.409   2.819  13.858  0.4007 -0.2264 -0.1665
 4988SOL    HW126600   4.422   2.906  13.896  0.6365 -0.9166  1.3278
 4988SOL    HW226601   4.348   2.777  13.919 -0.1063 -1.0711 -1.2412
 4989SOL     OW26602   2.866   2.988   8.016 -0.3721 -0.1748 -0.4001
 4989SOL    HW126603   2.940   3.005   7.958 -0.2236  0.8008  0.0804
 4989SOL    HW226604   2.861   2.893   8.002 -0.5865 -0.3603  0.8885
 4990SOL     OW26605   2.681   3.896  16.993 -0.7696 -0.2615  0.0734
 4990SOL    HW126606   2.593   3.921  17.020 -0.8963 -0.1781 -0.4079
 4990SOL    HW226607   2.732   3.977  16.987 -0.8192 -0.2761 -0.5473
 4991SOL     OW26608   3.680   2.262   9.518  0.3952  0.4744  0.4376
 4991SOL    HW126609   3.716   2.339   9.475  0.2998  0.4693  0.3500
 4991SOL    HW226610   3.761   2.212   9.525  0.3091 -0.0025 -2.0397
 4992SOL     OW26611   4.733   1.268   8.336  0.2167  0.1037 -0.7292
 4992SOL    HW126612   4.664   1.264   8.269 -1.2311 -3.0057  0.9493
 4992SOL    HW226613   4.725   1.185   8.382  0.4262  0.2955 -0.3480
 4993SOL     OW26614   3.660   3.774   3.141  0.8313  0.6557 -0.4336
 4993SOL    HW126615   3.599   3.786   3.213 -1.8929  0.9007 -2.8001
 4993SOL    HW226616   3.637   3.688   3.108  1.0678 -0.2390  1.7555
 4994SOL     OW26617   2.387   3.414  17.426 -0.1271 -0.2095 -0.2385
 4994SOL    HW126618   2.330   3.465  17.483  0.7045  0.6983 -0.2190
 4994SOL    HW226619   2.405   3.334  17.476  0.8698 -0.4069 -0.9234
 4995SOL     OW26620   4.242   3.872   2.062  0.4280 -0.6544  0.3024
 4995SOL    HW126621   4.325   3.918   2.078  0.1618  0.2605 -0.9699
 4995SOL    HW226622   4.250   3.865   1.967  1.1902  1.1511  0.2361
 4996SOL     OW26623   4.308   0.477   9.254 -0.3111  0.0468  0.0153
 4996SOL    HW126624   4.229   0.531   9.259 -0.7176 -0.7895  3.0539
 4996SOL    HW226625   4.269   0.398   9.216 -0.6006 -0.4208  1.2824
 4997SOL     OW26626   2.926   4.063   7.852  0.1942 -0.1748 -0.0818
 4997SOL    HW126627   2.875   4.032   7.777  1.6981 -0.6229 -0.9186
 4997SOL    HW226628   2.962   4.143   7.815  1.3278 -1.0592 -0.8788
 4998SOL     OW26629   2.619   3.296  12.858  0.0648 -0.1778  0.0377
 4998SOL    HW126630   2.678   3.320  12.930  0.1976  0.2106 -0.2003
 4998SOL    HW226631   2.586   3.384  12.838  0.5226 -0.0065  0.0241
 4999SOL     OW26632   4.264   4.422  11.651  0.0473 -0.1948 -0.0388
 4999SOL    HW126633   4.359   4.423  11.663 -0.2909  0.2752  2.6097
 4999SOL    HW226634   4.261   4.466  11.566  1.1446  1.6238  0.8493
 5000SOL     OW26635   2.340   0.909   6.565 -0.1165  0.0964  0.2841
 5000SOL    HW126636   2.352   0.929   6.658 -1.0666  1.0612  0.1950
 5000SOL    HW226637   2.331   0.998   6.531 -0.9442 -0.2507 -0.3754
 5001SOL     OW26638   3.482   3.122   1.047 -0.2793 -0.3402  0.1234
 5001SOL    HW126639   3.527   3.130   1.131 -1.3754  0.6248  0.6162
 5001SOL    HW226640   3.398   3.087   1.076  0.0317  0.0951  1.5654
 5002SOL     OW26641   3.115   4.715  14.635 -0.8224 -0.4096 -0.4525
 5002SOL    HW126642   3.128   0.014  14.723  1.2324 -0.9317 -0.5420
 5002SOL    HW226643   3.178   4.645  14.617 -0.1325  0.3314 -0.9111
 5003SOL     OW26644   2.529   3.374  16.749 -0.1752 -0.1992 -0.1883
 5003SOL    HW126645   2.597   3.430  16.711 -1.3612 -1.2594 -3.8508
 5003SOL    HW226646   2.562   3.286  16.732 -1.4563 -0.6342 -0.3704
 5004SOL     OW26647   2.321   2.869   5.564  0.1252 -0.2220  0.3225
 5004SOL    HW126648   2.367   2.811   5.503  0.0497 -1.0804  1.0830
 5004SOL    HW226649   2.258   2.812   5.609 -0.2831  0.3452  0.4740
 5005SOL     OW26650   2.076   0.571  17.451  0.2399 -0.1002  0.0968
 5005SOL    HW126651   2.129   0.638  17.407  3.0662 -0.6537  2.6947
 5005SOL    HW226652   2.104   0.492  17.405 -3.2982 -0.3714 -1.6104
 5006SOL     OW26653   2.870   0.522   3.387  0.4405  0.5251  0.0145
 5006SOL    HW126654   2.947   0.472   3.362  0.0746  0.2860 -0.6291
 5006SOL    HW226655   2.911   0.579   3.452 -0.1937 -0.0889  0.9599
 5007SOL     OW26656   0.052   1.723   7.758  0.5586  0.1573  0.4308
 5007SOL    HW126657   0.025   1.710   7.667  0.6393  2.6435  0.0501
 5007SOL    HW226658   4.707   1.718   7.811  1.3884 -1.6040  1.5225
 5008SOL     OW26659   2.516   3.577   7.274 -0.0344 -0.2214  0.1365
 5008SOL    HW126660   2.453   3.626   7.326  0.6624 -1.3845  2.0853
 5008SOL    HW226661   2.598   3.583   7.322  0.1364  1.4903 -0.3712
 5009SOL     OW26662   3.686   4.017   6.454 -0.1814 -0.2211 -0.0901
 5009SOL    HW126663   3.716   4.108   6.452  1.4920 -0.7304  1.1715
 5009SOL    HW226664   3.768   3.981   6.419  0.6645  0.9402  0.6974
 5010SOL     OW26665   0.562   0.282  15.475 -0.0559  0.3913 -0.5375
 5010SOL    HW126666   0.643   0.313  15.435  0.2991  0.9722  0.6299
 5010SOL    HW226667   0.586   0.206  15.527 -1.2319 -1.2367 -2.4116
 5011SOL     OW26668   0.164   3.893   7.506  0.7735 -0.6001 -0.1336
 5011SOL    HW126669   0.167   3.804   7.470 -0.1040 -0.7794  0.2318
 5011SOL    HW226670   0.075   3.889   7.540  0.5484 -0.7728 -0.7283
 5012SOL     OW26671   3.455   0.293  17.351  0.3765  0.3591  0.4108
 5012SOL    HW126672   3.403   0.354  17.403  0.2986 -0.0064  0.7579
 5012SOL    HW226673   3.442   0.217  17.407 -0.7545 -0.0167 -0.3501
 5013SOL     OW26674   2.722   1.487   6.363  0.3358  0.1318 -0.0258
 5013SOL    HW126675   2.707   1.490   6.457  0.0421 -1.4538 -0.0309
 5013SOL    HW226676   2.661   1.556   6.335 -0.2946 -0.4788 -0.1377
 5014SOL     OW26677   1.453   1.392   6.673 -0.1013 -0.0741  0.0795
 5014SOL    HW126678   1.514   1.352   6.735  1.9717  1.6242 -0.8752
 5014SOL    HW226679   1.398   1.317   6.651  1.1197  0.0432 -3.2731
 5015SOL     OW26680   0.706   3.975   6.195  0.8972  0.1705 -0.6238
 5015SOL    HW126681   0.741   4.031   6.125 -0.5632 -0.2609 -1.6914
 5015SOL    HW226682   0.756   4.023   6.263 -1.3283 -0.8042  1.7006
 5016SOL     OW26683   2.546   0.288  11.113  0.2619  0.1133  0.2299
 5016SOL    HW126684   2.547   0.382  11.092  0.7416  0.9569  4.0203
 5016SOL    HW226685   2.586   0.243  11.039 -1.0760 -2.5579  1.1453
 5017SOL     OW26686   3.558   1.224   5.160  0.7556  0.5844 -0.0999
 5017SOL    HW126687   3.520   1.283   5.226 -0.9633  2.3546 -2.6875
 5017SOL    HW226688   3.550   1.134   5.192  1.5893  1.5917  2.9780
 5018SOL     OW26689   1.551   4.186   7.612 -0.1099 -0.1246  0.0860
 5018SOL    HW126690   1.551   4.091   7.623  1.0533  0.0452  1.5258
 5018SOL    HW226691   1.594   4.203   7.528 -0.4927 -0.3272 -0.1470
 5019SOL     OW26692   3.457   2.073   5.250 -0.0393  0.1080 -0.4193
 5019SOL    HW126693   3.440   2.116   5.334  1.5607 -2.7686  1.3983
 5019SOL    HW226694   3.546   2.046   5.273 -0.3655 -1.2651 -0.7731
 5020SOL     OW26695   3.954   3.686   8.096 -0.0159 -1.0668  0.0036
 5020SOL    HW126696   3.907   3.629   8.157  0.0715 -0.7444  0.3789
 5020SOL    HW226697   3.883   3.739   8.061 -0.7419 -1.6264  0.6287
 5021SOL     OW26698   2.696   0.097   5.922 -0.3881 -0.0090 -0.0091
 5021SOL    HW126699   2.648   0.115   5.841 -3.9625  1.0179  2.3597
 5021SOL    HW226700   2.625   0.100   5.985 -1.9666 -1.4911 -1.7100
 5022SOL     OW26701   1.559   1.717   2.906  0.0085  0.2392  0.7048
 5022SOL    HW126702   1.481   1.673   2.871 -0.7332  3.2412 -1.3945
 5022SOL    HW226703   1.615   1.640   2.912 -0.4183 -0.1011  0.2888
 5023SOL     OW26704   3.775   0.734  16.337  0.9491  0.7196 -0.4201
 5023SOL    HW126705   3.724   0.652  16.330  2.1114 -0.0096 -0.2500
 5023SOL    HW226706   3.859   0.693  16.356  1.1064  2.0749  1.7720
 5024SOL     OW26707   3.101   3.819  13.276  0.2619  0.0590 -0.8685
 5024SOL    HW126708   3.035   3.869  13.324  0.5460  0.7483 -1.1959
 5024SOL    HW226709   3.082   3.728  13.298  0.2093  0.1648 -0.4783
 5025SOL     OW26710   3.084   3.656   8.782  0.0443 -0.0179  0.3226
 5025SOL    HW126711   3.054   3.565   8.776  2.5259 -0.9545  2.1459
 5025SOL    HW226712   3.092   3.683   8.691  1.8833 -0.3962  0.3732
 5026SOL     OW26713   1.554   3.838  14.629 -0.8018  0.3296  0.3537
 5026SOL    HW126714   1.514   3.925  14.629 -2.9325 -0.6326 -0.7212
 5026SOL    HW226715   1.643   3.853  14.661 -0.4376 -0.7727 -0.1573
 5027SOL     OW26716   4.715   0.482  11.527  0.4716 -0.0239  0.4941
 5027SOL    HW126717   4.653   0.515  11.461 -0.4686 -0.8388  0.9587
 5027SOL    HW226718   4.651   0.426  11.571 -0.6398  0.1250 -0.9169
 5028SOL     OW26719   1.053   3.904   8.856 -0.9146  0.0065  0.2119
 5028SOL    HW126720   1.128   3.956   8.830 -0.8188 -0.4856 -0.4915
 5028SOL    HW226721   0.996   3.908   8.779  0.2501 -1.9184 -0.7325
 5029SOL     OW26722   1.817   0.443   5.107 -0.4404  0.0625  0.1259
 5029SOL    HW126723   1.911   0.456   5.112 -0.3691 -1.0317  1.6084
 5029SOL    HW226724   1.805   0.380   5.036 -1.6886  1.6639 -1.1081
 5030SOL     OW26725   2.927   3.792   1.120  0.6075  0.2240  0.1064
 5030SOL    HW126726   2.974   3.799   1.203  0.7431  1.5312 -0.0707
 5030SOL    HW226727   2.874   3.872   1.121  1.5059  0.8003  1.4106
 5031SOL     OW26728   1.323   3.201   4.008 -0.1901 -0.2030  0.5334
 5031SOL    HW126729   1.345   3.281   3.961  2.0142 -0.7969  0.5760
 5031SOL    HW226730   1.386   3.135   3.978 -1.4343 -1.7047  1.1664
 5032SOL     OW26731   0.792   3.014   9.420 -0.5690 -0.2763 -0.2501
 5032SOL    HW126732   0.811   3.060   9.337 -0.7164 -1.5972 -1.0074
 5032SOL    HW226733   0.727   3.070   9.463  2.4003  2.1261  1.1217
 5033SOL     OW26734   4.516   0.447   6.370  0.2716  0.3525 -0.0408
 5033SOL    HW126735   4.441   0.507   6.367 -1.2527 -1.6421 -1.9854
 5033SOL    HW226736   4.486   0.361   6.341  1.7664 -1.4491  3.7913
 5034SOL     OW26737   1.290   1.333   6.268 -0.2993  0.1763  0.1234
 5034SOL    HW126738   1.378   1.348   6.300 -1.0280  1.3778  1.5358
 5034SOL    HW226739   1.288   1.385   6.187  3.2563  0.8237  0.4916
 5035SOL     OW26740   0.412   3.112   2.728 -0.4187  0.1195 -0.0715
 5035SOL    HW126741   0.412   3.176   2.799 -1.3032  0.1461 -0.0982
 5035SOL    HW226742   0.502   3.124   2.698 -0.7798 -1.9652 -1.9494
 5036SOL     OW26743   3.396   4.119   9.198 -0.0568 -0.0688  0.2773
 5036SOL    HW126744   3.372   4.047   9.256  0.5669 -0.5977 -0.1355
 5036SOL    HW226745   3.486   4.124   9.232  0.4718 -2.1361 -0.8559
 5037SOL     OW26746   1.026   0.471  13.116 -0.1353 -0.8099 -0.2456
 5037SOL    HW126747   1.114   0.507  13.127 -1.3204  2.1542 -0.6565
 5037SOL    HW226748   1.010   0.456  13.023  0.8217  0.0941 -0.5495
 5038SOL     OW26749   0.242   1.361   9.275  0.5329  0.4571 -0.3354
 5038SOL    HW126750   0.278   1.295   9.335  0.0518 -0.3996 -0.9917
 5038SOL    HW226751   0.285   1.330   9.196 -0.1479 -0.5281 -0.3194
 5039SOL     OW26752   0.328   1.039   3.649  0.0460  0.0562 -0.7222
 5039SOL    HW126753   0.248   1.004   3.687  0.9366 -0.0819  1.0354
 5039SOL    HW226754   0.378   0.957   3.641 -1.4370 -0.8771 -0.3041
 5040SOL     OW26755   3.431   1.125   2.322  0.4061 -0.1594 -0.1361
 5040SOL    HW126756   3.410   1.153   2.411  1.5753  0.1060  0.0515
 5040SOL    HW226757   3.395   1.205   2.283  1.3657  0.1259 -0.4279
 5041SOL     OW26758   3.763   0.648  14.146  0.4829 -0.0840  0.6005
 5041SOL    HW126759   3.856   0.630  14.153  0.4925 -0.1170  0.3888
 5041SOL    HW226760   3.756   0.718  14.211  0.7287  1.1169 -0.6545
 5042SOL     OW26761   4.667   2.055   1.336  0.1692  0.5495  0.2090
 5042SOL    HW126762   4.585   2.097   1.310  0.0220  1.5639  2.3854
 5042SOL    HW226763   4.634   1.968   1.358 -0.2151 -0.0500 -2.7437
 5043SOL     OW26764   2.368   2.764   3.044  0.3121  0.5774 -0.0401
 5043SOL    HW126765   2.287   2.814   3.055  0.3216  0.4097  0.7937
 5043SOL    HW226766   2.334   2.675   3.031 -0.6474  0.8383  0.7685
 5044SOL     OW26767   1.119   0.702   8.642 -0.0194  0.5722 -0.1454
 5044SOL    HW126768   1.042   0.693   8.698  0.4675  2.1591  0.7664
 5044SOL    HW226769   1.090   0.770   8.582  0.9753 -0.9432 -2.3513
 5045SOL     OW26770   3.829   3.176   3.277 -0.4080 -0.8681  0.2186
 5045SOL    HW126771   3.777   3.130   3.211 -1.2224  1.3884 -0.7295
 5045SOL    HW226772   3.905   3.120   3.291  0.1150 -0.1267  0.3577
 5046SOL     OW26773   1.811   2.532   9.016 -0.1538  0.2548  0.4341
 5046SOL    HW126774   1.782   2.603   9.072  0.7307 -0.6152  2.0037
 5046SOL    HW226775   1.736   2.522   8.958 -0.5319 -0.5550  1.0567
 5047SOL     OW26776   4.145   4.361   7.944  0.5386  0.7797 -0.2174
 5047SOL    HW126777   4.187   4.435   7.989 -0.4723  1.3892 -0.2650
 5047SOL    HW226778   4.164   4.376   7.851 -0.4546 -1.5409 -0.7953
 5048SOL     OW26779   0.681   0.140  11.474  0.3661 -0.2432 -0.4772
 5048SOL    HW126780   0.770   0.158  11.507 -0.0716  0.0235  0.5820
 5048SOL    HW226781   0.637   0.090  11.543 -1.4185  1.0424 -0.6916
 5049SOL     OW26782   1.049   4.452   6.945  0.6271 -0.6014  0.1635
 5049SOL    HW126783   0.989   4.383   6.917  0.0009 -0.3523  0.8872
 5049SOL    HW226784   1.130   4.422   6.904  0.0113 -0.6455 -1.0038
 5050SOL     OW26785   0.126   3.048   0.566 -0.0301  0.5200  0.1895
 5050SOL    HW126786   0.064   3.002   0.510 -1.0153  2.1991 -0.1009
 5050SOL    HW226787   0.104   3.136   0.534 -0.7444  0.5049  0.6550
 5051SOL     OW26788   1.152   1.025   8.268  0.1829  0.5918  0.1213
 5051SOL    HW126789   1.107   0.973   8.201  2.3977 -2.9032  1.3946
 5051SOL    HW226790   1.133   1.118   8.256 -0.3960  0.4546 -0.0492
 5052SOL     OW26791   4.020   4.401   7.261  0.4081  0.2034  0.1024
 5052SOL    HW126792   4.016   4.335   7.330  0.6751  0.5309  0.4341
 5052SOL    HW226793   3.936   4.394   7.216 -0.4632 -0.5453  1.8278
 5053SOL     OW26794   3.518   3.824   2.763  0.2347 -0.0247 -0.3991
 5053SOL    HW126795   3.519   3.883   2.838  2.0299 -2.1064  1.2149
 5053SOL    HW226796   3.605   3.811   2.726  0.9399  1.3610  0.7775
 5054SOL     OW26797   1.346   1.707   7.230 -0.5329  0.3654  0.2950
 5054SOL    HW126798   1.416   1.772   7.222  0.5376 -0.6475  1.5235
 5054SOL    HW226799   1.272   1.762   7.205  0.2455  1.1386 -0.3084
 5055SOL     OW26800   1.081   0.374   4.166 -0.3465  0.1133 -0.1578
 5055SOL    HW126801   1.062   0.456   4.120 -1.5085  0.2584  0.5739
 5055SOL    HW226802   1.125   0.316   4.103  1.1820  1.0262  0.0641
 5056SOL     OW26803   1.213   3.015   8.085  0.0939  0.0920  0.1748
 5056SOL    HW126804   1.142   2.994   8.025  0.3575 -0.8859  0.2137
 5056SOL    HW226805   1.227   2.933   8.133 -0.0433  1.2500  2.1863
 5057SOL     OW26806   0.065   0.691   2.418  0.8381  0.0477 -0.1866
 5057SOL    HW126807   0.038   0.599   2.408  1.3138 -0.2835  1.5641
 5057SOL    HW226808   4.720   0.728   2.456  0.0529  0.1053 -1.8948
 5058SOL     OW26809   2.968   3.977  15.213  0.3725 -0.4142 -0.0066
 5058SOL    HW126810   2.932   3.892  15.239  1.0247 -0.4965  0.6064
 5058SOL    HW226811   2.994   3.961  15.122 -0.3119  0.5780 -0.3799
 5059SOL     OW26812   2.392   2.089   3.463  0.2176 -0.4280  0.2437
 5059SOL    HW126813   2.305   2.078   3.499 -0.7320 -1.8349 -2.4705
 5059SOL    HW226814   2.444   2.120   3.537 -0.0222  1.6897 -0.4791
 5060SOL     OW26815   4.569   2.255   2.631 -0.1908  0.1409  0.1038
 5060SOL    HW126816   4.627   2.329   2.648  0.5618 -0.4558  0.1245
 5060SOL    HW226817   4.493   2.290   2.585 -1.2333 -1.1302  0.8373
 5061SOL     OW26818   0.667   4.319   5.166  0.1657 -0.4180  0.1220
 5061SOL    HW126819   0.623   4.366   5.237 -0.8329  0.7959 -1.3197
 5061SOL    HW226820   0.756   4.340   5.194  0.8790  0.1771 -2.5599
 5062SOL     OW26821   0.746   4.410   0.864 -0.7516 -0.4113 -0.1750
 5062SOL    HW126822   0.662   4.386   0.826 -1.4806 -0.8661  1.7167
 5062SOL    HW226823   0.741   4.502   0.839 -0.6211 -0.7343 -1.3735
 5063SOL     OW26824   1.002   1.789   8.753 -0.2151  0.6881  0.2954
 5063SOL    HW126825   0.923   1.784   8.806 -0.3592  2.5209  0.2546
 5063SOL    HW226826   1.038   1.705   8.783 -0.4395  0.2853 -0.5653
 5064SOL     OW26827   1.758   0.314  11.983  0.0966  0.3379 -0.0505
 5064SOL    HW126828   1.852   0.319  11.999  0.0290 -0.5778  0.6531
 5064SOL    HW226829   1.746   0.219  11.994 -2.4074  0.6143 -0.2875
 5065SOL     OW26830   1.472   2.760  10.261  0.0507  0.5323 -0.2374
 5065SOL    HW126831   1.404   2.698  10.234  1.7231  0.0377 -3.2770
 5065SOL    HW226832   1.465   2.823  10.189  3.5648  1.1837 -0.0157
 5066SOL     OW26833   0.722   0.935   7.007  0.2602  0.4965  0.2359
 5066SOL    HW126834   0.636   0.977   7.001 -0.0039  0.2071  2.0030
 5066SOL    HW226835   0.768   1.008   7.048  0.9879  1.3428 -2.0870
 5067SOL     OW26836   4.249   4.404  15.083 -0.3987  0.0024 -0.8063
 5067SOL    HW126837   4.153   4.399  15.085 -0.3329 -1.0534 -0.1663
 5067SOL    HW226838   4.259   4.448  14.999  1.7365  0.5182 -0.2716
 5068SOL     OW26839   1.541   2.492   8.930 -0.5203  0.3848 -0.6424
 5068SOL    HW126840   1.541   2.538   8.846  1.8745  1.2337 -0.1688
 5068SOL    HW226841   1.447   2.505   8.944 -0.8380 -2.2286 -0.3592
 5069SOL     OW26842   3.191   0.571   9.427 -0.3927 -0.4192 -0.0841
 5069SOL    HW126843   3.176   0.477   9.418  1.5479 -0.6774 -0.5912
 5069SOL    HW226844   3.230   0.587   9.341  1.6058 -1.9663  0.5466
 5070SOL     OW26845   0.119   0.217   5.595 -0.1569 -0.0535  0.1216
 5070SOL    HW126846   0.135   0.312   5.596  3.6082 -0.6704 -1.5512
 5070SOL    HW226847   0.056   0.216   5.523  0.2702 -3.9637 -0.1984
 5071SOL     OW26848   4.055   2.455   7.947 -0.4947 -0.3035  0.0695
 5071SOL    HW126849   4.095   2.516   7.886 -0.7528 -0.4533 -0.2500
 5071SOL    HW226850   4.129   2.439   8.006 -0.2781 -0.6672 -0.3054
 5072SOL     OW26851   2.598   0.893  10.493  0.0408  0.0100 -0.9695
 5072SOL    HW126852   2.552   0.976  10.508 -0.3516 -0.4022  0.0705
 5072SOL    HW226853   2.685   0.929  10.478  0.0824  0.4044  0.2522
 5073SOL     OW26854   3.099   1.254   2.701  0.1148  0.6195 -0.4767
 5073SOL    HW126855   3.028   1.208   2.746 -0.6831  2.5252  0.1813
 5073SOL    HW226856   3.065   1.343   2.695  2.8121  1.6152 -0.9623
 5074SOL     OW26857   2.544   0.077   5.241 -0.7630 -0.0281  0.3708
 5074SOL    HW126858   2.636   0.095   5.221 -0.7339  1.3153  1.7245
 5074SOL    HW226859   2.504   0.164   5.230  1.1890  1.0420  1.6541
 5075SOL     OW26860   4.588   2.595   4.853 -0.4713 -0.5954 -0.1216
 5075SOL    HW126861   4.667   2.627   4.896  0.4395 -3.2509  0.1514
 5075SOL    HW226862   4.608   2.502   4.846  2.1515 -0.0363 -0.1026
 5076SOL     OW26863   0.125   2.882   8.268 -0.0544  0.0946 -0.7091
 5076SOL    HW126864   0.066   2.920   8.333 -0.5869 -2.8688  0.5731
 5076SOL    HW226865   0.196   2.946   8.263 -1.0870  1.2837 -0.0722
 5077SOL     OW26866   1.071   4.356   6.275 -0.2231  0.1839 -0.0626
 5077SOL    HW126867   1.001   4.295   6.251  0.1971  0.2678 -1.4999
 5077SOL    HW226868   1.068   4.342   6.370 -0.1808 -1.2400 -0.2670
 5078SOL     OW26869   3.471   0.954   1.761 -0.1914 -0.2052 -0.2046
 5078SOL    HW126870   3.488   0.864   1.786 -0.1051 -0.7081 -2.0629
 5078SOL    HW226871   3.523   1.001   1.826 -1.1134  0.8206 -0.1989
 5079SOL     OW26872   1.785   3.605  10.734 -0.3504  0.0485  0.2829
 5079SOL    HW126873   1.820   3.678  10.683 -1.3579  0.1341 -0.2843
 5079SOL    HW226874   1.785   3.641  10.823  0.9430  2.2924 -0.6173
 5080SOL     OW26875   1.755   3.696   1.919 -0.0779 -0.8812 -0.2126
 5080SOL    HW126876   1.689   3.690   1.987 -1.8447  0.0121 -1.8772
 5080SOL    HW226877   1.778   3.605   1.899 -0.9421 -0.6510 -2.3233
 5081SOL     OW26878   1.768   3.903   7.745 -0.3758  0.0810  0.4342
 5081SOL    HW126879   1.780   3.821   7.697 -3.0096 -0.3305  0.4711
 5081SOL    HW226880   1.681   3.927   7.713  0.2043  3.0825  1.1562
 5082SOL     OW26881   2.348   3.519   2.418  0.9297  0.3908  0.0987
 5082SOL    HW126882   2.259   3.553   2.419  0.9198  0.3617  0.2646
 5082SOL    HW226883   2.331   3.427   2.435 -0.9503  1.3045  3.2295
 5083SOL     OW26884   1.515   4.647  13.815 -0.5036  0.6571  0.0580
 5083SOL    HW126885   1.501   4.577  13.879 -0.2025  1.2161  0.7348
 5083SOL    HW226886   1.580   4.709  13.849  1.2483 -1.1473  0.0350
 5084SOL     OW26887   2.739   0.555   6.426 -0.2581  0.5099  0.1003
 5084SOL    HW126888   2.661   0.598   6.462 -2.0822 -2.4090 -0.4070
 5084SOL    HW226889   2.774   0.499   6.496  0.0923  0.9596  0.2887
 5085SOL     OW26890   2.973   4.599   2.895  0.2116 -0.2724 -0.2205
 5085SOL    HW126891   3.004   4.689   2.907  0.4181 -0.4928  0.9560
 5085SOL    HW226892   2.885   4.622   2.867  0.3825 -0.4391 -0.9037
 5086SOL     OW26893   0.770   1.872   1.672 -0.1673 -0.6063  0.5911
 5086SOL    HW126894   0.688   1.822   1.670  0.9308 -2.5139  3.9003
 5086SOL    HW226895   0.738   1.953   1.631 -0.7898 -1.1799 -0.0854
 5087SOL     OW26896   4.220   2.492   7.426  0.1874 -0.5694  0.5970
 5087SOL    HW126897   4.178   2.546   7.494  0.3456 -0.1643  0.3745
 5087SOL    HW226898   4.274   2.560   7.385 -0.3152 -0.4833  0.0816
 5088SOL     OW26899   2.918   4.068  17.369  0.0503 -0.2735  0.0064
 5088SOL    HW126900   2.906   4.162  17.353 -0.5364 -0.4226 -0.4590
 5088SOL    HW226901   2.934   4.063  17.463  0.8515 -0.5109 -0.1493
 5089SOL     OW26902   1.320   3.410   0.439 -0.3330 -0.4826  0.3560
 5089SOL    HW126903   1.237   3.381   0.402 -0.4722 -0.7943  0.9229
 5089SOL    HW226904   1.379   3.347   0.397 -1.4695 -1.6192  0.4704
 5090SOL     OW26905   1.880   1.795   2.306  0.2996 -0.3206 -0.0997
 5090SOL    HW126906   1.948   1.743   2.350  0.3386  0.5977  0.9309
 5090SOL    HW226907   1.824   1.726   2.272 -0.5249 -0.7654  2.1420
 5091SOL     OW26908   3.389   3.234   3.069 -0.3802 -0.3947 -0.4023
 5091SOL    HW126909   3.481   3.252   3.051 -0.3182  0.7901  1.0771
 5091SOL    HW226910   3.385   3.145   3.034  0.2847 -0.6746  0.2087
 5092SOL     OW26911   2.589   3.581  13.241  0.2204 -0.0639 -0.5631
 5092SOL    HW126912   2.677   3.545  13.236  0.2022  0.2104 -2.7268
 5092SOL    HW226913   2.615   3.649  13.303  0.8999  0.7604 -1.7516
 5093SOL     OW26914   1.981   0.861  16.795 -0.2991 -0.2695  0.3155
 5093SOL    HW126915   2.069   0.893  16.775 -1.1822  2.3133  0.6332
 5093SOL    HW226916   1.928   0.934  16.764  1.5657  0.9068 -0.1078
 5094SOL     OW26917   3.288   2.882   0.262 -0.2027 -0.2379  0.9932
 5094SOL    HW126918   3.259   2.950   0.201 -1.5849  0.3401  2.2809
 5094SOL    HW226919   3.201   2.878   0.301 -0.2431 -0.4598  0.8778
 5095SOL     OW26920   1.614   3.752  14.361 -0.1020 -0.1980 -0.0794
 5095SOL    HW126921   1.616   3.785  14.451 -1.7425 -1.6848  0.5041
 5095SOL    HW226922   1.524   3.725  14.346  0.1220  0.3573 -2.3113
 5096SOL     OW26923   1.689   4.682   7.850  0.3339 -0.2424  0.2003
 5096SOL    HW126924   1.649   4.638   7.925  1.1080 -2.6623 -0.8120
 5096SOL    HW226925   1.742   0.014   7.893 -0.5552  0.8785 -0.4569
 5097SOL     OW26926   0.608   2.191   6.838  0.1468 -0.1296  0.2594
 5097SOL    HW126927   0.600   2.163   6.747  0.2380  2.1754 -0.4456
 5097SOL    HW226928   0.659   2.117   6.871 -1.1668 -1.5933 -1.0344
 5098SOL     OW26929   2.147   0.142   8.848  0.2883 -0.2612  0.3676
 5098SOL    HW126930   2.106   0.143   8.934 -1.6427  0.0541 -0.5638
 5098SOL    HW226931   2.084   0.083   8.808  0.2934 -0.8667  1.2652
 5099SOL     OW26932   1.813   2.620  16.722 -0.3239  0.4078  0.3163
 5099SOL    HW126933   1.765   2.537  16.716  1.4551 -0.4992 -1.3044
 5099SOL    HW226934   1.743   2.683  16.703  0.2596  1.4265  1.5665
 5100SOL     OW26935   1.107   0.496   8.935  0.0413 -0.2679 -0.4067
 5100SOL    HW126936   1.134   0.500   9.027  1.1488  0.0441 -0.7382
 5100SOL    HW226937   1.181   0.534   8.886 -0.5236  1.5767  0.1643
 5101SOL     OW26938   4.273   1.622   4.832  0.4277  0.1115 -0.2748
 5101SOL    HW126939   4.279   1.527   4.822  2.1810  0.2321 -0.3831
 5101SOL    HW226940   4.205   1.630   4.898 -0.3260 -0.4445 -0.9854
 5102SOL     OW26941   2.598   2.441  16.544  0.3096 -0.5356  0.8415
 5102SOL    HW126942   2.681   2.480  16.516  0.1990 -0.4247  0.6713
 5102SOL    HW226943   2.604   2.456  16.638  2.9081  0.3257  0.5322
 5103SOL     OW26944   1.942   0.468   4.714 -0.2523 -0.3030 -0.4985
 5103SOL    HW126945   2.007   0.447   4.781  1.7232  0.2519 -2.2529
 5103SOL    HW226946   1.929   0.559   4.739 -1.4475 -0.2341 -1.3389
 5104SOL     OW26947   2.725   1.539   3.392 -0.8653  0.1755 -0.0120
 5104SOL    HW126948   2.773   1.503   3.318 -1.2127  1.8448 -1.0502
 5104SOL    HW226949   2.642   1.494   3.381 -0.8608  0.1366  0.1063
 5105SOL     OW26950   2.085   4.599   4.882  0.6934  0.3796 -0.3001
 5105SOL    HW126951   2.175   4.566   4.886 -0.2761 -2.0903  1.2206
 5105SOL    HW226952   2.065   4.585   4.790 -0.1704 -1.2739  0.1306
 5106SOL     OW26953   0.780   1.477   4.674 -0.2633 -0.0476  0.0452
 5106SOL    HW126954   0.836   1.552   4.654  0.8221 -0.4176  1.6686
 5106SOL    HW226955   0.768   1.490   4.767  0.1525 -0.5544  0.1743
 5107SOL     OW26956   0.273   3.324   6.129 -0.4170 -0.3512 -0.2102
 5107SOL    HW126957   0.198   3.372   6.165  0.0241 -0.4147  0.7855
 5107SOL    HW226958   0.235   3.237   6.123 -1.9851  0.3660 -0.6510
 5108SOL     OW26959   2.634   2.866   6.703  0.0638 -0.4027 -0.3381
 5108SOL    HW126960   2.568   2.800   6.682 -1.3638  1.7115 -2.5249
 5108SOL    HW226961   2.623   2.892   6.795  0.6287  1.7443 -0.8661
 5109SOL     OW26962   2.031   3.915   2.508 -0.1102 -0.0516  0.0288
 5109SOL    HW126963   2.116   3.900   2.468 -1.5592 -0.2413 -2.9842
 5109SOL    HW226964   1.996   3.988   2.456  1.3044  0.6768  0.0914
 5110SOL     OW26965   1.953   1.547   1.997  0.1833 -0.1515  0.2952
 5110SOL    HW126966   2.037   1.584   2.022 -0.3370  1.8871 -0.9511
 5110SOL    HW226967   1.904   1.624   1.965 -0.1136 -0.0767  0.9309
 5111SOL     OW26968   1.192   1.056   1.718 -0.1264  0.1059  0.2804
 5111SOL    HW126969   1.250   1.104   1.777 -0.2083 -1.4523  1.6039
 5111SOL    HW226970   1.155   1.129   1.667 -0.1494 -0.6760 -0.8180
 5112SOL     OW26971   0.341   3.646   2.863  0.5096 -0.0343  0.3414
 5112SOL    HW126972   0.248   3.644   2.885  0.1836  1.8455 -0.8540
 5112SOL    HW226973   0.358   3.552   2.863  0.3488 -0.0658 -0.7129
 5113SOL     OW26974   0.002   2.176   7.210  0.3924 -0.0095  0.2211
 5113SOL    HW126975   0.090   2.158   7.242  0.9435  2.3952  0.0364
 5113SOL    HW226976   4.688   2.179   7.293 -1.9461 -0.3404 -1.1307
 5114SOL     OW26977   3.101   2.828  13.201 -0.6589 -0.5832  0.2765
 5114SOL    HW126978   3.085   2.809  13.108  0.2973  1.7628 -0.3543
 5114SOL    HW226979   3.013   2.850  13.232 -0.3412  2.8773 -1.3426
 5115SOL     OW26980   0.037   2.799   2.100 -0.5283 -0.3893  0.3068
 5115SOL    HW126981   0.090   2.747   2.040 -0.5547  0.5843 -0.5644
 5115SOL    HW226982   0.040   2.886   2.060 -0.2820  0.1136  1.4206
 5116SOL     OW26983   0.140   1.292  11.745  0.0978  0.5051 -0.0801
 5116SOL    HW126984   0.077   1.223  11.724 -0.2198  1.0974 -1.0525
 5116SOL    HW226985   0.102   1.371  11.708 -0.1851  0.1631 -0.5139
 5117SOL     OW26986   0.616   0.170   2.103  0.8211 -0.2826  0.5459
 5117SOL    HW126987   0.606   0.135   2.192 -1.9966 -1.4801 -0.2043
 5117SOL    HW226988   0.531   0.211   2.085 -0.7341 -3.3046  0.8197
 5118SOL     OW26989   0.768   4.235   8.377  0.0918  0.2878  0.0151
 5118SOL    HW126990   0.690   4.226   8.323  0.4446 -1.3080 -0.2118
 5118SOL    HW226991   0.755   4.324   8.411 -0.3398  0.1348  0.2527
 5119SOL     OW26992   4.670   1.824   7.079  0.1071  0.1050 -0.2211
 5119SOL    HW126993   4.613   1.783   7.014  0.5612  0.8238 -1.0729
 5119SOL    HW226994   4.628   1.910   7.080  0.9657  0.5136  2.1216
 5120SOL     OW26995   3.457   3.815   3.838 -0.3269 -0.0565 -0.2473
 5120SOL    HW126996   3.377   3.795   3.887  0.6763  2.4255  2.3976
 5120SOL    HW226997   3.416   3.797   3.753 -3.5526  1.1317  1.0343
 5121SOL     OW26998   1.914   3.264   4.575 -0.1394  0.3400 -0.1883
 5121SOL    HW126999   1.875   3.325   4.638 -0.9369 -1.0914  0.6879
 5121SOL    HW227000   1.841   3.208   4.549 -0.0274  0.0418  0.1438
 5122SOL     OW27001   3.875   3.172   4.181 -0.4001 -0.1858 -0.4813
 5122SOL    HW127002   3.957   3.139   4.219 -0.5604 -1.5555 -1.2976
 5122SOL    HW227003   3.881   3.136   4.092  0.1935 -1.1383 -0.0610
 5123SOL     OW27004   2.955   1.415   7.736  0.1972  0.2325  0.2229
 5123SOL    HW127005   3.014   1.353   7.780 -0.7242 -0.2590  0.7667
 5123SOL    HW227006   2.874   1.372   7.763  0.0959  2.3502  3.3482
 5124SOL     OW27007   0.435   1.088   8.748  0.8303 -0.3198 -0.4933
 5124SOL    HW127008   0.361   1.124   8.699  0.1793  0.6981  1.2351
 5124SOL    HW227009   0.407   0.998   8.768 -0.3099  0.3461  0.9284
 5125SOL     OW27010   4.550   4.603   5.443 -0.1057  0.2579  0.1675
 5125SOL    HW127011   4.490   4.675   5.461 -1.4897 -0.0096 -3.3904
 5125SOL    HW227012   4.571   4.570   5.531  1.2549 -0.3190 -0.3602
 5126SOL     OW27013   4.321   1.300   9.286  0.8822 -0.7552  0.0445
 5126SOL    HW127014   4.313   1.227   9.224  0.2776 -1.1738  0.6124
 5126SOL    HW227015   4.405   1.338   9.263 -0.7457  2.3633 -0.8150
 5127SOL     OW27016   1.016   0.379   3.556  0.2061  0.1199 -0.3552
 5127SOL    HW127017   1.042   0.306   3.500 -0.0428 -2.3670  2.7962
 5127SOL    HW227018   0.997   0.328   3.635  2.4561  1.2070  0.8952
 5128SOL     OW27019   0.171   4.522  11.139 -0.0595  0.5873 -0.2795
 5128SOL    HW127020   0.228   4.574  11.082  0.8721 -0.8735 -0.6627
 5128SOL    HW227021   0.091   4.514  11.086 -1.6779  0.3006  2.1820
 5129SOL     OW27022   0.191   0.937   9.425 -0.0355  0.1419 -0.2427
 5129SOL    HW127023   0.145   1.011   9.465 -0.4813 -0.0581 -0.3857
 5129SOL    HW227024   0.139   0.931   9.345  1.0024 -1.8392 -0.7613
 5130SOL     OW27025   1.506   0.063  17.514 -0.0756  0.3411 -0.0397
 5130SOL    HW127026   1.547   0.149  17.527  1.4468 -0.5371  0.9890
 5130SOL    HW227027   1.589   0.020  17.534  0.2954  1.4982  0.9450
 5131SOL     OW27028   2.500   2.560   7.052 -0.0802  0.1679 -0.3083
 5131SOL    HW127029   2.466   2.640   7.092  0.6756 -0.0525  0.7590
 5131SOL    HW227030   2.507   2.511   7.134 -2.0021  1.2345  0.4863
 5132SOL     OW27031   3.043   3.568   2.108 -0.2908 -0.2951 -0.3216
 5132SOL    HW127032   3.055   3.502   2.177 -1.0474 -0.0799  0.0179
 5132SOL    HW227033   3.014   3.641   2.162 -0.5038 -1.3769  1.0532
 5133SOL     OW27034   0.764   3.556   6.255 -0.8753  0.2508 -0.1153
 5133SOL    HW127035   0.804   3.618   6.315 -0.0396  1.6348 -2.1003
 5133SOL    HW227036   0.753   3.474   6.303 -0.0750  0.2768  0.1081
 5134SOL     OW27037   3.043   1.201   7.564 -0.3088 -0.1140 -0.0664
 5134SOL    HW127038   3.010   1.284   7.598  1.1372  1.0360 -1.4328
 5134SOL    HW227039   3.135   1.222   7.545 -0.5563  1.1600  0.1395
 5135SOL     OW27040   0.978   2.560   7.369  0.1093  0.8782 -0.0829
 5135SOL    HW127041   1.025   2.482   7.341 -2.1790 -1.2848  2.0098
 5135SOL    HW227042   0.893   2.527   7.399  0.2395  0.6367  0.0260
 5136SOL     OW27043   0.270   2.334   6.681 -0.6617  0.6526 -0.1209
 5136SOL    HW127044   0.180   2.361   6.662 -1.7988 -1.3836  2.4409
 5136SOL    HW227045   0.265   2.241   6.700 -0.0474  0.2770 -1.7614
 5137SOL     OW27046   2.073   1.482   1.720 -0.2325  0.5943 -0.3867
 5137SOL    HW127047   2.018   1.455   1.794  1.6869 -2.3229 -0.0167
 5137SOL    HW227048   2.048   1.572   1.699  2.2952  1.3348 -0.2458
 5138SOL     OW27049   3.374   0.485   3.624 -0.3069 -0.4767  0.4143
 5138SOL    HW127050   3.331   0.407   3.659 -1.6643 -0.2533 -0.7556
 5138SOL    HW227051   3.431   0.440   3.561 -0.8894 -1.9417  0.9394
 5139SOL     OW27052   0.488   2.421   8.587  0.1089  0.2898 -0.0820
 5139SOL    HW127053   0.555   2.459   8.531 -2.2943  1.6689 -1.9894
 5139SOL    HW227054   0.536   2.386   8.662 -0.5626  2.2689  1.2669
 5140SOL     OW27055   0.893   2.937   5.340  0.4144 -0.1038  0.1359
 5140SOL    HW127056   0.808   2.972   5.367  0.1798 -0.4484 -0.1529
 5140SOL    HW227057   0.865   2.854   5.302  0.8515 -0.5721  0.8196
 5141SOL     OW27058   4.241   2.199   8.362 -0.5315 -0.1498 -0.1215
 5141SOL    HW127059   4.157   2.244   8.353 -0.7405  0.0436  2.9668
 5141SOL    HW227060   4.222   2.143   8.437  1.0862  0.2827  0.6155
 5142SOL     OW27061   2.132   0.859   4.978 -0.1809  0.3135 -1.1324
 5142SOL    HW127062   2.057   0.900   5.022  1.4589 -0.5206  2.4268
 5142SOL    HW227063   2.191   0.927   5.010 -0.1609  0.1844 -0.8971
 5143SOL     OW27064   0.284   2.646  14.596 -0.0367 -0.4543 -0.0048
 5143SOL    HW127065   0.310   2.726  14.642 -1.9928  1.5591 -2.4154
 5143SOL    HW227066   0.365   2.613  14.555  0.5783 -0.0500  0.8827
 5144SOL     OW27067   1.513   2.624   2.675  0.0816  0.1146  0.3823
 5144SOL    HW127068   1.597   2.578   2.677  0.2831  0.5005  0.9394
 5144SOL    HW227069   1.457   2.578   2.738 -0.8912  0.3488 -0.3087
 5145SOL     OW27070   0.776   3.675   2.516 -0.5263 -0.2277  1.1582
 5145SOL    HW127071   0.844   3.649   2.454  0.6199  0.3735  2.1582
 5145SOL    HW227072   0.707   3.688   2.452 -0.3332 -1.9896  0.5730
 5146SOL     OW27073   3.862   1.658  15.661 -0.0626 -0.9780  0.7969
 5146SOL    HW127074   3.777   1.615  15.652 -0.2940 -0.6693  1.5031
 5146SOL    HW227075   3.913   1.577  15.654 -2.0347 -1.9726 -1.9465
 5147SOL     OW27076   3.062   0.992   4.230  0.0192  0.0406  0.5109
 5147SOL    HW127077   3.081   0.988   4.136  1.8737  2.2514  0.7968
 5147SOL    HW227078   2.980   0.944   4.224  2.4061 -4.1894  1.4696
 5148SOL     OW27079   3.821   1.770   4.382  0.3408  0.2565  0.1621
 5148SOL    HW127080   3.753   1.758   4.449  0.8632 -0.7014  0.5218
 5148SOL    HW227081   3.807   1.857   4.345 -3.6044  0.0361  1.0874
 5149SOL     OW27082   0.357   4.558  14.495 -0.5858  0.1762 -0.3741
 5149SOL    HW127083   0.311   4.569  14.412 -0.3102  0.0531 -0.5412
 5149SOL    HW227084   0.327   4.632  14.549 -2.6538  0.1430 -1.4526
 5150SOL     OW27085   1.599   3.445   1.299 -0.1434 -0.8836 -0.6963
 5150SOL    HW127086   1.641   3.526   1.271 -0.8331  0.0356  0.9294
 5150SOL    HW227087   1.665   3.396   1.350 -1.4936 -0.4356  1.4439
 5151SOL     OW27088   0.502   0.915  11.250 -0.4536  0.3139 -0.2605
 5151SOL    HW127089   0.468   0.994  11.210 -1.6837  0.4567  1.0762
 5151SOL    HW227090   0.415   0.877  11.265  0.2582 -1.2256  0.0624
 5152SOL     OW27091   4.191   3.701  11.571  0.1360  0.2679  0.2021
 5152SOL    HW127092   4.130   3.692  11.644  0.7218 -0.1316  0.6356
 5152SOL    HW227093   4.128   3.718  11.501 -2.0116  0.7171  2.2402
 5153SOL     OW27094   2.149   2.313  11.912  0.0869  0.0642  0.2014
 5153SOL    HW127095   2.164   2.398  11.871  0.7884  0.0228  0.3717
 5153SOL    HW227096   2.064   2.334  11.950  1.2748  1.0802  2.2828
 5154SOL     OW27097   3.795   2.907   9.729  0.2610 -0.5142  0.6691
 5154SOL    HW127098   3.701   2.922   9.736  0.2660 -1.1207  1.9999
 5154SOL    HW227099   3.823   2.986   9.681 -0.5020 -0.5481  0.1569
 5155SOL     OW27100   2.961   2.834   6.685  0.2628  0.1430  0.2041
 5155SOL    HW127101   2.885   2.847   6.740 -0.8698 -0.2194 -1.2703
 5155SOL    HW227102   2.971   2.925   6.655 -0.0200  0.5204  1.2763
 5156SOL     OW27103   1.928   2.508   2.078 -0.3110  0.5887 -0.0072
 5156SOL    HW127104   1.885   2.458   2.009  1.7827 -0.0944 -0.8304
 5156SOL    HW227105   1.968   2.432   2.120 -2.4226 -1.6951 -2.1960
 5157SOL     OW27106   0.879   1.307  11.447 -0.8195  0.0008  0.2096
 5157SOL    HW127107   0.841   1.234  11.398 -0.4790 -0.1467  0.1605
 5157SOL    HW227108   0.811   1.330  11.510 -0.6823  0.2303  0.2736
 5158SOL     OW27109   0.254   0.579   8.737  0.0898  0.2970  0.0562
 5158SOL    HW127110   0.171   0.544   8.704 -0.0345  0.6952 -0.0560
 5158SOL    HW227111   0.320   0.566   8.669 -0.4713 -0.1616 -0.4027
 5159SOL     OW27112   3.870   3.384   8.846 -0.0899 -0.4589  0.0100
 5159SOL    HW127113   3.917   3.309   8.882  0.7296  0.6188  1.2311
 5159SOL    HW227114   3.910   3.392   8.759  0.7160  1.9233  0.5859
 5160SOL     OW27115   1.030   1.891  16.122  0.2119 -0.5507 -0.4099
 5160SOL    HW127116   1.089   1.967  16.121  0.9577 -1.1295  2.3118
 5160SOL    HW227117   1.079   1.829  16.176 -2.0931  1.0808  3.5295
 5161SOL     OW27118   3.868   1.850  11.057  0.4464  0.1995 -0.1140
 5161SOL    HW127119   3.849   1.851  11.151 -1.7735  0.5401 -0.5695
 5161SOL    HW227120   3.964   1.849  11.057  0.4387 -1.4240 -2.4547
 5162SOL     OW27121   1.838   2.035  16.908 -0.6698  0.0817  0.1150
 5162SOL    HW127122   1.778   1.964  16.929 -1.8426  1.3378  0.9793
 5162SOL    HW227123   1.858   2.077  16.992 -1.9717 -0.7763  0.8471
 5163SOL     OW27124   2.724   0.127   9.597  0.3016  0.3600 -0.4229
 5163SOL    HW127125   2.685   0.065   9.535 -0.5315 -1.6776  2.1310
 5163SOL    HW227126   2.698   0.085   9.679 -1.9398  1.9817 -0.3123
 5164SOL     OW27127   4.278   2.329   3.159  0.4009  0.4629 -0.3034
 5164SOL    HW127128   4.345   2.260   3.159 -0.9411 -0.8363  0.5128
 5164SOL    HW227129   4.240   2.316   3.246 -0.6148 -2.4225 -1.1868
 5165SOL     OW27130   3.450   1.339   6.397 -0.0891 -0.0183 -0.3317
 5165SOL    HW127131   3.489   1.312   6.480  0.4060 -0.7708 -0.8021
 5165SOL    HW227132   3.471   1.271   6.333 -0.0062  1.3597 -1.7758
 5166SOL     OW27133   1.696   1.493   4.162  0.4171 -0.4952 -0.0741
 5166SOL    HW127134   1.677   1.580   4.198  0.4350 -0.8324  0.7611
 5166SOL    HW227135   1.778   1.465   4.201  0.3074  0.3037  0.7487
 5167SOL     OW27136   2.725   0.672   2.773 -0.2759  0.2516  0.5195
 5167SOL    HW127137   2.673   0.733   2.721 -0.1848 -0.1782 -0.0760
 5167SOL    HW227138   2.772   0.729   2.834  1.6802 -0.5429 -0.2387
 5168SOL     OW27139   0.424   1.604   3.980  0.2822  0.4579  0.5067
 5168SOL    HW127140   0.385   1.648   4.055 -0.3629  0.6796  0.0415
 5168SOL    HW227141   0.397   1.514   3.999  0.8070  0.3922  0.9345
 5169SOL     OW27142   0.958   0.896  10.039 -0.1634 -0.4147 -0.0521
 5169SOL    HW127143   1.038   0.843  10.039 -0.8022 -1.3898 -2.0668
 5169SOL    HW227144   0.967   0.947  10.120  0.9630 -1.0110  0.2115
 5170SOL     OW27145   0.451   2.985   1.698 -0.3153 -0.2729 -0.3477
 5170SOL    HW127146   0.545   2.970   1.687 -0.2645 -0.5349  0.4024
 5170SOL    HW227147   0.412   2.933   1.628  0.4216 -2.7269  1.0288
 5171SOL     OW27148   2.054   2.987   4.975 -0.3276 -0.2681  0.1284
 5171SOL    HW127149   1.982   2.928   4.954 -0.1597 -0.7837  1.0015
 5171SOL    HW227150   2.073   3.028   4.891 -1.0164  0.0999  0.1513
 5172SOL     OW27151   4.287   1.183   9.768  0.4751  0.2637 -0.6190
 5172SOL    HW127152   4.323   1.098   9.742  0.2507 -0.5174  1.5948
 5172SOL    HW227153   4.320   1.178   9.858 -2.5793 -1.8123  0.3670
 5173SOL     OW27154   1.231   2.731   6.377  0.2745 -0.3220 -0.3962
 5173SOL    HW127155   1.242   2.778   6.460  0.1534 -1.7841  0.4627
 5173SOL    HW227156   1.143   2.698   6.393 -0.1114  1.1333  0.4555
 5174SOL     OW27157   4.219   0.070   7.327 -0.0306  0.1685  0.1470
 5174SOL    HW127158   4.206   0.109   7.413 -0.3017  3.8061 -1.5753
 5174SOL    HW227159   4.280   0.125   7.278  0.1056 -1.7064 -1.8102
 5175SOL     OW27160   0.871   4.086   4.645  0.3030 -0.7248 -0.2679
 5175SOL    HW127161   0.809   4.130   4.703  2.1543  1.0481  0.3888
 5175SOL    HW227162   0.953   4.109   4.688 -0.1999 -0.3838  0.5092
 5176SOL     OW27163   0.757   1.710   8.834 -0.1573 -0.4421  0.1069
 5176SOL    HW127164   0.719   1.650   8.898  0.0102 -0.1359  0.4987
 5176SOL    HW227165   0.799   1.640   8.785  2.1356  0.3496  0.9333
 5177SOL     OW27166   4.423   4.601   0.977 -0.6857 -0.2255  0.2799
 5177SOL    HW127167   4.394   4.602   0.886  1.1251  1.6339 -0.2504
 5177SOL    HW227168   4.491   4.667   0.968 -1.2539  0.0545 -1.9039
 5178SOL     OW27169   1.462   2.207   3.952  0.1132 -0.3590  0.0629
 5178SOL    HW127170   1.439   2.299   3.939 -1.0210 -0.6291  0.0750
 5178SOL    HW227171   1.428   2.191   4.040  0.2154  0.0331  0.1734
 5179SOL     OW27172   4.435   2.809   6.080  0.1703  0.5930 -0.1425
 5179SOL    HW127173   4.416   2.715   6.072  1.3876  0.2927  0.5509
 5179SOL    HW227174   4.347   2.848   6.076 -0.1262 -0.0870 -0.3277
 5180SOL     OW27175   1.031   3.220   9.285  0.2336  0.0103 -0.2739
 5180SOL    HW127176   1.099   3.196   9.222  0.9217  0.8731  0.1470
 5180SOL    HW227177   0.948   3.219   9.236 -0.4511 -0.8120  0.8820
 5181SOL     OW27178   3.022   2.650  10.994  0.5429  0.5333  0.5599
 5181SOL    HW127179   3.000   2.737  10.962 -0.2026 -0.4389 -1.5327
 5181SOL    HW227180   2.936   2.611  10.975  0.6447 -0.0020  1.1749
 5182SOL     OW27181   1.981   0.749  17.666  0.0347 -0.1380 -0.2308
 5182SOL    HW127182   2.030   0.690  17.609 -2.5609 -0.4000 -2.1493
 5182SOL    HW227183   2.043   0.815  17.696  2.4910 -1.7231 -1.8448
 5183SOL     OW27184   4.419   1.667   8.635 -0.3321 -0.1904 -0.0176
 5183SOL    HW127185   4.432   1.590   8.691  0.3153  1.2107  1.7906
 5183SOL    HW227186   4.466   1.631   8.560 -1.2601 -1.1293 -0.1653
 5184SOL     OW27187   4.473   2.689   0.941 -0.4481  0.0831  0.1043
 5184SOL    HW127188   4.502   2.708   0.852 -2.2355 -2.9215 -1.1163
 5184SOL    HW227189   4.380   2.705   0.922 -1.1975 -0.9502  2.8137
 5185SOL     OW27190   4.216   2.055   0.370 -0.6915 -0.1892 -0.6145
 5185SOL    HW127191   4.158   2.092   0.303 -0.1369  1.3742 -0.2382
 5185SOL    HW227192   4.277   2.012   0.310  1.0075  1.0702  0.2131
 5186SOL     OW27193   1.739   3.447   9.014  0.2431  0.4632  0.0033
 5186SOL    HW127194   1.771   3.514   8.954  3.1712 -1.8577 -1.0562
 5186SOL    HW227195   1.822   3.401   9.025 -0.1326 -0.2597 -0.1732
 5187SOL     OW27196   2.931   2.457   9.263 -0.0108 -0.2037  0.3442
 5187SOL    HW127197   2.991   2.496   9.200 -0.7206 -0.4207 -0.4605
 5187SOL    HW227198   2.947   2.516   9.337  0.3060 -0.6388  0.6247
 5188SOL     OW27199   0.598   0.726  13.272  0.2242 -0.2592  0.0796
 5188SOL    HW127200   0.684   0.706  13.235  0.0483 -0.6248 -0.1322
 5188SOL    HW227201   0.578   0.816  13.247 -1.6169 -1.0403 -1.3120
 5189SOL     OW27202   2.728   2.961   2.535  0.5125  0.2275 -0.0944
 5189SOL    HW127203   2.735   2.871   2.504 -1.0662  0.5664 -1.4129
 5189SOL    HW227204   2.646   2.998   2.503 -0.5495 -2.2153 -0.1423
 5190SOL     OW27205   4.718   2.633   7.825 -0.2329 -0.2416  0.3834
 5190SOL    HW127206   4.638   2.590   7.795  0.4123 -1.7128  0.7671
 5190SOL    HW227207   4.681   2.705   7.875 -2.1010  1.6282 -3.7136
 5191SOL     OW27208   3.520   1.974   4.166 -0.0642  0.2407  0.0141
 5191SOL    HW127209   3.596   1.997   4.221  0.9563  1.8026 -2.0628
 5191SOL    HW227210   3.479   1.917   4.231  4.0610  0.2783  2.6856
 5192SOL     OW27211   3.080   0.370  12.785  0.0898 -0.1677  0.0621
 5192SOL    HW127212   3.069   0.419  12.703 -0.5868 -3.4050 -1.8226
 5192SOL    HW227213   2.989   0.348  12.805  0.7070 -1.6600  1.2199
 5193SOL     OW27214   3.596   3.101   2.799  0.2741 -0.1209  0.2335
 5193SOL    HW127215   3.526   3.148   2.754 -0.2470 -1.4853 -0.3761
 5193SOL    HW227216   3.569   3.014   2.769  1.4796 -0.0710 -0.9855
 5194SOL     OW27217   3.840   3.191   0.715 -0.1730 -0.6273  0.0882
 5194SOL    HW127218   3.839   3.107   0.670  0.6086 -0.7947  0.3889
 5194SOL    HW227219   3.746   3.206   0.731  0.0553 -0.7234  1.5109
 5195SOL     OW27220   2.988   2.874   5.673 -0.2649  0.3558 -0.3603
 5195SOL    HW127221   2.925   2.910   5.611  0.4425  1.6262 -0.3254
 5195SOL    HW227222   3.016   2.797   5.624  1.5310 -0.2408  1.5922
 5196SOL     OW27223   1.065   4.338   6.532  0.3608 -0.5306  0.4251
 5196SOL    HW127224   1.095   4.253   6.564 -0.8849 -0.4607  1.7848
 5196SOL    HW227225   1.019   4.379   6.605 -0.1248  0.4888 -0.4488
 5197SOL     OW27226   2.364   1.017   7.758 -0.5675  0.3131 -0.3389
 5197SOL    HW127227   2.383   0.957   7.831  2.7525 -0.6132 -1.9865
 5197SOL    HW227228   2.276   0.983   7.741 -0.1708 -1.8168  1.8809
 5198SOL     OW27229   0.847   4.710  10.470 -1.0901 -0.1041 -0.0233
 5198SOL    HW127230   0.835   0.042  10.403  0.2062  0.1189 -0.0123
 5198SOL    HW227231   0.777   0.001  10.530 -1.0017  0.3364 -0.1093
 5199SOL     OW27232   0.474   3.194   9.215 -0.4637 -0.1528  0.6205
 5199SOL    HW127233   0.388   3.238   9.217 -0.4725 -0.1968  1.0632
 5199SOL    HW227234   0.459   3.124   9.151  2.0428 -0.1520  0.0348
 5200SOL     OW27235   2.641   0.382   8.722 -0.3610 -0.1660 -0.0629
 5200SOL    HW127236   2.668   0.406   8.811 -0.5658 -1.9606  0.4956
 5200SOL    HW227237   2.556   0.338   8.726 -0.9311  1.2340  3.1582
 5201SOL     OW27238   1.515   4.382   3.212 -0.0204  0.7087  0.1094
 5201SOL    HW127239   1.582   4.327   3.171 -2.7719 -1.1979 -1.9031
 5201SOL    HW227240   1.435   4.354   3.167  0.3198  0.1880 -0.1762
 5202SOL     OW27241   1.880   0.923   5.487  0.6791 -0.3249  0.0770
 5202SOL    HW127242   1.786   0.912   5.499  0.8454 -1.2720  0.4690
 5202SOL    HW227243   1.907   0.851   5.430 -0.1186  1.3545 -2.4716
 5203SOL     OW27244   1.574   2.373   5.834 -0.1296 -0.4298  0.1346
 5203SOL    HW127245   1.632   2.388   5.908  0.2874  1.5363 -0.6076
 5203SOL    HW227246   1.488   2.390   5.873  0.5752 -0.5718  1.7410
 5204SOL     OW27247   4.396   1.739   3.101  0.2425 -0.6198 -0.3191
 5204SOL    HW127248   4.443   1.758   3.020  0.4105  2.4909  0.5120
 5204SOL    HW227249   4.325   1.802   3.090  2.0721  1.3091 -1.2790
 5205SOL     OW27250   4.138   1.083   3.637 -0.0329 -0.1088  0.7195
 5205SOL    HW127251   4.219   1.039   3.610  0.5997  0.6801  1.3547
 5205SOL    HW227252   4.126   1.069   3.731  0.7937 -0.0771  0.8304
 5206SOL     OW27253   2.766   2.241   8.983  0.0491 -0.1263  0.4330
 5206SOL    HW127254   2.856   2.219   8.961  0.3035  0.0314  1.3327
 5206SOL    HW227255   2.749   2.191   9.063 -0.5082 -3.8657 -2.0345
 5207SOL     OW27256   0.148   4.229  11.947 -0.4737 -0.6755 -0.2903
 5207SOL    HW127257   0.144   4.288  11.872  0.3569 -1.0309 -0.6101
 5207SOL    HW227258   0.139   4.292  12.019  1.2223 -0.7237 -0.0394
 5208SOL     OW27259   1.432   0.435   7.745 -0.4821 -0.2770 -0.2719
 5208SOL    HW127260   1.406   0.403   7.659 -0.7777  1.4280 -0.7993
 5208SOL    HW227261   1.426   0.352   7.793 -1.9937 -0.6010 -1.0472
 5209SOL     OW27262   4.596   1.699  11.631  0.4362 -0.0543  0.2914
 5209SOL    HW127263   4.633   1.708  11.544  2.6667 -0.4955  1.1892
 5209SOL    HW227264   4.676   1.700  11.684  1.1553  0.4205 -0.8160
 5210SOL     OW27265   1.382   0.075   3.412  0.7931 -0.0662 -0.6106
 5210SOL    HW127266   1.476   0.065   3.420  0.6764  0.4472  1.3182
 5210SOL    HW227267   1.363   4.721   3.382  1.3171 -0.6863  0.9099
 5211SOL     OW27268   3.541   3.391   6.222  0.3609  0.3249 -0.0028
 5211SOL    HW127269   3.503   3.477   6.241  0.5839  0.6183 -0.8761
 5211SOL    HW227270   3.571   3.369   6.310  2.4895  2.6998 -0.1268
 5212SOL     OW27271   4.281   2.221  10.718 -0.3645  0.0129 -0.6374
 5212SOL    HW127272   4.363   2.270  10.724 -0.7511  0.4229  1.2034
 5212SOL    HW227273   4.229   2.257  10.647 -1.6316  3.2277  1.9469
 5213SOL     OW27274   4.362   2.063   4.825  0.7723 -0.3305 -0.0712
 5213SOL    HW127275   4.441   2.010   4.831  1.0126  0.1752  1.4921
 5213SOL    HW227276   4.349   2.090   4.917  0.1653  1.9220 -0.8058
 5214SOL     OW27277   4.005   0.204   4.455  0.2612 -0.2218  0.1749
 5214SOL    HW127278   3.952   0.224   4.378 -4.6051 -1.1831  3.2590
 5214SOL    HW227279   3.935   0.218   4.519 -0.5837 -1.1040 -0.5741
 5215SOL     OW27280   3.085   3.474   6.988  0.2419 -0.0965 -0.1416
 5215SOL    HW127281   3.034   3.428   7.054 -0.2089 -0.5418 -0.7939
 5215SOL    HW227282   3.062   3.423   6.910  0.2394 -0.1790 -0.0870
 5216SOL     OW27283   3.802   4.234   7.845  0.7145  0.1122 -0.2368
 5216SOL    HW127284   3.787   4.143   7.819  0.9166 -0.0065  0.0672
 5216SOL    HW227285   3.809   4.219   7.939  1.8780  0.6550 -0.2464
 5217SOL     OW27286   0.297   3.201   5.385  0.1105 -0.0795  0.0512
 5217SOL    HW127287   0.310   3.107   5.398 -0.8294 -0.1903  0.1870
 5217SOL    HW227288   0.256   3.200   5.298  0.8189 -0.9074 -0.2730
 5218SOL     OW27289   0.138   0.723  11.796 -0.2963  0.3701  0.1169
 5218SOL    HW127290   0.150   0.813  11.826 -2.8890  0.2395  1.4797
 5218SOL    HW227291   0.074   0.737  11.726  0.9512 -1.1775 -1.3357
 5219SOL     OW27292   1.527   1.083   3.670  0.5626 -0.1543  0.4191
 5219SOL    HW127293   1.470   1.011   3.699 -0.5195 -0.3175 -2.1096
 5219SOL    HW227294   1.529   1.137   3.749  2.1894 -0.4391  0.5673
 5220SOL     OW27295   2.846   4.136   0.331  0.4364  0.7187  0.4002
 5220SOL    HW127296   2.830   4.185   0.250 -2.1102 -2.1944 -0.8767
 5220SOL    HW227297   2.821   4.048   0.303  0.0825  0.8652  0.2476
 5221SOL     OW27298   3.135   1.235   0.909  0.3447  0.3523  0.4115
 5221SOL    HW127299   3.202   1.170   0.890 -0.5374 -1.5719  3.8729
 5221SOL    HW227300   3.180   1.312   0.945 -0.6871  2.3452 -2.4984
 5222SOL     OW27301   0.698   1.672   5.352 -0.2823 -0.1863 -0.2158
 5222SOL    HW127302   0.776   1.726   5.336  0.1423 -0.8561 -0.4377
 5222SOL    HW227303   0.687   1.690   5.445 -0.5707 -1.2791 -0.0401
 5223SOL     OW27304   1.027   1.991   1.583 -0.1807  0.2925 -0.0337
 5223SOL    HW127305   0.943   1.962   1.617 -0.2004 -1.0669 -1.2356
 5223SOL    HW227306   0.992   2.024   1.500  0.9340  1.1299 -0.1776
 5224SOL     OW27307   2.396   0.903   7.315  0.3442  0.5607 -0.2349
 5224SOL    HW127308   2.414   0.930   7.405  1.0897 -0.6591 -0.0142
 5224SOL    HW227309   2.344   0.825   7.334  2.0340 -0.2947  0.9504
 5225SOL     OW27310   4.375   0.017  16.855 -0.4321  0.1564  0.2476
 5225SOL    HW127311   4.405   4.671  16.813 -2.0607 -0.3829  0.1329
 5225SOL    HW227312   4.309   4.726  16.919  0.5500 -0.1985  1.1085
 5226SOL     OW27313   3.448   4.160  11.987 -0.0494  0.3645  0.0551
 5226SOL    HW127314   3.482   4.090  11.931 -0.5436  2.1578 -2.5063
 5226SOL    HW227315   3.376   4.115  12.032 -0.2041  1.4060  0.8726
 5227SOL     OW27316   2.043   4.675   1.380  0.9288  0.4423 -0.1951
 5227SOL    HW127317   2.069   4.618   1.452  0.6244 -0.8399 -1.1087
 5227SOL    HW227318   1.985   0.006   1.419 -0.8551 -0.9663 -0.4928
 5228SOL     OW27319   0.156   1.212   9.574 -0.8119 -0.4510 -0.1487
 5228SOL    HW127320   0.207   1.257   9.506  0.0455  1.0022  1.4635
 5228SOL    HW227321   0.221   1.171   9.630 -0.7717  0.4263  0.4490
 5229SOL     OW27322   1.365   3.478   7.952  0.3662  0.1249  0.2365
 5229SOL    HW127323   1.418   3.513   8.024  0.1474  1.7497 -0.4019
 5229SOL    HW227324   1.289   3.531   7.975  0.4317  0.2268  0.2195
 5230SOL     OW27325   4.412   4.394   2.161  0.2644  0.2148 -0.0034
 5230SOL    HW127326   4.331   4.370   2.117 -0.6792  2.7691  0.3543
 5230SOL    HW227327   4.427   4.318   2.217  0.8781  0.9300  0.8202
 5231SOL     OW27328   2.565   2.775   2.049  0.3134 -0.1044 -0.1820
 5231SOL    HW127329   2.473   2.748   2.046  0.2196  0.6449 -4.0404
 5231SOL    HW227330   2.590   2.793   1.958 -0.2502 -4.1475 -1.1186
 5232SOL     OW27331   1.083   3.696   1.874 -0.3141 -0.2361  0.7263
 5232SOL    HW127332   1.151   3.662   1.816 -0.7051  0.9923 -0.4658
 5232SOL    HW227333   1.111   3.783   1.903 -1.1504 -0.1808  1.3584
 5233SOL     OW27334   2.833   4.237  14.136  0.6122 -0.3615  0.6058
 5233SOL    HW127335   2.862   4.279  14.217  1.0642 -1.6339  1.0981
 5233SOL    HW227336   2.857   4.144  14.143 -0.4423 -0.7445 -0.8642
 5234SOL     OW27337   2.804   1.271   2.879 -0.0058 -0.1125 -0.5332
 5234SOL    HW127338   2.731   1.211   2.867  0.7431 -1.0570 -0.3562
 5234SOL    HW227339   2.762   1.358   2.879 -0.5790 -0.3928 -1.6028
 5235SOL     OW27340   1.180   4.550   1.320 -0.5825 -0.2740  0.4915
 5235SOL    HW127341   1.181   4.458   1.348 -2.0243 -0.2171  0.7247
 5235SOL    HW227342   1.264   4.579   1.355  0.2610 -1.2335 -0.7277
 5236SOL     OW27343   3.188   2.641   8.662 -0.0389 -0.0258  0.2125
 5236SOL    HW127344   3.192   2.550   8.694  3.2581 -0.0158 -0.0917
 5236SOL    HW227345   3.181   2.681   8.749  0.6045 -1.7004  1.0446
 5237SOL     OW27346   0.495   1.147  13.513 -0.2457 -0.3041  0.3807
 5237SOL    HW127347   0.443   1.080  13.556 -0.8593  1.0245  1.7192
 5237SOL    HW227348   0.419   1.180  13.465 -1.7434 -1.2537  2.1437
 5238SOL     OW27349   2.807   2.700   5.025  0.1010  0.1354  0.2045
 5238SOL    HW127350   2.814   2.615   4.983 -1.8096  1.4360 -2.7476
 5238SOL    HW227351   2.740   2.740   4.969 -0.4299  0.1792  0.8648
 5239SOL     OW27352   0.942   0.048  16.521  0.0190  0.1941 -0.7628
 5239SOL    HW127353   0.900   0.125  16.483  1.1662  1.2565  0.1400
 5239SOL    HW227354   1.033   0.053  16.493 -0.0611  0.4526 -0.9716
 5240SOL     OW27355   3.346   1.915   3.451 -0.3016 -0.0570 -0.0660
 5240SOL    HW127356   3.339   2.010   3.458  0.8141  0.0235  0.1058
 5240SOL    HW227357   3.401   1.904   3.529  1.3174 -1.2325 -1.3666
 5241SOL     OW27358   1.034   1.776  17.243  0.0328  0.1531 -0.5917
 5241SOL    HW127359   1.120   1.774  17.203 -0.0431  1.9762 -0.8694
 5241SOL    HW227360   1.062   1.801  17.331 -2.2063 -1.0620  0.4562
 5242SOL     OW27361   1.079   3.384   8.725  0.0108 -0.2092 -0.0179
 5242SOL    HW127362   1.019   3.310   8.719 -0.5747  0.0552  2.3143
 5242SOL    HW227363   1.026   3.463   8.737  0.1139 -0.3112  1.1653
 5243SOL     OW27364   0.761   0.236   5.416  0.3487  0.5280  0.4563
 5243SOL    HW127365   0.693   0.301   5.400 -0.1024  0.1880  0.9627
 5243SOL    HW227366   0.825   0.277   5.358  1.5457 -0.1125  1.2994
 5244SOL     OW27367   1.057   0.320   2.886 -0.2024 -0.5783 -0.3598
 5244SOL    HW127368   1.034   0.228   2.873 -1.9242 -0.5679  2.4008
 5244SOL    HW227369   1.033   0.332   2.978 -1.3845 -1.9504 -0.4777
 5245SOL     OW27370   0.803   2.864   2.252 -0.5282  0.0935 -0.6863
 5245SOL    HW127371   0.780   2.948   2.292  0.6649  0.6317 -1.1418
 5245SOL    HW227372   0.734   2.859   2.186 -1.3514 -0.0445  0.1781
 5246SOL     OW27373   3.859   3.433   8.346  0.0654 -0.0551  0.5213
 5246SOL    HW127374   3.770   3.407   8.321  0.5481 -2.9338  1.7121
 5246SOL    HW227375   3.859   3.527   8.364  0.9901  0.3389 -1.5090
 5247SOL     OW27376   3.282   1.033   9.027  0.3015 -0.0271 -0.6329
 5247SOL    HW127377   3.188   1.045   9.042  0.3630 -0.1328 -0.1450
 5247SOL    HW227378   3.306   0.950   9.070  1.2850  0.2449 -0.6534
 5248SOL     OW27379   1.801   3.737   5.264 -0.7626  0.0098  0.3998
 5248SOL    HW127380   1.716   3.695   5.250  0.1669 -1.4770 -0.7269
 5248SOL    HW227381   1.819   3.702   5.351 -3.6942  2.0726  1.8462
 5249SOL     OW27382   1.671   4.157   5.956  0.1332  0.0486  0.0548
 5249SOL    HW127383   1.692   4.093   6.024 -0.3965  0.6831  0.8240
 5249SOL    HW227384   1.751   4.205   5.937  0.2203 -1.0559 -2.3878
 5250SOL     OW27385   1.765   4.690  15.747 -0.8684 -0.7974  0.4175
 5250SOL    HW127386   1.767   4.602  15.786  0.7348 -1.0349 -0.2130
 5250SOL    HW227387   1.736   4.670  15.658  0.0720  1.7732 -0.4674
 5251SOL     OW27388   2.256   4.467   8.654 -0.2129 -0.5703 -0.7414
 5251SOL    HW127389   2.270   4.422   8.571  0.7411 -1.5444 -0.0516
 5251SOL    HW227390   2.240   4.554   8.618 -1.0246 -0.1694  0.5816
 5252SOL     OW27391   2.482   0.490   3.949  0.2590 -0.0021  0.3876
 5252SOL    HW127392   2.480   0.440   4.031 -0.7475 -0.4822  0.0616
 5252SOL    HW227393   2.452   0.434   3.878 -1.7383  1.0359  0.4234
 5253SOL     OW27394   2.008   0.163   9.066  0.1844 -0.0608 -0.0176
 5253SOL    HW127395   2.022   0.200   9.153 -1.3909  1.0190 -0.2146
 5253SOL    HW227396   1.923   0.120   9.078  1.3615 -1.8186  2.0161
 5254SOL     OW27397   3.362   2.944   7.262 -0.2459 -0.3825 -0.4594
 5254SOL    HW127398   3.372   2.857   7.301  1.2406 -0.5534 -1.2455
 5254SOL    HW227399   3.305   2.986   7.327 -0.4715 -0.4196 -0.6327
 5255SOL     OW27400   4.666   2.403   3.546  0.6112 -0.0489 -0.5557
 5255SOL    HW127401   4.597   2.396   3.611 -0.1970 -0.4443 -1.4614
 5255SOL    HW227402   4.685   2.496   3.553  1.7362 -0.2186 -1.1834
 5256SOL     OW27403   2.269   4.614   7.736  0.0393 -0.2835  0.0274
 5256SOL    HW127404   2.313   4.698   7.731  1.8295 -1.3068 -1.2237
 5256SOL    HW227405   2.187   4.640   7.779 -0.2248 -2.9360  1.1476
 5257SOL     OW27406   1.232   2.082   7.704 -0.1017 -0.0441  0.1172
 5257SOL    HW127407   1.184   2.101   7.785 -0.5918  0.1352 -0.2223
 5257SOL    HW227408   1.313   2.050   7.745  0.5386  1.4137  0.0181
 5258SOL     OW27409   1.417   3.512   6.287  0.5979  0.4929 -0.6492
 5258SOL    HW127410   1.400   3.541   6.198 -0.0798 -1.6500 -1.2167
 5258SOL    HW227411   1.505   3.548   6.295  1.6705 -2.2429 -0.0972
 5259SOL     OW27412   2.670   1.689   7.721  0.3430 -0.1297  0.0715
 5259SOL    HW127413   2.709   1.773   7.747 -1.2143  0.8549 -0.7293
 5259SOL    HW227414   2.578   1.714   7.710 -0.3518 -1.5816  2.5956
 5260SOL     OW27415   4.180   1.693   2.165  0.0806  0.3449  0.0156
 5260SOL    HW127416   4.148   1.612   2.125  0.8335 -0.1480  0.4237
 5260SOL    HW227417   4.243   1.725   2.100 -0.2278 -0.3496 -0.6259
 5261SOL     OW27418   3.113   0.055   2.483  0.4063  0.6273 -0.6714
 5261SOL    HW127419   3.035   0.006   2.510  0.9509 -0.6283 -1.3428
 5261SOL    HW227420   3.174   0.015   2.546 -0.2872  0.5064 -0.0721
 5262SOL     OW27421   2.372   1.433   3.708  0.1356 -0.2386 -0.1010
 5262SOL    HW127422   2.398   1.347   3.674  1.3042 -0.0803  0.3990
 5262SOL    HW227423   2.457   1.477   3.704  0.4103 -0.7345  0.2493
 5263SOL     OW27424   0.386   0.044   3.375 -0.1855 -0.6412  0.3684
 5263SOL    HW127425   0.320   0.072   3.311 -1.3238 -1.0575  1.3463
 5263SOL    HW227426   0.446   4.726   3.323  0.6677  1.2686 -0.5715
 5264SOL     OW27427   3.450   2.085  11.078 -0.0364 -0.2462  0.0317
 5264SOL    HW127428   3.470   2.168  11.121 -1.9209 -1.0395  2.4920
 5264SOL    HW227429   3.356   2.096  11.062 -0.0987 -2.6969 -1.2891
 5265SOL     OW27430   3.186   0.986   3.237  0.5454 -0.0967 -0.4364
 5265SOL    HW127431   3.146   0.972   3.151  0.4294 -0.2824 -0.3523
 5265SOL    HW227432   3.267   1.034   3.220  0.6136  0.2010  0.7367
 5266SOL     OW27433   4.036   2.506  12.048  0.0744 -0.0027  0.1059
 5266SOL    HW127434   3.989   2.444  12.104 -1.1296  0.1788 -0.7282
 5266SOL    HW227435   4.012   2.475  11.961 -0.0068  1.2611 -0.3278
 5267SOL     OW27436   1.183   4.151  10.978  0.0274 -0.5780 -0.3710
 5267SOL    HW127437   1.178   4.247  10.981 -0.5942 -0.6526  0.9062
 5267SOL    HW227438   1.275   4.142  11.001 -0.1524  2.5643  1.5954
 5268SOL     OW27439   3.699   1.104  13.029  0.3707 -0.0873  0.2100
 5268SOL    HW127440   3.747   1.028  12.997  2.3054  0.2594  2.3074
 5268SOL    HW227441   3.771   1.164  13.048 -1.3255  1.4970  1.6526
 5269SOL     OW27442   1.443   2.715   7.036  0.5586 -0.0044 -0.4191
 5269SOL    HW127443   1.386   2.781   7.075 -0.1496 -0.6806 -0.3209
 5269SOL    HW227444   1.518   2.733   7.093 -1.7544  2.6702  1.7914
 5270SOL     OW27445   0.648   1.831   4.348 -0.0886  0.0073  0.4776
 5270SOL    HW127446   0.599   1.840   4.430  0.7857 -0.5704  1.0742
 5270SOL    HW227447   0.596   1.768   4.298  0.3163  0.3468 -0.3727
 5271SOL     OW27448   2.053   1.897   7.279 -0.0481  0.3222  0.1276
 5271SOL    HW127449   1.997   1.823   7.304  1.7394 -0.9501  0.3562
 5271SOL    HW227450   2.099   1.871   7.200  0.9894  3.1344 -0.1850
 5272SOL     OW27451   2.199   0.392   6.752 -0.0540 -0.1202  0.1038
 5272SOL    HW127452   2.198   0.308   6.799 -0.7593 -1.9016 -3.1276
 5272SOL    HW227453   2.190   0.449   6.829 -2.1678 -1.2364  0.6674
 5273SOL     OW27454   2.625   2.417   4.436 -0.4754  0.0177  0.2998
 5273SOL    HW127455   2.627   2.388   4.345 -2.6082  1.9375 -0.3751
 5273SOL    HW227456   2.715   2.422   4.466 -1.0327  1.3244  1.7231
 5274SOL     OW27457   0.479   2.879  16.207 -0.2246 -0.5509  0.1317
 5274SOL    HW127458   0.444   2.823  16.277 -4.1081  3.1462  1.1112
 5274SOL    HW227459   0.527   2.936  16.268  0.3569 -1.9013  0.9435
 5275SOL     OW27460   0.809   4.580   3.602 -0.1095 -0.4685  0.1779
 5275SOL    HW127461   0.746   4.587   3.674  0.0546  2.7227  0.0163
 5275SOL    HW227462   0.796   4.647   3.535  1.6314 -0.8768 -0.5581
 5276SOL     OW27463   0.661   0.181  10.603  0.1954  0.4460 -0.2485
 5276SOL    HW127464   0.627   0.271  10.606  0.1465  0.3763  1.2879
 5276SOL    HW227465   0.583   0.126  10.600 -0.4201  1.3143 -0.0514
 5277SOL     OW27466   1.216   2.767   6.058 -0.1815 -0.3436 -0.3837
 5277SOL    HW127467   1.125   2.739   6.050 -0.7220  1.0138  1.0562
 5277SOL    HW227468   1.240   2.748   6.149  0.4168 -0.4258 -0.5596
 5278SOL     OW27469   4.231   1.902   3.927 -0.3080  0.5105 -0.2556
 5278SOL    HW127470   4.325   1.889   3.916 -0.5572 -2.1198  0.8471
 5278SOL    HW227471   4.237   1.949   4.010 -0.0371  0.5781 -0.3141
 5279SOL     OW27472   1.243   3.702   8.876  0.1650 -0.0975 -0.2019
 5279SOL    HW127473   1.175   3.764   8.905  0.3975  0.9797 -1.9165
 5279SOL    HW227474   1.232   3.690   8.782 -1.7446 -0.7545  0.1019
 5280SOL     OW27475   0.830   4.150   0.223 -0.3784  0.5127  0.2569
 5280SOL    HW127476   0.741   4.164   0.193 -0.7811 -2.2592  0.1574
 5280SOL    HW227477   0.842   4.230   0.275 -1.6311  0.9147 -0.0841
 5281SOL     OW27478   3.798   0.756   6.356 -0.2162 -0.1651 -0.3820
 5281SOL    HW127479   3.766   0.671   6.385  1.1369 -0.7709 -0.6471
 5281SOL    HW227480   3.723   0.790   6.307 -0.1810  2.1074  1.1162
 5282SOL     OW27481   4.649   3.847   2.696  0.1809  0.0485 -0.4189
 5282SOL    HW127482   4.703   3.879   2.769  1.5216 -0.0998 -1.3435
 5282SOL    HW227483   4.692   3.769   2.661 -0.6972  0.3306 -2.1223
 5283SOL     OW27484   0.496   2.488   7.619  0.8912  0.1355  0.0664
 5283SOL    HW127485   0.531   2.562   7.668 -1.5513  1.5526 -0.2915
 5283SOL    HW227486   0.531   2.417   7.672 -3.5357 -0.1337  2.6083
 5284SOL     OW27487   3.690   1.851   2.643 -0.0639  0.7502  0.0086
 5284SOL    HW127488   3.662   1.794   2.714  0.8315 -0.4531 -0.6055
 5284SOL    HW227489   3.736   1.794   2.581  0.7696  0.1665  1.1733
 5285SOL     OW27490   3.669   0.266  16.975  0.2755 -0.4604 -0.0073
 5285SOL    HW127491   3.685   0.291  16.884  2.1422  3.0600  1.2514
 5285SOL    HW227492   3.735   0.324  17.015  0.1360 -0.0547 -0.3641
 5286SOL     OW27493   0.339   1.098   4.628  0.2872 -0.0768 -0.2027
 5286SOL    HW127494   0.285   1.026   4.596 -0.8803 -0.7564  3.3312
 5286SOL    HW227495   0.296   1.118   4.711  1.6740 -0.7465  0.6687
 5287SOL     OW27496   4.211   1.628   4.017 -0.5300 -0.3407 -0.1685
 5287SOL    HW127497   4.213   1.713   3.975 -0.2796 -0.3142 -0.0992
 5287SOL    HW227498   4.162   1.644   4.098  0.0773 -0.9557  0.3263
 5288SOL     OW27499   2.483   1.640   2.611 -0.3959  0.1887 -0.2042
 5288SOL    HW127500   2.390   1.660   2.598  0.1720  2.6486 -0.3388
 5288SOL    HW227501   2.482   1.612   2.703 -0.6788  0.4048 -0.1422
 5289SOL     OW27502   4.001   2.862   0.385 -0.8229 -0.0595  0.2857
 5289SOL    HW127503   3.921   2.823   0.350 -0.0678 -1.4622  0.1432
 5289SOL    HW227504   4.048   2.790   0.425 -1.9358 -1.5034 -0.9968
 5290SOL     OW27505   0.150   0.483  13.387 -0.4550  0.7248 -0.8081
 5290SOL    HW127506   0.221   0.481  13.321 -0.7406  0.3903 -1.1061
 5290SOL    HW227507   0.073   0.457  13.336  0.1431  0.4177 -1.5636
 5291SOL     OW27508   2.523   4.703   7.419 -0.0688 -0.4488 -0.0434
 5291SOL    HW127509   2.493   4.621   7.459 -1.4125  1.3606  2.6333
 5291SOL    HW227510   2.617   4.684   7.418 -0.4471 -2.3994 -0.0788
 5292SOL     OW27511   4.148   2.835   9.143 -0.4603 -0.2927  0.2107
 5292SOL    HW127512   4.111   2.855   9.057  0.5528 -0.3067 -0.2359
 5292SOL    HW227513   4.198   2.914   9.162  1.3431 -1.3550 -0.0094
 5293SOL     OW27514   3.387   0.355  12.858  0.1168  0.1839 -0.3095
 5293SOL    HW127515   3.292   0.348  12.846  0.0232  1.6016 -0.3959
 5293SOL    HW227516   3.423   0.343  12.771 -3.6118 -0.0153 -1.8533
 5294SOL     OW27517   2.706   1.931   4.107  0.0363 -0.0365 -0.3229
 5294SOL    HW127518   2.782   1.988   4.099 -1.5478  1.9786 -0.9526
 5294SOL    HW227519   2.706   1.887   4.022  1.7969  0.6409 -0.6723
 5295SOL     OW27520   0.419   2.923  15.273 -0.3410  0.2130  0.5100
 5295SOL    HW127521   0.371   2.992  15.319 -0.6290 -0.2246  0.8617
 5295SOL    HW227522   0.406   2.848  15.331 -0.8912 -0.7930 -0.9028
 5296SOL     OW27523   3.116   1.008   2.961 -0.0165  0.0673  0.9523
 5296SOL    HW127524   3.199   1.020   2.915  0.9346  1.3723  3.0198
 5296SOL    HW227525   3.096   1.099   2.984  2.3153  0.9165 -0.4096
 5297SOL     OW27526   3.604   2.770  17.007  0.0215  0.4205  0.0677
 5297SOL    HW127527   3.550   2.786  17.084  1.1136  2.1031  0.4850
 5297SOL    HW227528   3.533   2.751  16.945  0.4288  0.9268 -0.5543
 5298SOL     OW27529   3.500   3.790   3.360  0.5532 -0.1468  0.6645
 5298SOL    HW127530   3.554   3.764   3.435  0.6973  2.2504  1.3977
 5298SOL    HW227531   3.424   3.733   3.372  0.5553 -0.3411 -0.2006
 5299SOL     OW27532   2.363   3.370   7.127 -0.3610 -0.7052  0.0014
 5299SOL    HW127533   2.385   3.461   7.145  1.2919 -1.2071  0.5577
 5299SOL    HW227534   2.296   3.392   7.063 -2.7950 -1.3213  2.3317
 5300SOL     OW27535   4.492   3.184   6.288  0.1789 -0.1803  0.1063
 5300SOL    HW127536   4.586   3.197   6.301  0.7430 -1.8419 -2.2786
 5300SOL    HW227537   4.461   3.251   6.349  0.6018  0.0863  0.0334
 5301SOL     OW27538   2.778   3.249   8.640 -0.2528 -0.6777  0.4720
 5301SOL    HW127539   2.764   3.198   8.560  1.5841 -2.0462  1.0036
 5301SOL    HW227540   2.749   3.188   8.708 -0.8260 -1.4330 -0.4558
 5302SOL     OW27541   1.234   2.964  12.115  0.1050 -0.1976 -0.7670
 5302SOL    HW127542   1.281   2.922  12.043 -1.2024 -1.2821 -0.9938
 5302SOL    HW227543   1.212   2.892  12.173  0.8627  0.2759  0.1056
 5303SOL     OW27544   4.381   1.623  11.414 -0.1384  0.3241 -0.3392
 5303SOL    HW127545   4.457   1.639  11.470  0.9468  0.7559 -1.9455
 5303SOL    HW227546   4.357   1.711  11.384  0.9125  0.1453 -1.7211
 5304SOL     OW27547   4.581   3.080  16.913  0.0700 -0.3499 -0.3801
 5304SOL    HW127548   4.545   2.995  16.938  0.5445 -0.4360  0.0045
 5304SOL    HW227549   4.506   3.105  16.858  0.6560  0.9055 -0.6021
 5305SOL     OW27550   3.471   3.493  16.734  0.5132  0.5676 -0.5419
 5305SOL    HW127551   3.412   3.541  16.793 -1.5091 -1.4144 -0.9585
 5305SOL    HW227552   3.471   3.556  16.662  1.8271  2.3145  0.9762
 5306SOL     OW27553   4.246   0.281   2.638 -0.4708 -0.3249 -0.8879
 5306SOL    HW127554   4.164   0.320   2.609  0.2692  1.8617 -0.0374
 5306SOL    HW227555   4.236   0.292   2.732  2.1944 -1.4175 -0.4778
 5307SOL     OW27556   2.422   0.249  12.233  0.3242  0.2240  0.1360
 5307SOL    HW127557   2.406   0.297  12.315 -0.8890  0.9734 -0.5448
 5307SOL    HW227558   2.397   0.312  12.165 -1.0235 -1.2687 -0.7488
 5308SOL     OW27559   3.068   3.957  11.592  0.0488  0.0785  0.1008
 5308SOL    HW127560   3.052   4.034  11.537 -0.6078  0.6516  1.0719
 5308SOL    HW227561   2.980   3.921  11.583 -0.5203  1.7980 -1.3168
 5309SOL     OW27562   1.650   3.943  15.369  0.0189  0.6729 -0.2723
 5309SOL    HW127563   1.577   3.883  15.382  0.9491 -0.2012  0.9286
 5309SOL    HW227564   1.721   3.910  15.425 -0.0594 -0.6836 -0.9949
 5310SOL     OW27565   4.548   3.905   7.231 -0.4309  0.0080  0.6965
 5310SOL    HW127566   4.626   3.855   7.252  0.0411  0.6957  0.5989
 5310SOL    HW227567   4.562   3.984   7.284  2.3555 -1.0685  1.5771
 5311SOL     OW27568   1.056   1.572  10.403 -0.1846  0.0794  0.1780
 5311SOL    HW127569   1.118   1.605  10.338 -2.5931  1.6083 -1.3645
 5311SOL    HW227570   0.983   1.552  10.345 -0.3364 -2.9654  1.4544
 5312SOL     OW27571   3.735   4.430   6.340  0.0009 -0.1453  0.0281
 5312SOL    HW127572   3.763   4.362   6.278  1.1426 -0.8309  1.2710
 5312SOL    HW227573   3.710   4.498   6.278 -1.5562 -0.0711  0.7397
 5313SOL     OW27574   1.689   4.311   4.663  0.5886 -0.7313 -0.4567
 5313SOL    HW127575   1.779   4.295   4.632 -0.2961 -2.1357 -2.3465
 5313SOL    HW227576   1.678   4.403   4.641  3.7193  0.2731  2.2044
 5314SOL     OW27577   3.320   1.580   5.755  0.2487 -0.7220 -0.1370
 5314SOL    HW127578   3.400   1.559   5.803  0.1009 -0.1039  0.3888
 5314SOL    HW227579   3.250   1.539   5.806  1.8871 -1.5873  1.4520
 5315SOL     OW27580   0.636   2.190   0.210 -0.0291  0.1291  0.6442
 5315SOL    HW127581   0.588   2.171   0.290  0.4644  1.5656  1.2735
 5315SOL    HW227582   0.696   2.115   0.207  0.7547  0.7192  1.9287
 5316SOL     OW27583   2.662   0.124  12.438  0.4614  0.0980  0.8906
 5316SOL    HW127584   2.670   0.207  12.486 -1.0037  0.8692 -0.2021
 5316SOL    HW227585   2.674   0.159  12.350 -1.3744 -0.9414  0.2284
 5317SOL     OW27586   1.166   3.712   5.758  0.0861  0.8970  0.2241
 5317SOL    HW127587   1.082   3.702   5.804  0.1936 -0.0388  0.2234
 5317SOL    HW227588   1.221   3.644   5.797  1.1522  2.9142  2.2345
 5318SOL     OW27589   0.481   2.100   0.424  0.1078  0.1197  1.4986
 5318SOL    HW127590   0.405   2.139   0.379  0.9346 -3.2120 -2.7834
 5318SOL    HW227591   0.456   2.009   0.414 -0.6738  0.5358 -0.3853
 5319SOL     OW27592   0.931   1.581   7.088  0.3491  0.1476  0.2152
 5319SOL    HW127593   0.875   1.568   7.011  0.9693 -2.5208  0.2262
 5319SOL    HW227594   0.994   1.639   7.046 -0.8630 -1.1332 -3.3736
 5320SOL     OW27595   0.663   2.442   2.812 -0.2983 -0.0873 -0.1264
 5320SOL    HW127596   0.723   2.491   2.756 -2.1157  1.9411 -0.3224
 5320SOL    HW227597   0.597   2.511   2.815  1.4731  1.6215 -0.5342
 5321SOL     OW27598   2.986   3.022  15.943  0.0782 -0.1549  0.2024
 5321SOL    HW127599   3.002   2.983  15.857 -0.1637  1.9196 -0.7864
 5321SOL    HW227600   3.071   3.056  15.971  1.2484 -1.0012 -2.3265
 5322SOL     OW27601   4.502   3.487   3.780 -0.1359  0.3121  0.3848
 5322SOL    HW127602   4.566   3.477   3.851 -1.5678 -1.6968  1.4274
 5322SOL    HW227603   4.568   3.510   3.716 -0.3833 -4.1413 -1.4962
 5323SOL     OW27604   4.535   3.975   5.833  0.0797  0.5967  0.2751
 5323SOL    HW127605   4.496   4.008   5.752 -2.3717 -0.4529  1.0237
 5323SOL    HW227606   4.460   3.930   5.872  0.1819  0.6591  0.5424
 5324SOL     OW27607   2.711   0.168  15.892 -0.2986 -0.5249 -0.3603
 5324SOL    HW127608   2.758   0.144  15.812  0.7098 -0.6801  0.2830
 5324SOL    HW227609   2.692   0.257  15.862  0.3650 -0.5349 -0.8249
 5325SOL     OW27610   2.075   1.331   7.535 -0.6470 -0.2180  0.2052
 5325SOL    HW127611   2.094   1.358   7.445  2.5419 -2.4123  0.2517
 5325SOL    HW227612   2.013   1.399   7.561  1.0339  0.8450  1.4507
 5326SOL     OW27613   2.989   0.264  10.319 -0.0191  0.4005  0.1626
 5326SOL    HW127614   3.027   0.346  10.351  2.1595 -0.2709 -0.7136
 5326SOL    HW227615   3.061   0.209  10.349 -0.9201 -0.3516  0.9315
 5327SOL     OW27616   4.276   4.305   3.961  0.3340  0.0651 -0.3663
 5327SOL    HW127617   4.201   4.246   3.954 -1.0906  1.4570  2.8247
 5327SOL    HW227618   4.310   4.308   3.872  0.3268  0.0526 -0.3694
 5328SOL     OW27619   0.801   0.376   3.872  0.2239 -0.0979  0.1456
 5328SOL    HW127620   0.746   0.299   3.886 -0.0850  0.0564 -0.2041
 5328SOL    HW227621   0.876   0.326   3.839 -0.2684 -1.1430  0.6099
 5329SOL     OW27622   4.239   0.148   6.503 -0.0828  0.2442 -0.2509
 5329SOL    HW127623   4.205   0.220   6.556  1.5629  1.0664 -0.3299
 5329SOL    HW227624   4.234   0.072   6.561  0.8991 -0.6027 -1.2709
 5330SOL     OW27625   0.084   1.667   5.853  0.1176 -0.2301  0.1631
 5330SOL    HW127626   0.020   1.727   5.816  0.3213  0.3328  0.7038
 5330SOL    HW227627   0.028   1.590   5.862 -1.0198  0.5032 -0.7023
 5331SOL     OW27628   1.742   4.476  12.259 -0.0718 -0.0609  0.0757
 5331SOL    HW127629   1.806   4.547  12.254  0.1143 -0.3031 -0.9543
 5331SOL    HW227630   1.693   4.489  12.340  0.1120 -1.8718  0.4837
 5332SOL     OW27631   1.077   0.433  15.017 -0.7511 -0.3276  0.5088
 5332SOL    HW127632   1.150   0.375  15.040 -1.8294 -1.2986  1.4427
 5332SOL    HW227633   1.097   0.450  14.925  1.0260  0.1750  0.9873
 5333SOL     OW27634   3.241   3.461   4.682  0.5638  0.4406  0.0085
 5333SOL    HW127635   3.185   3.538   4.672  0.8229  1.0072  2.9557
 5333SOL    HW227636   3.177   3.391   4.679  1.7002 -0.5132 -2.5003
 5334SOL     OW27637   0.990   3.431   8.142  0.1857  0.0688 -0.2390
 5334SOL    HW127638   0.986   3.455   8.050  0.4366  0.7308 -0.0801
 5334SOL    HW227639   1.057   3.364   8.147  0.4757  0.3315 -0.6251
 5335SOL     OW27640   1.950   2.056   6.594  0.5526  0.3919 -0.3016
 5335SOL    HW127641   1.861   2.084   6.617  0.7198 -1.2395  2.3637
 5335SOL    HW227642   1.999   2.088   6.669  0.7260 -0.0660 -0.2213
 5336SOL     OW27643   2.916   2.385   0.930  0.3354 -0.0231 -1.1554
 5336SOL    HW127644   2.955   2.468   0.957 -0.5783 -0.7223  2.2106
 5336SOL    HW227645   2.870   2.358   1.009  1.1397  0.0910 -0.6386
 5337SOL     OW27646   1.087   1.737   9.931  0.4098 -0.0475 -0.2071
 5337SOL    HW127647   1.016   1.727   9.868  0.6488 -0.9215 -0.3400
 5337SOL    HW227648   1.038   1.728  10.012  1.9829  1.0815  0.8564
 5338SOL     OW27649   2.035   2.470   5.113  0.0453 -0.3065  0.3653
 5338SOL    HW127650   2.002   2.450   5.026 -0.2432 -0.9203  0.6153
 5338SOL    HW227651   1.993   2.551   5.141  1.2212 -0.2325  1.9510
 5339SOL     OW27652   2.451   4.420  15.257  0.5017  0.0922 -0.2241
 5339SOL    HW127653   2.521   4.356  15.272 -0.1937 -0.7665 -0.6748
 5339SOL    HW227654   2.491   4.479  15.193 -1.8970 -1.4214 -3.0803
 5340SOL     OW27655   2.052   2.188   5.065  0.2314 -0.7162  0.1329
 5340SOL    HW127656   2.049   2.278   5.097 -2.1271 -0.0646 -1.9307
 5340SOL    HW227657   2.070   2.201   4.972  0.1567 -0.8050  0.1055
 5341SOL     OW27658   1.176   1.506   8.198  0.3980 -0.1514  0.4762
 5341SOL    HW127659   1.256   1.558   8.201  1.7187 -2.2389  0.8977
 5341SOL    HW227660   1.147   1.530   8.287  0.8120  1.0866  0.2729
 5342SOL     OW27661   2.288   4.545   0.073  0.1620  0.2503 -0.3237
 5342SOL    HW127662   2.361   4.607   0.072  0.6394 -0.2898  0.5695
 5342SOL    HW227663   2.333   4.460   0.071  0.8665  0.6644 -1.9541
 5343SOL     OW27664   2.391   4.608   1.231  0.1667 -0.6102  0.6001
 5343SOL    HW127665   2.429   4.559   1.159  2.9556 -0.6691  2.1346
 5343SOL    HW227666   2.352   4.537   1.283 -2.2196  0.4580  0.2656
 5344SOL     OW27667   2.190   0.447   3.636  0.5927 -0.1433  0.5027
 5344SOL    HW127668   2.281   0.466   3.615  0.2046  2.2217  0.8934
 5344SOL    HW227669   2.161   0.517   3.696 -1.2213 -0.2594 -0.2221
 5345SOL     OW27670   1.275   2.258  16.910  0.1189  0.3955  0.2046
 5345SOL    HW127671   1.205   2.256  16.845 -1.5950  0.6481  2.0647
 5345SOL    HW227672   1.282   2.349  16.939 -2.6015  0.4386  0.7462
 5346SOL     OW27673   2.286   3.927   2.398  0.7523  0.0282  0.7211
 5346SOL    HW127674   2.341   3.849   2.394 -0.6849 -1.0517  2.0317
 5346SOL    HW227675   2.337   3.982   2.339  2.0106 -0.5204  1.3071
 5347SOL     OW27676   2.310   3.382   6.737  0.0695  0.4000 -0.7898
 5347SOL    HW127677   2.350   3.342   6.661  0.0133 -0.4881 -0.3539
 5347SOL    HW227678   2.227   3.335   6.742 -0.6360  1.6544 -0.4831
 5348SOL     OW27679   1.550   2.783  13.922 -0.2747 -0.7500 -0.1699
 5348SOL    HW127680   1.523   2.874  13.915  3.1398  0.2073 -1.0424
 5348SOL    HW227681   1.609   2.792  13.997  0.0761 -0.4473 -0.4825
 5349SOL     OW27682   3.127   4.643   6.565  0.2912 -0.1458 -0.0785
 5349SOL    HW127683   3.064   4.573   6.581 -0.6712  0.6113 -0.5355
 5349SOL    HW227684   3.117   4.699   6.641 -2.1257 -0.5404 -0.0990
 5350SOL     OW27685   2.216   1.817   5.261  0.4107  0.5073  0.6434
 5350SOL    HW127686   2.226   1.762   5.338 -3.1585 -0.4831  0.4018
 5350SOL    HW227687   2.233   1.752   5.193  0.3855  1.7341 -0.5403
 5351SOL     OW27688   3.712   0.630   9.909 -0.2757 -0.5627  0.1497
 5351SOL    HW127689   3.697   0.717   9.947  0.5689  0.5602 -2.1002
 5351SOL    HW227690   3.782   0.593   9.961  0.3918  1.5922  0.7991
 5352SOL     OW27691   4.376   3.818   2.707  0.1725  0.0090 -0.4561
 5352SOL    HW127692   4.373   3.844   2.799 -0.6698  1.3783 -0.8785
 5352SOL    HW227693   4.470   3.830   2.695  0.4567 -0.4733  1.2937
 5353SOL     OW27694   4.309   4.480   6.934 -0.0137 -0.4738 -0.2339
 5353SOL    HW127695   4.270   4.504   7.018  1.2347  0.4487  0.0820
 5353SOL    HW227696   4.236   4.461   6.875  0.1891 -1.3359 -0.2001
 5354SOL     OW27697   0.554   1.737  11.038 -0.0659  0.4585  0.2620
 5354SOL    HW127698   0.593   1.728  10.951  1.0298 -1.1722  0.9248
 5354SOL    HW227699   0.562   1.644  11.059  2.5044  0.3541 -1.1213
 5355SOL     OW27700   1.076   2.191  15.836  0.2528  0.1980  0.0768
 5355SOL    HW127701   1.137   2.241  15.781 -0.9547  0.7163 -0.8149
 5355SOL    HW227702   1.114   2.202  15.923 -0.1120  1.5081  0.0755
 5356SOL     OW27703   1.370   1.202   7.904  0.5161 -0.1789 -0.0609
 5356SOL    HW127704   1.381   1.152   7.985  3.8057 -2.2770 -1.8233
 5356SOL    HW227705   1.420   1.140   7.851  1.3946  1.1183 -0.7518
 5357SOL     OW27706   4.314   4.413   8.529  0.3161  0.9621  0.5302
 5357SOL    HW127707   4.271   4.337   8.491  0.4013  2.4908 -2.5747
 5357SOL    HW227708   4.405   4.383   8.532  0.0002  0.1970  3.0816
 5358SOL     OW27709   4.483   0.657   9.103 -0.0143 -0.7458  0.0337
 5358SOL    HW127710   4.408   0.605   9.132 -0.3715 -0.3149 -0.1308
 5358SOL    HW227711   4.485   0.724   9.171 -1.6459  0.8337 -1.4682
 5359SOL     OW27712   4.361   2.402   1.084 -0.1601  0.0102 -0.0729
 5359SOL    HW127713   4.278   2.371   1.047  1.0558 -1.1503 -1.7722
 5359SOL    HW227714   4.341   2.496   1.090  2.1556  0.3385  2.3216
 5360SOL     OW27715   2.559   4.026   0.079  0.2354 -0.4550  0.0215
 5360SOL    HW127716   2.475   4.007   0.038  0.3966 -1.7077  0.2762
 5360SOL    HW227717   2.540   4.050   0.169  0.9609 -1.0888  0.3445
 5361SOL     OW27718   3.242   1.286  12.611 -0.5535 -0.3780 -0.1003
 5361SOL    HW127719   3.178   1.215  12.604  0.3579 -1.0055 -2.0030
 5361SOL    HW227720   3.245   1.298  12.706 -0.3179  0.1656 -0.1790
 5362SOL     OW27721   3.917   0.965   6.501  0.0409  0.5706 -0.5378
 5362SOL    HW127722   3.878   0.884   6.469 -0.7631  0.7258  0.0486
 5362SOL    HW227723   3.937   0.998   6.414 -1.2507  1.3879 -0.5321
 5363SOL     OW27724   0.623   3.690  15.448  0.1491  0.0274  0.7185
 5363SOL    HW127725   0.578   3.759  15.399  1.5308  0.1721 -0.3705
 5363SOL    HW227726   0.693   3.670  15.386 -1.7348  1.0160 -1.7264
 5364SOL     OW27727   0.405   3.916   2.770  0.3277 -0.7135  0.1199
 5364SOL    HW127728   0.499   3.925   2.757  0.2377  0.5019  0.3231
 5364SOL    HW227729   0.396   3.821   2.777 -0.0104 -0.7857 -1.2200
 5365SOL     OW27730   2.900   0.244   2.420  0.1038 -0.4751  0.4149
 5365SOL    HW127731   2.984   0.280   2.450 -0.9573  2.8396 -0.5945
 5365SOL    HW227732   2.933   0.175   2.363 -1.9192  0.4345 -1.8313
 5366SOL     OW27733   0.875   4.524   6.657 -0.3399 -0.1092 -0.0655
 5366SOL    HW127734   0.807   4.481   6.709  0.4732 -0.8346  0.3836
 5366SOL    HW227735   0.839   4.500   6.571  0.8131 -0.1533 -0.5273
 5367SOL     OW27736   3.611   3.680   2.216  0.0181 -0.2333  0.5013
 5367SOL    HW127737   3.621   3.635   2.299 -2.3209 -2.0438 -0.1949
 5367SOL    HW227738   3.516   3.692   2.214  0.2330  1.7038  1.1498
 5368SOL     OW27739   2.128   3.475   0.094  0.1737 -0.2871  0.0465
 5368SOL    HW127740   2.135   3.495   0.187  1.0793 -0.6503  0.0544
 5368SOL    HW227741   2.134   3.380   0.088 -0.8061 -0.3451 -0.1383
 5369SOL     OW27742   0.941   0.343   7.386  0.4708  0.5704 -0.2744
 5369SOL    HW127743   0.869   0.293   7.347 -1.2484  0.8044  2.5942
 5369SOL    HW227744   0.920   0.349   7.479  0.0446 -2.5430 -0.1632
 5370SOL     OW27745   1.709   2.622   8.393  0.5227 -0.5410  0.5118
 5370SOL    HW127746   1.662   2.705   8.401 -0.5643 -1.0143 -1.1221
 5370SOL    HW227747   1.795   2.652   8.364  0.5177 -0.3306  0.7062
 5371SOL     OW27748   2.706   3.613   1.129 -0.0244  0.2611  0.4448
 5371SOL    HW127749   2.655   3.603   1.048  2.6425 -0.7276 -1.1040
 5371SOL    HW227750   2.765   3.687   1.114  0.3228 -0.2057 -0.4754
 5372SOL     OW27751   4.106   3.792  15.920  0.2934 -0.2811  0.2968
 5372SOL    HW127752   4.182   3.736  15.905  1.6616  1.9180 -0.9609
 5372SOL    HW227753   4.125   3.847  15.844 -1.8333  2.7812  1.9455
 5373SOL     OW27754   0.789   3.027  14.451  0.1434  0.0409 -0.3266
 5373SOL    HW127755   0.720   3.041  14.387 -0.9624  2.6579  1.4359
 5373SOL    HW227756   0.865   3.056  14.401 -0.0877  0.2696 -0.5405
 5374SOL     OW27757   2.049   0.455   5.540 -0.3390  0.0558 -0.3865
 5374SOL    HW127758   2.009   0.439   5.625 -2.4057 -1.3014 -1.6248
 5374SOL    HW227759   1.979   0.424   5.483 -0.9152  0.6147  0.0200
 5375SOL     OW27760   2.287   4.035  16.227  0.3607  0.4890 -0.5139
 5375SOL    HW127761   2.359   4.040  16.289 -1.3521 -1.5706  1.6255
 5375SOL    HW227762   2.337   3.991  16.158 -2.0123  1.8445 -3.1050
 5376SOL     OW27763   0.627   0.910  16.740  0.0058 -0.8048  0.0154
 5376SOL    HW127764   0.649   1.002  16.757  0.0771 -0.9334  0.6044
 5376SOL    HW227765   0.549   0.898  16.795 -0.5620 -0.1048 -0.6302
 5377SOL     OW27766   0.882   2.017   4.775 -0.0968  0.8966  0.3174
 5377SOL    HW127767   0.835   1.951   4.825 -0.4335  2.2823  1.8191
 5377SOL    HW227768   0.818   2.033   4.705 -0.3752 -0.3646  0.2810
 5378SOL     OW27769   2.053   3.845   8.927 -0.0019 -0.1656 -0.1110
 5378SOL    HW127770   2.107   3.924   8.936  0.9212 -0.7894 -0.1103
 5378SOL    HW227771   2.113   3.786   8.972 -0.1147  0.6898  1.1815
 5379SOL     OW27772   2.320   3.639   6.222 -0.4185  0.2700  0.4174
 5379SOL    HW127773   2.251   3.706   6.224 -0.4974  0.2503 -1.5346
 5379SOL    HW227774   2.285   3.560   6.263  0.2297  0.1632  0.7520
 5380SOL     OW27775   4.403   1.183   3.345  0.0019 -0.5799  0.0374
 5380SOL    HW127776   4.495   1.207   3.333 -0.1317  0.4510  1.1118
 5380SOL    HW227777   4.354   1.262   3.323 -1.5693 -1.7527 -0.7173
 5381SOL     OW27778   4.199   3.401   7.928  0.2008  0.4212 -0.6202
 5381SOL    HW127779   4.108   3.373   7.944  0.7777 -0.9416  0.2822
 5381SOL    HW227780   4.247   3.328   7.967 -1.0465  1.2669  2.4969
 5382SOL     OW27781   3.680   4.112   2.699  0.1070  0.8810  0.6040
 5382SOL    HW127782   3.752   4.056   2.727 -0.0199  0.5476  0.2594
 5382SOL    HW227783   3.610   4.094   2.762  0.7750  1.7256  1.5989
 5383SOL     OW27784   0.062   3.750   7.180 -0.2204  0.0803 -0.3760
 5383SOL    HW127785   0.005   3.699   7.122 -1.4579 -0.2059  1.0715
 5383SOL    HW227786   0.141   3.756   7.126 -0.6537 -0.6944 -1.1012
 5384SOL     OW27787   4.425   2.389   5.113 -0.1059  0.0308  0.6779
 5384SOL    HW127788   4.494   2.421   5.170  1.1596  1.8692 -1.8827
 5384SOL    HW227789   4.381   2.471   5.091 -1.5409 -1.3074 -1.3979
 5385SOL     OW27790   2.512   1.058   7.544 -0.2671  0.1789  0.9145
 5385SOL    HW127791   2.446   1.058   7.614  0.2354 -1.4462  1.3900
 5385SOL    HW227792   2.556   0.979   7.575 -0.3219 -0.4385 -0.5800
 5386SOL     OW27793   1.187   2.326   5.662  0.4563 -0.2456 -0.1467
 5386SOL    HW127794   1.180   2.371   5.746 -0.0900 -0.6343  0.0126
 5386SOL    HW227795   1.256   2.380   5.623 -0.6471  0.6111 -0.8891
 5387SOL     OW27796   1.935   4.352  12.613 -0.5200 -0.4532 -0.8383
 5387SOL    HW127797   1.892   4.437  12.624  2.3111  0.5046  2.9017
 5387SOL    HW227798   1.883   4.322  12.539  0.4575  2.0748 -2.5377
 5388SOL     OW27799   0.727   2.849   2.807  0.6014 -0.8083 -0.0983
 5388SOL    HW127800   0.775   2.806   2.736  2.9813  2.1588 -0.3129
 5388SOL    HW227801   0.800   2.858   2.868  1.0835  0.3274 -0.8345
 5389SOL     OW27802   2.157   1.750  10.652 -0.0453 -0.1484 -0.4124
 5389SOL    HW127803   2.226   1.777  10.592 -0.8081 -2.0008 -2.1204
 5389SOL    HW227804   2.128   1.666  10.616  1.3552 -1.2714  1.0874
 5390SOL     OW27805   1.136   0.681   6.162 -0.9772  0.3711 -0.2719
 5390SOL    HW127806   1.143   0.635   6.245 -2.9246 -0.5008 -0.5832
 5390SOL    HW227807   1.048   0.648   6.144 -0.1338 -0.8744 -2.1701
 5391SOL     OW27808   0.625   2.581   7.201  0.1151  0.0573 -0.2608
 5391SOL    HW127809   0.672   2.510   7.245 -0.5160 -0.4040 -0.3255
 5391SOL    HW227810   0.597   2.523   7.130 -0.7388 -0.1074  0.2066
 5392SOL     OW27811   0.625   2.211   7.407 -0.3541 -0.1714  0.6517
 5392SOL    HW127812   0.533   2.194   7.424 -0.7887  1.1719 -0.3853
 5392SOL    HW227813   0.658   2.124   7.383  0.2205  0.2073  0.0498
 5393SOL     OW27814   2.824   0.286   2.682  0.1260  0.9669  0.1758
 5393SOL    HW127815   2.846   0.287   2.589  1.2135 -0.4586  0.4144
 5393SOL    HW227816   2.735   0.251   2.679  1.7199 -3.1140  0.7286
 5394SOL     OW27817   0.366   0.771   4.322  0.0587  0.0390 -0.6141
 5394SOL    HW127818   0.291   0.712   4.329 -0.1231  0.3337 -0.0899
 5394SOL    HW227819   0.434   0.709   4.293  0.5897  0.2062  0.2587
 5395SOL     OW27820   2.979   3.659   5.263  0.3715  0.1756 -0.5973
 5395SOL    HW127821   2.927   3.676   5.185  1.4801 -0.5186 -1.4861
 5395SOL    HW227822   2.943   3.571   5.280 -1.0856  1.2116  1.7001
 5396SOL     OW27823   4.019   1.208   8.410 -0.5350 -0.0830  0.7445
 5396SOL    HW127824   3.951   1.264   8.449 -1.5481 -0.9078  0.1586
 5396SOL    HW227825   4.025   1.126   8.460  0.8055 -0.2352  0.3207
 5397SOL     OW27826   4.561   4.383  11.623 -0.1218  0.4050  0.1018
 5397SOL    HW127827   4.628   4.422  11.679  0.6064  1.1055 -1.2590
 5397SOL    HW227828   4.608   4.389  11.540 -0.9994 -3.2097 -0.6350
 5398SOL     OW27829   4.634   4.237   5.108  0.4701  0.3952  0.6755
 5398SOL    HW127830   4.673   4.151   5.094  1.8300  0.9326  1.2605
 5398SOL    HW227831   4.544   4.206   5.122 -0.0302  1.5102 -0.0465
 5399SOL     OW27832   1.546   3.927   5.016 -0.5456 -0.3348 -0.5794
 5399SOL    HW127833   1.539   4.022   5.013  1.5099 -0.1487  0.4934
 5399SOL    HW227834   1.537   3.916   5.110 -1.6638 -1.7571 -0.8587
 5400SOL     OW27835   0.583   1.472  14.895  0.4438 -0.2788  0.9628
 5400SOL    HW127836   0.625   1.556  14.877  0.6878 -0.4009  0.9588
 5400SOL    HW227837   0.656   1.410  14.902 -0.1277 -1.3769 -2.8158
 5401SOL     OW27838   0.838   1.353   2.269 -0.0868  0.5941  0.0205
 5401SOL    HW127839   0.907   1.346   2.335  0.1225  0.5146 -0.2037
 5401SOL    HW227840   0.861   1.440   2.236 -0.1720 -0.1581 -2.0467
 5402SOL     OW27841   0.296   3.336   7.725 -0.2586  0.1657  0.1119
 5402SOL    HW127842   0.343   3.253   7.732 -0.5112  0.0956  0.9870
 5402SOL    HW227843   0.252   3.344   7.810  1.3756 -0.1473  0.9954
 5403SOL     OW27844   4.220   3.639   0.409  0.1186  0.6183 -0.2116
 5403SOL    HW127845   4.214   3.545   0.426 -2.7254  1.2633  2.3566
 5403SOL    HW227846   4.196   3.627   0.317 -0.2461 -0.1829 -0.0124
 5404SOL     OW27847   1.867   2.070   2.614 -0.2316 -0.1749 -0.0766
 5404SOL    HW127848   1.797   2.015   2.648  0.0730 -0.2353  0.4660
 5404SOL    HW227849   1.820   2.149   2.588  0.9465  0.2184 -1.0048
 5405SOL     OW27850   3.811   1.732   9.126  0.3769 -0.3943 -0.2327
 5405SOL    HW127851   3.761   1.691   9.196  1.4445  0.9548  1.3349
 5405SOL    HW227852   3.861   1.796   9.177 -1.3975  1.1506 -0.4623
 5406SOL     OW27853   1.892   4.377   0.531 -0.3240 -0.0293  0.4430
 5406SOL    HW127854   1.898   4.463   0.572  0.1555  0.6082 -0.9706
 5406SOL    HW227855   1.968   4.332   0.569 -0.4555 -0.5448  0.1019
 5407SOL     OW27856   1.034   4.724  15.321  0.8149  0.3158  0.2460
 5407SOL    HW127857   1.048   4.703  15.228 -0.7884 -0.3458  0.1516
 5407SOL    HW227858   1.061   0.081  15.329 -0.3095  0.7343 -0.7652
 5408SOL     OW27859   3.310   1.386  11.034 -0.1085 -0.1510  0.6686
 5408SOL    HW127860   3.267   1.469  11.055 -2.4944 -0.9442 -0.9742
 5408SOL    HW227861   3.333   1.393  10.942 -0.9764 -1.4194  0.3521
 5409SOL     OW27862   4.129   0.614  12.765 -0.1118 -0.6358  0.0836
 5409SOL    HW127863   4.105   0.527  12.733  2.3043 -1.9500  1.8426
 5409SOL    HW227864   4.223   0.615  12.749 -0.3532  1.4072 -1.2007
 5410SOL     OW27865   0.942   2.736   6.082 -0.4988  0.2203 -0.1271
 5410SOL    HW127866   0.902   2.813   6.123 -2.0790 -1.2121  1.0778
 5410SOL    HW227867   0.902   2.657   6.120  2.4857 -1.2942 -0.1314
 5411SOL     OW27868   1.015   1.055  10.262  0.3349 -0.0473  0.1556
 5411SOL    HW127869   1.003   1.141  10.302 -1.6408 -0.2709  0.0439
 5411SOL    HW227870   1.107   1.033  10.280  0.1456  0.7362  2.1698
 5412SOL     OW27871   0.548   3.882   9.817  0.1016  0.4515  0.3106
 5412SOL    HW127872   0.606   3.807   9.819  0.3397  0.6004 -0.8764
 5412SOL    HW227873   0.612   3.952   9.805  0.0712  0.5622  0.8140
 5413SOL     OW27874   2.216   0.962   4.605 -0.0434 -0.0918  0.0564
 5413SOL    HW127875   2.274   1.010   4.545  0.3384 -0.9907 -0.2932
 5413SOL    HW227876   2.224   1.010   4.687  0.2259 -2.6409  1.5114
 5414SOL     OW27877   2.569   3.173   9.030 -0.5480 -0.3553  0.2738
 5414SOL    HW127878   2.568   3.196   8.937 -0.2899 -0.0143  0.3562
 5414SOL    HW227879   2.476   3.157   9.043 -0.4076  1.1086  3.1655
 5415SOL     OW27880   1.929   1.073   3.126 -0.3909  0.4879  0.3358
 5415SOL    HW127881   1.909   1.002   3.188  2.0092  0.2198  0.7990
 5415SOL    HW227882   1.841   1.105   3.106 -0.9484 -1.4832 -0.4301
 5416SOL     OW27883   0.451   4.625   2.349 -0.1138  0.6532 -0.1160
 5416SOL    HW127884   0.381   4.598   2.290 -0.7739  1.3092  0.3740
 5416SOL    HW227885   0.526   4.571   2.325 -1.2534 -0.0909 -2.0368
 5417SOL     OW27886   4.429   1.901   2.635 -0.4851 -0.1837 -0.0166
 5417SOL    HW127887   4.442   1.969   2.569 -1.2118 -0.0891 -0.0630
 5417SOL    HW227888   4.333   1.901   2.644 -0.7930  0.5228 -3.3585
 5418SOL     OW27889   2.755   3.646  16.893 -0.3379 -0.0933 -0.6667
 5418SOL    HW127890   2.724   3.610  16.976 -0.5883  0.9371 -0.3080
 5418SOL    HW227891   2.714   3.732  16.902 -0.9713 -0.6302  1.6291
 5419SOL     OW27892   2.820   0.988   6.345 -0.4213 -0.0944 -0.2313
 5419SOL    HW127893   2.843   0.972   6.253 -2.8931 -0.2397 -0.8245
 5419SOL    HW227894   2.836   0.903   6.386  0.3681 -1.1297 -2.6619
 5420SOL     OW27895   3.693   3.499   9.401  0.7688 -0.2443  0.2097
 5420SOL    HW127896   3.660   3.498   9.311 -2.2406  1.9019  1.3024
 5420SOL    HW227897   3.766   3.438   9.391  0.1248 -1.1815  1.2570
 5421SOL     OW27898   0.862   2.039  14.219  0.1844  0.1428 -0.6673
 5421SOL    HW127899   0.821   2.123  14.237 -1.3474 -1.3860  2.9219
 5421SOL    HW227900   0.838   1.984  14.293  0.0545  1.6176  0.3691
 5422SOL     OW27901   0.444   1.539   6.959 -0.0772  0.1895  0.5174
 5422SOL    HW127902   0.485   1.545   6.873 -1.7059 -1.5741 -0.4094
 5422SOL    HW227903   0.482   1.457   6.991 -0.4071  0.1666  0.8520
 5423SOL     OW27904   3.659   0.813  15.808 -0.3469 -0.2072 -0.0359
 5423SOL    HW127905   3.564   0.820  15.818 -0.3153  1.2211 -0.6751
 5423SOL    HW227906   3.682   0.796  15.899  4.5203  1.6284 -0.8761
 5424SOL     OW27907   1.985   2.139   8.065  0.0643 -0.4135  0.3494
 5424SOL    HW127908   1.947   2.070   8.119 -0.2049 -0.3339  0.2661
 5424SOL    HW227909   1.986   2.088   7.985 -1.6179  1.2092 -0.7119
 5425SOL     OW27910   2.198   0.123   6.433  0.4406 -0.6479  0.0658
 5425SOL    HW127911   2.228   0.130   6.342 -1.4802 -0.3939 -0.5634
 5425SOL    HW227912   2.271   0.147   6.489  0.2980  0.8829 -0.4103
 5426SOL     OW27913   0.639   1.537  12.026  0.5136 -0.0271  0.5168
 5426SOL    HW127914   0.623   1.609  11.966  1.0015 -1.3768 -1.2513
 5426SOL    HW227915   0.734   1.524  12.025  0.6248  0.8843 -0.8077
 5427SOL     OW27916   2.521   1.948   3.260 -0.6079 -0.8355 -0.0827
 5427SOL    HW127917   2.468   2.003   3.318 -1.0869 -0.0065 -1.3334
 5427SOL    HW227918   2.604   1.987   3.236 -1.6137  2.3405  1.6287
 5428SOL     OW27919   2.944   2.768  12.957  0.8821 -0.1235  0.0556
 5428SOL    HW127920   2.989   2.769  12.873 -0.3520 -0.1457 -0.5937
 5428SOL    HW227921   2.862   2.815  12.940  0.3904 -0.6823  0.8706
 5429SOL     OW27922   1.489   4.371   5.964 -0.3928 -0.6015  0.4436
 5429SOL    HW127923   1.529   4.306   6.022  1.7503 -1.3476 -1.8855
 5429SOL    HW227924   1.395   4.351   5.970 -0.5570 -0.8330 -3.2442
 5430SOL     OW27925   3.087   3.490   2.806  0.5630  0.0153 -0.2492
 5430SOL    HW127926   3.016   3.552   2.789 -0.0449 -1.2171 -2.2114
 5430SOL    HW227927   3.160   3.551   2.816  1.5084 -0.7102 -2.7530
 5431SOL     OW27928   3.340   3.675   4.264 -0.3626  0.3285  0.5297
 5431SOL    HW127929   3.399   3.626   4.207 -0.3095  0.9484  0.0541
 5431SOL    HW227930   3.306   3.602   4.316  0.9583 -2.3087 -2.3374
 5432SOL     OW27931   3.905   0.650   7.517 -0.4467  0.0783  0.2727
 5432SOL    HW127932   3.929   0.731   7.472 -0.7669 -0.9973 -1.8488
 5432SOL    HW227933   3.837   0.673   7.581 -2.0470 -0.4880 -1.2427
 5433SOL     OW27934   4.327   0.949   4.157  0.7254  0.2905  0.3773
 5433SOL    HW127935   4.316   0.911   4.070 -1.6172  0.6249  0.5296
 5433SOL    HW227936   4.316   0.873   4.214 -0.4065  0.1699 -0.0066
 5434SOL     OW27937   0.867   1.445   9.004  0.2326  0.6011 -0.6951
 5434SOL    HW127938   0.779   1.421   9.034  0.5755 -0.2008 -0.3332
 5434SOL    HW227939   0.916   1.394   9.069 -0.0810  1.9275  0.5898
 5435SOL     OW27940   3.407   2.237   5.519  0.0255  0.1866 -0.1695
 5435SOL    HW127941   3.434   2.159   5.568 -0.4023 -0.0167 -0.2555
 5435SOL    HW227942   3.493   2.271   5.493  0.4087 -1.1875 -0.6749
 5436SOL     OW27943   3.198   1.720   2.618 -0.4879 -0.5556 -0.0342
 5436SOL    HW127944   3.132   1.741   2.685 -1.2417 -2.5961 -0.1230
 5436SOL    HW227945   3.166   1.633   2.596 -1.5139 -0.4454  1.0173
 5437SOL     OW27946   1.610   3.584   3.980  0.2988 -0.0603 -0.3858
 5437SOL    HW127947   1.571   3.639   4.049  1.6703  0.2409  0.1562
 5437SOL    HW227948   1.673   3.648   3.947  1.0982 -0.8835 -0.4517
 5438SOL     OW27949   4.653   2.418   1.369  0.4062  0.4833 -0.6986
 5438SOL    HW127950   4.600   2.494   1.393  0.3911 -0.0405  0.9214
 5438SOL    HW227951   4.727   2.458   1.322  0.1179  1.5564 -0.2517
 5439SOL     OW27952   0.058   2.964   1.570  0.1432  0.0603  0.5248
 5439SOL    HW127953   0.001   2.967   1.494 -0.0903  0.3767  0.7128
 5439SOL    HW227954   4.724   2.945   1.634 -2.4732  1.2258 -1.9585
 5440SOL     OW27955   2.156   0.893  15.361  0.1797  0.3979 -0.5873
 5440SOL    HW127956   2.143   0.818  15.303  1.2434  1.4156 -2.1603
 5440SOL    HW227957   2.201   0.850  15.433  1.3706  1.4112 -0.7170
 5441SOL     OW27958   1.412   2.501   7.997 -0.1820  0.2054  0.6012
 5441SOL    HW127959   1.424   2.421   7.945 -1.0096  1.1746 -1.0869
 5441SOL    HW227960   1.459   2.478   8.077  1.1688 -0.5223 -0.3777
 5442SOL     OW27961   1.256   0.379   2.361 -0.5638  0.1589  0.2645
 5442SOL    HW127962   1.173   0.334   2.377 -0.2449 -0.2212  0.8457
 5442SOL    HW227963   1.228   0.442   2.294 -1.6510  0.5894  1.1174
 5443SOL     OW27964   2.887   4.568   1.818 -0.2824  0.3160 -0.6682
 5443SOL    HW127965   2.902   4.658   1.789 -3.0168  0.9636  0.0126
 5443SOL    HW227966   2.877   4.524   1.733 -0.5313  1.0926 -1.0378
 5444SOL     OW27967   1.413   1.566   4.793  0.1792  0.1815  0.2804
 5444SOL    HW127968   1.455   1.511   4.726 -1.5073 -2.0721  1.0596
 5444SOL    HW227969   1.450   1.534   4.875  1.0663  0.8849  0.1554
 5445SOL     OW27970   3.807   0.084   1.199 -0.0437  0.0926  0.0867
 5445SOL    HW127971   3.877   0.023   1.220  0.9211  1.4644  0.8952
 5445SOL    HW227972   3.728   0.029   1.197  0.6198 -0.8874  1.1806
 5446SOL     OW27973   1.504   4.319   4.336 -0.2263 -0.3730  0.5603
 5446SOL    HW127974   1.448   4.392   4.364 -0.5326 -1.2396  2.1902
 5446SOL    HW227975   1.590   4.357   4.319 -0.3069  0.9304  3.0027
 5447SOL     OW27976   2.842   1.608  11.508 -0.7399 -0.0858 -0.3926
 5447SOL    HW127977   2.756   1.638  11.535 -0.8643 -0.0186 -0.8707
 5447SOL    HW227978   2.865   1.540  11.572  0.0287 -0.3703 -0.9677
 5448SOL     OW27979   1.013   2.277  10.066 -0.8284  0.1746 -0.3206
 5448SOL    HW127980   1.024   2.358  10.116  2.8881 -1.1281  0.9659
 5448SOL    HW227981   1.103   2.246  10.051 -0.9260  0.6216 -1.7948
 5449SOL     OW27982   4.012   0.677   3.694 -0.7357 -0.2518  0.0984
 5449SOL    HW127983   4.021   0.730   3.774  1.4654  0.5507 -0.7049
 5449SOL    HW227984   3.990   0.592   3.733 -2.1582 -0.2086 -0.5981
 5450SOL     OW27985   3.522   1.560   2.174  0.2347  0.0840 -0.4955
 5450SOL    HW127986   3.453   1.500   2.147  0.8592  0.2608 -2.4972
 5450SOL    HW227987   3.528   1.543   2.268 -0.1259  1.1477 -0.2872
 5451SOL     OW27988   2.282   4.704   3.028  0.1814 -0.6042  0.1911
 5451SOL    HW127989   2.325   4.720   2.944 -0.0244 -0.1186  0.1807
 5451SOL    HW227990   2.197   4.679   2.993  0.1013  1.5593 -1.1547
 5452SOL     OW27991   4.596   2.306   3.987  0.0959  0.2448  0.1144
 5452SOL    HW127992   4.610   2.271   4.075  1.3028 -0.1386 -0.2250
 5452SOL    HW227993   4.652   2.383   3.981  0.4100 -0.2571 -3.3790
 5453SOL     OW27994   1.404   0.125   4.941 -0.3290  0.2254  0.0511
 5453SOL    HW127995   1.340   0.195   4.928 -0.4865  0.0447 -0.1465
 5453SOL    HW227996   1.483   0.152   4.894 -0.3906 -1.8945 -1.2670
 5454SOL     OW27997   1.286   3.648   0.571  0.2960 -0.7986 -0.1653
 5454SOL    HW127998   1.242   3.646   0.487  1.3681 -0.4903 -0.7306
 5454SOL    HW227999   1.309   3.555   0.571 -1.4638 -1.2331 -1.6467
 5455SOL     OW28000   2.160   4.156   8.169  0.4112  0.3388  0.4017
 5455SOL    HW128001   2.067   4.178   8.170 -0.4513 -3.1299 -2.0611
 5455SOL    HW228002   2.159   4.073   8.122  1.2389  0.8575 -0.5340
 5456SOL     OW28003   3.069   0.348   3.408  0.2276 -0.1497  0.5341
 5456SOL    HW128004   3.017   0.268   3.406  0.4984 -0.3165  0.1226
 5456SOL    HW228005   3.062   0.368   3.501  2.7537 -0.0350  0.7021
 5457SOL     OW28006   3.762   0.868   7.151 -0.1961 -0.1328 -0.9812
 5457SOL    HW128007   3.764   0.883   7.056  0.1165 -2.8829 -1.4033
 5457SOL    HW228008   3.760   0.961   7.173 -0.7336 -0.3750 -0.0298
 5458SOL     OW28009   3.684   1.274   7.498  0.3298  0.2411 -0.2852
 5458SOL    HW128010   3.779   1.289   7.505  0.3796 -0.1954  0.0241
 5458SOL    HW228011   3.659   1.362   7.471  0.5726  0.7151  1.0264
 5459SOL     OW28012   4.183   0.685   7.989 -0.3052  0.4695  0.2750
 5459SOL    HW128013   4.199   0.718   7.901 -3.6474  1.0201 -0.1454
 5459SOL    HW228014   4.135   0.758   8.029  0.1119 -0.0685  1.7576
 5460SOL     OW28015   2.470   1.532   6.925 -0.2264 -0.1159 -0.5088
 5460SOL    HW128016   2.466   1.538   7.020 -1.6793  1.2868 -0.6599
 5460SOL    HW228017   2.540   1.594   6.905 -0.1652 -0.4756 -1.4064
 5461SOL     OW28018   1.967   3.291  12.870 -0.7000 -0.0902 -0.4617
 5461SOL    HW128019   2.044   3.308  12.816  0.7238 -1.3222  1.2036
 5461SOL    HW228020   2.011   3.211  12.899 -1.6710 -0.3496  0.2844
 5462SOL     OW28021   3.304   1.252  12.181  0.3921 -0.0861 -0.5899
 5462SOL    HW128022   3.397   1.263  12.202 -0.2218  0.7747  1.6859
 5462SOL    HW228023   3.284   1.339  12.145  0.4007  0.1515 -0.0235
 5463SOL     OW28024   2.928   1.083   2.173 -0.2885  0.3370 -0.1195
 5463SOL    HW128025   2.839   1.118   2.162  0.2498  1.6711 -0.1973
 5463SOL    HW228026   2.913   1.064   2.266 -0.5761  1.4212  0.0585
 5464SOL     OW28027   2.223   2.979   1.933  0.5426  0.1110 -0.1864
 5464SOL    HW128028   2.222   3.018   1.845  0.5088  1.7714  0.5566
 5464SOL    HW228029   2.219   2.884   1.925  0.3463  0.1826 -0.9668
 5465SOL     OW28030   1.584   0.257   3.054 -0.2682  0.5344  0.2855
 5465SOL    HW128031   1.602   0.286   2.964 -0.4738 -1.1685 -0.3119
 5465SOL    HW228032   1.507   0.201   3.044 -1.0527  1.5520  0.7178
 5466SOL     OW28033   4.304   3.163   8.892 -0.1936  0.4285 -0.0084
 5466SOL    HW128034   4.377   3.204   8.847 -0.4711  1.1558  0.2165
 5466SOL    HW228035   4.283   3.091   8.832  0.3807 -1.3074  1.8515
 5467SOL     OW28036   1.845   1.260   3.931  0.0363 -0.4440  0.2104
 5467SOL    HW128037   1.905   1.201   3.978 -1.8060 -0.1594  2.9098
 5467SOL    HW228038   1.765   1.270   3.982  1.2162 -0.6133  2.1096
 5468SOL     OW28039   3.403   2.595   4.578  0.4870 -0.3008  0.2739
 5468SOL    HW128040   3.470   2.562   4.638  0.6479  0.3675  0.4602
 5468SOL    HW228041   3.326   2.586   4.634  0.4099 -1.1278  0.0378
 5469SOL     OW28042   3.968   3.364   4.762  0.5259 -0.1614 -0.2415
 5469SOL    HW128043   3.943   3.299   4.827 -1.1573  0.0204 -0.7086
 5469SOL    HW228044   3.994   3.302   4.694  0.1472 -0.0360 -0.4988
 5470SOL     OW28045   2.850   4.348   1.650 -0.4067  0.1537 -0.3248
 5470SOL    HW128046   2.938   4.333   1.615 -0.0931  0.9679  0.1228
 5470SOL    HW228047   2.849   4.277   1.714 -1.6331 -0.3005 -0.8400
 5471SOL     OW28048   4.706   2.024  15.515  0.0772  0.2048 -0.4463
 5471SOL    HW128049   4.675   1.981  15.595 -1.5303  1.4840 -0.3827
 5471SOL    HW228050   4.624   2.018  15.467 -0.7946 -2.1252  1.3680
 5472SOL     OW28051   3.687   2.153   2.081  0.4529 -0.3575 -0.4478
 5472SOL    HW128052   3.743   2.084   2.116  1.3571  0.2657 -0.6811
 5472SOL    HW228053   3.602   2.141   2.124  1.3375  0.2309  1.4342
 5473SOL     OW28054   0.160   4.331   2.677 -0.7912 -0.6756 -0.1036
 5473SOL    HW128055   0.147   4.330   2.582 -1.0321 -2.3434 -0.0639
 5473SOL    HW228056   0.171   4.237   2.689  0.1290 -0.6928 -1.0292
 5474SOL     OW28057   1.429   2.766   3.997 -0.4131 -0.1053  0.6300
 5474SOL    HW128058   1.460   2.689   4.044  3.2553 -0.0517 -1.7516
 5474SOL    HW228059   1.499   2.779   3.933 -0.6019  1.2828  0.6887
 5475SOL     OW28060   1.282   0.577  15.916  0.4050  0.1612  0.3797
 5475SOL    HW128061   1.345   0.646  15.895  0.1710  0.8269  1.8388
 5475SOL    HW228062   1.228   0.618  15.984 -2.1757  1.0277 -2.1934
 5476SOL     OW28063   3.139   3.744  15.621 -0.4042 -0.8385  0.4337
 5476SOL    HW128064   3.094   3.824  15.594 -0.7446 -0.1594  3.0393
 5476SOL    HW228065   3.061   3.690  15.609 -0.9082  0.5799 -2.7297
 5477SOL     OW28066   3.762   4.071  16.918 -0.0853 -0.1432  0.4961
 5477SOL    HW128067   3.836   4.131  16.909  0.9818 -1.5614 -0.1546
 5477SOL    HW228068   3.720   4.113  16.993 -3.2159 -2.0552 -0.1536
 5478SOL     OW28069   4.388   4.492  15.933  0.0341  0.4761  0.7135
 5478SOL    HW128070   4.438   4.472  16.012  3.3370  2.2564 -0.9156
 5478SOL    HW228071   4.373   4.404  15.899 -1.1505  0.8855  0.1581
 5479SOL     OW28072   4.010   1.999   2.886 -0.2583 -0.0317 -0.1753
 5479SOL    HW128073   3.924   2.041   2.896 -0.5078 -0.0894 -2.2403
 5479SOL    HW228074   3.990   1.908   2.909 -1.6104  0.4184  0.4478
 5480SOL     OW28075   2.475   1.941   0.388 -0.2948  0.0929  0.3641
 5480SOL    HW128076   2.569   1.928   0.379 -0.5424 -0.0206 -1.9597
 5480SOL    HW228077   2.471   1.945   0.484 -0.7558  1.2871  0.2923
 5481SOL     OW28078   0.430   2.191   4.745 -0.3514  0.5580  0.0404
 5481SOL    HW128079   0.514   2.145   4.755  0.6282  2.3055 -0.1474
 5481SOL    HW228080   0.445   2.249   4.671 -2.1037  1.3126  0.2899
 5482SOL     OW28081   1.133   4.227   5.271 -0.0463  0.2801 -0.5354
 5482SOL    HW128082   1.148   4.190   5.358 -1.3713 -1.6853 -1.1469
 5482SOL    HW228083   1.048   4.271   5.275 -0.3187 -0.4514  1.5304
 5483SOL     OW28084   3.418   3.648   9.365  0.0637 -0.5417 -0.5763
 5483SOL    HW128085   3.442   3.576   9.308 -1.6285  0.1767 -2.1934
 5483SOL    HW228086   3.431   3.603   9.449  1.6745 -2.7745 -2.0381
 5484SOL     OW28087   2.313   1.294   8.310 -0.3749 -0.3328 -0.2885
 5484SOL    HW128088   2.353   1.247   8.383 -1.0138  1.1914  1.0302
 5484SOL    HW228089   2.221   1.301   8.334  0.1665 -0.0327  1.7031
 5485SOL     OW28090   4.086   1.502   7.742  0.0618  0.4113  0.1721
 5485SOL    HW128091   4.146   1.507   7.817 -0.5571  1.5790  0.5736
 5485SOL    HW228092   4.152   1.520   7.675 -1.7842  0.3031 -1.6505
 5486SOL     OW28093   0.519   0.470   6.496 -0.1203 -0.2893  0.0243
 5486SOL    HW128094   0.589   0.429   6.547 -0.6206 -1.4937 -0.2466
 5486SOL    HW228095   0.455   0.498   6.562  0.0481  1.8134 -0.7077
 5487SOL     OW28096   2.831   2.398   1.717 -0.4690 -0.3357  0.4566
 5487SOL    HW128097   2.890   2.331   1.753 -0.6392 -0.6243  0.2030
 5487SOL    HW228098   2.846   2.414   1.624 -0.1339 -2.1033  0.1978
 5488SOL     OW28099   0.142   0.472  15.871  0.3897 -0.1245  0.1581
 5488SOL    HW128100   0.114   0.420  15.946 -0.4921 -0.1702 -0.2128
 5488SOL    HW228101   0.088   0.430  15.805 -0.8632  0.8896  0.5319
 5489SOL     OW28102   0.820   3.923   7.430 -0.2868  0.2592  0.4747
 5489SOL    HW128103   0.823   3.848   7.489 -1.1966 -1.4592 -1.6557
 5489SOL    HW228104   0.756   3.987   7.462 -0.6440  0.2444 -0.2045
 5490SOL     OW28105   0.928   0.529   9.675 -0.5451  0.1915  0.6018
 5490SOL    HW128106   0.942   0.565   9.763  0.1724  0.3679  0.4178
 5490SOL    HW228107   0.924   0.435   9.690  1.0521  0.0204 -0.1033
 5491SOL     OW28108   0.216   1.524   6.368  0.3757 -0.6547 -1.0059
 5491SOL    HW128109   0.180   1.448   6.322 -2.9296  1.4462 -1.8610
 5491SOL    HW228110   0.311   1.520   6.355  0.6518 -0.5808  0.9974
 5492SOL     OW28111   2.656   1.657   1.768  0.0359  0.4963  0.3070
 5492SOL    HW128112   2.688   1.648   1.857  1.7419 -0.3940 -0.3951
 5492SOL    HW228113   2.736   1.662   1.715  0.0608 -2.4651  0.0982
 5493SOL     OW28114   4.325   2.772  15.062 -0.2390  0.3036 -0.5417
 5493SOL    HW128115   4.369   2.782  15.146  0.4578  1.6037 -1.0581
 5493SOL    HW228116   4.390   2.821  15.011  1.3911  0.6884  1.9117
 5494SOL     OW28117   0.528   1.524  15.649  0.0467 -0.9698 -0.0202
 5494SOL    HW128118   0.611   1.544  15.691 -0.4999 -1.4166  1.2793
 5494SOL    HW228119   0.486   1.456  15.702 -0.6352  1.0063  2.0162
 5495SOL     OW28120   3.190   4.284   8.238 -0.0704 -0.3356 -0.2267
 5495SOL    HW128121   3.097   4.306   8.237  0.1221  0.3393 -3.2442
 5495SOL    HW228122   3.193   4.199   8.282 -1.0426  0.7430  1.9263
 5496SOL     OW28123   4.170   1.905   6.353 -0.0521  0.3808 -0.3133
 5496SOL    HW128124   4.127   1.885   6.270  1.1538  1.8396 -1.2963
 5496SOL    HW228125   4.217   1.822   6.362 -1.4084 -0.6064 -2.3562
 5497SOL     OW28126   0.212   3.053   5.154  0.1271 -0.0354 -0.4140
 5497SOL    HW128127   0.177   2.966   5.175 -2.4032  0.8940 -0.7993
 5497SOL    HW228128   0.138   3.100   5.116 -0.2099 -0.7161 -0.6113
 5498SOL     OW28129   2.308   3.315   9.942 -0.3533 -0.9475 -0.4709
 5498SOL    HW128130   2.214   3.300   9.951 -0.1928 -0.9031  1.2060
 5498SOL    HW228131   2.329   3.402   9.976 -1.5251 -0.1644 -1.7185
 5499SOL     OW28132   3.801   4.287   1.537  0.4443  0.4988 -0.2066
 5499SOL    HW128133   3.862   4.214   1.549  2.9613  2.8057  1.1836
 5499SOL    HW228134   3.754   4.288   1.620  1.6085 -0.6745  0.4785
 5500SOL     OW28135   1.523   2.045   6.112  0.2749  0.2807 -0.0127
 5500SOL    HW128136   1.536   2.023   6.019  2.5726  1.2162  0.0878
 5500SOL    HW228137   1.438   2.086   6.117  0.3194  0.4400 -0.5372
 5501SOL     OW28138   1.644   4.362   5.129 -0.5775 -0.1292  0.0844
 5501SOL    HW128139   1.606   4.439   5.088 -0.5568 -0.0533  0.2072
 5501SOL    HW228140   1.676   4.307   5.058 -2.1464 -0.1548 -0.5969
 5502SOL     OW28141   3.123   3.913  17.229  0.5743 -0.1331  0.2049
 5502SOL    HW128142   3.057   3.871  17.173 -0.1476 -0.6681  1.4569
 5502SOL    HW228143   3.062   3.952  17.291 -0.6413  0.3286 -1.2708
 5503SOL     OW28144   3.214   1.475   6.337  0.2812  0.3243  0.3152
 5503SOL    HW128145   3.149   1.501   6.402  3.0361  2.9379  2.0678
 5503SOL    HW228146   3.263   1.403   6.378 -3.1327 -3.0432 -1.5116
 5504SOL     OW28147   1.293   4.432  13.042 -0.2638 -0.2061  0.0634
 5504SOL    HW128148   1.213   4.381  13.028  0.3346 -0.8255 -1.2044
 5504SOL    HW228149   1.330   4.426  12.953 -1.4640  1.6780 -0.5672
 5505SOL     OW28150   0.072   2.644   4.974  0.1600  0.0226  0.4203
 5505SOL    HW128151   0.066   2.691   5.058 -0.5144 -0.4138  0.6164
 5505SOL    HW228152   0.142   2.695   4.933  0.6109 -1.7563 -1.0419
 5506SOL     OW28153   0.120   2.547  12.733 -0.1096  0.0190 -0.1112
 5506SOL    HW128154   0.082   2.480  12.676  2.0509  0.0071 -1.5635
 5506SOL    HW228155   0.052   2.554  12.800  1.1503 -0.7319  1.2818
 5507SOL     OW28156   3.665   3.277   7.542 -0.5239  0.8924  0.0223
 5507SOL    HW128157   3.575   3.276   7.574 -1.2359 -3.5378 -2.0745
 5507SOL    HW228158   3.672   3.356   7.489  1.5177 -0.2041 -1.3316
 5508SOL     OW28159   0.790   4.555  11.772  0.2107 -0.0782  0.0762
 5508SOL    HW128160   0.880   4.525  11.783 -0.2369 -1.2563  0.5152
 5508SOL    HW228161   0.790   4.567  11.677 -0.5605 -0.7025 -0.0021
 5509SOL     OW28162   2.187   3.286   4.079  0.5650  0.4703 -0.1182
 5509SOL    HW128163   2.246   3.350   4.038 -0.7957  1.3246 -0.7190
 5509SOL    HW228164   2.139   3.335   4.145  1.5105  0.3283  0.6808
 5510SOL     OW28165   3.792   4.317  14.680  0.3562 -0.2419 -0.1253
 5510SOL    HW128166   3.879   4.329  14.641  0.7352 -2.1470  0.1622
 5510SOL    HW228167   3.788   4.378  14.754  2.4394  0.5002 -0.6172
 5511SOL     OW28168   0.279   0.586   9.021  0.0990 -0.5511 -0.2484
 5511SOL    HW128169   0.214   0.573   8.952  0.0348  1.4438 -0.5736
 5511SOL    HW228170   0.318   0.666   8.985 -0.3265  0.0024  0.5086
 5512SOL     OW28171   0.936   4.415   2.135  0.1999 -0.0518  0.3857
 5512SOL    HW128172   1.005   4.373   2.187  1.5220 -0.2390 -1.5501
 5512SOL    HW228173   0.972   4.500   2.109  0.6164 -0.1952  0.4944
 5513SOL     OW28174   4.579   3.446   5.538 -0.2546 -0.5772 -0.3661
 5513SOL    HW128175   4.653   3.385   5.543 -0.2043 -0.5137 -0.3241
 5513SOL    HW228176   4.600   3.503   5.613 -0.2581 -1.2164  0.1210
 5514SOL     OW28177   2.617   2.834  13.237 -0.1024  0.4427 -0.1789
 5514SOL    HW128178   2.539   2.839  13.292  1.3718  3.3518  1.6491
 5514SOL    HW228179   2.610   2.741  13.215  0.0390  0.7608 -1.5251
 5515SOL     OW28180   4.559   2.691   2.816 -0.2697 -0.2939  0.1859
 5515SOL    HW128181   4.535   2.666   2.726  0.8963 -1.7880  0.2802
 5515SOL    HW228182   4.491   2.652   2.871 -0.1978 -1.0697 -0.2671
 5516SOL     OW28183   3.751   0.896   6.888 -0.3219  0.4114 -0.2360
 5516SOL    HW128184   3.713   0.809   6.897  1.3870 -0.2961  0.1468
 5516SOL    HW228185   3.822   0.881   6.825 -1.8788 -2.9315 -1.1556
 5517SOL     OW28186   2.129   2.172   9.211  0.3505 -0.1703  0.0263
 5517SOL    HW128187   2.098   2.137   9.128 -0.7051 -1.7299  1.0575
 5517SOL    HW228188   2.097   2.261   9.195  1.7600  0.3808  0.2440
 5518SOL     OW28189   3.403   0.544   9.215 -0.5105  0.0865 -0.3103
 5518SOL    HW128190   3.427   0.454   9.193  0.5957  0.1575  0.6154
 5518SOL    HW228191   3.486   0.586   9.235 -0.8464  0.8567 -0.5521
 5519SOL     OW28192   4.437   1.064   2.496 -0.0533  0.1930 -0.1172
 5519SOL    HW128193   4.365   1.119   2.528 -0.4913  1.1728 -2.8515
 5519SOL    HW228194   4.402   1.046   2.409  1.6035  0.7030 -0.8704
 5520SOL     OW28195   3.138   1.223  13.234  0.0233  0.0126 -0.3692
 5520SOL    HW128196   3.223   1.235  13.276  0.0597  0.4772 -0.5806
 5520SOL    HW228197   3.137   1.131  13.205  0.9952  0.1354 -0.7610
 5521SOL     OW28198   0.917   0.895   3.746 -0.0035 -0.2586  0.3909
 5521SOL    HW128199   0.894   0.982   3.779 -0.4385 -1.0694  2.2183
 5521SOL    HW228200   0.875   0.845   3.816 -1.7846 -0.6303 -0.9260
 5522SOL     OW28201   3.564   2.269   8.558  0.0120  0.7719 -0.7911
 5522SOL    HW128202   3.643   2.225   8.589 -0.8615 -0.7361 -0.6621
 5522SOL    HW228203   3.557   2.233   8.470  1.2385  1.6376 -1.2314
 5523SOL     OW28204   4.625   3.495  10.821 -0.0207 -0.1842 -0.3879
 5523SOL    HW128205   4.667   3.415  10.852 -0.9426 -0.5160 -0.0276
 5523SOL    HW228206   4.536   3.489  10.855  0.6495  0.2280  1.4372
 5524SOL     OW28207   0.177   1.807  12.425  0.1283  0.2421  0.5047
 5524SOL    HW128208   0.100   1.801  12.481 -0.5596  0.2531 -0.4422
 5524SOL    HW228209   0.205   1.716  12.429 -1.1158 -0.0897  1.6669
 5525SOL     OW28210   0.301   2.826   1.532  0.1381  0.0619 -0.2776
 5525SOL    HW128211   0.221   2.873   1.556  0.5301  0.2790  0.6301
 5525SOL    HW228212   0.263   2.739   1.520  0.8799 -0.6801  2.7178
 5526SOL     OW28213   2.534   0.205  10.407  0.7713 -0.8567 -0.1966
 5526SOL    HW128214   2.584   0.266  10.353  1.0939  1.4254  2.7276
 5526SOL    HW228215   2.478   0.178  10.334  1.3064  0.5495 -1.1201
 5527SOL     OW28216   2.924   2.346  10.896 -0.0751  0.2474  0.4594
 5527SOL    HW128217   2.874   2.419  10.859  2.0624  1.3838 -0.1706
 5527SOL    HW228218   2.872   2.266  10.887  0.2996  0.0803 -0.2638
 5528SOL     OW28219   0.384   2.337  15.688  0.1494 -0.2515  0.0717
 5528SOL    HW128220   0.307   2.293  15.724 -0.1060  1.2982  1.4031
 5528SOL    HW228221   0.362   2.337  15.595  1.3414  1.4471 -0.2193
 5529SOL     OW28222   1.060   0.440   5.829 -0.0635 -0.5019 -0.2349
 5529SOL    HW128223   1.142   0.434   5.878 -0.7803 -0.3837  0.9819
 5529SOL    HW228224   1.018   0.361   5.862 -0.5524  0.1911  0.8070
 5530SOL     OW28225   1.844   3.910   6.362 -0.4745 -0.3886  0.2622
 5530SOL    HW128226   1.931   3.891   6.397 -0.3603 -2.1130 -0.9673
 5530SOL    HW228227   1.831   3.852   6.287  0.0617 -1.2327  0.8249
 5531SOL     OW28228   2.318   1.620   8.849 -0.1857  0.7234  0.6964
 5531SOL    HW128229   2.262   1.555   8.891  0.3517  0.9996  1.8257
 5531SOL    HW228230   2.334   1.569   8.770  2.6962 -1.0691  2.4466
 5532SOL     OW28231   2.984   3.381   3.213 -0.0551  0.0181 -0.1305
 5532SOL    HW128232   3.069   3.398   3.174  0.8526 -0.8805  1.4280
 5532SOL    HW228233   2.925   3.416   3.146 -0.6582 -1.7642 -0.5289
 5533SOL     OW28234   2.473   0.153   3.673  0.0479 -0.5318 -0.3031
 5533SOL    HW128235   2.408   0.205   3.720  0.7369 -1.8247  2.1041
 5533SOL    HW228236   2.432   0.068   3.692  1.5337 -1.2562 -0.2961
 5534SOL     OW28237   2.042   3.534   2.695 -0.1929  0.0770  0.5213
 5534SOL    HW128238   2.012   3.585   2.770 -1.9647  0.2227 -0.2912
 5534SOL    HW228239   2.137   3.537   2.706  0.0849  1.4295 -2.2375
 5535SOL     OW28240   1.766   3.760   5.632 -0.8638  0.0013  0.6286
 5535SOL    HW128241   1.794   3.833   5.576 -0.6417 -0.1234  0.5781
 5535SOL    HW228242   1.787   3.686   5.575  1.4540 -1.0562  2.9122
 5536SOL     OW28243   2.699   3.981   6.240 -0.2361  0.8276  0.2648
 5536SOL    HW128244   2.774   4.023   6.197  0.3189  0.3747  0.7917
 5536SOL    HW228245   2.721   3.892   6.212 -1.3708  0.4448  0.6083
 5537SOL     OW28246   4.472   0.283   6.701  0.1009  0.0344  0.2848
 5537SOL    HW128247   4.389   0.312   6.662  1.2427  0.5542 -1.7731
 5537SOL    HW228248   4.524   0.242   6.631  0.3479  1.9931 -0.6871
 5538SOL     OW28249   0.415   1.564   8.244  0.2171 -0.2826  0.2805
 5538SOL    HW128250   0.361   1.595   8.171 -1.2321 -0.0059  1.4568
 5538SOL    HW228251   0.377   1.604   8.322 -0.1054 -1.3185  0.6575
 5539SOL     OW28252   0.693   3.164   4.757 -0.2476  0.3865  0.4047
 5539SOL    HW128253   0.760   3.170   4.689 -1.2039 -0.8699 -0.6474
 5539SOL    HW228254   0.750   3.179   4.832  0.4043 -0.5943  0.0942
 5540SOL     OW28255   2.514   4.168   7.424  0.0828 -0.1075 -0.1029
 5540SOL    HW128256   2.493   4.219   7.346  2.4905  1.0809  0.0499
 5540SOL    HW228257   2.530   4.085   7.379 -0.3485 -0.4643  0.3992
 5541SOL     OW28258   3.526   0.350   1.934  0.3553 -0.3439  0.0290
 5541SOL    HW128259   3.549   0.366   2.026  0.4644 -0.6284  0.0513
 5541SOL    HW228260   3.482   0.267   1.950 -1.3913  0.7272  0.8196
 5542SOL     OW28261   2.726   2.185  16.499  0.3465 -0.1097  0.2840
 5542SOL    HW128262   2.651   2.237  16.528 -0.5359 -1.0853 -0.2431
 5542SOL    HW228263   2.708   2.169  16.406 -3.5104 -2.2522  1.3989
 5543SOL     OW28264   0.903   2.673   2.470 -0.2033  0.6750 -0.4138
 5543SOL    HW128265   0.868   2.704   2.386 -0.5007 -0.1759 -0.6068
 5543SOL    HW228266   0.824   2.644   2.517  0.8857 -0.6361  0.6172
 5544SOL     OW28267   1.199   3.755   0.317 -0.4004  0.1360  0.3354
 5544SOL    HW128268   1.193   3.812   0.240 -1.1873  1.4341  1.3662
 5544SOL    HW228269   1.178   3.811   0.391  1.6106  2.3595 -0.8037
 5545SOL     OW28270   3.355   2.318  16.243  0.1462  0.8791 -0.7713
 5545SOL    HW128271   3.400   2.248  16.290 -2.8302 -1.5986 -1.5727
 5545SOL    HW228272   3.303   2.354  16.315  0.5995 -0.4666  0.2255
 5546SOL     OW28273   1.366   3.662   3.263  0.3951  0.1946  0.1270
 5546SOL    HW128274   1.296   3.727   3.253 -0.6207 -0.7862  0.8954
 5546SOL    HW228275   1.412   3.658   3.179  1.7210 -1.7245  0.9504
 5547SOL     OW28276   3.658   2.384   8.128 -0.3951  0.2612 -0.1020
 5547SOL    HW128277   3.696   2.322   8.066  0.3432  0.1408  0.4779
 5547SOL    HW228278   3.627   2.328   8.200  1.2687  0.9487  1.1440
 5548SOL     OW28279   3.932   3.847   5.184  0.3073 -0.8497 -0.2035
 5548SOL    HW128280   3.967   3.886   5.105  0.4249  1.7983  1.1638
 5548SOL    HW228281   3.858   3.797   5.149 -1.0250  0.8292  0.2431
 5549SOL     OW28282   3.407   4.690   4.350 -0.7485  0.3395 -0.1941
 5549SOL    HW128283   3.475   4.716   4.289  0.3989 -0.7558  0.6233
 5549SOL    HW228284   3.461   4.661   4.424 -0.4222  2.2887  0.3259
 5550SOL     OW28285   0.878   2.310   5.614 -0.1160 -0.1308  0.5098
 5550SOL    HW128286   0.968   2.292   5.589 -0.1748  2.1359 -1.3059
 5550SOL    HW228287   0.844   2.221   5.610 -0.6333  0.0918 -0.1394
 5551SOL     OW28288   2.380   0.234   9.887 -0.8828  0.0654  0.4346
 5551SOL    HW128289   2.423   0.286   9.819 -2.5517 -0.4049 -0.9677
 5551SOL    HW228290   2.418   0.147   9.871 -1.2023  0.3545 -1.8703
 5552SOL     OW28291   4.249   4.650   0.198  0.1328  0.3238  0.8739
 5552SOL    HW128292   4.167   4.673   0.155  1.8287  0.7719 -2.0559
 5552SOL    HW228293   4.281   4.732   0.236 -1.8897 -0.1673  3.6877
 5553SOL     OW28294   2.814   0.139   8.088  0.8641 -0.4018 -0.4959
 5553SOL    HW128295   2.856   0.214   8.132  0.5319  0.6222 -1.9235
 5553SOL    HW228296   2.747   0.112   8.151 -0.6324  0.3072 -1.7899
 5554SOL     OW28297   3.910   3.290   5.251  0.0265 -0.0116 -0.1530
 5554SOL    HW128298   3.999   3.305   5.218  0.5319 -0.7963  0.8557
 5554SOL    HW228299   3.857   3.324   5.179  1.6314  0.9966 -0.8586
 5555SOL     OW28300   2.432   2.740  16.533  0.3699  0.1102  0.0575
 5555SOL    HW128301   2.427   2.677  16.605  0.2336  1.8230  1.5396
 5555SOL    HW228302   2.523   2.768  16.531  0.5018 -0.3638 -0.3064
 5556SOL     OW28303   4.620   4.537   5.692  0.1457  0.3378  0.1606
 5556SOL    HW128304   4.618   4.549   5.787  1.1686  0.4808  0.1573
 5556SOL    HW228305   4.691   4.599   5.677 -0.9802  1.2610 -1.3398
 5557SOL     OW28306   2.866   0.126   7.596  0.3686 -0.0176  0.2632
 5557SOL    HW128307   2.951   0.126   7.641  1.4824  0.5710 -1.8242
 5557SOL    HW228308   2.793   0.139   7.656  0.7462  0.1911  0.6785
 5558SOL     OW28309   3.515   2.007   7.890  0.2087  0.1910 -0.6099
 5558SOL    HW128310   3.470   2.092   7.885  0.6102  0.6603  3.6694
 5558SOL    HW228311   3.597   2.027   7.845  0.4440 -1.3602 -0.8469
 5559SOL     OW28312   2.779   0.372   8.941  0.0680  0.1470  0.0698
 5559SOL    HW128313   2.839   0.353   8.869  1.5655  3.4278  0.4486
 5559SOL    HW228314   2.825   0.351   9.022  0.2986  0.9462  0.1532
 5560SOL     OW28315   3.815   4.398   1.288 -0.2411  0.2091  0.2723
 5560SOL    HW128316   3.760   4.472   1.262 -1.0388 -0.0845  1.1353
 5560SOL    HW228317   3.772   4.376   1.370  0.1772 -0.6004  0.2791
 5561SOL     OW28318   3.491   2.477   6.446  0.6079 -0.3510 -0.2504
 5561SOL    HW128319   3.406   2.504   6.481  0.1239 -0.3514 -1.4229
 5561SOL    HW228320   3.468   2.390   6.413 -1.1790 -0.2531  0.7039
 5562SOL     OW28321   3.535   2.098  13.557  0.1163  0.7549  0.0386
 5562SOL    HW128322   3.463   2.077  13.498  0.3689 -0.8635  0.3028
 5562SOL    HW228323   3.608   2.085  13.496 -1.4823 -2.4304 -1.1780
 5563SOL     OW28324   1.362   1.191   4.953  0.1388 -0.4335  0.2092
 5563SOL    HW128325   1.443   1.139   4.958 -0.0488 -0.8807 -1.4924
 5563SOL    HW228326   1.331   1.196   4.862 -0.7632  2.0921  0.6605
 5564SOL     OW28327   2.889   4.688   4.422  0.1938  0.4405 -0.2906
 5564SOL    HW128328   2.885   4.703   4.328 -0.0472 -0.3961 -0.4162
 5564SOL    HW228329   2.984   4.701   4.428  0.7652 -1.9740 -4.1949
 5565SOL     OW28330   3.074   2.798  13.642 -0.3765  0.0570  0.1154
 5565SOL    HW128331   3.082   2.885  13.681 -0.4613  0.2829 -0.3787
 5565SOL    HW228332   2.998   2.762  13.688 -1.4745  1.7163 -0.4126
 5566SOL     OW28333   3.273   4.647   8.659 -0.3474  0.0379 -0.1067
 5566SOL    HW128334   3.220   4.571   8.636 -1.6828  1.2574 -0.9896
 5566SOL    HW228335   3.327   4.664   8.582  0.5350  0.9082  0.6831
 5567SOL     OW28336   3.798   0.322   2.445  0.6353  0.1400 -0.1534
 5567SOL    HW128337   3.837   0.372   2.518  1.2059  1.5642 -1.4245
 5567SOL    HW228338   3.712   0.302   2.481  0.1159  0.3237 -1.3134
 5568SOL     OW28339   1.292   0.405   5.975 -0.2982  0.0137 -0.6950
 5568SOL    HW128340   1.274   0.334   6.037  0.9676 -0.7425 -1.1905
 5568SOL    HW228341   1.353   0.460   6.024  0.0010 -0.9184 -0.0341
 5569SOL     OW28342   1.445   1.860   3.105  0.2496 -0.5387 -0.5426
 5569SOL    HW128343   1.473   1.803   3.033  0.6292 -0.6122 -0.3356
 5569SOL    HW228344   1.492   1.943   3.099  0.9706 -0.7859  1.6135
 5570SOL     OW28345   2.496   3.560   7.612 -0.3115 -0.5741 -0.4372
 5570SOL    HW128346   2.417   3.609   7.632 -0.1235 -0.3470 -0.2476
 5570SOL    HW228347   2.554   3.636   7.603 -1.0066  0.1534  1.1435
 5571SOL     OW28348   2.331   1.176   5.694  0.7854 -0.1289 -0.2632
 5571SOL    HW128349   2.240   1.157   5.718  0.6638  0.5690 -0.1570
 5571SOL    HW228350   2.375   1.110   5.747  2.9623  0.7262 -1.0240
 5572SOL     OW28351   4.662   3.424   8.439 -0.2671 -0.0597 -0.2440
 5572SOL    HW128352   4.588   3.449   8.495  0.5421  0.4011  0.6175
 5572SOL    HW228353   4.672   3.509   8.396  1.0504  0.1173  0.4239
 5573SOL     OW28354   4.426   0.998   1.002  0.2031  0.1421  0.2958
 5573SOL    HW128355   4.463   0.942   1.070 -1.7427 -2.4375 -0.7585
 5573SOL    HW228356   4.386   0.925   0.956  1.6484 -1.5367  1.7361
 5574SOL     OW28357   2.921   0.746   7.749 -0.4685 -0.1832  0.1117
 5574SOL    HW128358   2.953   0.807   7.815 -1.9492  2.3516 -1.5050
 5574SOL    HW228359   2.902   0.805   7.676 -1.9866  1.5165  1.8774
 5575SOL     OW28360   3.129   4.092   4.328 -0.6291  0.5478 -0.4831
 5575SOL    HW128361   3.051   4.146   4.317  0.0244  1.2870 -1.5401
 5575SOL    HW228362   3.161   4.075   4.239 -0.2805 -0.8674 -0.0885
 5576SOL     OW28363   0.452   2.134   5.663 -0.0004 -0.2717 -0.1599
 5576SOL    HW128364   0.510   2.209   5.647 -2.3503  1.7354  0.7510
 5576SOL    HW228365   0.502   2.100   5.738  0.1213  0.0345 -0.1022
 5577SOL     OW28366   0.447   2.576   8.289 -0.0752 -0.2608  0.4708
 5577SOL    HW128367   0.457   2.668   8.316 -0.2853  0.2157 -1.0202
 5577SOL    HW228368   0.379   2.544   8.348 -0.2377 -1.6516 -0.4846
 5578SOL     OW28369   2.818   3.013   5.464  0.1698  0.1089 -0.1773
 5578SOL    HW128370   2.767   3.094   5.462 -2.5336 -1.6042  0.7379
 5578SOL    HW228371   2.808   2.987   5.373  2.8621  0.2945 -0.5242
 5579SOL     OW28372   0.056   3.100   2.882  0.2595  0.4505 -0.2146
 5579SOL    HW128373   0.105   3.058   2.953 -2.0564  0.1769  1.2592
 5579SOL    HW228374   4.701   3.074   2.904  0.4313  2.0728  2.4656
 5580SOL     OW28375   2.917   1.662   1.660  0.1091 -0.2928  0.0273
 5580SOL    HW128376   3.001   1.649   1.704 -0.7934  0.7774  2.0467
 5580SOL    HW228377   2.919   1.586   1.601 -2.1745 -0.3343 -0.0052
 5581SOL     OW28378   0.976   3.308   6.682  1.0035  0.0325  0.7238
 5581SOL    HW128379   1.034   3.361   6.628  1.5319 -0.3150  0.9416
 5581SOL    HW228380   0.913   3.378   6.700  0.9507  0.2776 -0.4561
 5582SOL     OW28381   3.857   4.231   6.533  0.3184  0.5358 -0.2140
 5582SOL    HW128382   3.939   4.229   6.483  1.5447  3.2032  1.7071
 5582SOL    HW228383   3.830   4.323   6.521 -0.7499  0.0100 -1.8555
 5583SOL     OW28384   3.209   1.895   2.979  0.0567 -0.7378 -0.0635
 5583SOL    HW128385   3.228   1.855   3.063 -0.4801 -1.0335 -0.0849
 5583SOL    HW228386   3.287   1.951   2.977 -1.4191  1.2781 -1.4319
 5584SOL     OW28387   4.654   2.049   8.949 -0.1419  0.2168  0.0259
 5584SOL    HW128388   4.690   2.113   8.887 -0.4295 -0.8466 -1.2503
 5584SOL    HW228389   4.561   2.071   8.954 -0.1400 -0.0192  1.0237
 5585SOL     OW28390   2.708   0.118   3.520  0.1523 -0.3031 -0.0550
 5585SOL    HW128391   2.684   0.209   3.502  0.0640 -0.1759  0.7011
 5585SOL    HW228392   2.665   0.109   3.605  2.9216  0.0543  1.4169
 5586SOL     OW28393   0.883   1.975  13.491 -0.0130 -0.0100 -0.0222
 5586SOL    HW128394   0.824   2.048  13.474  1.3643  0.9344 -0.7134
 5586SOL    HW228395   0.939   1.973  13.413 -1.3999  0.4274 -1.0226
 5587SOL     OW28396   1.406   3.224   4.895 -0.2590 -0.1692  0.0110
 5587SOL    HW128397   1.450   3.148   4.855 -0.2602  1.3008 -2.7491
 5587SOL    HW228398   1.357   3.264   4.824 -0.8610  1.4593  1.3469
 5588SOL     OW28399   1.499   4.715   4.599 -0.6160 -0.0847 -0.2270
 5588SOL    HW128400   1.508   0.051   4.663 -2.6787  1.3408 -1.5036
 5588SOL    HW228401   1.589   4.683   4.600 -0.4064  0.5599  1.0149
 5589SOL     OW28402   0.823   1.445  17.123 -0.5116  0.0388  0.1601
 5589SOL    HW128403   0.784   1.385  17.186 -0.9372 -1.8593 -1.8988
 5589SOL    HW228404   0.894   1.385  17.102  1.6754  3.3714 -2.0745
 5590SOL     OW28405   4.715   1.372   0.617  0.5863  0.4129 -0.1128
 5590SOL    HW128406   0.013   1.290   0.580 -1.4676 -0.7585  0.6744
 5590SOL    HW228407   0.058   1.427   0.623  1.3171 -0.9861  3.2595
 5591SOL     OW28408   3.051   2.773  15.210 -0.5418 -0.1862 -0.4294
 5591SOL    HW128409   3.107   2.697  15.224 -1.7060 -1.0761 -0.5785
 5591SOL    HW228410   2.998   2.740  15.138 -3.3307  0.1416  1.4752
 5592SOL     OW28411   2.949   4.239   3.309 -0.0257 -0.2495  0.0593
 5592SOL    HW128412   2.916   4.237   3.219  0.4624 -3.0037 -0.0650
 5592SOL    HW228413   2.975   4.147   3.315 -0.5924 -0.5699 -2.2827
 5593SOL     OW28414   1.743   2.422   8.618 -0.3333 -0.1062  0.1566
 5593SOL    HW128415   1.757   2.359   8.548 -0.7953  1.3916 -1.3000
 5593SOL    HW228416   1.793   2.495   8.582 -1.3512 -0.9462 -2.9213
 5594SOL     OW28417   2.621   0.174  17.618 -0.5570 -0.1100  0.8605
 5594SOL    HW128418   2.624   0.255  17.668  0.3534  0.3106  0.1166
 5594SOL    HW228419   2.596   0.217  17.537  0.6749 -0.1163  0.4759
 5595SOL     OW28420   2.825   2.152   5.807  0.2315 -0.1486  0.6722
 5595SOL    HW128421   2.854   2.169   5.897  2.0906  0.6613 -0.0886
 5595SOL    HW228422   2.776   2.232   5.787 -0.0428 -0.2033  1.1106
 5596SOL     OW28423   0.557   1.097   5.725 -0.5757 -0.0523 -0.5594
 5596SOL    HW128424   0.626   1.040   5.692  0.3253  0.5397  0.3099
 5596SOL    HW228425   0.533   1.137   5.642  3.0529  1.5531 -0.8278
 5597SOL     OW28426   2.032   2.975   7.709  0.3903  0.2560 -0.0567
 5597SOL    HW128427   2.069   3.050   7.757 -0.4199  0.0176  0.9581
 5597SOL    HW228428   1.941   2.977   7.740  1.1375  1.5740  2.0800
 5598SOL     OW28429   3.986   0.748  12.542 -0.3617  0.1871  0.3347
 5598SOL    HW128430   4.075   0.776  12.559 -0.2037 -1.6448  2.5517
 5598SOL    HW228431   3.968   0.705  12.626 -2.8088 -1.5262 -1.0516
 5599SOL     OW28432   0.637   4.690   4.647 -0.2940  0.6506  0.0431
 5599SOL    HW128433   0.546   4.661   4.651  0.1011 -0.6958 -0.8171
 5599SOL    HW228434   0.634   0.027   4.711  0.6789 -0.1672  0.9910
 5600SOL     OW28435   0.717   2.079   2.801  0.2196 -0.2271 -0.0668
 5600SOL    HW128436   0.808   2.105   2.793  0.3441 -0.4656  0.6247
 5600SOL    HW228437   0.720   2.012   2.869  0.1434 -0.6963 -0.5231
 5601SOL     OW28438   0.598   4.310   0.137 -0.2830 -0.0954  0.3484
 5601SOL    HW128439   0.528   4.253   0.106 -1.3737  1.5259 -0.1978
 5601SOL    HW228440   0.556   4.381   0.185  1.1374  1.3988 -0.6012
 5602SOL     OW28441   0.720   3.836  12.212 -0.0760 -0.3640 -0.5901
 5602SOL    HW128442   0.665   3.872  12.143  0.5768  0.1342 -0.8441
 5602SOL    HW228443   0.733   3.748  12.177  1.9133 -0.8997  1.4537
 5603SOL     OW28444   1.143   2.366   3.607  0.0981  0.0038  0.3228
 5603SOL    HW128445   1.119   2.434   3.543 -1.9717 -2.7959 -1.8848
 5603SOL    HW228446   1.235   2.350   3.586  0.5414  1.0299  1.4864
 5604SOL     OW28447   3.572   3.254  11.527 -0.1835  0.2590  0.0846
 5604SOL    HW128448   3.545   3.170  11.488  1.5332 -0.1892 -0.1556
 5604SOL    HW228449   3.659   3.261  11.487 -0.3823  0.6706 -0.2728
 5605SOL     OW28450   1.962   1.678   2.744  0.0263  0.0784 -0.5091
 5605SOL    HW128451   1.988   1.594   2.784  0.0292  0.1007 -0.4642
 5605SOL    HW228452   1.867   1.681   2.757  0.3113  0.2660  1.4861
 5606SOL     OW28453   0.673   0.960   3.284 -0.2100  0.0817 -0.7981
 5606SOL    HW128454   0.693   0.874   3.246 -1.4400 -0.1269 -0.9918
 5606SOL    HW228455   0.700   0.951   3.375  0.7801  0.2229 -1.0846
 5607SOL     OW28456   3.825   4.590   3.431  0.0511 -0.0174 -0.4268
 5607SOL    HW128457   3.734   4.617   3.445 -0.4586 -2.1018  0.3154
 5607SOL    HW228458   3.864   4.586   3.518 -1.5456  1.2680  0.3527
 5608SOL     OW28459   3.561   0.548   8.948  0.0701  0.9052  0.2476
 5608SOL    HW128460   3.474   0.566   8.912  0.3058 -0.4849 -1.0504
 5608SOL    HW228461   3.603   0.633   8.942  0.6955  0.5211 -0.8653
 5609SOL     OW28462   4.574   2.111  16.467 -0.0557  0.0506 -0.0684
 5609SOL    HW128463   4.506   2.076  16.410 -1.9129  0.5454  1.8270
 5609SOL    HW228464   4.653   2.092  16.416 -0.3582 -1.5675  0.0601
 5610SOL     OW28465   1.097   4.046  11.254 -0.4845  0.0633  0.5422
 5610SOL    HW128466   1.126   4.067  11.165  1.6511 -1.8340  0.7883
 5610SOL    HW228467   1.117   4.128  11.297  0.5419  0.6580 -1.0836
 5611SOL     OW28468   0.979   1.191  17.180  0.2257  0.3955 -0.4102
 5611SOL    HW128469   1.029   1.228  17.252 -0.1417  2.1061 -1.0306
 5611SOL    HW228470   1.037   1.115  17.176 -1.1082 -0.6267 -0.4396
 5612SOL     OW28471   0.538   3.805   0.568  0.9414  0.1575 -0.2507
 5612SOL    HW128472   0.605   3.742   0.542  1.2216 -0.0839  1.0844
 5612SOL    HW228473   0.506   3.833   0.482  0.1711 -0.6337 -0.2233
 5613SOL     OW28474   2.545   0.063   4.626  0.2301  0.2080  0.5827
 5613SOL    HW128475   2.512   0.124   4.692 -0.0468  1.4131 -0.6646
 5613SOL    HW228476   2.629   0.034   4.661  1.0965  1.9010 -0.1117
 5614SOL     OW28477   4.056   1.052  14.285  0.3793 -0.6258  0.3452
 5614SOL    HW128478   3.995   0.985  14.254  1.8254 -0.2985 -3.2129
 5614SOL    HW228479   4.005   1.130  14.308 -1.0599 -2.6595  4.0987
 5615SOL     OW28480   0.647   4.418   7.758  0.0226  0.0911 -0.1271
 5615SOL    HW128481   0.742   4.406   7.762 -0.0510 -0.7523 -0.8316
 5615SOL    HW228482   0.615   4.364   7.831 -2.1393 -1.1721 -2.0081
 5616SOL     OW28483   0.081   3.257   2.113 -0.0909 -0.1739 -0.6213
 5616SOL    HW128484   0.111   3.343   2.084 -0.6268  0.5866  1.1076
 5616SOL    HW228485   0.140   3.242   2.186 -1.7120 -0.8842  0.5405
 5617SOL     OW28486   3.688   3.795   6.245  0.1570 -0.0282  0.1226
 5617SOL    HW128487   3.601   3.754   6.252 -0.7323  1.4281 -2.6828
 5617SOL    HW228488   3.733   3.734   6.304 -0.0175 -0.4331 -0.1609
 5618SOL     OW28489   2.723   4.071  11.305  0.2034  0.6895 -0.4136
 5618SOL    HW128490   2.655   4.003  11.301  0.5386  0.3415 -0.2291
 5618SOL    HW228491   2.677   4.123  11.371 -2.2006 -0.2819 -1.3377
 5619SOL     OW28492   2.765   4.620   4.864  0.1951  0.3691  0.0996
 5619SOL    HW128493   2.812   4.703   4.874 -0.8651  0.8488  1.0910
 5619SOL    HW228494   2.832   4.553   4.880 -0.7771 -0.3131  1.2807
 5620SOL     OW28495   2.509   1.251   6.948 -0.0131 -0.4625  0.3537
 5620SOL    HW128496   2.458   1.211   7.019 -0.3676  0.2771  0.5192
 5620SOL    HW228497   2.486   1.344   6.958  0.6427 -0.1299 -1.2158
 5621SOL     OW28498   4.343   4.288   0.724 -0.0549  0.3566 -0.6353
 5621SOL    HW128499   4.403   4.244   0.784  0.4331  0.9101 -0.7143
 5621SOL    HW228500   4.282   4.319   0.790 -0.7388  1.1214 -1.6216
 5622SOL     OW28501   2.758   2.381  12.888  0.7731  0.2145 -0.4819
 5622SOL    HW128502   2.684   2.322  12.872  2.3505 -1.3568 -2.0814
 5622SOL    HW228503   2.739   2.450  12.824  0.2959 -0.6730 -1.3028
 5623SOL     OW28504   3.766   1.839  14.450  0.2423  0.3848  0.1826
 5623SOL    HW128505   3.825   1.776  14.408 -0.8114  0.4504 -1.3819
 5623SOL    HW228506   3.691   1.811  14.397  1.2109  0.1862 -1.0780
 5624SOL     OW28507   3.384   0.075  15.245  0.4062  0.0426  0.0342
 5624SOL    HW128508   3.348   0.118  15.322 -0.1938 -1.8327  0.8129
 5624SOL    HW228509   3.441   0.011  15.287 -0.7718 -0.0033  1.5722
 5625SOL     OW28510   3.638   2.928   0.546 -0.1037  0.0169  0.6490
 5625SOL    HW128511   3.581   2.911   0.471  1.7396 -1.1975 -0.4870
 5625SOL    HW228512   3.568   2.952   0.606 -2.1883  1.0837 -2.2012
 5626SOL     OW28513   1.234   0.237   6.186 -0.2921 -0.3489 -0.0112
 5626SOL    HW128514   1.156   0.292   6.177 -0.0445  0.0889  0.5085
 5626SOL    HW228515   1.247   0.235   6.281 -3.2907  0.3131  0.4299
 5627SOL     OW28516   2.931   0.401   2.035 -0.0686  0.6676  0.0154
 5627SOL    HW128517   2.864   0.445   1.981 -0.2289 -0.0017 -0.3362
 5627SOL    HW228518   3.011   0.426   1.989  1.5911 -1.0554  2.0308
 5628SOL     OW28519   1.991   1.289   7.814 -0.4416  0.2729 -0.4472
 5628SOL    HW128520   2.081   1.307   7.841  0.0577 -1.5076 -0.9162
 5628SOL    HW228521   1.999   1.290   7.718 -0.5801  1.4116 -0.4494
 5629SOL     OW28522   0.567   1.926   8.968  0.6282 -0.1340 -0.3268
 5629SOL    HW128523   0.626   1.903   8.896  1.0464 -2.9858  0.9366
 5629SOL    HW228524   0.614   1.884   9.040  1.0093 -0.0338 -0.5137
 5630SOL     OW28525   1.867   3.055  10.057  0.1253  0.0395 -0.0437
 5630SOL    HW128526   1.854   3.050   9.963  3.4956 -0.6765 -0.4674
 5630SOL    HW228527   1.885   2.963  10.079 -0.5365 -0.1089 -0.1225
 5631SOL     OW28528   0.100   0.473   4.544  0.2108 -0.1507  0.3169
 5631SOL    HW128529   0.013   0.470   4.584  1.0902 -1.2061  2.1517
 5631SOL    HW228530   0.091   0.407   4.475 -3.0667 -0.2584  0.8716
 5632SOL     OW28531   4.416   1.480   6.021 -0.3240 -0.0331  0.1666
 5632SOL    HW128532   4.382   1.391   6.027  0.5301 -0.4987 -1.8218
 5632SOL    HW228533   4.502   1.472   6.061  0.5273  1.4898 -1.3488
 5633SOL     OW28534   0.321   4.145  16.784 -0.1793 -0.2016 -0.5709
 5633SOL    HW128535   0.343   4.064  16.830  0.2564 -1.2755 -2.6954
 5633SOL    HW228536   0.302   4.113  16.696 -0.2346 -1.6652 -0.0217
 5634SOL     OW28537   1.787   2.924   6.613 -0.2093  0.2678  0.0460
 5634SOL    HW128538   1.731   2.876   6.552 -0.8090  0.1281  0.7116
 5634SOL    HW228539   1.834   2.988   6.559  1.4202 -0.5773  0.4774
 5635SOL     OW28540   3.676   1.482  11.417  0.3150 -0.3336  0.2866
 5635SOL    HW128541   3.732   1.497  11.493 -0.6644  1.1957  0.7078
 5635SOL    HW228542   3.589   1.465  11.454  0.4155  0.0575  0.6985
 5636SOL     OW28543   0.011   1.168   5.786  0.2796  0.1890 -0.2454
 5636SOL    HW128544   4.674   1.112   5.757  0.8353  0.3266 -1.8826
 5636SOL    HW228545   0.002   1.161   5.881 -1.1172 -0.3316 -0.4185
 5637SOL     OW28546   1.244   3.890   7.727  0.2442  0.5629  0.2499
 5637SOL    HW128547   1.199   3.807   7.718  2.3745 -0.4946 -0.7146
 5637SOL    HW228548   1.242   3.931   7.813 -3.9970  1.3348 -0.2415
 5638SOL     OW28549   0.775   0.792   5.033  0.7544  0.0175 -0.2562
 5638SOL    HW128550   0.708   0.738   5.076  2.0441 -0.8094  0.6984
 5638SOL    HW228551   0.839   0.785   5.104 -1.3911 -2.9376  1.4507
 5639SOL     OW28552   1.356   1.070   7.485  0.1784 -0.1235 -0.4388
 5639SOL    HW128553   1.324   1.146   7.436  2.0662 -0.9550 -2.9813
 5639SOL    HW228554   1.309   0.997   7.445  0.1215 -0.0677 -0.4737
 5640SOL     OW28555   3.466   2.121   7.255  0.9151  0.2626  0.1685
 5640SOL    HW128556   3.389   2.089   7.302  0.5925 -1.1596 -1.3129
 5640SOL    HW228557   3.517   2.040   7.249 -1.2993 -1.2519  1.5716
 5641SOL     OW28558   2.953   4.098   6.159  0.6603 -0.2638 -0.2376
 5641SOL    HW128559   2.966   4.019   6.107  4.2689 -1.4188  2.3396
 5641SOL    HW228560   3.023   4.160   6.137  0.3166 -0.1627 -1.0154
 5642SOL     OW28561   4.413   1.557   8.370 -0.0779 -0.1918 -0.0403
 5642SOL    HW128562   4.330   1.511   8.373  0.6078 -1.4479 -0.1687
 5642SOL    HW228563   4.476   1.502   8.419 -1.5889  0.8749  3.1195
 5643SOL     OW28564   3.693   4.246  15.112 -0.0041 -0.2799  0.6604
 5643SOL    HW128565   3.632   4.261  15.039  0.6958 -3.3119 -0.5471
 5643SOL    HW228566   3.636   4.265  15.186  0.9772  0.0496  1.3227
 5644SOL     OW28567   2.708   0.065  17.158  0.4767 -0.5162  0.2001
 5644SOL    HW128568   2.741   0.060  17.068  0.5555 -0.2459  0.2113
 5644SOL    HW228569   2.748   0.146  17.190  0.3407 -0.2767 -0.2296
 5645SOL     OW28570   1.290   4.175   4.205 -0.3153 -0.0790  0.7361
 5645SOL    HW128571   1.257   4.261   4.179 -0.8705 -0.3857  0.4257
 5645SOL    HW228572   1.356   4.192   4.272 -0.1538  0.4124  0.4462
 5646SOL     OW28573   1.366   2.501   2.851  0.4897 -0.3880 -0.1445
 5646SOL    HW128574   1.417   2.471   2.926 -1.9547 -0.5879  1.4558
 5646SOL    HW228575   1.280   2.460   2.860  0.8161 -1.2762 -1.0695
 5647SOL     OW28576   1.613   0.009   6.749 -0.0892 -0.3216  0.2765
 5647SOL    HW128577   1.598   4.650   6.741  2.1080 -0.5513 -1.1474
 5647SOL    HW228578   1.663   0.027   6.669 -2.0110  0.3336 -0.7866
 5648SOL     OW28579   3.963   2.217   0.224  0.1029  0.0506  0.4932
 5648SOL    HW128580   3.997   2.306   0.213  1.0907 -0.1519  1.8865
 5648SOL    HW228581   3.958   2.208   0.320 -0.5385 -2.2092  0.2539
 5649SOL     OW28582   3.903   1.901  15.813  0.1236  0.4227  0.0059
 5649SOL    HW128583   3.858   1.938  15.736  1.8117  0.8788 -0.7629
 5649SOL    HW228584   3.920   1.812  15.782  0.8557 -0.0441  1.7721
 5650SOL     OW28585   0.873   0.063   2.510 -0.1283  0.3994  0.6652
 5650SOL    HW128586   0.948   0.004   2.505 -0.2337  0.2831  0.4345
 5650SOL    HW228587   0.905   0.149   2.485 -1.4223 -0.0702 -2.6750
 5651SOL     OW28588   1.163   2.592   4.969  0.2505 -0.1229 -0.5154
 5651SOL    HW128589   1.076   2.559   4.946 -0.9729  2.4145  0.5670
 5651SOL    HW228590   1.207   2.517   5.008 -0.0247  0.3390  0.6885
 5652SOL     OW28591   1.158   3.871   2.342 -0.0031 -0.3984  0.0952
 5652SOL    HW128592   1.066   3.867   2.315 -0.2311 -2.1706  1.1034
 5652SOL    HW228593   1.196   3.951   2.307  1.2762 -0.1103  2.1308
 5653SOL     OW28594   2.089   1.403   3.465 -0.4565  0.2069 -0.1582
 5653SOL    HW128595   2.044   1.337   3.517 -1.0802  0.1220 -0.7974
 5653SOL    HW228596   2.171   1.354   3.454  0.7184  2.3175 -0.7991
 5654SOL     OW28597   4.732   0.163   5.031  0.1957 -0.0922  0.5345
 5654SOL    HW128598   0.076   0.113   5.052  0.8394  0.5931 -0.2609
 5654SOL    HW228599   0.009   0.176   4.937 -1.4384 -1.8406  0.1156
 5655SOL     OW28600   1.598   2.179   5.621 -0.2401 -0.1788  0.7347
 5655SOL    HW128601   1.600   2.241   5.695  2.8977  0.4156  0.1417
 5655SOL    HW228602   1.649   2.213   5.547  1.2079 -3.9138  0.0479
 5656SOL     OW28603   0.050   2.871   3.068  0.1666 -0.1755 -0.0842
 5656SOL    HW128604   0.048   2.927   3.146 -2.0315  2.3032 -1.9177
 5656SOL    HW228605   4.731   2.797   3.093 -1.0459  1.4522  2.1727
 5657SOL     OW28606   3.706   2.410   6.243  0.4170 -0.2991 -0.5240
 5657SOL    HW128607   3.625   2.394   6.195  0.7348 -2.2606 -0.4079
 5657SOL    HW228608   3.674   2.404   6.333 -0.4438 -0.5298 -0.8477
 5658SOL     OW28609   3.219   0.733   6.715  0.0521 -0.4253 -0.0096
 5658SOL    HW128610   3.172   0.728   6.631  0.3339  1.8814 -0.3103
 5658SOL    HW228611   3.306   0.703   6.688 -0.4040 -1.8175  0.0658
 5659SOL     OW28612   3.415   0.914   8.387 -0.1935  0.5915  0.1359
 5659SOL    HW128613   3.407   0.824   8.420 -1.9103  0.2962 -1.0628
 5659SOL    HW228614   3.411   0.902   8.292  1.0602 -0.2105  0.1919
 5660SOL     OW28615   0.498   0.371  13.431 -0.3324 -0.7091  0.0497
 5660SOL    HW128616   0.584   0.334  13.452 -0.2313 -0.2462  0.4638
 5660SOL    HW228617   0.459   0.379  13.519 -0.2085  0.7380 -0.0415
 5661SOL     OW28618   3.005   3.296  14.605  0.2466 -0.3499 -0.5461
 5661SOL    HW128619   3.059   3.222  14.631  1.7128  0.8159 -0.2276
 5661SOL    HW228620   3.018   3.363  14.672  3.2426 -0.2225 -1.2576
 5662SOL     OW28621   1.683   0.886   6.955  0.1398  0.0946 -0.1560
 5662SOL    HW128622   1.746   0.851   7.019 -0.5817 -0.6005  0.1857
 5662SOL    HW228623   1.715   0.971   6.927  1.1120 -0.2679 -0.1207
 5663SOL     OW28624   3.630   2.118   6.776 -0.2256 -0.3115 -0.2168
 5663SOL    HW128625   3.686   2.055   6.731 -1.2782 -0.3478 -1.5108
 5663SOL    HW228626   3.612   2.067   6.855  0.3818  2.4307  1.6459
 5664SOL     OW28627   1.199   3.992   0.133  0.4831  0.3587 -0.0964
 5664SOL    HW128628   1.160   4.078   0.120 -1.0296 -0.4371 -0.7866
 5664SOL    HW228629   1.226   3.972   0.044  0.8372 -1.7048  0.4769
 5665SOL     OW28630   3.334   0.347   5.385 -0.0405 -0.4381  0.1616
 5665SOL    HW128631   3.350   0.264   5.340  0.6543 -0.4100  0.3456
 5665SOL    HW228632   3.348   0.407   5.312 -2.1575  0.8293  0.8236
 5666SOL     OW28633   0.629   2.267   3.803  0.0273  0.1356  0.0095
 5666SOL    HW128634   0.556   2.205   3.794  0.3590 -0.4527  1.5359
 5666SOL    HW228635   0.592   2.342   3.850  1.0385  1.5408 -1.4077
 5667SOL     OW28636   0.195   0.689   7.139 -0.0408 -0.3328  0.1004
 5667SOL    HW128637   0.181   0.595   7.155 -1.3111 -0.0238  0.8710
 5667SOL    HW228638   0.152   0.698   7.054  0.6779 -1.7347 -0.4192
 5668SOL     OW28639   2.529   2.077   5.757  0.0202  0.3125 -0.2670
 5668SOL    HW128640   2.496   2.016   5.823  0.2831  0.2292 -0.2130
 5668SOL    HW228641   2.572   2.145   5.808 -0.7240 -0.6412  1.6293
 5669SOL     OW28642   3.516   2.344   6.034 -0.0626 -0.3365  0.3926
 5669SOL    HW128643   3.536   2.262   5.989  0.3927 -0.6316  1.1335
 5669SOL    HW228644   3.538   2.405   5.963 -0.7636 -1.6384 -0.9374
 5670SOL     OW28645   3.038   3.931  14.957 -0.6273  0.3555  0.2944
 5670SOL    HW128646   3.076   3.853  14.916  1.2473  0.8367  1.1135
 5670SOL    HW228647   3.035   3.982  14.876  3.4000 -0.9093 -0.6383
 5671SOL     OW28648   3.554   1.123   6.256 -0.0602  0.2421 -0.1402
 5671SOL    HW128649   3.649   1.127   6.268  0.0531  0.1911 -1.0501
 5671SOL    HW228650   3.560   1.085   6.169  0.3612  3.6811 -1.5745
 5672SOL     OW28651   0.208   4.679   4.028 -0.5365 -0.4929 -0.1702
 5672SOL    HW128652   0.274   4.610   4.022 -0.3105 -0.1624 -1.4087
 5672SOL    HW228653   0.253   0.015   3.981 -0.3923 -2.2464 -2.6720
 5673SOL     OW28654   1.647   3.751  12.308 -0.6920  0.2735  0.4109
 5673SOL    HW128655   1.639   3.678  12.247  1.5498  0.4344 -0.1064
 5673SOL    HW228656   1.566   3.801  12.302 -0.5944  0.4841  0.8324
 5674SOL     OW28657   3.767   3.215  13.585 -0.1164 -0.4493  0.0555
 5674SOL    HW128658   3.797   3.301  13.558  1.0035 -0.7080  0.4693
 5674SOL    HW228659   3.704   3.196  13.515 -0.0773 -2.2221  0.4954
 5675SOL     OW28660   0.076   0.185   1.309 -0.0675 -0.1166  0.3687
 5675SOL    HW128661   0.099   0.172   1.217  2.1550  0.3556  0.8660
 5675SOL    HW228662   0.157   0.150   1.345 -0.1544 -1.6904 -0.9372
 5676SOL     OW28663   0.407   4.439   7.594 -0.7405 -0.6655  0.3642
 5676SOL    HW128664   0.490   4.429   7.641 -0.8309 -0.7071  0.5125
 5676SOL    HW228665   0.364   4.515   7.635 -0.7413 -0.4743  0.0105
 5677SOL     OW28666   1.905   1.479   9.083 -0.0994  0.1575 -0.1503
 5677SOL    HW128667   1.908   1.572   9.061 -1.5332  0.2615  0.1076
 5677SOL    HW228668   1.984   1.483   9.138  0.0715  0.2419 -0.4047
 5678SOL     OW28669   3.672   1.676   8.577  0.6573 -0.3204 -0.0273
 5678SOL    HW128670   3.596   1.688   8.520 -1.0340 -0.7031  2.1353
 5678SOL    HW228671   3.663   1.583   8.601  1.3588 -0.5818 -0.7722
 5679SOL     OW28672   3.851   2.282  14.981 -0.1128  0.0775  0.0221
 5679SOL    HW128673   3.842   2.189  14.959  0.8996 -0.2981  1.1634
 5679SOL    HW228674   3.813   2.330  14.907 -0.5331  0.8632  0.7601
 5680SOL     OW28675   0.418   3.727   7.689 -0.1210 -0.0811 -0.6828
 5680SOL    HW128676   0.434   3.819   7.667 -0.9820 -0.0628 -1.2119
 5680SOL    HW228677   0.356   3.705   7.619  2.1373  1.7428 -3.2691
 5681SOL     OW28678   2.545   0.093   0.376  0.0587 -0.3492  0.4260
 5681SOL    HW128679   2.462   0.045   0.377 -0.6534  0.8076 -2.1122
 5681SOL    HW228680   2.566   0.085   0.469  2.0577  1.4367  0.1164
 5682SOL     OW28681   1.699   1.339   7.300 -0.0828 -0.3933  0.0802
 5682SOL    HW128682   1.607   1.325   7.281 -0.1848 -1.3284  1.2172
 5682SOL    HW228683   1.729   1.249   7.285 -1.5291 -0.6572 -1.2129
 5683SOL     OW28684   0.822   1.248   8.037  0.0483 -0.2725  0.2596
 5683SOL    HW128685   0.840   1.212   7.950 -0.9256  1.4019 -0.6405
 5683SOL    HW228686   0.737   1.285   8.012  0.1699 -0.0899  0.1208
 5684SOL     OW28687   0.222   4.468   0.644  0.0566 -0.0983  0.4916
 5684SOL    HW128688   0.189   4.419   0.719 -2.3637  0.5345 -0.1748
 5684SOL    HW228689   0.154   4.443   0.582 -0.5506  3.4899 -0.3135
 5685SOL     OW28690   4.367   2.116  17.712  0.3222 -0.5347  0.9545
 5685SOL    HW128691   4.341   2.203   0.003  2.4499  0.6511 -0.8225
 5685SOL    HW228692   4.293   2.092  17.656 -0.9244  0.9008  1.9793
 5686SOL     OW28693   4.071   1.552   3.771 -0.2374 -0.6570  0.4286
 5686SOL    HW128694   4.123   1.586   3.844 -0.3730 -0.3346  0.3780
 5686SOL    HW228695   4.002   1.618   3.765 -0.9466 -1.5576 -1.3428
 5687SOL     OW28696   4.287   0.359   7.967  0.3729  0.1683  0.3798
 5687SOL    HW128697   4.200   0.387   7.995  0.7748  1.2204  0.5740
 5687SOL    HW228698   4.256   0.275   7.932  0.4518  0.4578 -0.3871
 5688SOL     OW28699   2.535   2.319   5.969  0.0894 -0.0936 -0.5472
 5688SOL    HW128700   2.488   2.240   5.995 -1.2295  1.2119  1.1201
 5688SOL    HW228701   2.589   2.337   6.047  0.6269 -1.3005 -0.6427
 5689SOL     OW28702   2.695   3.820  10.539 -0.1045  0.0392  0.0281
 5689SOL    HW128703   2.732   3.879  10.605 -0.4230 -1.0524  1.1624
 5689SOL    HW228704   2.645   3.755  10.586 -2.2544  0.1294 -2.1322
 5690SOL     OW28705   3.227   1.772   5.464 -0.1978 -0.4389 -0.3247
 5690SOL    HW128706   3.186   1.699   5.510 -0.0501 -0.4594 -0.2262
 5690SOL    HW228707   3.320   1.757   5.480 -0.2521 -0.4811 -0.0438
 5691SOL     OW28708   0.986   4.512   0.100  0.0965 -0.3001 -0.1887
 5691SOL    HW128709   1.073   4.479   0.124  1.5288  1.9526 -2.3247
 5691SOL    HW228710   1.010   4.572   0.030  1.0201 -2.2046 -1.5219
 5692SOL     OW28711   0.789   2.043   5.587  0.2822 -0.1024  0.0504
 5692SOL    HW128712   0.709   1.995   5.567 -0.7619  2.3184 -1.6915
 5692SOL    HW228713   0.853   1.976   5.564  0.6453  0.9736 -2.0904
 5693SOL     OW28714   3.620   2.508   5.849 -0.1268 -0.1532 -0.5719
 5693SOL    HW128715   3.641   2.597   5.879 -0.7572 -0.7687  1.6719
 5693SOL    HW228716   3.706   2.469   5.865 -0.2717 -0.0979  0.3581
 5694SOL     OW28717   4.350   1.108   7.079  0.1641  0.3855  0.0190
 5694SOL    HW128718   4.291   1.056   7.025  0.8530 -1.8684  1.4245
 5694SOL    HW228719   4.416   1.148   7.021 -1.5895  2.5774 -0.4645
 5695SOL     OW28720   0.930   2.841   8.481  0.3573 -1.1654  0.0857
 5695SOL    HW128721   0.994   2.801   8.540 -0.0092  0.6249  1.7221
 5695SOL    HW228722   0.915   2.776   8.413 -0.6794  0.4425 -1.2178
 5696SOL     OW28723   2.668   3.129  16.171 -0.2912  0.5819  0.4284
 5696SOL    HW128724   2.698   3.119  16.081  0.1787 -3.0585  0.9807
 5696SOL    HW228725   2.631   3.041  16.184 -0.0913  0.4303 -0.0437
 5697SOL     OW28726   4.004   3.714   2.077  0.5731  0.1692  0.1544
 5697SOL    HW128727   4.093   3.749   2.076  0.0608  1.4917 -2.3777
 5697SOL    HW228728   4.017   3.634   2.126 -0.5134 -1.0485 -1.5474
 5698SOL     OW28729   0.992   3.251  14.452  0.1872  0.5546 -0.4529
 5698SOL    HW128730   1.062   3.283  14.508 -1.3948  2.9257  0.1760
 5698SOL    HW228731   0.916   3.251  14.510  1.2982 -0.6361  1.0149
 5699SOL     OW28732   2.401   4.716   2.758  0.4653 -0.1431 -0.3313
 5699SOL    HW128733   2.354   4.645   2.713  0.7572  0.4032 -1.4891
 5699SOL    HW228734   2.355   0.056   2.721 -0.0768  0.0717  0.7872
 5700SOL     OW28735   3.391   2.598   0.105  0.1241  0.0098  0.7197
 5700SOL    HW128736   3.346   2.515   0.091 -0.2808  0.2991  0.3173
 5700SOL    HW228737   3.314   2.654   0.113 -0.6303 -0.8442 -0.4977
 5701SOL     OW28738   1.716   0.214   7.419  0.3463  0.1568 -0.8361
 5701SOL    HW128739   1.634   0.180   7.384 -0.6072  0.1870  1.4045
 5701SOL    HW228740   1.686   0.298   7.452 -2.7165 -1.3254  0.0752
 5702SOL     OW28741   2.537   3.202   8.765 -0.9846  0.2111 -0.1226
 5702SOL    HW128742   2.522   3.296   8.751 -0.7421 -0.1282 -2.7646
 5702SOL    HW228743   2.487   3.164   8.692 -1.2234 -0.1090  0.2109
 5703SOL     OW28744   0.839   1.681  17.731 -0.0328  0.3997 -0.1678
 5703SOL    HW128745   0.792   1.763  17.712 -1.6644 -0.9154 -1.7709
 5703SOL    HW228746   0.868   1.659  17.643 -0.9960  1.1971 -0.6901
 5704SOL     OW28747   4.258   1.781   8.438  0.3032  0.4589 -0.2342
 5704SOL    HW128748   4.265   1.730   8.518 -1.3258 -1.5560 -1.3690
 5704SOL    HW228749   4.302   1.720   8.379 -1.1467  0.5795 -1.4731
 5705SOL     OW28750   2.823   1.071  10.430  0.3116  0.0077  1.2200
 5705SOL    HW128751   2.901   1.025  10.397 -0.0566 -0.0866  0.4829
 5705SOL    HW228752   2.816   1.149  10.375  2.2965  1.2072  2.6904
 5706SOL     OW28753   3.002   2.818   2.677 -0.0485 -0.1759  0.4657
 5706SOL    HW128754   2.978   2.813   2.585  0.9248 -0.1087  0.2154
 5706SOL    HW228755   2.947   2.753   2.722 -0.4999 -0.4508 -0.4823
 5707SOL     OW28756   2.707   3.257   6.798  0.3676 -1.1463  0.1195
 5707SOL    HW128757   2.654   3.191   6.753  0.6007 -0.8474 -0.5765
 5707SOL    HW228758   2.685   3.239   6.890 -0.1729  0.1383  0.2390
 5708SOL     OW28759   4.728   0.975   2.052 -0.0043 -0.0118  0.2967
 5708SOL    HW128760   0.043   0.995   2.131  0.0087  1.0929  0.0137
 5708SOL    HW228761   0.016   1.054   2.003 -1.0244 -1.0391 -1.8419
 5709SOL     OW28762   0.605   4.163   3.753 -0.5879  0.0296  0.3199
 5709SOL    HW128763   0.611   4.235   3.690 -0.3872 -0.8970 -0.7077
 5709SOL    HW228764   0.690   4.171   3.796  0.2412 -0.1693 -1.2856
 5710SOL     OW28765   3.141   0.630   3.002 -0.1636 -0.3539 -0.0805
 5710SOL    HW128766   3.211   0.605   2.942  0.9878  0.7049  0.8077
 5710SOL    HW228767   3.187   0.595   3.079 -0.2950  1.0064  0.6132
 5711SOL     OW28768   0.310   0.321   5.185  0.0691 -0.1303 -0.2313
 5711SOL    HW128769   0.340   0.230   5.194 -1.7977 -0.8106 -0.8819
 5711SOL    HW228770   0.398   0.358   5.191  0.5735 -1.1417 -1.5423
 5712SOL     OW28771   4.401   1.213   7.584  0.6915 -0.0476  0.3177
 5712SOL    HW128772   4.408   1.159   7.505  0.2578 -0.4294  0.5454
 5712SOL    HW228773   4.332   1.159   7.621 -1.5794  2.0447 -0.8830
 5713SOL     OW28774   3.490   4.067   3.305  0.6129  0.2495  0.0155
 5713SOL    HW128775   3.508   3.974   3.293 -2.4590 -0.6379  2.4773
 5713SOL    HW228776   3.576   4.108   3.317 -0.7315  2.8245  1.0170
 5714SOL     OW28777   4.596   3.334   7.321  0.2395  0.8093  0.4707
 5714SOL    HW128778   4.567   3.365   7.407 -0.7338 -1.1546  0.8531
 5714SOL    HW228779   4.673   3.287   7.353 -1.9260 -2.7895  0.4582
 5715SOL     OW28780   3.562   4.077   0.356 -0.7171 -0.0336  0.1665
 5715SOL    HW128781   3.609   4.013   0.409 -1.5874 -0.0512  0.9250
 5715SOL    HW228782   3.525   4.131   0.426 -0.5202  2.6129 -1.7329
 5716SOL     OW28783   0.189   0.371   7.506  0.4828 -0.1886 -0.1723
 5716SOL    HW128784   0.238   0.359   7.425  0.3695 -0.6499 -0.1735
 5716SOL    HW228785   0.263   0.356   7.565  1.6039  0.6486 -1.3760
 5717SOL     OW28786   1.179   4.389  15.475 -0.7301 -0.1776  0.0029
 5717SOL    HW128787   1.190   4.484  15.479  0.6997 -0.3629  0.5606
 5717SOL    HW228788   1.237   4.369  15.402 -1.9840  1.5840 -1.4571
 5718SOL     OW28789   2.310   3.984   7.516  0.2045 -0.0115 -0.5855
 5718SOL    HW128790   2.376   4.053   7.523  1.8733 -1.5513 -1.0329
 5718SOL    HW228791   2.289   3.968   7.608  3.1679 -1.5330 -0.1618
 5719SOL     OW28792   0.184   3.346   7.958  0.0058 -0.3541  0.2204
 5719SOL    HW128793   0.236   3.401   8.017 -0.8112  0.6757 -0.0116
 5719SOL    HW228794   0.095   3.382   7.957 -0.1663 -0.7422  2.8066
 5720SOL     OW28795   0.134   2.530   3.297  0.2814  0.0771  0.0159
 5720SOL    HW128796   0.193   2.588   3.343 -1.7295  2.2611 -0.1801
 5720SOL    HW228797   0.140   2.453   3.354 -1.0839  1.0500  1.4479
 5721SOL     OW28798   0.738   1.194  13.410 -0.4202  0.0919  0.0929
 5721SOL    HW128799   0.644   1.181  13.424 -0.4859  1.1280  0.5361
 5721SOL    HW228800   0.782   1.159  13.488 -1.4659 -2.1594 -0.3270
 5722SOL     OW28801   1.370   2.319   9.750 -0.2662  0.2885 -0.4532
 5722SOL    HW128802   1.440   2.350   9.807 -2.1519  0.6981  1.6375
 5722SOL    HW228803   1.420   2.262   9.693 -1.9715 -1.9232  0.2750
 5723SOL     OW28804   2.510   1.386   2.785 -0.0633 -0.0336  0.8307
 5723SOL    HW128805   2.519   1.311   2.844 -1.1689 -0.1352  0.8649
 5723SOL    HW228806   2.463   1.451   2.836  0.1659 -1.1372  2.4270
 5724SOL     OW28807   3.420   0.604   5.549 -0.3300  0.0973 -0.2147
 5724SOL    HW128808   3.482   0.570   5.613 -1.5743  0.9211  1.4258
 5724SOL    HW228809   3.430   0.549   5.471  0.1402 -0.8509  0.5113
 5725SOL     OW28810   4.715   3.776  12.356 -0.2179  0.0272 -0.6159
 5725SOL    HW128811   4.696   3.857  12.402  0.9388  0.0164 -0.1174
 5725SOL    HW228812   4.727   3.801  12.264 -1.5702 -0.7762 -1.0139
 5726SOL     OW28813   4.276   4.618   7.541  0.4708  0.2298 -0.0713
 5726SOL    HW128814   4.303   4.697   7.589  0.6757  0.7105 -0.9779
 5726SOL    HW228815   4.188   4.641   7.511  0.2062  0.2160  0.6992
 5727SOL     OW28816   1.820   3.518   2.266 -0.4288  0.4225  0.0908
 5727SOL    HW128817   1.755   3.534   2.197  1.5392 -1.8827 -2.2871
 5727SOL    HW228818   1.778   3.533   2.350 -0.2221  0.6150  0.1599
 5728SOL     OW28819   2.372   0.272   8.787  0.0879  0.2335 -0.0031
 5728SOL    HW128820   2.291   0.235   8.823 -0.0489  0.9959  0.4779
 5728SOL    HW228821   2.367   0.222   8.706 -0.8892  0.8567 -0.3299
 5729SOL     OW28822   2.038   3.298  10.049 -0.4844  0.0749  0.2282
 5729SOL    HW128823   2.019   3.205  10.060 -0.6923 -0.1090 -1.5942
 5729SOL    HW228824   2.064   3.313  10.140  0.5042 -3.3224  0.5255
 5730SOL     OW28825   1.557   1.712  14.083  0.1962  0.1558 -0.2192
 5730SOL    HW128826   1.484   1.773  14.094 -0.9208 -1.1820 -0.1296
 5730SOL    HW228827   1.549   1.671  14.169  0.3096  0.9854  0.1877
 5731SOL     OW28828   2.919   4.709  12.529 -0.3543 -0.0294  0.1790
 5731SOL    HW128829   2.843   0.030  12.544 -0.7958 -1.1799  2.2866
 5731SOL    HW228830   2.948   4.684  12.617 -0.4171 -2.4244 -0.4987
 5732SOL     OW28831   3.130   0.547   1.638  0.1682  0.3241  0.2587
 5732SOL    HW128832   3.135   0.628   1.690 -0.3543  0.2411  0.4387
 5732SOL    HW228833   3.221   0.538   1.611 -0.5194  0.6684 -2.2379
 5733SOL     OW28834   3.546   4.025   6.738 -0.2048  0.1519 -0.8721
 5733SOL    HW128835   3.567   4.088   6.669 -0.6203  0.7759 -0.4301
 5733SOL    HW228836   3.457   4.050   6.763 -1.2056 -2.4743 -1.7976
 5734SOL     OW28837   4.399   3.026  11.595  0.2809 -0.1618 -0.2043
 5734SOL    HW128838   4.370   3.111  11.628 -0.6403 -0.2169 -0.8528
 5734SOL    HW228839   4.390   2.972  11.673  0.7738 -0.5300 -0.4021
 5735SOL     OW28840   1.040   1.394   2.431 -0.1191 -0.8096  0.0822
 5735SOL    HW128841   1.115   1.339   2.412 -0.6457 -0.5975 -2.6016
 5735SOL    HW228842   1.080   1.480   2.444 -1.5046 -0.1145 -0.1590
 5736SOL     OW28843   4.031   0.647   6.947 -0.1093 -0.2751 -0.0579
 5736SOL    HW128844   3.949   0.599   6.960  0.6277 -0.8573  2.4601
 5736SOL    HW228845   4.022   0.692   6.863  3.8434 -1.2425 -0.9949
 5737SOL     OW28846   2.660   2.715  12.902  0.6011  0.0444  0.7105
 5737SOL    HW128847   2.642   2.808  12.917 -2.0854 -0.7670  2.6398
 5737SOL    HW228848   2.590   2.668  12.948 -1.0057  0.3764 -1.4361
 5738SOL     OW28849   4.525   4.267   7.058  0.0904 -0.5862  0.5549
 5738SOL    HW128850   4.513   4.355   7.092  1.2148  0.2498 -1.1835
 5738SOL    HW228851   4.435   4.249   7.031 -0.2019  0.7470  0.6470
 5739SOL     OW28852   3.024   3.569   9.723  0.7525 -0.2165  0.4242
 5739SOL    HW128853   3.099   3.620   9.692  0.7746 -1.3571 -1.3643
 5739SOL    HW228854   3.007   3.624   9.800  0.8442 -0.5221  0.6663
 5740SOL     OW28855   1.716   4.491   2.751 -0.0615 -0.0864  0.3125
 5740SOL    HW128856   1.722   4.567   2.808  0.3255  1.3520 -1.6490
 5740SOL    HW228857   1.732   4.416   2.809  1.9928  0.2840  0.2313
 5741SOL     OW28858   3.427   3.451   8.482 -0.2218 -1.0540 -0.0328
 5741SOL    HW128859   3.500   3.441   8.421  0.2955 -2.4435  0.7971
 5741SOL    HW228860   3.464   3.491   8.561  1.8515  0.3303 -1.7223
 5742SOL     OW28861   1.025   2.308   8.594 -0.2912  0.2854  0.3095
 5742SOL    HW128862   1.023   2.227   8.543  2.1595 -0.4201  1.3222
 5742SOL    HW228863   1.076   2.365   8.536  0.8338 -1.8583 -0.8177
 5743SOL     OW28864   4.553   3.194   4.827 -0.2836 -0.1713 -0.0719
 5743SOL    HW128865   4.619   3.235   4.884 -0.1408  0.9398 -1.0384
 5743SOL    HW228866   4.606   3.172   4.751 -0.9325  1.3204 -0.9702
 5744SOL     OW28867   3.350   1.211   5.912  0.5453 -0.1681 -0.0014
 5744SOL    HW128868   3.262   1.237   5.937  1.4652  0.2538  2.7343
 5744SOL    HW228869   3.343   1.166   5.828 -3.1059  0.4804 -0.0365
 5745SOL     OW28870   3.708   4.504   4.830 -0.2346 -0.6662  0.5023
 5745SOL    HW128871   3.794   4.527   4.796 -0.6680  0.9860  0.5084
 5745SOL    HW228872   3.737   4.458   4.909  1.0793  0.4062  0.6390
 5746SOL     OW28873   4.145   4.630   0.581  0.3353  0.0700 -0.5815
 5746SOL    HW128874   4.083   4.594   0.517 -0.5723 -1.0774  0.9665
 5746SOL    HW228875   4.091   4.695   0.627  0.2245 -1.8901  2.0296
 5747SOL     OW28876   2.841   3.122   8.269  0.5781  0.4753  0.4228
 5747SOL    HW128877   2.840   3.064   8.193  0.6436  1.4459 -0.3139
 5747SOL    HW228878   2.833   3.049   8.331  0.5585  0.0857 -0.0365
 5748SOL     OW28879   3.407   2.928  17.643 -0.8330 -0.2418  0.1640
 5748SOL    HW128880   3.375   2.996  17.702  1.8267  0.2542  1.0756
 5748SOL    HW228881   3.494   2.924  17.684 -0.3316 -0.5887 -0.9149
 5749SOL     OW28882   2.083   2.474   9.500 -0.6079 -0.1250 -0.1120
 5749SOL    HW128883   2.041   2.470   9.414 -0.9302  2.0850 -0.0425
 5749SOL    HW228884   2.002   2.476   9.551 -1.0050  1.5547 -0.8186
 5750SOL     OW28885   3.058   3.925  11.917  0.2403  0.0357  0.5209
 5750SOL    HW128886   2.964   3.917  11.901 -0.0052  2.7455  0.6148
 5750SOL    HW228887   3.098   3.915  11.830  1.5318  2.4121  0.8482
 5751SOL     OW28888   4.640   3.330  13.692  0.1507  0.1682 -0.2330
 5751SOL    HW128889   4.627   3.269  13.765  0.0410 -1.8363 -1.9196
 5751SOL    HW228890   4.630   3.267  13.620  0.6242 -0.2926  0.1004
 5752SOL     OW28891   3.310   1.823   7.922  0.4212  0.0864 -0.0282
 5752SOL    HW128892   3.402   1.845   7.912  1.0078 -2.0791  0.7880
 5752SOL    HW228893   3.283   1.865   8.004  0.9153 -2.0606  1.2119
 5753SOL     OW28894   1.398   2.858  11.914  0.1492  0.2802  0.1158
 5753SOL    HW128895   1.418   2.822  11.828 -1.6915  2.9825 -1.4231
 5753SOL    HW228896   1.480   2.906  11.929 -0.5137  1.4197  0.1225
 5754SOL     OW28897   1.056   2.522   3.368  0.5139  0.1258 -0.2828
 5754SOL    HW128898   1.102   2.508   3.286  1.7533 -1.4288  0.6887
 5754SOL    HW228899   0.982   2.461   3.362 -0.7491  1.7123 -1.0102
 5755SOL     OW28900   4.335   0.529   4.037  0.4774 -0.2963  0.1443
 5755SOL    HW128901   4.371   0.490   3.957 -1.2082 -0.0668 -0.7280
 5755SOL    HW228902   4.295   0.455   4.083 -0.8910  0.9380  0.9444
 5756SOL     OW28903   1.415   3.769   9.193  0.3702  0.0165  0.2189
 5756SOL    HW128904   1.503   3.756   9.228 -0.8914 -1.3002  2.8437
 5756SOL    HW228905   1.414   3.703   9.124  1.8049  0.5578 -0.3315
 5757SOL     OW28906   0.113   2.465  10.714 -0.2008  0.4652  0.0665
 5757SOL    HW128907   0.184   2.400  10.705  0.1335  0.3728  3.5964
 5757SOL    HW228908   0.161   2.546  10.732 -0.2718  0.6218 -0.4543
 5758SOL     OW28909   1.080   2.085   6.037 -0.4353  0.5995 -0.2428
 5758SOL    HW128910   1.107   2.002   6.075  2.4832  1.3512 -0.7177
 5758SOL    HW228911   0.984   2.084   6.035 -0.4211  1.4435 -1.8135
 5759SOL     OW28912   4.078   1.158   2.236 -0.2027 -0.4686  0.2282
 5759SOL    HW128913   3.993   1.197   2.218  0.4183  0.6518 -0.2760
 5759SOL    HW228914   4.088   1.083   2.177  1.1325  0.3207 -0.5558
 5760SOL     OW28915   2.659   1.039   2.832 -0.8581 -0.2687 -0.5889
 5760SOL    HW128916   2.640   1.022   2.739 -1.1182 -2.1442 -0.1869
 5760SOL    HW228917   2.650   0.951   2.868 -2.8525 -0.0985 -0.6979
 5761SOL     OW28918   3.767   3.220   6.628 -0.0742  0.5368 -0.2598
 5761SOL    HW128919   3.855   3.259   6.623  0.0976  0.1599 -0.1712
 5761SOL    HW228920   3.782   3.166   6.706  0.2783 -0.5621 -1.0875
 5762SOL     OW28921   0.409   0.515   5.953 -0.0602 -0.0855  0.1529
 5762SOL    HW128922   0.474   0.568   5.999 -0.6824  0.6626  0.1753
 5762SOL    HW228923   0.426   0.422   5.968 -1.0981 -0.2486  0.3354
 5763SOL     OW28924   3.350   4.098   6.455  0.4864 -0.4896  0.1764
 5763SOL    HW128925   3.436   4.125   6.485  1.0009 -0.2979 -1.4308
 5763SOL    HW228926   3.285   4.141   6.511  0.3517  0.7053 -0.8763
 5764SOL     OW28927   1.535   1.632  14.311 -0.1362  0.2032 -0.0238
 5764SOL    HW128928   1.583   1.555  14.341 -1.7258 -0.8630 -0.2420
 5764SOL    HW228929   1.447   1.622  14.347 -0.6035 -0.3079 -1.3305
 5765SOL     OW28930   4.559   2.895  14.576 -0.3228  0.0771  0.0596
 5765SOL    HW128931   4.637   2.930  14.533 -1.8876 -0.4016 -3.1732
 5765SOL    HW228932   4.561   2.810  14.531 -1.3192 -0.1850  0.4918
 5766SOL     OW28933   3.729   0.122   3.685  0.1811  0.4740 -0.0812
 5766SOL    HW128934   3.797   0.152   3.625  0.0534 -2.2208 -1.6030
 5766SOL    HW228935   3.650   0.119   3.631 -0.3527 -2.6281  0.8929
 5767SOL     OW28936   0.884   3.348  12.517 -0.7465  0.3217 -0.7377
 5767SOL    HW128937   0.881   3.253  12.528 -0.2356  0.6676  2.5141
 5767SOL    HW228938   0.871   3.373  12.426  0.9854  1.6751 -0.6140
 5768SOL     OW28939   2.882   0.025   4.161  0.3671  0.2817 -0.7454
 5768SOL    HW128940   2.791   4.732   4.156 -0.1056  1.9934 -1.6309
 5768SOL    HW228941   2.918   4.709   4.088  1.4681  0.7047 -0.5109
 5769SOL     OW28942   2.615   2.044   1.862 -0.5204  0.2046 -0.0185
 5769SOL    HW128943   2.568   2.019   1.783  2.1572 -0.2595 -1.4457
 5769SOL    HW228944   2.688   1.985   1.847 -2.4053 -2.5867  1.9223
 5770SOL     OW28945   2.620   2.958  11.638  0.6124 -0.1439  0.0371
 5770SOL    HW128946   2.585   2.884  11.588 -0.3939  1.0526 -1.0174
 5770SOL    HW228947   2.656   2.908  11.711 -0.3675 -0.3179  0.3955
 5771SOL     OW28948   0.680   1.669   7.629 -0.5697  0.2792 -0.7089
 5771SOL    HW128949   0.732   1.641   7.704 -0.6499 -0.0146 -0.7664
 5771SOL    HW228950   0.705   1.762   7.631 -1.5911  0.4781  2.9827
 5772SOL     OW28951   4.263   4.121   7.026  0.0029  0.2214 -0.0714
 5772SOL    HW128952   4.244   4.062   6.952  1.2501  1.0570 -1.0558
 5772SOL    HW228953   4.200   4.092   7.092 -0.6506 -0.0011 -0.7847
 5773SOL     OW28954   1.625   3.303   8.091 -0.3167  0.4828  0.0246
 5773SOL    HW128955   1.540   3.260   8.105 -0.3502  1.3579  2.3979
 5773SOL    HW228956   1.677   3.261   8.159 -0.6430 -2.4366 -1.5350
 5774SOL     OW28957   2.826   4.506   9.057 -0.1719  0.0835  0.3783
 5774SOL    HW128958   2.885   4.457   9.000 -0.8047 -0.6600  0.3599
 5774SOL    HW228959   2.881   4.574   9.095  0.2805  0.1395 -0.3782
 5775SOL     OW28960   3.403   1.143   3.877 -0.3841 -0.2688  0.0601
 5775SOL    HW128961   3.458   1.091   3.818  0.5513  2.0860 -1.1472
 5775SOL    HW228962   3.337   1.181   3.818  1.8007  0.9851 -1.6020
 5776SOL     OW28963   1.603   1.836   5.552 -0.0760  0.3058  0.4060
 5776SOL    HW128964   1.628   1.813   5.462  0.3466 -1.2281  0.9299
 5776SOL    HW228965   1.521   1.886   5.548 -0.1563  0.1678  0.3348
 5777SOL     OW28966   3.232   0.814   5.628  0.3060  0.3166  0.7042
 5777SOL    HW128967   3.267   0.746   5.571 -1.0490 -0.4010  0.7275
 5777SOL    HW228968   3.141   0.788   5.638  1.2355 -3.1429  0.1090
 5778SOL     OW28969   4.138   3.090   9.359 -0.4309 -0.4914  0.0087
 5778SOL    HW128970   4.191   3.076   9.281  0.5919 -1.0828  0.8054
 5778SOL    HW228971   4.049   3.092   9.324  0.1269  2.0016 -1.2598
 5779SOL     OW28972   3.489   2.110   9.196 -0.4075 -0.3879  0.5255
 5779SOL    HW128973   3.444   2.032   9.162  0.2022 -0.5648  0.1246
 5779SOL    HW228974   3.475   2.111   9.290 -0.9584  0.2654  0.4393
 5780SOL     OW28975   0.348   1.713   6.663 -0.3279 -0.3050 -0.2773
 5780SOL    HW128976   0.318   1.773   6.594  0.4677 -0.7752 -1.0330
 5780SOL    HW228977   0.339   1.767   6.742  1.6920 -1.2968  0.6321
 5781SOL     OW28978   2.658   0.571   9.651 -0.7377 -0.6771  0.5792
 5781SOL    HW128979   2.737   0.624   9.662 -1.4981  0.2251  1.6389
 5781SOL    HW228980   2.693   0.499   9.598  1.3240 -0.4345  1.6140
 5782SOL     OW28981   3.329   2.781   3.856  0.2122 -0.1100 -0.1672
 5782SOL    HW128982   3.355   2.692   3.879  0.3257  0.8408  3.3944
 5782SOL    HW228983   3.236   2.761   3.843 -0.4899  3.5054 -0.6136
 5783SOL     OW28984   1.066   3.075   6.393  0.0952  0.2373 -0.5280
 5783SOL    HW128985   1.106   3.004   6.345  0.4824 -1.4077  2.1988
 5783SOL    HW228986   1.143   3.115   6.433 -1.1958  2.0522  0.1839
 5784SOL     OW28987   2.935   2.440   2.685 -0.0395 -0.0766 -0.0382
 5784SOL    HW128988   2.930   2.508   2.617  1.1173  1.6064  1.5713
 5784SOL    HW228989   2.891   2.367   2.641 -0.5447  0.3495 -0.2452
 5785SOL     OW28990   2.486   2.296  10.241 -0.1250 -0.0653  0.1721
 5785SOL    HW128991   2.545   2.230  10.204 -1.2849 -1.0659  0.1138
 5785SOL    HW228992   2.544   2.350  10.295 -0.4632  0.4882 -0.0293
 5786SOL     OW28993   1.980   2.817   8.079 -0.4362 -0.7892 -0.2507
 5786SOL    HW128994   2.052   2.880   8.068 -1.0088 -0.0349  0.3647
 5786SOL    HW228995   1.997   2.759   8.005  1.3514  0.9404 -1.2107
 5787SOL     OW28996   1.752   4.246  16.295  0.1185 -0.6731  0.2074
 5787SOL    HW128997   1.697   4.310  16.248  1.6476 -2.0942 -3.5584
 5787SOL    HW228998   1.706   4.218  16.374  0.0762 -0.9360  0.0898
 5788SOL     OW28999   0.029   1.227   6.508 -0.4752  0.5405 -0.4109
 5788SOL    HW129000   4.709   1.149   6.519 -0.7873  0.7063 -0.7850
 5788SOL    HW229001   4.718   1.279   6.442 -1.1612  0.2620 -0.1585
 5789SOL     OW29002   0.509   2.797   8.826 -0.0713  0.1631 -0.3051
 5789SOL    HW129003   0.458   2.718   8.844  1.3885 -0.5296  0.7982
 5789SOL    HW229004   0.470   2.827   8.744  0.7894  0.7002 -0.5162
 5790SOL     OW29005   1.051   2.286  16.715 -0.0020  0.3088 -0.5053
 5790SOL    HW129006   1.071   2.355  16.651 -0.9877  2.7983  1.9024
 5790SOL    HW229007   1.038   2.343  16.791 -0.0791  0.1322 -0.3856
 5791SOL     OW29008   1.330   3.444   8.418  0.4811 -0.1954 -0.1284
 5791SOL    HW129009   1.285   3.520   8.456  2.5580  0.3565  1.1932
 5791SOL    HW229010   1.354   3.402   8.500  0.4160  1.2879  0.6553
 5792SOL     OW29011   2.818   3.855  11.864  0.4508  0.2032 -0.4872
 5792SOL    HW129012   2.757   3.876  11.935 -1.1796 -3.2919 -0.8604
 5792SOL    HW229013   2.767   3.796  11.809  2.1746 -2.8807  1.1924
 5793SOL     OW29014   1.851   2.453  11.989  0.0729  0.5827 -0.5828
 5793SOL    HW129015   1.794   2.435  11.915 -1.1393  1.3081  0.1823
 5793SOL    HW229016   1.799   2.425  12.064 -0.0273  0.8304 -0.5603
 5794SOL     OW29017   3.362   0.518  17.464 -0.2478  0.1588  0.3263
 5794SOL    HW129018   3.452   0.534  17.493  1.0383 -1.9447 -2.4221
 5794SOL    HW229019   3.325   0.511  17.552  1.9928  0.5766  1.3067
 5795SOL     OW29020   4.334   1.496   6.343 -0.5132  0.3468  0.1323
 5795SOL    HW129021   4.324   1.570   6.403 -1.5660  0.4090 -0.1365
 5795SOL    HW229022   4.246   1.460   6.331  0.1128 -1.1756 -0.0068
 5796SOL     OW29023   1.883   3.024   3.680  0.0740  0.4961 -0.2144
 5796SOL    HW129024   1.821   2.980   3.738  0.5997 -0.6710 -0.5362
 5796SOL    HW229025   1.943   3.065   3.741  0.9208 -1.1107  0.0390
 5797SOL     OW29026   2.474   4.097   6.891  0.1652 -0.9146  0.2517
 5797SOL    HW129027   2.409   4.027   6.892  0.3544 -1.1069 -0.8619
 5797SOL    HW229028   2.406   4.165   6.895 -0.6295 -1.6967  0.0133
 5798SOL     OW29029   3.864   2.171  14.680  0.4099 -0.5499 -0.3428
 5798SOL    HW129030   3.805   2.138  14.613  1.5721 -0.0556 -1.6128
 5798SOL    HW229031   3.828   2.259  14.689  0.1114 -0.6101 -0.9592
 5799SOL     OW29032   1.361   3.462   7.244  0.4837  0.2060 -0.3193
 5799SOL    HW129033   1.429   3.413   7.198  0.0357 -0.0563 -0.7038
 5799SOL    HW229034   1.295   3.506   7.189 -1.1031 -2.2418 -0.3760
 5800SOL     OW29035   4.578   2.971   1.397 -0.1490 -0.4518 -0.0286
 5800SOL    HW129036   4.492   3.012   1.400  0.6666  1.1046  1.8002
 5800SOL    HW229037   4.608   3.009   1.314  0.3438 -0.9433 -0.0768
 5801SOL     OW29038   0.018   3.509   3.997  0.1185 -0.2252 -0.7659
 5801SOL    HW129039   4.696   3.585   4.009 -0.0640 -0.6486  1.0363
 5801SOL    HW229040   0.070   3.503   4.077 -1.4918  0.3065  0.3216
 5802SOL     OW29041   2.429   0.343   1.866 -0.2896  0.0677 -0.3577
 5802SOL    HW129042   2.454   0.422   1.913 -0.7372  0.1862 -0.3252
 5802SOL    HW229043   2.386   0.382   1.791 -0.5176  2.1944  0.8740
 5803SOL     OW29044   0.232   0.424  14.525 -0.4947  0.0790 -0.3414
 5803SOL    HW129045   0.256   0.332  14.515  0.0404  0.0155  1.5611
 5803SOL    HW229046   0.306   0.469  14.485  1.1963 -3.1744 -0.8340
 5804SOL     OW29047   1.459   1.511   8.571 -0.1206 -0.0213 -0.1885
 5804SOL    HW129048   1.520   1.565   8.521 -0.4452  0.7196  0.2185
 5804SOL    HW229049   1.519   1.442   8.600  0.5002 -0.2995 -2.1670
 5805SOL     OW29050   2.347   4.354   4.521  0.2080  0.0758 -0.8957
 5805SOL    HW129051   2.430   4.337   4.477 -0.5828  0.0970 -2.3953
 5805SOL    HW229052   2.368   4.440   4.558  0.2059  0.5986 -2.1335
 5806SOL     OW29053   1.032   2.143  10.546 -0.1874 -0.2865  0.2496
 5806SOL    HW129054   0.993   2.071  10.597 -2.0178  1.3314  1.1480
 5806SOL    HW229055   1.020   2.110  10.457  0.7613  0.1295 -0.0350
 5807SOL     OW29056   1.602   1.895   3.982 -0.0876  0.0706 -0.5642
 5807SOL    HW129057   1.684   1.855   3.952  1.3793  2.9229 -0.3742
 5807SOL    HW229058   1.595   1.966   3.918  3.1084  0.3501 -0.6203
 5808SOL     OW29059   1.033   0.116   1.702  0.0778 -0.2621 -0.2181
 5808SOL    HW129060   1.100   0.052   1.724  0.8041  0.7043  0.3987
 5808SOL    HW229061   0.987   0.136   1.784  2.3322 -0.7503  1.1542
 5809SOL     OW29062   2.562   3.682  11.978  0.0397 -1.2785  0.2271
 5809SOL    HW129063   2.580   3.710  12.068 -3.0642  0.8669  0.1613
 5809SOL    HW229064   2.501   3.752  11.955  1.2839 -0.7508 -1.5232
 5810SOL     OW29065   1.524   3.444  13.539 -0.4505 -0.4331 -0.3205
 5810SOL    HW129066   1.482   3.415  13.458  1.0494 -1.0108 -0.8893
 5810SOL    HW229067   1.446   3.445  13.594 -0.5931 -0.3250 -0.5267
 5811SOL     OW29068   1.942   3.530   8.520 -0.4406  0.0213 -0.3424
 5811SOL    HW129069   2.037   3.519   8.525 -0.2908  2.2491  1.4199
 5811SOL    HW229070   1.918   3.450   8.566 -1.5504  0.6569  0.1842
 5812SOL     OW29071   4.568   0.789   2.605  0.2200 -0.0825  0.0984
 5812SOL    HW129072   4.628   0.822   2.672 -1.3516  2.7984  0.0898
 5812SOL    HW229073   4.580   0.859   2.541  0.6011  0.2787  0.5706
 5813SOL     OW29074   0.226   2.330   7.498  0.1049 -0.6504  0.5410
 5813SOL    HW129075   0.301   2.272   7.508  1.5117  1.2698  0.9736
 5813SOL    HW229076   0.255   2.410   7.539  3.0824 -0.6217 -1.6241
 5814SOL     OW29077   2.709   0.239   4.434 -0.1606 -0.5417  0.5292
 5814SOL    HW129078   2.688   0.172   4.499  0.5223 -0.0248  1.2932
 5814SOL    HW229079   2.630   0.229   4.382  0.4719  0.3440 -0.5950
 5815SOL     OW29080   3.663   1.226   3.475  0.4090  0.0895  0.5097
 5815SOL    HW129081   3.676   1.302   3.419 -3.0112 -1.1064 -1.9371
 5815SOL    HW229082   3.737   1.229   3.535  2.4425  0.0358 -1.9847
 5816SOL     OW29083   2.148   3.492   6.969  1.0503  0.3266  0.1579
 5816SOL    HW129084   2.206   3.521   6.898  1.4567 -1.1775 -0.1275
 5816SOL    HW229085   2.067   3.464   6.928  1.4846 -0.4700 -0.1546
 5817SOL     OW29086   1.982   3.340  13.582  0.0286 -0.0202  0.3661
 5817SOL    HW129087   1.982   3.286  13.661 -0.6518 -1.6564 -0.7606
 5817SOL    HW229088   2.020   3.282  13.517  0.9659  0.1679  0.7398
 5818SOL     OW29089   4.605   0.053   0.921  0.4853  0.0910 -0.2866
 5818SOL    HW129090   4.609   0.147   0.905  1.2833  0.4232  1.8329
 5818SOL    HW229091   4.679   0.017   0.872  0.2132 -0.2406 -0.4525
 5819SOL     OW29092   0.254   2.364   5.198  0.6990 -0.1001  0.1728
 5819SOL    HW129093   0.224   2.274   5.183 -1.0862  0.7604 -1.3513
 5819SOL    HW229094   0.227   2.374   5.290  0.6317  1.3286 -0.0127
 5820SOL     OW29095   4.117   0.203   5.179 -0.0592 -0.4404 -0.0275
 5820SOL    HW129096   4.155   0.278   5.132  0.8141 -0.7516  0.1892
 5820SOL    HW229097   4.169   0.128   5.152 -0.6534 -0.7634 -0.2884
 5821SOL     OW29098   3.838   3.260  11.415  0.1218 -0.3554  0.4927
 5821SOL    HW129099   3.822   3.265  11.321 -0.9170 -0.7510  0.6490
 5821SOL    HW229100   3.880   3.345  11.425  1.3311 -0.8178 -0.7525
 5822SOL     OW29101   1.441   2.312  12.700  0.2647  0.3626 -0.1562
 5822SOL    HW129102   1.422   2.238  12.757 -2.0027  0.7449 -0.4263
 5822SOL    HW229103   1.412   2.285  12.613 -1.2868  0.8477  0.2079
 5823SOL     OW29104   3.008   2.613   7.724 -0.4663  0.5320  0.0157
 5823SOL    HW129105   3.055   2.638   7.803 -1.0537  4.7457 -0.9509
 5823SOL    HW229106   3.031   2.689   7.670  0.4804  0.6314  0.5676
 5824SOL     OW29107   2.376   0.739   4.041 -0.0708  0.1242 -0.2916
 5824SOL    HW129108   2.426   0.663   4.011 -0.7404 -0.8493  1.0947
 5824SOL    HW229109   2.303   0.688   4.076 -0.7924 -0.0217 -1.9966
 5825SOL     OW29110   4.005   0.057  12.626 -0.1165  0.1045  0.5700
 5825SOL    HW129111   4.071   4.730  12.596 -0.9109 -1.0390  1.1787
 5825SOL    HW229112   4.029   0.076  12.717  1.4234  0.1821  0.1379
 5826SOL     OW29113   1.824   1.814   6.524  0.2184  0.3509 -0.5679
 5826SOL    HW129114   1.765   1.868   6.472 -0.7942 -1.1853 -1.0286
 5826SOL    HW229115   1.888   1.882   6.545  0.6457  0.0650 -0.9440
 5827SOL     OW29116   1.573   2.281  15.951  0.1549 -0.6544  0.2742
 5827SOL    HW129117   1.566   2.228  16.030 -2.4723 -1.5508 -0.5608
 5827SOL    HW229118   1.606   2.215  15.891 -1.3520 -0.1599 -1.0752
 5828SOL     OW29119   4.304   1.781   9.501 -0.0245  0.3687 -0.0393
 5828SOL    HW129120   4.397   1.803   9.498 -0.1245  0.8146  0.1852
 5828SOL    HW229121   4.264   1.866   9.516  3.2643  1.9510 -0.2647
 5829SOL     OW29122   1.520   1.612   6.104  0.3828 -0.2237 -0.3187
 5829SOL    HW129123   1.509   1.680   6.038  3.7283 -0.9098 -1.5587
 5829SOL    HW229124   1.435   1.570   6.092  1.3648 -1.8121 -1.6355
 5830SOL     OW29125   4.359   3.717   7.235 -0.1027 -0.2017 -0.2508
 5830SOL    HW129126   4.425   3.783   7.214  0.6852 -0.4808  1.3870
 5830SOL    HW229127   4.299   3.732   7.163 -0.2711  2.0552  0.3882
 5831SOL     OW29128   0.556   1.057   4.822 -0.8332 -0.0984 -0.0305
 5831SOL    HW129129   0.510   0.981   4.787  0.2198 -0.2176 -1.1885
 5831SOL    HW229130   0.493   1.129   4.818 -0.0970  0.5367 -0.2022
 5832SOL     OW29131   1.081   4.141   7.681  0.3009  0.7956  0.3947
 5832SOL    HW129132   0.995   4.118   7.717 -0.2120  0.6465 -0.9203
 5832SOL    HW229133   1.134   4.064   7.700  0.8035  0.5693 -1.8327
 5833SOL     OW29134   3.939   0.576  16.044 -0.1527 -0.3841  0.5565
 5833SOL    HW129135   3.950   0.587  15.950 -2.2491 -1.7620  0.1350
 5833SOL    HW229136   3.996   0.500  16.056  0.9200  0.4993  1.0529
 5834SOL     OW29137   4.470   1.428   5.079  0.0629 -0.1814  0.0133
 5834SOL    HW129138   4.458   1.347   5.030 -3.0638 -0.7064  1.6648
 5834SOL    HW229139   4.478   1.393   5.168 -0.8862 -0.2922  0.0514
 5835SOL     OW29140   3.864   0.873   7.789 -0.1155  0.2850 -0.2502
 5835SOL    HW129141   3.797   0.893   7.723  2.0861 -0.3625 -2.6917
 5835SOL    HW229142   3.825   0.919   7.863  2.0452  3.3583 -1.0059
 5836SOL     OW29143   1.798   2.944   7.051  0.3649 -0.3832 -0.1754
 5836SOL    HW129144   1.881   2.992   7.059 -0.9353  1.6492  0.9223
 5836SOL    HW229145   1.755   3.009   6.996  0.5960  1.4209  1.8261
 5837SOL     OW29146   4.683   1.431   6.076 -0.2376 -0.8267  0.0259
 5837SOL    HW129147   4.691   1.440   5.981 -1.6813 -2.8189 -0.2996
 5837SOL    HW229148   0.037   1.400   6.094 -0.2763 -0.3572  1.0200
 5838SOL     OW29149   0.294   0.658   2.005 -0.2429  0.5511  0.6223
 5838SOL    HW129150   0.316   0.598   1.934  3.6330  2.2200  0.4385
 5838SOL    HW229151   0.199   0.643   2.001 -0.1899  0.3724 -0.0151
 5839SOL     OW29152   0.808   1.909   7.597 -0.3328  0.3096 -0.1884
 5839SOL    HW129153   0.890   1.879   7.635 -0.8231  0.2075  0.7818
 5839SOL    HW229154   0.784   1.974   7.663 -1.7682 -0.4078  0.0003
 5840SOL     OW29155   4.495   4.419   2.522 -0.0921 -0.2417 -0.0323
 5840SOL    HW129156   4.503   4.352   2.454  0.7307  0.5209 -0.6855
 5840SOL    HW229157   4.425   4.379   2.573  1.3555 -1.7062  0.8207
 5841SOL     OW29158   2.674   3.528   8.547  0.1438 -0.2599  0.1137
 5841SOL    HW129159   2.753   3.531   8.602  0.7137 -1.6716 -0.6207
 5841SOL    HW229160   2.608   3.507   8.614 -2.0008 -0.1858 -1.9894
 5842SOL     OW29161   2.809   2.173  11.792  0.7424  0.1872 -1.2277
 5842SOL    HW129162   2.846   2.131  11.715  0.7071 -1.6445 -0.2506
 5842SOL    HW229163   2.718   2.177  11.761 -0.2126 -1.0398  1.3865
 5843SOL     OW29164   1.680   2.939   8.730 -0.5167 -0.4802  0.2040
 5843SOL    HW129165   1.588   2.914   8.721 -1.0952  1.2715  1.1352
 5843SOL    HW229166   1.713   2.982   8.652 -0.4775  0.2625  0.6282
 5844SOL     OW29167   0.118   3.260   8.311  0.3291 -0.1227  0.7100
 5844SOL    HW129168   0.068   3.319   8.367 -1.8062  0.4733 -1.7959
 5844SOL    HW229169   0.051   3.194   8.295  1.8362 -1.2504 -1.0770
 5845SOL     OW29170   4.458   1.762   6.904 -0.1640  0.3462  0.1751
 5845SOL    HW129171   4.447   1.711   6.984  2.5245 -1.5451 -0.6802
 5845SOL    HW229172   4.368   1.761   6.871  0.0772 -0.9710 -0.4251
 5846SOL     OW29173   4.526   1.043   5.990 -0.1481 -0.0893 -0.1232
 5846SOL    HW129174   4.474   1.122   6.004  0.7633  0.5815 -0.5150
 5846SOL    HW229175   4.476   1.010   5.915  1.4072 -1.6402 -0.4794
 5847SOL     OW29176   0.270   4.079   2.619  0.1868 -0.3049  0.3089
 5847SOL    HW129177   0.273   4.023   2.541  0.2617 -0.6326  0.5437
 5847SOL    HW229178   0.320   4.023   2.679 -1.7952 -1.6266  0.7388
 5848SOL     OW29179   1.634   4.260   1.560 -0.6069  0.2733 -0.2879
 5848SOL    HW129180   1.717   4.256   1.606 -0.6133  1.9983 -0.1171
 5848SOL    HW229181   1.635   4.196   1.489  1.7372  0.7326 -0.6476
 5849SOL     OW29182   2.797   2.550   3.302  0.2534 -0.2565  0.1569
 5849SOL    HW129183   2.855   2.592   3.365 -0.8085 -1.0135  1.6341
 5849SOL    HW229184   2.836   2.572   3.217  2.0840  1.5467  1.4698
 5850SOL     OW29185   3.319   3.106   6.758  0.4252  0.5057 -0.2692
 5850SOL    HW129186   3.389   3.042   6.753 -0.5248 -0.4375 -1.2219
 5850SOL    HW229187   3.245   3.062   6.718  1.0679 -1.4073  0.6414
 5851SOL     OW29188   4.356   3.885   0.706  0.0057 -0.3923 -0.4687
 5851SOL    HW129189   4.332   3.960   0.651 -0.1460  0.3991  0.6775
 5851SOL    HW229190   4.283   3.826   0.687 -0.7612 -0.5550  2.9699
 5852SOL     OW29191   0.281   2.758   4.865  0.2213 -0.0445 -0.1666
 5852SOL    HW129192   0.337   2.834   4.878 -0.7468  0.7998 -0.9168
 5852SOL    HW229193   0.242   2.757   4.778 -0.9984  1.6327  0.3772
 5853SOL     OW29194   0.147   3.174   4.401 -0.2880 -0.0872 -0.0299
 5853SOL    HW129195   0.105   3.136   4.323 -1.4426 -0.4834  0.7905
 5853SOL    HW229196   0.173   3.253   4.353  1.0733 -1.7800 -2.0574
 5854SOL     OW29197   3.646   0.448   1.496 -0.0034 -0.5002  0.2128
 5854SOL    HW129198   3.707   0.426   1.425  2.6989 -1.0726  2.6960
 5854SOL    HW229199   3.677   0.533   1.528  1.0356 -2.2238  3.8205
 5855SOL     OW29200   0.958   0.278   3.156 -0.3437  0.5820  0.7928
 5855SOL    HW129201   0.869   0.244   3.141  0.9151 -1.9671 -0.9717
 5855SOL    HW229202   0.978   0.256   3.247  1.9619  2.2304  0.6679
 5856SOL     OW29203   4.113   3.643   5.845  0.4121  0.2219 -0.4632
 5856SOL    HW129204   4.150   3.618   5.760  2.1540 -0.5167  0.5082
 5856SOL    HW229205   4.180   3.615   5.907  0.3237  0.7954 -0.1060
 5857SOL     OW29206   0.609   1.818   5.600 -0.2179 -0.2286 -0.3847
 5857SOL    HW129207   0.521   1.789   5.625  0.1502 -0.6690  0.3611
 5857SOL    HW229208   0.657   1.789   5.677  0.5631 -1.4316 -1.3295
 5858SOL     OW29209   3.736   4.679   2.282  0.2336  0.0928  0.1458
 5858SOL    HW129210   3.665   4.667   2.346  0.7663  0.2005  0.7618
 5858SOL    HW229211   3.785   4.597   2.289 -2.5087 -1.5089  0.7356
 5859SOL     OW29212   2.035   1.078  14.777 -0.0578 -0.0084  0.2381
 5859SOL    HW129213   2.010   1.134  14.703 -1.4629 -1.0434 -0.0813
 5859SOL    HW229214   2.127   1.057  14.762 -0.1536 -0.8179  0.7867
 5860SOL     OW29215   1.765   3.566   8.315 -0.0944 -0.0717  0.0648
 5860SOL    HW129216   1.801   3.535   8.398 -0.4693 -0.2026  0.1797
 5860SOL    HW229217   1.834   3.533   8.257 -1.5550 -0.3315 -1.5134
 5861SOL     OW29218   3.331   1.759   1.055  0.3724 -0.2438  0.0096
 5861SOL    HW129219   3.291   1.830   1.004 -1.5295 -2.0692 -1.0594
 5861SOL    HW229220   3.380   1.810   1.120  0.3929 -0.7769  0.4118
 5862SOL     OW29221   0.436   4.662  15.490  0.7237  0.1747 -0.4640
 5862SOL    HW129222   0.491   4.612  15.430 -1.5085 -3.4450  0.5313
 5862SOL    HW229223   0.503   4.713  15.536  1.2588 -0.6636 -0.3264
 5863SOL     OW29224   4.024   4.732   8.292 -0.4857 -0.7439 -0.0056
 5863SOL    HW129225   3.973   4.662   8.332  0.5657 -2.2684 -1.3350
 5863SOL    HW229226   4.112   4.695   8.296  0.5707  1.8994  1.5620
 5864SOL     OW29227   4.731   3.373  12.912 -0.3475  1.4182  0.4255
 5864SOL    HW129228   4.703   3.417  12.831 -0.7806  1.9338  0.8583
 5864SOL    HW229229   4.665   3.303  12.916  0.7816  0.3734  0.5815
 5865SOL     OW29230   4.168   3.770   7.013 -0.1225  0.0391 -0.1636
 5865SOL    HW129231   4.081   3.801   7.035 -0.7494 -1.3728 -0.6441
 5865SOL    HW229232   4.179   3.810   6.927  2.0019  0.1312  0.1405
 5866SOL     OW29233   1.712   0.938   5.844  0.1695 -0.3690  0.3764
 5866SOL    HW129234   1.747   1.024   5.822 -1.3904  0.3927  0.8338
 5866SOL    HW229235   1.627   0.955   5.884 -0.1853  0.8045 -0.8514
 5867SOL     OW29236   3.100   3.730  14.760  0.3631  0.7951 -0.0859
 5867SOL    HW129237   3.099   3.650  14.709 -2.3806  0.9600 -0.2593
 5867SOL    HW229238   3.185   3.768  14.737 -0.0805  1.2386 -0.9930
 5868SOL     OW29239   0.506   3.699   5.768  0.1822 -0.2329 -0.2178
 5868SOL    HW129240   0.554   3.675   5.847  1.3416 -0.3196 -0.9369
 5868SOL    HW229241   0.538   3.789   5.756  2.5988 -0.9064  1.2331
 5869SOL     OW29242   0.412   2.671   2.198  0.0960 -0.1303  0.2494
 5869SOL    HW129243   0.475   2.599   2.204  0.7913  0.5390  0.9061
 5869SOL    HW229244   0.462   2.742   2.158 -2.2735  0.6722 -1.2957
 5870SOL     OW29245   0.421   3.401   3.987  0.5851 -0.3411 -0.1613
 5870SOL    HW129246   0.444   3.484   3.947 -0.5469 -1.3140 -2.8565
 5870SOL    HW229247   0.475   3.401   4.066  0.3105  2.6665  0.0246
 5871SOL     OW29248   0.095   1.983  10.638  0.3277  0.3172  0.3398
 5871SOL    HW129249   0.086   1.934  10.557 -1.0799  0.4386  0.4125
 5871SOL    HW229250   0.008   2.019  10.657 -0.2730  0.1415 -2.0816
 5872SOL     OW29251   0.302   2.381  11.669 -0.1987 -0.3163  0.1473
 5872SOL    HW129252   0.246   2.309  11.696 -0.1822 -0.4862 -0.2701
 5872SOL    HW229253   0.361   2.365  11.743  0.0304 -2.2910 -0.4776
 5873SOL     OW29254   2.888   0.482  12.519  1.0281 -0.3799  0.1411
 5873SOL    HW129255   2.819   0.438  12.568 -0.5847  1.0128 -0.8923
 5873SOL    HW229256   2.854   0.476  12.430  0.3414 -2.0245  0.5207
 5874SOL     OW29257   0.450   0.675  10.728  0.1881  0.5961 -0.2355
 5874SOL    HW129258   0.449   0.770  10.734 -0.3289  0.3793  3.1096
 5874SOL    HW229259   0.397   0.657  10.806 -0.3123  0.4931 -0.6030
 5875SOL     OW29260   3.597   0.744  15.156 -0.0572  0.4870  0.1619
 5875SOL    HW129261   3.508   0.712  15.140  0.7751 -0.5217 -2.5355
 5875SOL    HW229262   3.628   0.697  15.233  1.4495  0.9291 -0.1745
 5876SOL     OW29263   1.642   0.296   2.782 -0.0626 -0.1365 -0.0351
 5876SOL    HW129264   1.579   0.346   2.729  0.7307  0.0839 -0.7677
 5876SOL    HW229265   1.716   0.353   2.802  0.6679 -0.8886 -0.5776
 5877SOL     OW29266   3.246   0.323   2.754  0.3503 -0.5285  0.0446
 5877SOL    HW129267   3.314   0.261   2.728  0.2548 -0.5175 -0.2276
 5877SOL    HW229268   3.297   0.387   2.804 -1.2740 -0.2853  1.4112
 5878SOL     OW29269   1.941   0.823  14.868  0.8203 -1.1308  0.3445
 5878SOL    HW129270   1.913   0.907  14.833 -0.6388 -0.2014  3.7932
 5878SOL    HW229271   1.969   0.838  14.958  1.0035  0.6614 -0.0208
 5879SOL     OW29272   0.188   0.845   6.643 -0.5450 -0.3990  0.5533
 5879SOL    HW129273   0.143   0.769   6.608 -0.9396 -0.3482  0.9587
 5879SOL    HW229274   0.110   0.890   6.676  0.1634  1.0984  0.2089
 5880SOL     OW29275   2.598   4.633   9.194  0.0091 -0.1529  0.2534
 5880SOL    HW129276   2.512   4.606   9.163 -1.0078  3.7171 -0.2262
 5880SOL    HW229277   2.645   4.584   9.126  0.2824  0.5821 -0.0860
 5881SOL     OW29278   1.136   2.229  17.259 -0.2815  0.2807 -0.6075
 5881SOL    HW129279   1.056   2.205  17.306 -0.2250  0.2544 -0.5245
 5881SOL    HW229280   1.112   2.313  17.219 -2.1846  0.5286  1.0243
 5882SOL     OW29281   1.307   1.116   2.689  0.0411 -0.3979 -0.2693
 5882SOL    HW129282   1.247   1.053   2.730 -0.8040  0.6471  0.1240
 5882SOL    HW229283   1.382   1.071   2.728  0.1077 -0.2228 -0.1979
 5883SOL     OW29284   1.591   4.712   6.256 -0.2334 -0.3437  0.0060
 5883SOL    HW129285   1.520   4.723   6.193  0.7681 -0.8063 -1.2076
 5883SOL    HW229286   1.548   4.720   6.341 -2.8980 -2.3823 -1.1779
 5884SOL     OW29287   3.718   4.366   5.625 -0.1611 -0.0333  0.4568
 5884SOL    HW129288   3.671   4.394   5.704  0.0451  1.5981 -0.0174
 5884SOL    HW229289   3.759   4.450   5.606  1.0411 -1.0288 -1.3082
 5885SOL     OW29290   0.968   2.452   4.653  0.0549  0.0267 -0.0963
 5885SOL    HW129291   0.957   2.526   4.593  1.5584  0.2624 -0.0897
 5885SOL    HW229292   1.037   2.408   4.603  1.0633  2.4675 -0.8591
 5886SOL     OW29293   2.277   2.837   4.965  0.5883 -0.3155 -0.3233
 5886SOL    HW129294   2.217   2.908   4.990  0.2059 -1.1217  1.0524
 5886SOL    HW229295   2.363   2.879   4.961 -1.2463  3.6001  1.3391
 5887SOL     OW29296   2.268   2.983   6.727  0.2220 -0.7145  0.1455
 5887SOL    HW129297   2.236   2.915   6.668 -0.3843  1.8282 -2.4420
 5887SOL    HW229298   2.273   2.938   6.811 -1.4854  1.9617  1.7086
 5888SOL     OW29299   2.358   4.568   9.072 -0.2669 -0.3180  0.1066
 5888SOL    HW129300   2.370   4.606   8.985 -1.4057 -1.3470 -0.5083
 5888SOL    HW229301   2.263   4.560   9.076 -0.4291  0.9093 -1.0759
 5889SOL     OW29302   0.647   0.512   6.871  0.2112  0.3680 -0.6163
 5889SOL    HW129303   0.676   0.580   6.810  2.1642  1.0201  1.0679
 5889SOL    HW229304   0.567   0.550   6.907  0.0570 -0.9369  0.4266
 5890SOL     OW29305   1.621   0.229   5.620 -0.9006 -0.5372  0.6694
 5890SOL    HW129306   1.545   0.273   5.658 -0.4193  0.8159  0.0426
 5890SOL    HW229307   1.598   0.136   5.619 -1.5057 -0.3750 -0.2882
 5891SOL     OW29308   2.650   3.526  17.425 -0.4289 -0.4238  0.0283
 5891SOL    HW129309   2.610   3.579  17.494  1.6837  1.7860 -0.4234
 5891SOL    HW229310   2.570   3.481  17.400 -0.4909  1.0114 -2.3698
 5892SOL     OW29311   2.466   4.664   8.385 -0.3188 -0.2808 -0.6731
 5892SOL    HW129312   2.450   4.573   8.412 -1.4502  0.5781  1.5314
 5892SOL    HW229313   2.560   4.661   8.371 -0.3835  2.8205 -1.9204
 5893SOL     OW29314   1.465   4.442   6.953 -0.2810 -0.3119 -0.0907
 5893SOL    HW129315   1.482   4.531   6.982  0.7911 -0.0062 -1.6537
 5893SOL    HW229316   1.448   4.388   7.031  1.5826  0.7287  1.0494
 5894SOL     OW29317   4.525   0.094   3.434 -0.0650 -0.3382  0.3514
 5894SOL    HW129318   4.499   0.116   3.345 -1.0024 -2.1644  0.1712
 5894SOL    HW229319   4.541   0.002   3.414  2.1841  0.1903 -0.2619
 5895SOL     OW29320   2.206   4.358   0.401 -0.1547  0.0452 -0.1502
 5895SOL    HW129321   2.156   4.337   0.481 -1.8637 -0.2348 -1.2993
 5895SOL    HW229322   2.295   4.350   0.435  0.4774 -0.1760 -1.8695
 5896SOL     OW29323   3.801   0.770   3.336 -0.1509 -0.1366 -0.2988
 5896SOL    HW129324   3.870   0.737   3.279 -0.4568 -0.1620 -0.6642
 5896SOL    HW229325   3.833   0.858   3.355 -0.2390  0.1204 -1.3162
 5897SOL     OW29326   0.337   1.696  17.288 -0.3287 -0.2207  0.1671
 5897SOL    HW129327   0.408   1.650  17.332  0.5352  0.0250 -0.9546
 5897SOL    HW229328   0.374   1.774  17.246 -0.2779 -1.2586 -1.7188
 5898SOL     OW29329   0.092   1.788   1.834 -0.0837 -0.3767  0.0459
 5898SOL    HW129330   0.008   1.832   1.821 -0.1337 -0.1523  1.0838
 5898SOL    HW229331   0.152   1.863   1.835 -0.4259 -0.1256  1.4341
 5899SOL     OW29332   0.081   2.942   5.720 -0.3642  0.1331 -0.3212
 5899SOL    HW129333   0.021   3.001   5.673 -0.9421 -1.4255 -1.5402
 5899SOL    HW229334   0.019   2.895   5.776 -2.5995  2.5728 -0.7433
 5900SOL     OW29335   4.673   2.561  12.945  0.1801  0.3213  0.2560
 5900SOL    HW129336   4.617   2.499  12.992  1.1184  0.6732  1.8347
 5900SOL    HW229337   4.677   2.634  13.006  1.0185  1.9132 -1.7183
 5901SOL     OW29338   4.587   0.884   8.220 -0.1481 -0.0628  0.4384
 5901SOL    HW129339   4.538   0.841   8.150 -0.7655  1.4675 -0.0746
 5901SOL    HW229340   4.597   0.813   8.284  0.9721  0.0677  0.4160
 5902SOL     OW29341   4.267   1.851  13.163 -0.4646  0.4302 -0.1772
 5902SOL    HW129342   4.187   1.902  13.149 -1.0997 -0.3200  0.7010
 5902SOL    HW229343   4.297   1.905  13.236 -1.6786  1.0820 -0.1507
 5903SOL     OW29344   2.982   2.420   4.028 -0.4560  0.3104 -0.2843
 5903SOL    HW129345   2.922   2.436   3.955  1.0751  1.8594 -1.2113
 5903SOL    HW229346   2.912   2.392   4.087 -1.1422 -0.9270 -1.6909
 5904SOL     OW29347   1.306   2.114   4.167  0.4812  0.6733  0.3301
 5904SOL    HW129348   1.335   2.023   4.158 -1.5355  0.0182  0.4193
 5904SOL    HW229349   1.213   2.124   4.148 -0.1184 -1.0516  2.4066
 5905SOL     OW29350   4.060   2.487  16.814  0.4999  0.0135  0.0178
 5905SOL    HW129351   3.995   2.549  16.782  0.9982 -0.3249 -1.6299
 5905SOL    HW229352   4.036   2.481  16.907 -0.6335  1.7132 -0.1597
 5906SOL     OW29353   4.489   3.718   6.202 -0.3902  0.4341 -0.3187
 5906SOL    HW129354   4.545   3.780   6.248 -0.0088 -0.1014 -0.0701
 5906SOL    HW229355   4.551   3.665   6.153  1.1805  0.4058  1.7026
 5907SOL     OW29356   4.504   2.133   3.068 -0.7671 -0.4954  0.4335
 5907SOL    HW129357   4.544   2.046   3.070 -0.6518 -0.4469  0.1977
 5907SOL    HW229358   4.464   2.137   2.982 -0.0636  0.5640  0.1492
 5908SOL     OW29359   4.187   0.365   4.346  0.5234 -0.2037 -0.2809
 5908SOL    HW129360   4.147   0.294   4.396  2.0395 -0.9544 -0.1543
 5908SOL    HW229361   4.172   0.338   4.255 -1.4034  0.9440 -0.3091
 5909SOL     OW29362   2.355   0.869  17.448 -0.1713 -0.4040 -0.3056
 5909SOL    HW129363   2.306   0.822  17.380 -0.2848 -1.1670  0.3072
 5909SOL    HW229364   2.376   0.944  17.392 -0.5574 -0.2607 -0.2563
 5910SOL     OW29365   4.089   1.396   4.284  0.0996 -0.5508  0.5618
 5910SOL    HW129366   4.071   1.490   4.274 -3.6084 -1.1169  1.7280
 5910SOL    HW229367   4.030   1.375   4.356 -0.2805 -0.9132  0.1426
 5911SOL     OW29368   4.491   1.995   7.789 -0.2240 -0.0290  0.4153
 5911SOL    HW129369   4.503   1.970   7.698 -1.6044 -0.3905  0.3231
 5911SOL    HW229370   4.480   1.908   7.826  1.5250 -1.3464 -2.1983
 5912SOL     OW29371   1.553   3.485  10.790 -0.3421  0.0979  0.8914
 5912SOL    HW129372   1.571   3.395  10.764 -1.7941  0.2548 -0.6172
 5912SOL    HW229373   1.638   3.528  10.799  0.3397 -1.3239  1.3128
 5913SOL     OW29374   1.244   2.948   5.427  0.1888 -0.0258  0.1400
 5913SOL    HW129375   1.205   2.869   5.390  2.6231 -1.5663  0.8533
 5913SOL    HW229376   1.332   2.947   5.390  0.6650 -0.4997  1.2897
 5914SOL     OW29377   4.120   4.197   5.144 -0.1645 -0.4472  0.0937
 5914SOL    HW129378   4.127   4.269   5.083 -2.1527  1.2975  1.9317
 5914SOL    HW229379   4.053   4.234   5.201  0.3761  0.1674  0.3220
 5915SOL     OW29380   0.607   4.330   9.029  0.1606  0.6320  0.1129
 5915SOL    HW129381   0.676   4.395   9.039  0.0591  0.7637 -0.0363
 5915SOL    HW229382   0.654   4.256   8.991  0.1595  0.4208  0.5164
 5916SOL     OW29383   4.485   3.411  14.301 -0.0254 -0.1479  0.0082
 5916SOL    HW129384   4.405   3.450  14.268  0.2605  1.2858  1.0029
 5916SOL    HW229385   4.461   3.319  14.309 -0.0452 -0.0799  0.8101
 5917SOL     OW29386   2.411   4.274   9.080  0.1649 -0.5303 -0.7508
 5917SOL    HW129387   2.398   4.242   9.169 -0.6406  1.9269  0.0144
 5917SOL    HW229388   2.385   4.364   9.101 -1.6213 -0.9527 -1.1813
 5918SOL     OW29389   2.017   4.074  12.007  0.2988 -0.2607  0.1571
 5918SOL    HW129390   2.100   4.108  12.040 -0.2802  0.9462  0.3772
 5918SOL    HW229391   1.957   4.142  12.039 -1.3580 -0.9463 -1.5123
 5919SOL     OW29392   1.769   3.739   6.164  0.4845 -0.3249  0.0795
 5919SOL    HW129393   1.820   3.696   6.095 -0.6835  2.8125 -2.7827
 5919SOL    HW229394   1.714   3.798   6.111 -1.7937 -1.8407  0.7573
 5920SOL     OW29395   3.753   3.277  15.228  0.2166 -0.3158  0.4655
 5920SOL    HW129396   3.797   3.361  15.233  0.0240 -0.1099 -1.6648
 5920SOL    HW229397   3.694   3.279  15.304  0.7898 -1.1984  0.9301
 5921SOL     OW29398   1.303   4.481   8.293 -0.2811 -0.0782 -0.0337
 5921SOL    HW129399   1.363   4.414   8.263  0.7513  0.3944  0.9707
 5921SOL    HW229400   1.359   4.541   8.342 -1.3850 -0.6504  1.9479
 5922SOL     OW29401   1.618   0.543   2.650  0.0484  0.8011 -0.3274
 5922SOL    HW129402   1.587   0.540   2.559  1.1267  0.0912 -0.6720
 5922SOL    HW229403   1.676   0.619   2.648  0.4643  0.4986  0.3686
 5923SOL     OW29404   3.606   1.859   3.564  0.5286 -0.5011  0.8109
 5923SOL    HW129405   3.615   1.764   3.571  2.4940 -0.4497 -1.0149
 5923SOL    HW229406   3.612   1.875   3.659 -0.3605  2.4178  0.3865
 5924SOL     OW29407   2.696   1.167   0.776 -0.0896 -0.8259  0.1607
 5924SOL    HW129408   2.770   1.128   0.728  0.2754 -1.1683  1.0074
 5924SOL    HW229409   2.732   1.184   0.863  2.2033 -1.0216 -0.7544
 5925SOL     OW29410   3.315   2.299  11.992 -0.2301  0.2580  0.0863
 5925SOL    HW129411   3.325   2.370  12.056  0.7333  0.1433  0.0596
 5925SOL    HW229412   3.301   2.351  11.913 -2.4063  0.5159  0.6274
 5926SOL     OW29413   3.954   1.940   5.686 -0.4513  0.4618  0.5975
 5926SOL    HW129414   3.941   1.861   5.634 -0.2799 -0.5177  2.0187
 5926SOL    HW229415   3.907   1.906   5.763 -2.2068  0.2749 -0.5564
 5927SOL     OW29416   2.089   4.590   9.069  0.3400  0.3415 -0.3277
 5927SOL    HW129417   2.031   4.587   9.145 -1.3932  2.9045 -1.5379
 5927SOL    HW229418   2.062   4.664   9.014  1.2290 -1.1071 -2.7350
 5928SOL     OW29419   2.597   3.446   8.061  0.1681 -0.4625  0.2982
 5928SOL    HW129420   2.678   3.439   8.111 -0.1401  2.3980  1.1787
 5928SOL    HW229421   2.533   3.470   8.127 -1.5079 -1.6390 -0.9032
 5929SOL     OW29422   0.053   2.677  11.303 -0.1202  0.0260  0.9722
 5929SOL    HW129423   0.013   2.666  11.389  1.7456  0.9672  1.9737
 5929SOL    HW229424   0.124   2.736  11.330  0.9693 -0.8041 -0.0579
 5930SOL     OW29425   2.598   3.876   9.042  0.4060  0.0719 -0.4715
 5930SOL    HW129426   2.582   3.949   8.982  0.9015 -0.1719 -0.9008
 5930SOL    HW229427   2.690   3.889   9.066 -0.6577  0.1169  3.5414
 5931SOL     OW29428   2.731   0.898   3.365  0.7037  0.1322  0.5304
 5931SOL    HW129429   2.724   0.825   3.304  0.8375  0.1366  0.5116
 5931SOL    HW229430   2.718   0.845   3.443  0.2230 -0.5847 -0.0268
 5932SOL     OW29431   1.997   0.258   4.592  0.3501  0.9086 -0.3294
 5932SOL    HW129432   2.030   0.214   4.670  0.2608  1.4095 -0.0101
 5932SOL    HW229433   1.964   0.341   4.626  0.3124  0.2331  1.2780
 5933SOL     OW29434   1.656   2.234   4.355  0.6358 -0.0803 -0.5490
 5933SOL    HW129435   1.617   2.158   4.312 -0.7226 -1.1747  2.6107
 5933SOL    HW229436   1.576   2.279   4.383  0.1547  0.0222 -2.0822
 5934SOL     OW29437   4.061   4.026   3.615  0.1435  0.0484 -0.4892
 5934SOL    HW129438   4.152   4.030   3.587  1.2878 -1.4635  3.0134
 5934SOL    HW229439   4.057   3.936   3.583 -0.0196  0.0407 -0.4478
 5935SOL     OW29440   3.454   1.167   7.957  0.2938  0.1443 -0.0180
 5935SOL    HW129441   3.507   1.206   7.888 -0.9399  1.3009 -0.3148
 5935SOL    HW229442   3.407   1.247   7.980  0.5860  0.1478  0.5785
 5936SOL     OW29443   0.021   3.030  11.048 -0.9728 -0.5369  0.1353
 5936SOL    HW129444   4.726   2.956  11.102  2.2727 -1.1006  1.1666
 5936SOL    HW229445   0.019   2.980  10.966  4.0379  0.0308 -0.3468
 5937SOL     OW29446   3.786   2.542  10.011  0.0632 -0.0502  0.5618
 5937SOL    HW129447   3.804   2.635  10.025  2.5724 -0.3807 -0.5063
 5937SOL    HW229448   3.696   2.562   9.987 -0.2015 -0.5020  1.1732
 5938SOL     OW29449   1.046   2.299   5.140 -0.0025 -0.4239  0.1768
 5938SOL    HW129450   1.135   2.263   5.143  0.5989  0.8640 -2.5577
 5938SOL    HW229451   1.024   2.303   5.047 -2.6215  3.5239  0.9704
 5939SOL     OW29452   4.005   0.821   8.956  0.0210 -0.2240  0.3656
 5939SOL    HW129453   4.051   0.737   8.959  2.2437  0.9892  0.1190
 5939SOL    HW229454   4.055   0.881   8.901  2.2603  0.0491  2.6936
 5940SOL     OW29455   0.958   2.293  10.770  0.1004  0.0174  0.0058
 5940SOL    HW129456   1.000   2.264  10.689 -0.2374  0.1788 -0.2282
 5940SOL    HW229457   1.039   2.326  10.809  0.2131  3.6268 -3.2373
 5941SOL     OW29458   2.212   4.390   7.582 -0.0975 -0.0605 -0.4113
 5941SOL    HW129459   2.173   4.371   7.667 -0.4868 -0.9203 -0.7732
 5941SOL    HW229460   2.254   4.474   7.598  0.4505 -0.4255  0.0579
 5942SOL     OW29461   2.460   0.866   4.879 -0.2816  0.4730  0.3563
 5942SOL    HW129462   2.519   0.823   4.817 -0.6406  0.6839 -0.1323
 5942SOL    HW229463   2.377   0.820   4.865 -0.3712  0.7594 -0.0439
 5943SOL     OW29464   1.130   1.725  14.597  0.1076 -0.6056 -0.2646
 5943SOL    HW129465   1.070   1.671  14.648  2.1521 -0.0472  2.7571
 5943SOL    HW229466   1.067   1.792  14.572 -1.4766 -1.5325  1.2846
 5944SOL     OW29467   3.048   4.437   4.128  0.2065 -0.4441  0.3702
 5944SOL    HW129468   3.134   4.447   4.089  0.6773 -4.9176  0.2395
 5944SOL    HW229469   2.986   4.467   4.061  1.7065 -0.9121 -1.2096
 5945SOL     OW29470   3.064   4.241   9.212 -0.1102  0.4508  0.3354
 5945SOL    HW129471   2.981   4.195   9.208 -0.2792  0.9806 -2.0268
 5945SOL    HW229472   3.109   4.192   9.281  0.6209 -0.0150 -0.4688
 5946SOL     OW29473   3.912   4.299   6.863  0.1837 -0.5228  0.2778
 5946SOL    HW129474   3.884   4.208   6.876 -2.3262  0.3603  1.1263
 5946SOL    HW229475   3.894   4.329   6.952  0.4643  1.8206 -0.4514
 5947SOL     OW29476   2.473   4.100   7.910  0.4413  0.2029 -0.5889
 5947SOL    HW129477   2.561   4.131   7.931  1.9241 -2.9086 -2.0955
 5947SOL    HW229478   2.430   4.185   7.898 -0.5967  0.0774  2.2451
 5948SOL     OW29479   0.186   3.372   5.155  0.0773 -0.4269  0.3655
 5948SOL    HW129480   0.148   3.353   5.069 -1.2624  0.5413  0.7462
 5948SOL    HW229481   0.126   3.338   5.222 -1.2154 -1.5131 -1.3486
 5949SOL     OW29482   0.730   2.762  16.206 -0.2026 -0.1887  0.0775
 5949SOL    HW129483   0.652   2.816  16.212 -0.9853 -1.4363  1.2459
 5949SOL    HW229484   0.726   2.720  16.120  1.6577 -0.0165 -0.0920
 5950SOL     OW29485   2.663   4.132  16.015 -0.6572  0.1646  0.2472
 5950SOL    HW129486   2.681   4.160  16.105  1.9913 -1.8027  0.3484
 5950SOL    HW229487   2.728   4.062  16.004 -0.2467  0.3409  1.4944
 5951SOL     OW29488   0.615   3.190   3.860  0.0559  0.1362 -0.2199
 5951SOL    HW129489   0.699   3.203   3.817  0.5207 -0.0929  0.6271
 5951SOL    HW229490   0.584   3.280   3.862  0.4177  0.3220 -3.5121
 5952SOL     OW29491   2.501   4.544   4.874  0.2926 -0.4890 -0.1073
 5952SOL    HW129492   2.460   4.559   4.959  3.3964 -0.3279  1.3627
 5952SOL    HW229493   2.591   4.576   4.882  0.5798 -1.5804  1.0611
 5953SOL     OW29494   2.224   2.839  10.082  0.1300 -0.7153 -0.2249
 5953SOL    HW129495   2.240   2.851   9.988 -0.3508 -0.5365 -0.2845
 5953SOL    HW229496   2.226   2.743  10.086  1.0616 -0.7239 -0.6867
 5954SOL     OW29497   2.982   0.687   3.569 -0.1384 -0.0719  0.3864
 5954SOL    HW129498   3.043   0.745   3.525  2.5537 -3.1215  0.0753
 5954SOL    HW229499   3.033   0.646   3.639 -0.2137  0.4783  0.7663
 5955SOL     OW29500   0.250   2.482   4.085 -0.2078 -0.4999 -0.2499
 5955SOL    HW129501   0.176   2.489   4.025  0.5392  0.6354 -1.0544
 5955SOL    HW229502   0.207   2.460   4.167 -0.3538 -0.7986 -0.4062
 5956SOL     OW29503   0.547   3.654  11.014 -0.2429 -0.5418  0.1072
 5956SOL    HW129504   0.549   3.561  10.992  0.1926 -0.2925 -0.9242
 5956SOL    HW229505   0.585   3.698  10.938  0.4906 -0.1628  0.6913
 5957SOL     OW29506   1.367   1.748   5.686  0.1048 -0.2406 -0.7221
 5957SOL    HW129507   1.434   1.680   5.684  0.8464  0.5179 -1.4735
 5957SOL    HW229508   1.318   1.738   5.605 -0.4027 -0.7377 -0.3630
 5958SOL     OW29509   4.581   0.215   5.761 -0.3585  0.3664  0.1752
 5958SOL    HW129510   4.602   0.308   5.752 -0.4327  0.3666 -0.0018
 5958SOL    HW229511   4.616   0.197   5.848  0.8453 -0.2942 -0.4429
 5959SOL     OW29512   2.677   2.521  11.776  0.2967  0.1232 -0.1323
 5959SOL    HW129513   2.723   2.501  11.695 -0.0610  2.1357 -0.8301
 5959SOL    HW229514   2.737   2.587  11.810  0.9204 -0.9027  0.7499
 5960SOL     OW29515   1.167   2.845   1.868  0.3284  0.1578  0.4501
 5960SOL    HW129516   1.137   2.817   1.955 -0.0853 -3.5585 -0.8839
 5960SOL    HW229517   1.162   2.759   1.826  2.6444 -0.5063  1.5261
 5961SOL     OW29518   2.316   0.237   0.723 -0.0712  0.1209  0.1443
 5961SOL    HW129519   2.295   0.239   0.817 -0.2750 -3.7638  0.1958
 5961SOL    HW229520   2.412   0.229   0.718 -0.3545 -2.4213 -0.8140
 5962SOL     OW29521   3.395   2.581   8.356 -0.6106  0.3009  0.8964
 5962SOL    HW129522   3.460   2.621   8.299 -2.4669 -2.2535 -2.9548
 5962SOL    HW229523   3.329   2.554   8.293  0.2846  2.9921 -1.1669
 5963SOL     OW29524   4.129   1.010  10.867 -0.0460  0.0405 -0.3673
 5963SOL    HW129525   4.178   1.091  10.881  0.3900 -0.4422  0.9291
 5963SOL    HW229526   4.039   1.028  10.890 -0.2299 -0.9918 -0.2665
 5964SOL     OW29527   0.792   1.082   1.097 -0.7419  0.6131  0.2145
 5964SOL    HW129528   0.731   1.155   1.082 -1.8154 -0.2650  0.3618
 5964SOL    HW229529   0.737   1.007   1.119  0.9911 -0.5373  0.5724
 5965SOL     OW29530   2.126   1.196  13.847 -0.0204 -0.3701 -0.4504
 5965SOL    HW129531   2.138   1.272  13.904  0.1652  0.4832 -1.6359
 5965SOL    HW229532   2.179   1.132  13.894 -0.6765 -0.0677  0.7106
 5966SOL     OW29533   3.166   1.894  17.625  0.1731 -0.7698  0.9222
 5966SOL    HW129534   3.085   1.933  17.658  1.6805  2.3509  0.9760
 5966SOL    HW229535   3.143   1.801  17.625 -0.0517 -0.7172  1.8063
 5967SOL     OW29536   1.030   0.814  12.949 -0.3539 -0.1673 -0.3862
 5967SOL    HW129537   1.083   0.862  13.013 -2.1493  0.8885  0.3083
 5967SOL    HW229538   1.084   0.735  12.946  0.7825  0.6050 -0.2538
 5968SOL     OW29539   1.378   2.428   3.303 -0.0008  0.0680  0.1391
 5968SOL    HW129540   1.439   2.436   3.230  0.2826 -1.6626  0.1739
 5968SOL    HW229541   1.333   2.344   3.295  1.5878 -0.7300 -0.5229
 5969SOL     OW29542   2.345   4.093  15.680  0.0887 -0.2277 -0.0503
 5969SOL    HW129543   2.349   4.068  15.587  0.6977  0.9874 -0.3557
 5969SOL    HW229544   2.414   4.035  15.713  1.3613  0.1963 -1.9733
 5970SOL     OW29545   3.920   0.873   7.360 -0.5292  0.3898 -0.1667
 5970SOL    HW129546   3.857   0.844   7.294 -1.1007  0.5486  0.3040
 5970SOL    HW229547   3.872   0.951   7.388 -2.9071 -1.0370 -0.2500
 5971SOL     OW29548   0.181   1.871   0.484 -0.2080  0.0200  0.1715
 5971SOL    HW129549   0.240   1.850   0.413 -0.4707 -0.9914  0.2557
 5971SOL    HW229550   0.210   1.809   0.550  3.1418  2.3732  0.9151
 5972SOL     OW29551   0.430   1.881   7.902  0.1181 -0.4904  0.2080
 5972SOL    HW129552   0.395   1.892   7.990 -3.8780 -2.6566 -1.0621
 5972SOL    HW229553   0.440   1.972   7.874  0.3518 -0.5295  0.1608
 5973SOL     OW29554   4.379   1.929  12.623 -0.2908  0.1988 -0.8461
 5973SOL    HW129555   4.362   2.000  12.685 -1.0351 -0.7349  0.0042
 5973SOL    HW229556   4.433   1.963  12.551 -0.4429  1.6112 -0.2990
 5974SOL     OW29557   3.275   2.311  15.965  0.0907 -0.0624  0.0809
 5974SOL    HW129558   3.257   2.307  16.059  2.6702  0.4627  0.5944
 5974SOL    HW229559   3.316   2.396  15.946  1.4377 -0.7497 -0.0815
 5975SOL     OW29560   1.193   3.127   5.048  0.5985  0.1757 -0.5164
 5975SOL    HW129561   1.228   3.038   5.056 -3.0266 -1.1957  0.0233
 5975SOL    HW229562   1.215   3.147   4.957 -0.6387  1.3330 -0.5592
 5976SOL     OW29563   0.876   4.038   5.230  0.2301  0.3315 -0.0076
 5976SOL    HW129564   0.870   4.118   5.178 -0.8730  0.9953  1.1469
 5976SOL    HW229565   0.929   3.982   5.173  2.2342  1.5290  0.6745
 5977SOL     OW29566   1.922   4.717   3.466 -0.2776  0.3999 -0.5434
 5977SOL    HW129567   2.007   0.026   3.471  0.4275 -0.9470 -0.5695
 5977SOL    HW229568   1.951   4.628   3.445 -1.1128 -0.3562  1.4495
 5978SOL     OW29569   4.403   4.453  11.325 -0.6382 -0.1631 -0.2277
 5978SOL    HW129570   4.494   4.469  11.351 -0.2278 -0.6369 -1.3754
 5978SOL    HW229571   4.372   4.543  11.320 -0.4499 -0.1800 -1.7476
 5979SOL     OW29572   2.591   2.708  17.545 -0.0892 -0.2591  0.7186
 5979SOL    HW129573   2.666   2.734  17.493 -1.2834  1.5873 -0.0822
 5979SOL    HW229574   2.627   2.657  17.618 -0.6024 -1.4763  0.1154
 5980SOL     OW29575   1.143   0.390   7.724 -0.2706 -0.4851 -0.0176
 5980SOL    HW129576   1.194   0.384   7.643  0.5581  2.0861  0.3103
 5980SOL    HW229577   1.065   0.437   7.696 -0.1994 -0.0438  0.5124
 5981SOL     OW29578   3.465   2.199   4.044 -1.2294  0.6576 -0.3357
 5981SOL    HW129579   3.471   2.112   4.083  1.9591  0.3560 -1.4932
 5981SOL    HW229580   3.477   2.241   4.129  0.9799  0.1814 -0.4196
 5982SOL     OW29581   2.557   4.708   5.493 -0.2199 -0.4082 -0.0291
 5982SOL    HW129582   2.585   4.634   5.439 -1.7578 -0.5821 -0.5954
 5982SOL    HW229583   2.545   0.024   5.412 -0.2683  0.0435  0.2612
 5983SOL     OW29584   4.613   4.500   4.946 -0.0674  0.2137  0.3628
 5983SOL    HW129585   4.643   4.412   4.967 -1.6620 -0.4550 -0.2008
 5983SOL    HW229586   4.607   4.547   5.029 -1.7938 -0.1467  0.4423
 5984SOL     OW29587   1.813   2.654   6.398 -0.2409  0.1464 -0.1588
 5984SOL    HW129588   1.738   2.653   6.458  1.7646 -1.1403  2.3533
 5984SOL    HW229589   1.851   2.574   6.433  0.0232  1.0749  1.7038
 5985SOL     OW29590   0.182   2.886  12.082 -0.0030 -0.3111  0.1166
 5985SOL    HW129591   0.211   2.977  12.083  1.0197 -0.6463  1.2242
 5985SOL    HW229592   0.108   2.885  12.143  1.6133  0.5077  2.1170
 5986SOL     OW29593   1.163   4.416  14.929 -0.3814 -0.0795 -0.0776
 5986SOL    HW129594   1.126   4.436  15.014 -0.1524  0.2389 -0.0531
 5986SOL    HW229595   1.146   4.321  14.926 -1.6508  0.1005  1.3625
 5987SOL     OW29596   0.933   1.229  12.290  0.3854 -0.2297  0.3909
 5987SOL    HW129597   0.952   1.154  12.234  0.7083  0.5148 -0.5071
 5987SOL    HW229598   0.837   1.235  12.282  0.1803 -1.3159  1.9787
 5988SOL     OW29599   3.178   0.265   5.955 -0.3386  0.0678  0.0035
 5988SOL    HW129600   3.182   0.177   5.917  1.2882  0.4716 -0.7663
 5988SOL    HW229601   3.082   0.270   5.963 -0.0321 -1.4604  4.3172
 5989SOL     OW29602   3.541   3.424  13.356 -0.1730  0.1030  0.1586
 5989SOL    HW129603   3.455   3.463  13.370  0.4144  2.0390 -1.6387
 5989SOL    HW229604   3.517   3.334  13.334  2.6979 -0.5628 -0.3133
 5990SOL     OW29605   0.709   3.433   6.499  0.2800 -0.6863  0.1435
 5990SOL    HW129606   0.719   3.341   6.474 -1.3023 -1.1150  1.0939
 5990SOL    HW229607   0.626   3.430   6.545 -0.0539  0.3776 -0.3848
 5991SOL     OW29608   1.020   2.288   6.493  0.1205 -0.0004 -0.6852
 5991SOL    HW129609   0.943   2.345   6.502 -0.6942 -1.0672 -0.9300
 5991SOL    HW229610   1.051   2.296   6.583  0.1799 -2.1644 -0.5234
 5992SOL     OW29611   0.655   3.597   7.726  0.1349  0.5927  0.0036
 5992SOL    HW129612   0.560   3.611   7.733 -0.4511 -3.3552 -0.1866
 5992SOL    HW229613   0.662   3.504   7.709  2.0411  0.6335  0.6083
 5993SOL     OW29614   3.944   0.094   7.187  0.4181 -0.2476 -0.2047
 5993SOL    HW129615   4.005   0.044   7.240  0.0009 -1.5741 -0.9616
 5993SOL    HW229616   3.994   0.175   7.190  1.2956 -0.7831 -0.3402
 5994SOL     OW29617   1.364   4.349  12.801 -0.0253  0.0882  0.0634
 5994SOL    HW129618   1.292   4.296  12.835 -0.8030  0.6858 -0.6653
 5994SOL    HW229619   1.434   4.283  12.798 -1.3326 -1.2380 -1.2170
 5995SOL     OW29620   1.637   3.505   5.908 -0.0028  0.1588  0.2033
 5995SOL    HW129621   1.668   3.414   5.910  1.7988  0.6847 -2.9001
 5995SOL    HW229622   1.717   3.554   5.891  0.7794 -1.2266 -0.1307
 5996SOL     OW29623   2.465   3.994   2.168  0.3827 -0.0179 -0.1646
 5996SOL    HW129624   2.503   4.064   2.115 -2.4283 -0.8807 -3.3281
 5996SOL    HW229625   2.544   3.943   2.191  1.5398  1.4640 -0.8805
 5997SOL     OW29626   2.923   4.708   5.743  0.6433 -0.2841 -0.0708
 5997SOL    HW129627   2.855   4.644   5.768 -0.7505  1.4845  0.6775
 5997SOL    HW229628   2.883   0.054   5.775  3.0989  1.0482 -0.4615
 5998SOL     OW29629   2.841   0.351  16.690  0.3302  0.5529  0.1390
 5998SOL    HW129630   2.888   0.366  16.608 -0.5117 -0.3635 -0.5014
 5998SOL    HW229631   2.921   0.346  16.742  1.1395  2.1368 -0.9401
 5999SOL     OW29632   1.337   4.008  12.522  0.2627  0.4027  0.1328
 5999SOL    HW129633   1.361   4.100  12.534  0.2974  0.6487 -1.6869
 5999SOL    HW229634   1.272   4.007  12.591  3.0075 -1.7774  2.6605
 6000SOL     OW29635   2.403   3.943   3.589  0.7446 -0.0104  0.7648
 6000SOL    HW129636   2.456   3.880   3.639 -1.3927 -1.4951  1.1642
 6000SOL    HW229637   2.452   4.020   3.618 -0.4661  0.8214  0.5786
 6001SOL     OW29638   2.540   2.574   7.714 -0.2775 -0.4573  0.4731
 6001SOL    HW129639   2.627   2.609   7.698 -0.9284  1.5332  1.2571
 6001SOL    HW229640   2.523   2.610   7.801  0.6753 -0.1928  0.5475
 6002SOL     OW29641   1.258   3.037   6.162 -0.0648  0.1050  0.1728
 6002SOL    HW129642   1.249   2.964   6.101  2.9641  0.3905 -0.6055
 6002SOL    HW229643   1.339   3.011   6.206 -0.5444 -1.7539 -0.0279
 6003SOL     OW29644   1.723   1.537  16.149  0.2290 -0.3993 -0.1799
 6003SOL    HW129645   1.778   1.566  16.077  0.7261 -1.2161 -0.1351
 6003SOL    HW229646   1.734   1.614  16.205  1.5171  0.6418 -1.8565
 6004SOL     OW29647   4.724   0.978   4.050  0.2987  0.3336  0.1233
 6004SOL    HW129648   4.673   0.923   4.109  0.8632  1.6018  1.8026
 6004SOL    HW229649   4.710   0.925   3.972 -2.0108 -1.8663  2.0381
 6005SOL     OW29650   2.389   1.081  12.517 -0.2802 -0.8570 -0.2132
 6005SOL    HW129651   2.390   1.136  12.438 -2.9900 -0.0918  0.2728
 6005SOL    HW229652   2.438   1.006  12.482  0.8988  0.1082 -0.6293
 6006SOL     OW29653   4.647   4.722  13.949  0.2587 -0.1820 -0.2791
 6006SOL    HW129654   4.567   0.013  13.903  0.1430  0.7832  0.4632
 6006SOL    HW229655   4.627   0.034  14.030 -0.5114 -1.1883  0.1163
 6007SOL     OW29656   2.929   2.362   3.509  0.2688 -0.1584  0.4017
 6007SOL    HW129657   2.938   2.456   3.519 -0.6129  0.0196 -0.4182
 6007SOL    HW229658   2.888   2.353   3.423  2.7908 -0.5907 -0.7604
 6008SOL     OW29659   4.366   3.581   5.957  0.4613  0.6137  0.8033
 6008SOL    HW129660   4.460   3.567   5.945 -0.0066 -1.6361 -0.3199
 6008SOL    HW229661   4.357   3.542   6.044  0.5163  1.7522  1.3179
 6009SOL     OW29662   3.003   3.703   4.083  0.0406  0.2011  0.6218
 6009SOL    HW129663   2.976   3.629   4.028  0.2431 -0.7749  1.8264
 6009SOL    HW229664   2.937   3.765   4.053 -0.9625 -1.7147 -1.2018
 6010SOL     OW29665   1.284   1.455   6.025 -0.1950  0.0463  0.3152
 6010SOL    HW129666   1.208   1.397   6.031  0.1777 -0.3521  1.2170
 6010SOL    HW229667   1.329   1.409   5.954 -3.7682 -1.5888 -0.8875
 6011SOL     OW29668   1.499   3.682   8.813  0.2259 -0.1853 -0.7978
 6011SOL    HW129669   1.415   3.664   8.855  1.1092  1.2133  1.5890
 6011SOL    HW229670   1.497   3.777   8.829  2.3618 -0.2808  0.0789
 6012SOL     OW29671   3.681   3.740  16.167  0.0060 -0.2007 -0.2242
 6012SOL    HW129672   3.651   3.774  16.252 -1.2640  0.0856 -0.7851
 6012SOL    HW229673   3.764   3.787  16.157  0.5444 -1.3757 -1.1908
 6013SOL     OW29674   0.330   4.296   8.507 -0.2245 -0.7158 -0.4667
 6013SOL    HW129675   0.375   4.215   8.484 -0.8367 -0.5978 -2.0741
 6013SOL    HW229676   0.311   4.281   8.600 -0.4421  0.6681 -0.2854
 6014SOL     OW29677   0.421   2.598   5.041 -0.0994  0.2407 -0.4196
 6014SOL    HW129678   0.344   2.548   5.015 -1.1365  1.9728 -0.6505
 6014SOL    HW229679   0.400   2.676   4.990 -0.9953  1.0765  1.2535
 6015SOL     OW29680   1.434   4.306   5.533  0.0143  0.2230  0.2732
 6015SOL    HW129681   1.450   4.363   5.458  0.1498 -0.6371 -0.3528
 6015SOL    HW229682   1.417   4.368   5.604 -1.6450  0.0429  0.0321
 6016SOL     OW29683   0.968   2.652   6.452 -1.0301 -0.0932 -0.6406
 6016SOL    HW129684   0.919   2.577   6.419  2.1483 -1.1891 -2.8380
 6016SOL    HW229685   0.987   2.631   6.543 -2.7314 -0.7015 -0.4322
 6017SOL     OW29686   2.482   1.971  13.695  0.2113  0.3678  0.2681
 6017SOL    HW129687   2.428   2.048  13.673 -0.0557  0.9292  2.9394
 6017SOL    HW229688   2.413   1.905  13.687 -0.1599  1.2151 -3.7380
 6018SOL     OW29689   0.758   2.587  15.966 -0.2596 -0.2315 -0.0056
 6018SOL    HW129690   0.722   2.525  15.903 -1.7794  0.7599 -0.1190
 6018SOL    HW229691   0.771   2.662  15.908 -2.0283  0.5512  0.6189
 6019SOL     OW29692   2.759   1.908   0.330  0.1139 -0.3989  0.1885
 6019SOL    HW129693   2.823   1.870   0.391 -1.5579 -0.2882  1.9970
 6019SOL    HW229694   2.724   1.831   0.286  0.8735 -0.7206  0.1430
 6020SOL     OW29695   3.903   4.089   8.071 -0.2956 -0.1116 -0.0082
 6020SOL    HW129696   3.930   4.168   8.118  0.1721  0.3341 -1.0121
 6020SOL    HW229697   3.987   4.066   8.031 -1.4656 -0.4321 -2.2788
 6021SOL     OW29698   3.951   0.805  10.146 -0.0812  0.6200 -0.4023
 6021SOL    HW129699   3.876   0.831  10.092  0.1236  0.4768 -0.7536
 6021SOL    HW229700   3.945   0.712  10.129  0.3646  0.9348 -2.2941
 6022SOL     OW29701   4.330   2.939   6.878  0.4018  0.3576  0.5536
 6022SOL    HW129702   4.356   2.850   6.903 -2.5266 -0.4442  0.7276
 6022SOL    HW229703   4.247   2.945   6.925 -0.4346 -1.7601 -0.6824
 6023SOL     OW29704   2.823   0.450   6.645 -0.2173 -0.1579  0.0564
 6023SOL    HW129705   2.870   0.509   6.703  0.8180 -2.0027  1.1169
 6023SOL    HW229706   2.893   0.396   6.606 -0.8961 -0.5758 -0.5862
 6024SOL     OW29707   0.040   2.637  17.193  0.2411  0.8924 -0.5509
 6024SOL    HW129708   0.034   2.633  17.097 -1.9266  1.7906 -0.4572
 6024SOL    HW229709   0.049   2.732  17.205  2.4429  0.6467 -0.3318
 6025SOL     OW29710   3.217   2.755   2.815 -0.5934  0.2856 -0.1124
 6025SOL    HW129711   3.164   2.783   2.741 -0.7286 -1.2445 -0.5849
 6025SOL    HW229712   3.152   2.760   2.886 -0.7823 -0.0276 -0.2620
 6026SOL     OW29713   0.332   4.376   3.235  0.0937 -0.0595  0.9107
 6026SOL    HW129714   0.360   4.286   3.217  0.6539  0.7919 -2.4198
 6026SOL    HW229715   0.319   4.383   3.330 -1.0679  0.1946  0.7269
 6027SOL     OW29716   4.263   0.620  16.885  0.3808 -0.1081  0.6215
 6027SOL    HW129717   4.189   0.681  16.882 -1.0009 -1.8018  0.1311
 6027SOL    HW229718   4.221   0.541  16.919 -0.4725  0.7425  1.5361
 6028SOL     OW29719   2.399   0.130  10.174  0.5027 -0.2699  0.6000
 6028SOL    HW129720   2.308   0.114  10.195 -0.0868  1.6693 -0.4513
 6028SOL    HW229721   2.399   0.162  10.083 -1.2329  1.3761  1.1852
 6029SOL     OW29722   2.827   4.275   0.576 -1.2578  0.1355  0.0791
 6029SOL    HW129723   2.923   4.283   0.570 -1.3100 -2.5874 -4.7068
 6029SOL    HW229724   2.808   4.223   0.497  0.9836  0.9606 -1.0181
 6030SOL     OW29725   4.184   3.694   7.880  0.8207 -0.1884 -0.2779
 6030SOL    HW129726   4.194   3.602   7.857 -4.0413 -0.3708 -1.7509
 6030SOL    HW229727   4.122   3.682   7.953  0.0351  1.9149 -0.6023
 6031SOL     OW29728   4.603   1.333   3.966 -0.0123 -0.2702  0.1255
 6031SOL    HW129729   4.616   1.416   3.921 -0.4585 -1.0929 -1.5108
 6031SOL    HW229730   4.539   1.367   4.028  0.2744  0.3435  0.0856
 6032SOL     OW29731   0.416   0.409   8.332 -0.2175  0.4457  0.9700
 6032SOL    HW129732   0.457   0.466   8.397 -0.2119  0.6093  0.8241
 6032SOL    HW229733   0.366   0.356   8.394 -1.5025 -0.1706 -0.5821
 6033SOL     OW29734   0.546   3.898  10.442  0.0238  0.8054  0.1877
 6033SOL    HW129735   0.558   3.954  10.519 -1.2207  1.1277  0.1501
 6033SOL    HW229736   0.636   3.889  10.411  0.3009 -1.1314  1.5524
 6034SOL     OW29737   2.574   0.338   6.784 -0.0320 -0.0665  0.0327
 6034SOL    HW129738   2.611   0.288   6.857 -0.6367 -1.1383 -0.4027
 6034SOL    HW229739   2.648   0.377   6.737  1.1477 -2.1298  0.2056
 6035SOL     OW29740   1.943   1.406   4.284 -0.1135 -0.1690 -0.4258
 6035SOL    HW129741   2.014   1.423   4.222 -0.9419  0.5787 -1.1791
 6035SOL    HW229742   1.977   1.320   4.310  0.3575  0.3272  0.5869
 6036SOL     OW29743   4.693   2.872   4.744  0.1475 -0.1320 -0.0996
 6036SOL    HW129744   4.617   2.842   4.695  1.8775  0.1299 -2.9355
 6036SOL    HW229745   4.679   2.817   4.821 -1.3624  1.3077  0.6606
 6037SOL     OW29746   0.422   0.727   9.237 -0.4322  0.2041  0.2518
 6037SOL    HW129747   0.341   0.740   9.187 -1.1797  0.2263  1.4584
 6037SOL    HW229748   0.487   0.682   9.183 -1.8307 -1.8240  0.2507
 6038SOL     OW29749   0.227   4.656  14.251  0.0407 -0.6149 -0.4793
 6038SOL    HW129750   0.206   4.613  14.168 -0.0239  0.2396 -0.9003
 6038SOL    HW229751   0.137   4.662  14.284  1.2098  0.4378  2.4641
 6039SOL     OW29752   4.127   3.989   8.729  0.1862  0.2346 -0.2156
 6039SOL    HW129753   4.187   3.952   8.664 -0.9191 -0.1899 -0.9861
 6039SOL    HW229754   4.048   4.004   8.677  0.7740  0.2483 -1.1053
 6040SOL     OW29755   2.271   4.384   3.312 -0.3247 -0.0372  0.0508
 6040SOL    HW129756   2.256   4.326   3.237 -0.0483 -2.2465  1.6933
 6040SOL    HW229757   2.336   4.451   3.292 -1.0708  1.7761  3.8036
 6041SOL     OW29758   3.587   0.468   5.830  0.6019  0.1970  0.1106
 6041SOL    HW129759   3.564   0.450   5.921  2.4684  0.0622  0.5643
 6041SOL    HW229760   3.516   0.421   5.786  0.8245  1.8635 -1.9855
 6042SOL     OW29761   0.878   0.969   7.503  0.2822  0.2300 -0.6380
 6042SOL    HW129762   0.904   1.059   7.523  0.3237  0.0721  0.0025
 6042SOL    HW229763   0.783   0.976   7.516  0.2093 -1.1896 -0.4238
 6043SOL     OW29764   1.306   2.870   4.605 -0.4393 -0.4107  0.0145
 6043SOL    HW129765   1.267   2.951   4.572  1.5147  0.8302  0.7399
 6043SOL    HW229766   1.292   2.820   4.524  0.2619 -0.9804  0.2412
 6044SOL     OW29767   3.863   3.066   3.922  0.0235  0.0142 -0.0152
 6044SOL    HW129768   3.792   3.040   3.864  0.3887  0.5588 -0.7020
 6044SOL    HW229769   3.905   3.137   3.875 -0.3883  0.2915  0.0317
 6045SOL     OW29770   0.225   3.359   3.208  0.0474  0.2856 -0.3077
 6045SOL    HW129771   0.130   3.365   3.221  0.2095 -0.7365  1.3676
 6045SOL    HW229772   0.245   3.336   3.299  0.7363 -1.6977 -0.9398
 6046SOL     OW29773   4.476   0.394  15.847  0.3640 -0.3305 -0.0153
 6046SOL    HW129774   4.492   0.320  15.789 -0.1333 -1.5489  1.4083
 6046SOL    HW229775   4.409   0.441  15.798 -1.2869 -0.3659  2.1956
 6047SOL     OW29776   0.009   2.957   7.666 -0.1361 -0.2708  0.3331
 6047SOL    HW129777   0.096   2.947   7.628 -0.7429 -2.2916 -0.5270
 6047SOL    HW229778   0.035   2.982   7.755  0.8106  0.4313 -0.1388
 6048SOL     OW29779   1.752   0.225   2.190 -0.1943  0.0025 -0.1594
 6048SOL    HW129780   1.772   0.184   2.274  2.3155 -1.9844 -1.7088
 6048SOL    HW229781   1.696   0.299   2.213  1.1409  1.2655 -0.9331
 6049SOL     OW29782   1.037   4.075   4.265  0.2629  0.0738  0.5280
 6049SOL    HW129783   1.127   4.067   4.234 -0.1782 -1.0131 -0.4824
 6049SOL    HW229784   1.057   4.143   4.330 -0.1722  0.7039  0.0011
 6050SOL     OW29785   2.911   2.110   4.060  0.1175 -0.3599 -0.2028
 6050SOL    HW129786   2.998   2.102   4.098  0.2865 -2.3141 -1.0164
 6050SOL    HW229787   2.925   2.114   3.965 -0.0801 -1.8528 -0.2914
 6051SOL     OW29788   4.247   3.329  10.168 -0.1003  0.5944 -0.2557
 6051SOL    HW129789   4.215   3.357  10.083  2.1863  0.9642 -0.9889
 6051SOL    HW229790   4.274   3.239  10.150  1.3293  0.6186  1.7175
 6052SOL     OW29791   4.625   2.647  13.773 -0.3200  0.3184 -0.1409
 6052SOL    HW129792   4.634   2.569  13.828  0.5481  0.7726  0.3596
 6052SOL    HW229793   4.571   2.705  13.826 -0.7004  0.1121 -0.2999
 6053SOL     OW29794   1.214   1.904  14.907  0.3070  0.1577  0.6341
 6053SOL    HW129795   1.187   1.815  14.931 -1.5984  0.0602 -1.8889
 6053SOL    HW229796   1.172   1.961  14.971 -1.9894 -0.3002 -0.4466
 6054SOL     OW29797   0.666   3.906   6.842  0.0763  0.5251 -0.0614
 6054SOL    HW129798   0.730   3.856   6.791  0.5765  0.6021  0.4987
 6054SOL    HW229799   0.592   3.907   6.781  0.0016  0.0621  0.0213
 6055SOL     OW29800   2.390   3.169   3.332 -0.1564 -0.0939  0.2890
 6055SOL    HW129801   2.399   3.085   3.377 -1.0982  0.0275  0.6997
 6055SOL    HW229802   2.398   3.136   3.242  0.7109  1.8627 -0.3496
 6056SOL     OW29803   4.032   4.199   5.953  0.1439 -0.4965  0.1866
 6056SOL    HW129804   4.123   4.210   5.927 -0.3832  1.4561 -0.8262
 6056SOL    HW229805   4.020   4.111   5.918 -1.2352  0.7207 -2.4737
 6057SOL     OW29806   2.753   0.566  10.065 -0.0451  0.2848 -0.4324
 6057SOL    HW129807   2.695   0.635  10.097 -0.7724  0.3926 -2.0152
 6057SOL    HW229808   2.828   0.619  10.040  1.6182 -1.2760  1.1729
 6058SOL     OW29809   0.529   2.594  14.524 -0.4756  0.6800  0.3192
 6058SOL    HW129810   0.530   2.661  14.455 -2.2840  0.2419 -0.1318
 6058SOL    HW229811   0.602   2.536  14.502 -0.8209  0.3836 -0.0408
 6059SOL     OW29812   4.085   1.663   9.410  0.6131  0.0618 -0.6785
 6059SOL    HW129813   4.117   1.588   9.360 -0.3143  0.4321 -1.8210
 6059SOL    HW229814   4.173   1.690   9.436 -0.5543  1.9544  1.2829
 6060SOL     OW29815   2.740   1.380  17.678 -0.4414  0.0256  0.1371
 6060SOL    HW129816   2.679   1.315  17.642 -1.0928  0.8701 -0.2782
 6060SOL    HW229817   2.753   1.351   0.030  0.2119  1.4397  0.4952
 6061SOL     OW29818   3.155   0.453  12.395  0.0576 -0.4294  0.4333
 6061SOL    HW129819   3.173   0.545  12.414  0.6877 -0.5865  0.5874
 6061SOL    HW229820   3.069   0.449  12.436 -0.0239  1.5375  0.4317
 6062SOL     OW29821   0.235   0.343   1.046 -0.1200 -0.1524 -0.1713
 6062SOL    HW129822   0.190   0.258   1.052  1.3656 -0.7467  2.8518
 6062SOL    HW229823   0.240   0.340   0.951  1.4898  2.7347 -0.1708
 6063SOL     OW29824   2.540   3.108  14.729 -0.1370  0.2550  0.5746
 6063SOL    HW129825   2.540   3.182  14.668 -0.9605  0.2774  0.6006
 6063SOL    HW229826   2.610   3.052  14.697  0.5004  0.8927  0.8536
 6064SOL     OW29827   0.179   2.418   1.179 -0.1844 -0.2225  0.6370
 6064SOL    HW129828   0.146   2.329   1.167  3.0098 -0.8616 -3.1933
 6064SOL    HW229829   0.151   2.455   1.095 -1.2710 -2.3840  0.0407
 6065SOL     OW29830   2.447   4.052  10.384  0.1049  0.1123 -0.3006
 6065SOL    HW129831   2.420   4.141  10.360 -0.3242 -0.4127 -1.7982
 6065SOL    HW229832   2.505   4.065  10.459  0.9111 -0.5783 -0.8026
 6066SOL     OW29833   3.340   3.664   2.124 -0.6139 -0.5656 -0.8005
 6066SOL    HW129834   3.357   3.577   2.160  0.3754 -0.2795 -0.5774
 6066SOL    HW229835   3.261   3.647   2.074 -1.4818 -0.0226  0.3758
 6067SOL     OW29836   3.965   3.396   5.876  0.2741  0.5205  0.5739
 6067SOL    HW129837   3.966   3.491   5.888  0.2748  0.7241 -0.9743
 6067SOL    HW229838   3.889   3.364   5.924 -0.2534 -0.9312 -1.2323
 6068SOL     OW29839   2.314   0.806  14.992 -0.2404 -0.3391 -0.0906
 6068SOL    HW129840   2.264   0.884  15.016  0.7010  0.1226  0.3621
 6068SOL    HW229841   2.277   0.738  15.049 -0.2533  1.0066  1.5008
 6069SOL     OW29842   2.999   1.135  12.955 -0.3723  0.5145  0.2300
 6069SOL    HW129843   3.073   1.179  12.914 -1.4404  0.1321 -2.0894
 6069SOL    HW229844   3.049   1.083  13.019 -0.2479 -0.4330 -0.6380
 6070SOL     OW29845   4.451   3.670   3.433  0.3671 -0.0524  0.2584
 6070SOL    HW129846   4.432   3.719   3.513  0.1004  1.4544 -0.7151
 6070SOL    HW229847   4.465   3.734   3.362 -1.0014  0.3007  0.2982
 6071SOL     OW29848   1.549   3.642   5.191  0.1873 -0.0653  0.1285
 6071SOL    HW129849   1.469   3.694   5.192  0.1449 -0.1094 -1.4915
 6071SOL    HW229850   1.513   3.569   5.242  0.8102 -2.5629 -3.0049
 6072SOL     OW29851   0.781   0.541   3.531  0.2450  0.5984 -0.2995
 6072SOL    HW129852   0.808   0.626   3.497 -2.5762  0.8447 -1.8238
 6072SOL    HW229853   0.863   0.504   3.564 -0.7600 -2.3625 -1.1530
 6073SOL     OW29854   4.089   0.464  11.855 -0.2728 -0.0026  0.2035
 6073SOL    HW129855   4.126   0.389  11.902 -1.8546 -1.7835 -1.3316
 6073SOL    HW229856   3.997   0.439  11.842 -0.4708  0.4707  0.7215
 6074SOL     OW29857   2.841   1.687   7.474 -0.0585  0.0147 -0.7438
 6074SOL    HW129858   2.792   1.683   7.556 -0.0341  1.8270 -0.6418
 6074SOL    HW229859   2.816   1.605   7.431  0.9742 -0.7983  0.2375
 6075SOL     OW29860   0.788   0.344   9.914  0.1013 -0.1005 -0.0971
 6075SOL    HW129861   0.720   0.302   9.966  0.6850  0.6562  1.2629
 6075SOL    HW229862   0.785   0.433   9.947 -0.9330 -0.1013 -0.1801
 6076SOL     OW29863   2.111   2.722  10.712 -0.1633  0.5364 -0.2453
 6076SOL    HW129864   2.200   2.714  10.679 -0.2941 -0.3811 -0.4013
 6076SOL    HW229865   2.082   2.631  10.700  0.7756  0.2198 -0.1174
 6077SOL     OW29866   3.812   3.206   4.930  0.2591 -0.6705  0.3397
 6077SOL    HW129867   3.765   3.144   4.875 -1.6316 -0.1005  1.3039
 6077SOL    HW229868   3.773   3.194   5.016  1.3582 -0.0068  0.9260
 6078SOL     OW29869   4.167   1.816   6.842 -0.0473  0.6813  0.4538
 6078SOL    HW129870   4.137   1.724   6.841 -3.3105  1.7522 -2.4791
 6078SOL    HW229871   4.127   1.853   6.763  2.4693  0.0858 -1.1151
 6079SOL     OW29872   2.864   0.308   5.917  0.0029  0.8501  0.3312
 6079SOL    HW129873   2.829   0.221   5.934  2.8649 -0.3258  0.2056
 6079SOL    HW229874   2.789   0.358   5.951  0.4514  1.1494  0.8806
 6080SOL     OW29875   3.305   4.161  16.401 -0.0969  0.4826  0.3132
 6080SOL    HW129876   3.242   4.219  16.359  1.2803  2.4489  0.9273
 6080SOL    HW229877   3.257   4.082  16.379 -0.8074  1.3801 -1.4249
 6081SOL     OW29878   3.996   2.532  17.103  0.2696  0.0227  0.3608
 6081SOL    HW129879   3.936   2.541  17.177  0.9211 -1.0937  1.0299
 6081SOL    HW229880   4.039   2.617  17.104  0.4160 -0.0311 -0.8154
 6082SOL     OW29881   1.382   4.255   4.699  0.2437  0.1500  0.0023
 6082SOL    HW129882   1.466   4.244   4.655  0.1692  2.3894 -0.7058
 6082SOL    HW229883   1.376   4.347   4.725  1.5164  0.6691 -1.5167
 6083SOL     OW29884   1.588   0.078   9.757 -0.5295 -0.0853 -0.2532
 6083SOL    HW129885   1.540   0.154   9.790 -2.4764 -0.4604 -2.2063
 6083SOL    HW229886   1.523   0.008   9.766 -0.5425  0.0853  0.8918
 6084SOL     OW29887   4.242   2.411   7.111  0.3344  0.4000  0.0912
 6084SOL    HW129888   4.334   2.428   7.091  0.7074 -1.4016  0.3119
 6084SOL    HW229889   4.207   2.499   7.125  1.8419  1.0280 -0.1291
 6085SOL     OW29890   0.327   4.244  12.209 -0.1266  0.5617 -0.4344
 6085SOL    HW129891   0.280   4.292  12.277 -2.3603 -0.5480 -1.1893
 6085SOL    HW229892   0.360   4.168  12.257 -0.8899  0.1450 -0.5603
 6086SOL     OW29893   2.076   1.895  10.883 -0.1863  0.0836 -0.2543
 6086SOL    HW129894   2.056   1.831  10.952  0.0431  0.8300  0.5083
 6086SOL    HW229895   2.113   1.848  10.809  0.6892 -0.5032  0.5506
 6087SOL     OW29896   0.383   0.484  15.980  0.2793 -0.7245  0.0640
 6087SOL    HW129897   0.292   0.481  15.948  0.6696 -1.0205 -1.0055
 6087SOL    HW229898   0.421   0.426  15.914 -0.8056 -1.2661 -0.0978
 6088SOL     OW29899   1.580   1.047   7.296  0.2971 -0.3137 -0.2443
 6088SOL    HW129900   1.521   1.058   7.371 -0.9220 -2.0306 -0.9536
 6088SOL    HW229901   1.518   1.013   7.232 -1.3131  1.5749  0.3002
 6089SOL     OW29902   2.248   3.498   8.600  0.6990  0.7708 -0.0442
 6089SOL    HW129903   2.269   3.586   8.569 -0.2657  1.0325  0.0289
 6089SOL    HW229904   2.328   3.467   8.642 -0.0750 -2.7161 -1.1788
 6090SOL     OW29905   1.900   0.374   0.640  0.1087  0.1996  0.0786
 6090SOL    HW129906   1.947   0.300   0.602 -1.4474 -1.0840  0.6994
 6090SOL    HW229907   1.852   0.388   0.559  0.7392 -2.7714 -0.8029
 6091SOL     OW29908   3.780   3.764   0.906 -0.2121 -0.1055  0.0120
 6091SOL    HW129909   3.745   3.849   0.934  0.8680  0.3777 -0.0755
 6091SOL    HW229910   3.853   3.793   0.850 -0.0157  0.8734  0.7608
 6092SOL     OW29911   1.801   3.885   9.577  0.7136 -0.2448 -0.1348
 6092SOL    HW129912   1.819   3.832   9.655  0.2928 -0.1209  0.0529
 6092SOL    HW229913   1.738   3.828   9.533 -0.3353  0.1705  0.8186
 6093SOL     OW29914   3.661   1.101   9.860  0.6312  0.3490 -0.2975
 6093SOL    HW129915   3.732   1.147   9.904  0.8229 -0.4830  0.2655
 6093SOL    HW229916   3.593   1.165   9.881  1.5671  1.2224  0.0540
 6094SOL     OW29917   3.469   2.881  14.561  0.3181  0.3265  0.2773
 6094SOL    HW129918   3.403   2.887  14.492  0.1152 -1.7101  0.2914
 6094SOL    HW229919   3.534   2.949  14.545  0.8368  0.1856  1.7500
 6095SOL     OW29920   4.321   4.734   5.107  0.1885 -0.3791  1.1637
 6095SOL    HW129921   4.338   4.693   5.022  0.6940 -0.3515  1.2508
 6095SOL    HW229922   4.330   4.654   5.159 -0.8006 -1.0104  0.3695
 6096SOL     OW29923   2.909   1.142   6.543 -0.2532 -0.6662 -0.0738
 6096SOL    HW129924   2.819   1.140   6.575 -0.5425  1.7959 -0.7372
 6096SOL    HW229925   2.900   1.092   6.462 -3.2491 -0.7973  0.3213
 6097SOL     OW29926   2.704   3.667  15.709  0.2558 -0.0022 -0.1757
 6097SOL    HW129927   2.785   3.631  15.673 -0.1388  0.0509 -1.0990
 6097SOL    HW229928   2.641   3.674  15.638 -1.7210  1.4348  1.7055
 6098SOL     OW29929   4.147   3.890  12.456 -0.4946 -0.0960 -0.5202
 6098SOL    HW129930   4.217   3.870  12.395  1.9825  1.2820  1.8543
 6098SOL    HW229931   4.075   3.907  12.395 -0.6675  1.2046  0.0503
 6099SOL     OW29932   0.822   1.470   8.677 -0.2425 -0.5390 -0.0878
 6099SOL    HW129933   0.905   1.433   8.645 -1.3613 -2.0355 -1.2799
 6099SOL    HW229934   0.760   1.403   8.648  1.5821 -1.7673 -1.2032
 6100SOL     OW29935   1.090   3.385   2.667  0.3587 -0.1804  0.2702
 6100SOL    HW129936   1.035   3.463   2.669 -0.2601 -0.6291  0.6433
 6100SOL    HW229937   1.069   3.358   2.577 -0.6978  0.4983  0.3156
 6101SOL     OW29938   1.475   2.113   3.210  0.2348 -0.3237  0.2225
 6101SOL    HW129939   1.478   2.109   3.306 -0.4603  3.8556  0.3791
 6101SOL    HW229940   1.385   2.141   3.193  0.2454 -0.5067 -0.1336
 6102SOL     OW29941   2.706   2.513  13.575 -0.1169  0.4572 -0.2726
 6102SOL    HW129942   2.770   2.552  13.516 -1.0113 -1.1771 -2.3035
 6102SOL    HW229943   2.642   2.583  13.585 -0.0051  0.2606  1.8291
 6103SOL     OW29944   4.281   1.692   6.534 -0.3950  0.0053  0.0209
 6103SOL    HW129945   4.306   1.781   6.560 -0.6701 -0.0184  0.3758
 6103SOL    HW229946   4.186   1.692   6.547 -0.0175  3.0416  2.6840
 6104SOL     OW29947   0.218   4.560  17.127  0.4039 -0.4829 -0.2276
 6104SOL    HW129948   0.310   4.559  17.153  0.2879 -0.4305  0.1823
 6104SOL    HW229949   0.230   4.606  17.044 -2.2564 -1.0342 -0.9244
 6105SOL     OW29950   2.584   3.558   2.551  0.0222  0.1189 -0.0039
 6105SOL    HW129951   2.497   3.550   2.512 -0.0428  0.8254  0.0092
 6105SOL    HW229952   2.580   3.473   2.597  1.1312  0.0984  0.0419
 6106SOL     OW29953   3.939   0.006   4.958  0.6547  0.4068  0.3740
 6106SOL    HW129954   3.853   0.048   4.948  0.6453  0.7619  1.8518
 6106SOL    HW229955   3.972   0.012   4.869 -1.0831 -1.3426 -0.3679
 6107SOL     OW29956   4.100   2.669   3.404  0.0344  0.1933  0.2493
 6107SOL    HW129957   4.093   2.598   3.468 -1.9816  0.0887 -0.0814
 6107SOL    HW229958   4.131   2.742   3.457  1.5524  1.0258 -1.8231
 6108SOL     OW29959   3.649   0.189  14.098  0.1649  0.1461  0.1074
 6108SOL    HW129960   3.615   0.177  14.010 -0.0882  3.5272 -0.2751
 6108SOL    HW229961   3.615   0.275  14.124 -1.9185 -0.4289 -0.7431
 6109SOL     OW29962   2.135   0.011   3.927  0.1096  0.1050  0.3807
 6109SOL    HW129963   2.044   0.007   3.896 -0.0923  0.6792  0.8825
 6109SOL    HW229964   2.134   4.651   3.944 -1.1116 -0.0837 -0.7450
 6110SOL     OW29965   1.235   0.341   8.250  0.0465  0.0770  0.1797
 6110SOL    HW129966   1.152   0.340   8.202 -0.2945 -0.7843  0.7779
 6110SOL    HW229967   1.290   0.390   8.188 -1.5537  0.8111 -0.6561
 6111SOL     OW29968   4.402   0.079   0.627 -0.2007  0.0416 -0.2425
 6111SOL    HW129969   4.402   4.728   0.669  0.2782  0.2801  0.2518
 6111SOL    HW229970   4.490   0.116   0.635 -1.0882  2.2805 -0.9174
 6112SOL     OW29971   0.910   2.386  15.324  0.3662 -0.4646  0.2585
 6112SOL    HW129972   0.834   2.375  15.380  0.8724  1.1675  1.2641
 6112SOL    HW229973   0.924   2.480  15.333 -0.6208 -0.3616  0.6670
 6113SOL     OW29974   2.277   0.824   7.935  0.0916 -0.1132 -0.2744
 6113SOL    HW129975   2.311   0.734   7.939 -2.6723 -1.1255  0.4022
 6113SOL    HW229976   2.212   0.826   7.865 -0.3902  0.2442  0.1883
 6114SOL     OW29977   3.915   2.585  12.309 -0.2891  0.0155 -0.1120
 6114SOL    HW129978   3.836   2.556  12.263  0.2559 -0.8715 -0.4958
 6114SOL    HW229979   3.968   2.627  12.242 -1.4716  1.6187 -0.0448
 6115SOL     OW29980   4.250   0.263   4.101 -0.9240 -0.0982  0.0841
 6115SOL    HW129981   4.241   0.194   4.035 -0.0902 -1.9661  1.9029
 6115SOL    HW229982   4.344   0.259   4.119 -1.0659  0.1840  0.8819
 6116SOL     OW29983   0.275   3.655   6.428  0.1772 -0.1368 -0.8247
 6116SOL    HW129984   0.217   3.582   6.406  1.0695 -0.5397 -1.8151
 6116SOL    HW229985   0.241   3.684   6.513  1.8441  1.3029 -0.6417
 6117SOL     OW29986   1.049   0.050   4.532  0.0546 -0.0047 -0.1319
 6117SOL    HW129987   1.113   0.115   4.503  0.1915 -0.8476 -1.7566
 6117SOL    HW229988   1.099   4.728   4.591  0.3877  0.3629 -0.0617
 6118SOL     OW29989   3.203   0.335   7.886  0.2963  0.2481 -0.0754
 6118SOL    HW129990   3.234   0.284   7.962 -1.2340 -1.8475 -0.8419
 6118SOL    HW229991   3.183   0.423   7.917  1.7569  0.3762  0.5163
 6119SOL     OW29992   3.153   0.007   4.410 -0.6560 -0.2517  0.2046
 6119SOL    HW129993   3.243   4.717   4.390 -0.2304  2.0478 -0.7910
 6119SOL    HW229994   3.137   0.072   4.341 -0.5008 -1.6260 -1.1305
 6120SOL     OW29995   2.447   1.564   2.200 -0.6382  0.6234  0.5113
 6120SOL    HW129996   2.384   1.498   2.230 -0.7032  0.7044  0.5514
 6120SOL    HW229997   2.507   1.504   2.155  0.2743 -0.3864  3.0377
 6121SOL     OW29998   2.111   1.887   1.316 -0.2903 -0.4371  0.3954
 6121SOL    HW129999   2.154   1.895   1.401  1.8894  0.4726 -0.7717
 6121SOL    HW230000   2.071   1.973   1.300 -0.8176 -0.5928  0.9240
 6122SOL     OW30001   3.921   3.995   6.650 -0.5229 -0.1269  0.2234
 6122SOL    HW130002   3.943   3.945   6.572 -1.5283  1.9388 -1.3835
 6122SOL    HW230003   3.887   4.079   6.621 -1.7894 -0.4276  0.8241
 6123SOL     OW30004   1.914   0.415   2.760 -0.1238 -0.7675 -0.4070
 6123SOL    HW130005   1.990   0.473   2.752 -0.4682  0.1956  3.0460
 6123SOL    HW230006   1.954   0.337   2.796  0.9666 -0.6152 -1.3047
 6124SOL     OW30007   4.416   4.207   3.749  0.3989 -0.0778 -0.2231
 6124SOL    HW130008   4.416   4.200   3.654  0.7975 -1.2668 -0.1348
 6124SOL    HW230009   4.450   4.122   3.777 -1.8378 -1.3032 -1.1990
 6125SOL     OW30010   3.592   0.867   9.694  0.3205  0.4280  0.3580
 6125SOL    HW130011   3.518   0.885   9.752 -0.8763 -0.3756 -0.9243
 6125SOL    HW230012   3.624   0.956   9.707  0.5306  0.7140 -2.0917
 6126SOL     OW30013   1.089   3.393   6.177  0.6554 -0.2727  0.4327
 6126SOL    HW130014   1.126   3.312   6.140 -0.7743  0.6388 -3.0229
 6126SOL    HW230015   1.008   3.358   6.213 -0.1693  0.8534 -0.3096
 6127SOL     OW30016   1.995   0.152   4.862 -0.2829  0.2540  0.4279
 6127SOL    HW130017   2.060   0.219   4.884 -1.4750  2.0013 -1.3297
 6127SOL    HW230018   2.045   0.080   4.898  3.1972  2.0191 -0.8843
 6128SOL     OW30019   2.589   0.182  12.006  0.0089 -0.3059 -0.4525
 6128SOL    HW130020   2.661   0.223  12.053 -0.6035 -2.0525  1.9635
 6128SOL    HW230021   2.522   0.190  12.073 -0.3529  2.6248 -1.1421
 6129SOL     OW30022   0.315   1.070   3.294 -0.4691 -0.4080  0.6317
 6129SOL    HW130023   0.323   0.975   3.307  3.5770  0.0391  1.2675
 6129SOL    HW230024   0.374   1.090   3.221  0.1607  0.0505  1.2705
 6130SOL     OW30025   1.772   0.098   3.177 -0.5146  0.0243 -0.1179
 6130SOL    HW130026   1.723   0.154   3.117  1.3631  1.4824 -0.2755
 6130SOL    HW230027   1.825   0.170   3.211  0.5319 -0.3620 -0.9364
 6131SOL     OW30028   3.483   4.543   0.077 -0.0508 -0.2398  0.1422
 6131SOL    HW130029   3.554   4.564   0.016  1.3083 -0.3123  1.7084
 6131SOL    HW230030   3.529   4.549   0.161  2.0289  1.0286 -1.0687
 6132SOL     OW30031   4.434   2.491   6.457  0.3674  0.4076 -0.9520
 6132SOL    HW130032   4.465   2.563   6.512  2.0712 -0.2883 -1.0120
 6132SOL    HW230033   4.517   2.465   6.417  0.7382  0.5965 -0.3028
 6133SOL     OW30034   2.810   3.032   8.994  0.2460 -0.3582  0.3810
 6133SOL    HW130035   2.730   3.074   9.024 -1.2433 -2.0532 -1.2324
 6133SOL    HW230036   2.871   3.052   9.065 -1.2983 -0.1484  1.6481
 6134SOL     OW30037   4.140   0.860  12.898 -0.4293 -0.1010  0.2359
 6134SOL    HW130038   4.187   0.846  12.980  1.4379 -0.3294 -0.8842
 6134SOL    HW230039   4.128   0.773  12.860 -1.3894 -1.1333  2.8808
 6135SOL     OW30040   3.252   3.507  10.594 -0.0713 -0.5517  0.1287
 6135SOL    HW130041   3.281   3.420  10.624 -1.5664 -1.3106 -0.5833
 6135SOL    HW230042   3.300   3.569  10.649  2.1051  1.5800 -4.2028
 6136SOL     OW30043   0.412   2.374   1.878  0.0863  0.1009  0.3352
 6136SOL    HW130044   0.467   2.351   1.804  0.1256  0.5493  0.2280
 6136SOL    HW230045   0.332   2.389   1.827  2.8093  2.6318 -3.1461
 6137SOL     OW30046   3.798   1.895   8.892 -0.1712 -0.1501 -0.6427
 6137SOL    HW130047   3.883   1.937   8.904 -0.9193  0.8905  1.1524
 6137SOL    HW230048   3.788   1.835   8.966 -1.2694  0.9482  0.1154
 6138SOL     OW30049   4.332   0.957  16.146  0.0809 -0.3230 -0.1823
 6138SOL    HW130050   4.238   0.947  16.132 -0.0737  0.7757  0.0980
 6138SOL    HW230051   4.354   1.048  16.167 -1.0979 -0.4145  1.4711
 6139SOL     OW30052   0.009   1.652   1.286  0.3199 -0.6138  0.9574
 6139SOL    HW130053   0.025   1.742   1.258  0.4480 -1.4112 -1.5461
 6139SOL    HW230054   0.043   1.649   1.375  1.9871  1.7953  0.4018
 6140SOL     OW30055   2.162   0.703   3.056  0.3312  0.0669  0.1329
 6140SOL    HW130056   2.210   0.774   3.099  0.8604 -0.3851  0.2864
 6140SOL    HW230057   2.128   0.659   3.134  1.0113 -0.9794 -0.1587
 6141SOL     OW30058   0.588   0.642  11.156 -0.2677 -0.4716  0.0891
 6141SOL    HW130059   0.557   0.722  11.196 -0.6556 -0.2814 -0.5924
 6141SOL    HW230060   0.630   0.605  11.233 -1.6870 -0.4510  0.8628
 6142SOL     OW30061   4.152   4.032  11.947 -0.8409  0.3328  0.0555
 6142SOL    HW130062   4.158   4.124  11.923 -2.1966  0.4006 -0.0228
 6142SOL    HW230063   4.218   3.999  11.886 -1.7964 -1.3933 -0.0594
 6143SOL     OW30064   1.225   4.689   2.254 -0.3621  0.3056 -0.4411
 6143SOL    HW130065   1.248   0.041   2.222 -0.6422  0.5234 -0.0607
 6143SOL    HW230066   1.307   4.656   2.290 -1.0229 -1.9238 -1.0215
 6144SOL     OW30067   2.403   4.233   8.787  0.4195  0.1607 -0.0652
 6144SOL    HW130068   2.397   4.229   8.882 -1.9666  1.6788 -0.1391
 6144SOL    HW230069   2.325   4.281   8.758 -2.1379 -6.0124 -3.3776
 6145SOL     OW30070   1.177   4.005   7.957 -0.0164  0.0771  0.1790
 6145SOL    HW130071   1.186   4.008   8.052  1.9204 -2.0517  0.0623
 6145SOL    HW230072   1.191   4.097   7.935  0.3749 -0.3067 -1.2070
 6146SOL     OW30073   0.153   4.166  12.463 -0.0509 -0.0293  0.1344
 6146SOL    HW130074   0.123   4.124  12.544 -0.9515 -0.7485 -0.5786
 6146SOL    HW230075   0.237   4.120  12.451  0.9537  2.1813 -1.1981
 6147SOL     OW30076   2.942   0.796   2.920  0.6219  0.5989 -0.3679
 6147SOL    HW130077   3.003   0.724   2.939  2.6354  1.7388 -2.5498
 6147SOL    HW230078   2.988   0.876   2.944 -0.8380  1.5411 -0.7490
 6148SOL     OW30079   1.201   2.105   9.778  0.4907 -0.8091 -0.2672
 6148SOL    HW130080   1.217   2.098   9.872 -2.3475 -0.2440  0.2626
 6148SOL    HW230081   1.236   2.191   9.757 -0.9499 -0.0995  0.2095
 6149SOL     OW30082   0.992   2.567   5.219 -0.3118  0.4747  0.1534
 6149SOL    HW130083   1.038   2.488   5.192 -0.7693  0.3468 -0.2482
 6149SOL    HW230084   0.935   2.574   5.143 -0.8698 -0.7913  0.4510
 6150SOL     OW30085   0.992   1.987  13.244  0.2465  0.8226  0.1282
 6150SOL    HW130086   0.928   1.922  13.216  1.7441 -0.7589  0.3570
 6150SOL    HW230087   1.071   1.934  13.233  0.2615  0.5244  1.7004
 6151SOL     OW30088   4.009   0.726   4.800 -0.0727 -0.3241 -0.5402
 6151SOL    HW130089   3.961   0.744   4.719 -1.7433 -1.0617  0.2825
 6151SOL    HW230090   4.058   0.807   4.813  0.5979 -0.6731 -0.9256
 6152SOL     OW30091   3.180   0.877   7.254 -0.9307 -0.7448  0.2318
 6152SOL    HW130092   3.163   0.796   7.302  2.6557 -1.2208  0.7092
 6152SOL    HW230093   3.145   0.861   7.166 -1.4522 -2.9303  0.8291
 6153SOL     OW30094   2.655   3.147   3.482 -0.5172  0.1360  0.3925
 6153SOL    HW130095   2.687   3.102   3.404  1.9565 -1.5894  2.4090
 6153SOL    HW230096   2.640   3.235   3.449  1.8279 -0.1725 -1.4122
 6154SOL     OW30097   0.581   2.431   3.445  0.3756 -0.2160 -0.1684
 6154SOL    HW130098   0.547   2.469   3.364  0.7135 -0.4767 -0.4325
 6154SOL    HW230099   0.522   2.363   3.478  2.3189 -0.9581  1.8205
 6155SOL     OW30100   4.635   1.936  13.315  0.1122  0.5904 -0.3321
 6155SOL    HW130101   4.727   1.938  13.344 -0.2939  0.3902  0.9639
 6155SOL    HW230102   4.596   1.894  13.392  0.8653 -0.6497 -0.6215
 6156SOL     OW30103   1.353   1.855   8.618  0.2867 -0.3221 -0.7951
 6156SOL    HW130104   1.407   1.857   8.539 -0.2940 -0.6052 -1.1980
 6156SOL    HW230105   1.323   1.766   8.605 -2.1140  0.2987  0.3547
 6157SOL     OW30106   1.022   1.283  10.421  0.2993 -0.3076  0.0606
 6157SOL    HW130107   0.989   1.372  10.426 -0.7013 -0.5937 -1.5127
 6157SOL    HW230108   1.011   1.267  10.515  0.7171 -0.4829  0.0835
 6158SOL     OW30109   4.002   1.387  15.688  0.5409 -0.6580  0.2721
 6158SOL    HW130110   4.035   1.464  15.735  1.7447  0.2552 -2.0742
 6158SOL    HW230111   4.073   1.324  15.699  1.0391 -0.3712 -1.2092
 6159SOL     OW30112   0.107   3.936   4.540  0.4474 -0.3119 -0.0744
 6159SOL    HW130113   0.118   3.920   4.633 -0.0613 -1.1600 -0.1606
 6159SOL    HW230114   0.029   3.890   4.509 -0.1846 -0.1464  1.2996
 6160SOL     OW30115   4.674   2.142   5.821 -0.1229 -0.0038 -0.4092
 6160SOL    HW130116   0.002   2.079   5.855  0.1635 -0.7136 -2.2667
 6160SOL    HW230117   4.589   2.106   5.846  0.6731 -2.2265 -0.9212
 6161SOL     OW30118   2.248   4.114   4.407 -0.0668  0.2333 -0.0890
 6161SOL    HW130119   2.229   4.200   4.446 -0.4813  1.2204 -2.4664
 6161SOL    HW230120   2.250   4.055   4.482 -0.8569  0.4512  0.1027
 6162SOL     OW30121   3.937   2.910   5.028 -0.7816 -0.1041  0.0792
 6162SOL    HW130122   3.940   2.958   5.110  2.6444  0.3242 -0.3011
 6162SOL    HW230123   3.941   2.823   5.068 -0.6147 -0.3368 -0.4419
 6163SOL     OW30124   3.385   0.211   4.071  0.1002 -0.6966 -0.3043
 6163SOL    HW130125   3.439   0.278   4.028 -0.1755 -0.4748 -0.2990
 6163SOL    HW230126   3.453   0.149   4.099 -0.5996 -1.3084  0.0572
 6164SOL     OW30127   4.606   2.510  14.006 -0.2253 -0.6124 -0.1056
 6164SOL    HW130128   4.672   2.550  14.063 -1.4774 -0.8896  1.5678
 6164SOL    HW230129   4.637   2.420  13.995  1.1812 -0.1500  0.0843
 6165SOL     OW30130   1.733   4.201   4.917 -0.3492 -0.5673  0.3555
 6165SOL    HW130131   1.697   4.258   4.849  0.4789  0.2462  0.6035
 6165SOL    HW230132   1.795   4.151   4.865 -1.7888 -0.5669 -1.3383
 6166SOL     OW30133   1.398   0.802   3.681  0.1345 -0.1828  0.1908
 6166SOL    HW130134   1.411   0.724   3.627 -2.8218  0.1223 -0.9248
 6166SOL    HW230135   1.307   0.824   3.666 -0.0689 -1.3460 -0.3352
 6167SOL     OW30136   0.838   2.375  12.182  0.4129 -0.4479  0.3796
 6167SOL    HW130137   0.834   2.360  12.087 -3.2435  2.2550  0.0954
 6167SOL    HW230138   0.748   2.391  12.212  0.6491  1.6893 -0.0697
 6168SOL     OW30139   2.679   1.475   3.682 -0.2976 -0.3862 -0.0557
 6168SOL    HW130140   2.718   1.434   3.605  1.4854  2.7664 -0.8226
 6168SOL    HW230141   2.761   1.508   3.717 -1.1888  1.1377  0.5648
 6169SOL     OW30142   4.580   3.847   5.336  0.1541  0.0419  0.0140
 6169SOL    HW130143   4.519   3.917   5.361  1.2341  0.7082  0.7900
 6169SOL    HW230144   4.513   3.779   5.328 -1.4920  1.9165 -2.2378
 6170SOL     OW30145   2.072   4.056   3.356 -0.6423 -0.1578  0.4827
 6170SOL    HW130146   1.995   4.004   3.334 -0.6245 -0.8918  2.1808
 6170SOL    HW230147   2.135   4.038   3.287  1.7252  1.8935  2.1045
 6171SOL     OW30148   3.898   3.018   8.450 -0.4531 -0.4059  0.3092
 6171SOL    HW130149   3.908   2.932   8.492  0.2690 -0.5212 -0.1031
 6171SOL    HW230150   3.835   3.063   8.506 -1.5439  1.6318 -2.5649
 6172SOL     OW30151   0.031   0.859   8.849  1.2331  0.2298 -0.5551
 6172SOL    HW130152   0.034   0.769   8.880 -0.7671  0.6546  0.9076
 6172SOL    HW230153   0.094   0.863   8.777  1.4809  0.8350 -0.3092
 6173SOL     OW30154   0.541   0.970   5.227  0.6369  0.0611 -0.0809
 6173SOL    HW130155   0.600   1.001   5.296  0.8974 -0.0118 -0.2661
 6173SOL    HW230156   0.528   0.877   5.244 -0.3867  0.2973  0.4089
 6174SOL     OW30157   2.421   0.605   1.941 -0.0486 -0.6005  0.1709
 6174SOL    HW130158   2.339   0.561   1.967 -1.2947  0.6301 -1.7004
 6174SOL    HW230159   2.389   0.662   1.872  2.2340  0.5759  0.1137
 6175SOL     OW30160   4.504   2.827   6.382 -0.0840  0.2466  0.1556
 6175SOL    HW130161   4.456   2.907   6.363  0.4548  0.0817 -1.8899
 6175SOL    HW230162   4.479   2.783   6.301 -0.3463  0.1429  0.2916
 6176SOL     OW30163   1.266   4.014   6.937  0.2967  0.0872 -0.5827
 6176SOL    HW130164   1.238   3.961   6.863 -0.3083  2.2267 -1.8822
 6176SOL    HW230165   1.347   3.966   6.956 -0.2993  0.0309  1.9163
 6177SOL     OW30166   4.563   2.782   8.010  0.6178  0.1892  0.2573
 6177SOL    HW130167   4.547   2.868   8.049  0.4316  0.9485 -1.5093
 6177SOL    HW230168   4.522   2.794   7.925 -0.2583 -0.5602  0.5750
 6178SOL     OW30169   3.519   4.424   1.258  0.1469 -0.2465  0.7042
 6178SOL    HW130170   3.541   4.407   1.167  0.5443 -0.3356  0.8148
 6178SOL    HW230171   3.503   4.335   1.290  0.7343 -0.7400 -0.3898
 6179SOL     OW30172   3.414   0.444   2.946  0.1633  0.0513  0.3869
 6179SOL    HW130173   3.496   0.481   2.980 -0.1191  0.9524  0.0941
 6179SOL    HW230174   3.416   0.357   2.986  0.5520  0.7619  1.9193
 6180SOL     OW30175   4.609   0.827   6.128  0.3475  0.7320 -0.2044
 6180SOL    HW130176   4.596   0.769   6.053  1.9396 -0.3926  0.4020
 6180SOL    HW230177   4.559   0.906   6.103  0.6126  0.8643 -0.3189
 6181SOL     OW30178   1.131   0.864   1.896 -0.0069  0.1015 -0.3881
 6181SOL    HW130179   1.134   0.775   1.861 -2.9542  0.5188 -1.6410
 6181SOL    HW230180   1.148   0.918   1.819 -1.0038  1.4059  0.3031
 6182SOL     OW30181   1.807   2.796   2.636  0.2757  0.1681  0.1981
 6182SOL    HW130182   1.765   2.796   2.550  0.5721  1.8096  0.0469
 6182SOL    HW230183   1.774   2.715   2.674 -1.5927  0.1348 -1.5141
 6183SOL     OW30184   0.627   4.160   6.934  0.3223 -0.2209  0.2120
 6183SOL    HW130185   0.615   4.141   7.027 -3.3343  2.0901  0.2361
 6183SOL    HW230186   0.653   4.074   6.903 -1.2472  0.3819 -2.8373
 6184SOL     OW30187   4.314   0.596   5.755  0.3555 -0.4345  0.5722
 6184SOL    HW130188   4.397   0.585   5.801  1.7297  1.5338 -1.4361
 6184SOL    HW230189   4.265   0.515   5.771  0.6095 -1.1506 -2.2352
 6185SOL     OW30190   3.895   0.262   8.285  0.4263 -0.0687  0.6317
 6185SOL    HW130191   3.870   0.278   8.376  1.0815 -1.4252  1.0607
 6185SOL    HW230192   3.946   0.182   8.301 -1.9996 -2.0102 -1.4499
 6186SOL     OW30193   0.515   0.539   7.901  0.4161 -0.1529  0.8056
 6186SOL    HW130194   0.564   0.561   7.822  1.9905  2.2643  2.4534
 6186SOL    HW230195   0.580   0.498   7.957 -0.3658 -0.8216  1.2290
 6187SOL     OW30196   3.038   4.490   6.968 -0.9965  0.3266  0.2324
 6187SOL    HW130197   3.111   4.440   6.931 -1.7317 -0.0539 -0.6819
 6187SOL    HW230198   2.970   4.425   6.955  1.1439 -2.1049  1.1572
 6188SOL     OW30199   1.883   4.189  10.568 -0.3217 -0.4006  0.4405
 6188SOL    HW130200   1.951   4.134  10.529 -0.0795 -1.0715  1.8132
 6188SOL    HW230201   1.928   4.225  10.644  2.5674 -0.7745 -1.0954
 6189SOL     OW30202   1.056   1.694  17.534  0.5588 -0.1572 -0.0780
 6189SOL    HW130203   1.056   1.785  17.566 -0.8321 -0.1208 -0.1845
 6189SOL    HW230204   1.148   1.672  17.546  1.0343  2.4426  1.1726
 6190SOL     OW30205   3.268   2.635   0.412  0.4665  0.0587  0.4230
 6190SOL    HW130206   3.314   2.580   0.349  1.1809  1.4168 -0.2363
 6190SOL    HW230207   3.275   2.718   0.365  2.0451 -1.0098 -1.2629
 6191SOL     OW30208   4.375   2.470  10.514  0.2037 -0.3754 -0.6135
 6191SOL    HW130209   4.455   2.420  10.526  1.2215  0.7660 -2.5733
 6191SOL    HW230210   4.395   2.538  10.577 -0.2699  0.2099 -1.0947
 6192SOL     OW30211   3.601   4.313   8.271 -0.0836  0.1002 -0.5145
 6192SOL    HW130212   3.658   4.333   8.197 -1.7544  1.1748 -1.4855
 6192SOL    HW230213   3.560   4.231   8.248  0.9349  0.4638 -3.5888
 6193SOL     OW30214   2.505   1.172   1.569 -0.1218  0.4013  0.0730
 6193SOL    HW130215   2.430   1.153   1.513  1.3028 -0.7647 -1.4524
 6193SOL    HW230216   2.515   1.267   1.571 -1.2725  0.5252 -0.2142
 6194SOL     OW30217   2.195   3.197   6.132  0.0356 -0.5121 -0.0954
 6194SOL    HW130218   2.108   3.190   6.092 -0.0529  2.4521 -0.4378
 6194SOL    HW230219   2.235   3.160   6.053  1.3928  1.7364 -0.4771
 6195SOL     OW30220   2.628   3.187   1.946 -0.2731  0.8742 -0.4091
 6195SOL    HW130221   2.565   3.116   1.935 -2.2421  2.6707 -0.9292
 6195SOL    HW230222   2.686   3.163   2.018 -0.8821 -1.7229 -0.7753
 6196SOL     OW30223   2.017   2.123  12.148  0.0430  0.3527 -0.0418
 6196SOL    HW130224   2.099   2.118  12.099 -0.6759 -0.0621 -1.1994
 6196SOL    HW230225   2.036   2.200  12.202  1.0618 -0.7658  1.1640
 6197SOL     OW30226   1.712   4.455  11.236 -0.1336 -0.0442 -0.4941
 6197SOL    HW130227   1.767   4.481  11.311  0.7820  0.4670 -1.3485
 6197SOL    HW230228   1.726   4.533  11.183  0.3035  0.6188  0.5974
 6198SOL     OW30229   0.861   2.447   5.851  0.1458  0.2342 -0.0068
 6198SOL    HW130230   0.818   2.394   5.919  0.1380  1.4868  0.9766
 6198SOL    HW230231   0.849   2.395   5.771  1.9348 -0.7375  0.3595
 6199SOL     OW30232   2.670   0.229  11.637 -0.3846 -0.0457 -0.0848
 6199SOL    HW130233   2.658   0.135  11.626  1.7271 -0.2826 -0.3372
 6199SOL    HW230234   2.672   0.249  11.543  0.6164 -0.9785 -0.2664
 6200SOL     OW30235   0.335   3.710  17.300 -0.0204  0.1782 -0.5310
 6200SOL    HW130236   0.302   3.800  17.295  0.5176  0.3052 -1.8340
 6200SOL    HW230237   0.302   3.696  17.389  1.8203  0.6042  0.2194
 6201SOL     OW30238   2.374   3.283   5.473  0.0066 -0.4020 -0.1757
 6201SOL    HW130239   2.324   3.341   5.415  0.9811  1.7303  1.0807
 6201SOL    HW230240   2.302   3.256   5.529  0.3447  0.8603  0.8856
 6202SOL     OW30241   2.939   4.612   9.461  0.0526  0.4903 -0.5269
 6202SOL    HW130242   2.951   4.582   9.551 -0.2069  1.7366 -0.0802
 6202SOL    HW230243   2.847   4.637   9.459 -0.0760 -0.0067 -0.7752
 6203SOL     OW30244   2.646   3.912   3.241  0.4299  0.5274 -0.1907
 6203SOL    HW130245   2.650   3.966   3.162 -1.2128 -0.8523 -1.2240
 6203SOL    HW230246   2.561   3.869   3.246  0.4876  0.5331  0.8998
 6204SOL     OW30247   2.722   4.710   8.350  0.0098  0.7126  0.0674
 6204SOL    HW130248   2.788   4.661   8.399  0.0114  1.2456  0.5973
 6204SOL    HW230249   2.732   4.670   8.264 -0.5631 -1.1407  0.8743
 6205SOL     OW30250   1.570   1.624   8.871 -0.2114 -0.3392  0.6819
 6205SOL    HW130251   1.612   1.704   8.839  0.4585 -1.1073 -0.3465
 6205SOL    HW230252   1.486   1.655   8.907  0.1031 -0.9123  1.9003
 6206SOL     OW30253   1.064   1.936   7.412  0.0112 -0.0547  0.0800
 6206SOL    HW130254   1.032   1.847   7.427 -2.0007  0.3203 -1.8720
 6206SOL    HW230255   1.075   1.938   7.317  1.0183 -0.7490  0.1777
 6207SOL     OW30256   2.589   1.198  15.147 -0.8836  0.0788  0.4818
 6207SOL    HW130257   2.628   1.117  15.117  0.4091  1.2636 -1.0062
 6207SOL    HW230258   2.652   1.266  15.123  0.6674 -0.7928  2.1264
 6208SOL     OW30259   4.143   0.514   7.387  0.3374  0.0853  0.1343
 6208SOL    HW130260   4.080   0.542   7.453 -1.0134  2.3779 -2.1102
 6208SOL    HW230261   4.222   0.488   7.435 -1.6550 -0.9208  2.8268
 6209SOL     OW30262   0.425   0.286   5.650  0.1963 -0.2423 -0.3879
 6209SOL    HW130263   0.359   0.220   5.631  1.0540 -0.8157 -1.3589
 6209SOL    HW230264   0.485   0.229   5.699 -0.9534 -0.8920  0.2490
 6210SOL     OW30265   1.484   2.727  11.700 -0.0303 -0.3094 -0.1705
 6210SOL    HW130266   1.579   2.735  11.707 -0.0355 -0.1125 -0.3350
 6210SOL    HW230267   1.460   2.700  11.612  1.0281  0.6156 -0.7387
 6211SOL     OW30268   2.457   3.153   8.187  0.1014 -0.0094 -0.0519
 6211SOL    HW130269   2.458   3.207   8.265 -0.9638 -0.3322  0.1899
 6211SOL    HW230270   2.458   3.063   8.220 -3.2178  0.0687  0.2590
 6212SOL     OW30271   0.336   3.689   1.672  0.1793 -0.2437  0.3267
 6212SOL    HW130272   0.292   3.606   1.656 -0.6432  0.2126  0.2156
 6212SOL    HW230273   0.259   3.745   1.665  0.0399 -0.5382 -0.4928
 6213SOL     OW30274   0.490   0.706  15.066  0.0332  0.0838  0.0067
 6213SOL    HW130275   0.463   0.666  14.984 -2.0445  0.7425  0.3655
 6213SOL    HW230276   0.421   0.765  15.095  2.0304  1.1100  2.7509
 6214SOL     OW30277   0.382   4.580   4.722  0.0150  0.3351 -0.5341
 6214SOL    HW130278   0.340   4.494   4.723 -0.5490  0.7049  4.5520
 6214SOL    HW230279   0.298   4.624   4.717 -0.7751 -1.2169 -1.0040
 6215SOL     OW30280   1.997   4.423   5.502 -0.0204  0.0097  0.0124
 6215SOL    HW130281   1.998   4.506   5.549 -1.4924 -0.1882  0.4098
 6215SOL    HW230282   1.965   4.451   5.417 -2.3187 -1.5342  0.3528
 6216SOL     OW30283   3.084   1.301   5.992  0.2908 -0.5787  0.0684
 6216SOL    HW130284   3.056   1.363   5.925  0.1660 -0.6995  0.0092
 6216SOL    HW230285   3.022   1.319   6.063 -0.3553 -0.2974 -0.5710
 6217SOL     OW30286   0.471   3.518   1.496  0.2727 -0.4363 -0.1980
 6217SOL    HW130287   0.546   3.570   1.468  0.7735 -2.1906 -2.1355
 6217SOL    HW230288   0.400   3.569   1.457  0.5735 -0.3364 -0.6210
 6218SOL     OW30289   2.068   3.777   6.067  0.3894  0.0293  0.0666
 6218SOL    HW130290   2.152   3.791   6.025  2.4435 -1.9719  3.5050
 6218SOL    HW230291   2.036   3.866   6.056 -1.1300 -0.4558  0.4335
 6219SOL     OW30292   3.191   2.412   5.025 -0.3758 -0.4022  0.2425
 6219SOL    HW130293   3.129   2.385   5.092 -1.8649  0.7079 -0.6833
 6219SOL    HW230294   3.232   2.330   4.999 -1.2681 -0.2921 -1.4791
 6220SOL     OW30295   0.649   2.718   4.427  0.0589  0.0671 -0.5786
 6220SOL    HW130296   0.610   2.647   4.378 -1.4646  1.0822 -0.8451
 6220SOL    HW230297   0.562   2.742   4.458 -0.7685 -0.1192 -2.7666
 6221SOL     OW30298   1.321   0.148   6.672  0.3997  0.6117 -0.1644
 6221SOL    HW130299   1.391   0.134   6.736  0.5074 -1.4885 -0.7487
 6221SOL    HW230300   1.247   0.092   6.695  0.3599  1.1589  1.0464
 6222SOL     OW30301   2.628   1.776   7.029 -0.0223 -0.2814  0.6542
 6222SOL    HW130302   2.663   1.804   6.944  1.0146 -1.2546  0.7638
 6222SOL    HW230303   2.578   1.855   7.049 -2.2936 -1.7973  0.9641
 6223SOL     OW30304   0.335   3.087   4.205 -0.5033 -0.6557 -0.0577
 6223SOL    HW130305   0.276   3.068   4.278  0.0369 -0.8537  0.3253
 6223SOL    HW230306   0.277   3.091   4.128 -0.1745 -1.9572 -0.3713
 6224SOL     OW30307   2.025   1.245   5.235 -0.0122 -0.1859  0.2144
 6224SOL    HW130308   2.061   1.329   5.207 -1.7467 -0.3698 -2.5314
 6224SOL    HW230309   2.040   1.246   5.330  0.4415 -2.4077  0.1544
 6225SOL     OW30310   2.089   3.143   8.279  0.2963  0.1085  0.0539
 6225SOL    HW130311   2.140   3.222   8.301 -0.2644  0.4689  0.0562
 6225SOL    HW230312   2.150   3.094   8.224 -2.2128 -2.0926 -0.7110
 6226SOL     OW30313   4.136   0.400  12.401 -0.7450 -0.0766 -0.0572
 6226SOL    HW130314   4.104   0.361  12.482 -1.2581  1.1984  0.3487
 6226SOL    HW230315   4.224   0.421  12.431 -0.2739 -0.9514 -0.7951
 6227SOL     OW30316   3.724   3.866   8.005 -0.3608  0.0609  0.0874
 6227SOL    HW130317   3.733   3.883   7.911 -2.0192  3.4969  0.5226
 6227SOL    HW230318   3.750   3.950   8.042 -0.1912 -0.0884  0.3042
 6228SOL     OW30319   4.725   4.202   8.933  0.4678 -0.1128 -0.1924
 6228SOL    HW130320   0.066   4.142   8.936 -0.4577 -1.2888 -0.1581
 6228SOL    HW230321   4.710   4.229   9.024  0.8392  3.2761 -1.1500
 6229SOL     OW30322   3.548   0.083   8.007  0.6627 -0.1465  0.0619
 6229SOL    HW130323   3.487   0.012   7.985  0.7573 -0.4157  0.6684
 6229SOL    HW230324   3.587   0.050   8.087 -1.5354  0.0556  1.2070
 6230SOL     OW30325   3.044   4.097  16.130  0.7182  0.2787  0.0068
 6230SOL    HW130326   3.133   4.126  16.109  0.6159  0.0122 -0.7871
 6230SOL    HW230327   3.062   4.036  16.201  0.2167 -2.0217 -1.8416
 6231SOL     OW30328   2.148   1.395   7.283 -0.1215 -0.3776 -0.1501
 6231SOL    HW130329   2.155   1.398   7.188 -0.1265 -0.9995 -0.1683
 6231SOL    HW230330   2.182   1.483   7.298  0.7052 -1.0225  1.7601
 6232SOL     OW30331   4.213   3.130   6.033  0.1199  0.0387  0.3754
 6232SOL    HW130332   4.122   3.108   6.056 -0.4575 -0.3874 -2.3375
 6232SOL    HW230333   4.216   3.081   5.951 -2.4795  0.4555  0.0038
 6233SOL     OW30334   3.177   0.721   5.955 -0.3979  0.4430  0.0853
 6233SOL    HW130335   3.134   0.667   5.889  0.1131 -0.5308  0.5430
 6233SOL    HW230336   3.169   0.670   6.036 -0.7223  1.1472  0.5023
 6234SOL     OW30337   1.510   3.771   4.799 -0.2822 -0.6123  0.0049
 6234SOL    HW130338   1.417   3.764   4.779 -0.2502  0.5445 -0.5443
 6234SOL    HW230339   1.519   3.814   4.884  1.8068  0.2506 -0.6468
 6235SOL     OW30340   3.170   3.640   0.449  0.1374  0.3022  0.1905
 6235SOL    HW130341   3.213   3.714   0.406 -1.9098  1.1122 -0.4779
 6235SOL    HW230342   3.079   3.671   0.452 -0.1221 -0.5033  0.7321
 6236SOL     OW30343   3.308   0.518   4.527  0.3915 -0.0833  0.0113
 6236SOL    HW130344   3.216   0.491   4.532 -0.7229  3.3758 -1.3341
 6236SOL    HW230345   3.292   0.608   4.558 -2.0703 -0.3127 -0.5407
 6237SOL     OW30346   2.247   3.333   7.687  0.1466 -0.0600  0.4369
 6237SOL    HW130347   2.323   3.303   7.637 -0.5510 -1.5443  0.2725
 6237SOL    HW230348   2.224   3.417   7.647 -0.1555  0.0928  0.9377
 6238SOL     OW30349   2.351   2.809   4.107  0.1681  0.0238 -0.0980
 6238SOL    HW130350   2.335   2.837   4.017 -1.3405  0.2803  0.2369
 6238SOL    HW230351   2.441   2.840   4.115  0.0982  0.0449  0.6021
 6239SOL     OW30352   3.695   0.272   1.712  0.3447 -0.4225  0.0836
 6239SOL    HW130353   3.637   0.311   1.778  2.0573  0.6127  0.9667
 6239SOL    HW230354   3.681   0.332   1.639 -1.9784 -0.1851  0.7124
 6240SOL     OW30355   0.096   0.072   3.692  0.2567 -0.1155  0.3211
 6240SOL    HW130356   0.120   0.132   3.762  1.1505  0.1852 -0.2409
 6240SOL    HW230357   0.028   0.123   3.649  1.6876  1.5253  0.0200
 6241SOL     OW30358   3.152   0.048   9.405  0.2563  0.9278  0.2510
 6241SOL    HW130359   3.217   4.718   9.431 -0.2601 -0.3507 -1.6551
 6241SOL    HW230360   3.073   0.011   9.445  0.8773  0.3229  0.9125
 6242SOL     OW30361   3.260   4.002   9.930  0.6268  0.4673 -0.5946
 6242SOL    HW130362   3.281   4.050   9.850 -1.2095  1.5025 -0.4491
 6242SOL    HW230363   3.182   3.949   9.913  1.4911 -0.6182 -1.1677
 6243SOL     OW30364   1.851   3.995   8.130  0.1569 -0.1792  0.3132
 6243SOL    HW130365   1.779   3.950   8.173 -0.1834 -1.8491 -2.0226
 6243SOL    HW230366   1.851   4.085   8.163  3.7696  0.3014 -0.9297
 6244SOL     OW30367   0.001   2.856   4.416 -0.5377 -0.2907 -0.2548
 6244SOL    HW130368   4.685   2.881   4.339 -2.9678 -1.0511  1.1128
 6244SOL    HW230369   0.086   2.825   4.383 -0.0135  0.2259  0.6221
 6245SOL     OW30370   3.010   2.330   2.915  0.3501 -0.3246 -0.3208
 6245SOL    HW130371   2.998   2.385   2.837 -2.5403 -1.1113 -0.4295
 6245SOL    HW230372   3.097   2.293   2.899  0.7699  0.3547  0.3792
 6246SOL     OW30373   3.153   1.619   7.190  0.5308 -0.0516  0.0588
 6246SOL    HW130374   3.077   1.652   7.144  0.9485 -0.3570 -0.8506
 6246SOL    HW230375   3.143   1.664   7.274 -0.4431  1.1950 -0.7450
 6247SOL     OW30376   0.697   0.344   6.663  0.2984 -0.1310 -0.3973
 6247SOL    HW130377   0.678   0.394   6.742  0.0635 -0.3596 -0.3087
 6247SOL    HW230378   0.789   0.326   6.685 -0.5274 -3.6519  0.3085
 6248SOL     OW30379   3.993   3.583   4.889 -0.1403 -0.5977  0.0644
 6248SOL    HW130380   3.974   3.497   4.853 -0.7380 -0.5313  0.2195
 6248SOL    HW230381   4.028   3.562   4.975  0.4953 -1.4996 -0.4126
 6249SOL     OW30382   1.049   1.059  15.540  0.0644  0.3927  0.4919
 6249SOL    HW130383   1.090   1.117  15.476  0.2231 -0.9421 -0.6232
 6249SOL    HW230384   0.957   1.067  15.515  1.0630  0.8221 -3.0411
 6250SOL     OW30385   3.510   0.355   3.448  0.1198 -0.0164  0.4263
 6250SOL    HW130386   3.520   0.262   3.469  0.7071 -0.2459 -0.8489
 6250SOL    HW230387   3.580   0.358   3.383 -0.0703  0.6632  0.2558
 6251SOL     OW30388   0.340   3.013   6.391 -0.1245 -0.1367 -0.6160
 6251SOL    HW130389   0.385   2.929   6.401 -1.8658 -0.8793  0.9374
 6251SOL    HW230390   0.255   2.984   6.423 -0.8866  1.0025 -1.6185
 6252SOL     OW30391   0.035   0.636   6.528  0.5142  0.0116 -0.1767
 6252SOL    HW130392   4.684   0.660   6.494  0.1300  1.4685  1.7938
 6252SOL    HW230393   0.016   0.551   6.567  1.2043  0.1677  0.5101
 6253SOL     OW30394   3.415   4.479   4.906  0.3331  0.6487 -0.3431
 6253SOL    HW130395   3.506   4.459   4.882 -1.1593 -1.2178 -4.4511
 6253SOL    HW230396   3.410   4.396   4.953  0.7605  0.7802 -0.0608
 6254SOL     OW30397   3.768   1.379   5.561  0.0908  0.2453 -0.0204
 6254SOL    HW130398   3.673   1.389   5.552  0.3377  0.6390 -2.1696
 6254SOL    HW230399   3.779   1.287   5.536  3.6012  0.8884 -0.7814
 6255SOL     OW30400   0.685   3.464   8.100 -0.0800 -0.2345  0.4095
 6255SOL    HW130401   0.671   3.447   8.193 -1.6177  3.0947  0.7835
 6255SOL    HW230402   0.728   3.388   8.060 -1.0166 -0.6554  0.1951
 6256SOL     OW30403   1.596   2.449  16.965  0.0166  0.3848 -0.1729
 6256SOL    HW130404   1.635   2.524  17.011  1.3143 -0.9045  0.8040
 6256SOL    HW230405   1.596   2.388  17.038  2.3033 -0.2976 -0.7412
 6257SOL     OW30406   2.954   4.382   2.012 -0.3718 -0.3573  0.2338
 6257SOL    HW130407   2.943   4.444   1.939  0.9689  0.0502  0.3736
 6257SOL    HW230408   3.016   4.320   1.973  0.3885 -1.1882  2.7582
 6258SOL     OW30409   0.246   1.976   4.735 -0.0683 -0.3326 -0.1467
 6258SOL    HW130410   0.200   1.982   4.819  0.4010 -1.1792  0.1769
 6258SOL    HW230411   0.306   2.051   4.739 -0.6870 -0.0396  3.5858
 6259SOL     OW30412   0.942   2.730   4.551 -0.2789  0.5183  0.0903
 6259SOL    HW130413   1.000   2.756   4.479 -0.7765  0.9375 -0.1687
 6259SOL    HW230414   0.848   2.730   4.528 -0.6747 -1.3117  1.7450
 6260SOL     OW30415   0.401   2.659   7.332  0.3083 -0.2635 -0.3079
 6260SOL    HW130416   0.482   2.658   7.281  0.3006 -0.3521 -0.3189
 6260SOL    HW230417   0.437   2.650   7.421 -0.0968 -1.3094 -0.2535
 6261SOL     OW30418   0.393   1.141   3.876 -0.1372  0.7857  0.0710
 6261SOL    HW130419   0.327   1.201   3.909 -0.5596 -0.3305  1.3007
 6261SOL    HW230420   0.374   1.114   3.786 -2.0773  3.3413 -0.2470
 6262SOL     OW30421   4.697   2.662   4.198  0.6237  0.3338 -0.2707
 6262SOL    HW130422   4.719   2.576   4.234 -1.0117 -0.5648 -1.4108
 6262SOL    HW230423   0.045   2.702   4.221 -0.0599  1.1345  0.7693
 6263SOL     OW30424   0.165   1.046   2.255 -0.5733 -0.8715  0.8465
 6263SOL    HW130425   0.133   0.997   2.331 -1.9166 -4.1234 -1.8227
 6263SOL    HW230426   0.144   1.135   2.283 -0.2256 -0.6610  0.4330
 6264SOL     OW30427   0.938   3.052   8.041 -0.1077 -0.8419  0.1548
 6264SOL    HW130428   0.917   3.053   8.134  2.5885 -0.3420  0.7847
 6264SOL    HW230429   1.010   3.115   8.043 -1.9422  1.3555 -2.3499
 6265SOL     OW30430   2.416   1.793   1.362  0.1755 -0.2790 -0.3903
 6265SOL    HW130431   2.384   1.734   1.430 -0.4187 -0.3198 -0.7023
 6265SOL    HW230432   2.456   1.730   1.301 -0.3563 -1.0651  0.0820
 6266SOL     OW30433   2.743   0.828   6.708 -0.1731 -0.0674 -0.3940
 6266SOL    HW130434   2.686   0.765   6.664  1.8139 -1.3814 -1.0658
 6266SOL    HW230435   2.816   0.831   6.646  0.3656 -1.9460  0.1456
 6267SOL     OW30436   1.484   3.927   8.012 -0.2103 -0.6490 -0.0214
 6267SOL    HW130437   1.492   3.851   7.954  2.2849  1.0975 -1.9678
 6267SOL    HW230438   1.481   3.997   7.946 -0.6147 -0.7666 -0.1292
 6268SOL     OW30439   2.819   3.460  11.866 -0.0755  0.6631 -0.3690
 6268SOL    HW130440   2.790   3.453  11.957  0.0884 -0.4150 -0.4053
 6268SOL    HW230441   2.830   3.369  11.841  0.3328  0.3270  1.0047
 6269SOL     OW30442   1.597   0.424   5.842  0.3140  0.2467 -0.3633
 6269SOL    HW130443   1.689   0.450   5.830  0.0909  1.3203  0.2046
 6269SOL    HW230444   1.607   0.336   5.880  0.6772  1.2936  2.0094
 6270SOL     OW30445   3.591   0.387   8.361 -0.3077 -0.2487 -0.4242
 6270SOL    HW130446   3.633   0.453   8.306 -0.7938 -1.2177 -1.9510
 6270SOL    HW230447   3.609   0.300   8.324  0.9646  0.1948 -0.8211
 6271SOL     OW30448   2.909   3.328   0.238  0.1416  0.4846 -0.5485
 6271SOL    HW130449   2.923   3.363   0.150 -2.6032  0.6927 -0.8915
 6271SOL    HW230450   2.993   3.353   0.276 -0.2813  1.5106 -0.2989
 6272SOL     OW30451   2.461   2.635  16.186 -0.0426  0.2438  0.5983
 6272SOL    HW130452   2.499   2.636  16.099 -0.2340 -1.4826  0.5088
 6272SOL    HW230453   2.482   2.544  16.206 -0.2933 -0.2862 -1.5652
 6273SOL     OW30454   2.218   0.539   6.477  0.5804  0.0467  0.3261
 6273SOL    HW130455   2.196   0.627   6.508  0.0493  0.8606 -2.3376
 6273SOL    HW230456   2.190   0.537   6.386  1.1636  2.0340  0.1078
 6274SOL     OW30457   2.548   3.270  14.040  0.2724  0.1580 -0.0510
 6274SOL    HW130458   2.608   3.234  14.105  1.3141  0.8325 -0.6382
 6274SOL    HW230459   2.565   3.225  13.957  1.7458 -3.0783  2.0074
 6275SOL     OW30460   0.720   3.155   6.918  0.0872  0.5933  0.0138
 6275SOL    HW130461   0.797   3.100   6.905  0.6744  2.1949 -3.2930
 6275SOL    HW230462   0.729   3.164   7.013 -0.9784 -1.6284  0.3263
 6276SOL     OW30463   1.888   1.147   8.026  0.1466  0.4352 -0.1432
 6276SOL    HW130464   1.929   1.233   8.023  0.1423  0.4330 -0.2725
 6276SOL    HW230465   1.908   1.123   7.935 -1.1332  0.0182 -0.3198
 6277SOL     OW30466   4.083   1.539   8.554  0.2921  0.1023 -0.3000
 6277SOL    HW130467   4.084   1.448   8.584  0.7134 -0.1535 -1.0964
 6277SOL    HW230468   4.004   1.540   8.500  0.9455 -0.8848 -1.2760
 6278SOL     OW30469   0.484   0.275   5.997 -0.3385 -0.2099 -0.1635
 6278SOL    HW130470   0.483   0.263   6.092 -2.0059 -1.5010 -0.3365
 6278SOL    HW230471   0.578   0.266   5.988 -0.2358  2.1844 -1.4944
 6279SOL     OW30472   4.571   4.102  16.204  0.6244  0.3276 -0.3711
 6279SOL    HW130473   4.547   4.050  16.281  1.3644 -1.9007 -1.6310
 6279SOL    HW230474   4.655   4.060  16.186 -1.1645 -2.5418 -2.0753
 6280SOL     OW30475   0.231   1.905   9.249  0.4596 -0.1643  0.2155
 6280SOL    HW130476   0.209   1.994   9.221 -1.6480  0.1332  2.8122
 6280SOL    HW230477   0.243   1.923   9.342 -0.6222 -0.8850  0.5057
 6281SOL     OW30478   2.952   0.522   2.737  0.0139  0.6278  0.5282
 6281SOL    HW130479   2.882   0.586   2.752 -1.0873 -0.5211  0.3088
 6281SOL    HW230480   2.905   0.452   2.691 -0.9384  0.9326  1.0408
 6282SOL     OW30481   1.412   2.050   4.444 -0.2777 -0.8625 -0.4828
 6282SOL    HW130482   1.506   2.037   4.435 -0.2628 -0.6511 -0.6235
 6282SOL    HW230483   1.404   2.076   4.352 -3.7745 -1.1963 -0.2717
 6283SOL     OW30484   3.464   4.240   0.536 -0.2883  0.4535  0.3286
 6283SOL    HW130485   3.513   4.303   0.483 -2.8681  2.4723  0.3580
 6283SOL    HW230486   3.458   4.284   0.620 -0.0167  1.8418 -0.3785
 6284SOL     OW30487   3.179   3.752   8.479  0.3007  0.1244 -0.8262
 6284SOL    HW130488   3.269   3.758   8.512  0.2998 -1.2203 -0.5583
 6284SOL    HW230489   3.181   3.818   8.410 -1.2999  0.6822 -0.3310
 6285SOL     OW30490   2.462   4.306   3.115 -0.0840  0.0772 -0.8907
 6285SOL    HW130491   2.478   4.396   3.144 -1.4267  0.7131 -2.1510
 6285SOL    HW230492   2.373   4.316   3.081 -1.2740 -3.6263  1.0526
 6286SOL     OW30493   2.551   1.948   8.413  0.0338  0.6030 -0.2596
 6286SOL    HW130494   2.509   1.936   8.498 -0.2528 -1.6468 -0.7303
 6286SOL    HW230495   2.590   2.035   8.422 -0.4939  0.9480 -1.3331
 6287SOL     OW30496   4.500   0.282   1.888 -0.1015 -0.2884 -0.7248
 6287SOL    HW130497   4.465   0.283   1.977  1.3814  1.1469 -0.1525
 6287SOL    HW230498   4.563   0.210   1.888  1.2310  0.8530 -3.7814
 6288SOL     OW30499   2.343   4.600   4.654 -0.3729  0.0701  0.0900
 6288SOL    HW130500   2.375   4.587   4.743 -0.7687 -1.4619 -0.0074
 6288SOL    HW230501   2.404   4.669   4.626  1.2393 -0.6118  1.8859
 6289SOL     OW30502   1.966   0.363  16.777 -0.1096 -0.0779  0.2429
 6289SOL    HW130503   1.953   0.453  16.747 -1.0236  0.1425  1.3237
 6289SOL    HW230504   1.987   0.319  16.694 -0.0903 -1.8606  1.1815
 6290SOL     OW30505   0.668   4.673   0.767  0.1196  0.4479 -0.1315
 6290SOL    HW130506   0.582   4.692   0.805 -0.3010 -0.7543 -0.4603
 6290SOL    HW230507   0.711   0.023   0.768  1.1285 -0.0568 -0.5771
 6291SOL     OW30508   0.737   0.664  15.148 -0.1829 -0.7095  0.1237
 6291SOL    HW130509   0.758   0.727  15.217 -0.7134 -0.5688  0.1585
 6291SOL    HW230510   0.650   0.692  15.122  1.6719  4.5365 -0.4596
 6292SOL     OW30511   1.033   0.952  14.147 -0.0559 -0.2193 -0.3989
 6292SOL    HW130512   1.090   0.972  14.072  1.0607 -2.5192 -0.1596
 6292SOL    HW230513   1.093   0.966  14.221  0.5705  2.3362 -1.3879
 6293SOL     OW30514   4.070   3.772   9.424  0.0628  0.7642 -0.0482
 6293SOL    HW130515   3.991   3.721   9.433 -0.3187  1.1918 -0.9071
 6293SOL    HW230516   4.053   3.850   9.477  1.9260  1.5898 -0.6422
 6294SOL     OW30517   4.162   4.290  11.893 -0.6164 -0.9186  0.3412
 6294SOL    HW130518   4.141   4.366  11.947 -1.2674 -0.7185 -0.1832
 6294SOL    HW230519   4.214   4.333  11.826 -1.8103  0.0678  0.0380
 6295SOL     OW30520   2.615   2.544   6.657  0.7276 -0.1858  0.4643
 6295SOL    HW130521   2.599   2.491   6.579 -1.6942 -0.2390  1.0193
 6295SOL    HW230522   2.544   2.605   6.641  0.9438  0.3472  1.5116
 6296SOL     OW30523   0.586   1.562  17.352  0.1457  0.4475 -0.1740
 6296SOL    HW130524   0.664   1.617  17.346 -0.0464  0.4937 -2.1168
 6296SOL    HW230525   0.617   1.483  17.308  0.9412  2.7279 -3.7107
 6297SOL     OW30526   2.060   1.076   2.317 -0.2376  0.6759  0.0039
 6297SOL    HW130527   2.087   1.006   2.376  2.1769  0.2515 -1.6643
 6297SOL    HW230528   2.132   1.139   2.321  0.8553 -0.5951  0.3132
 6298SOL     OW30529   2.801   4.123   3.689 -0.6329 -0.2155 -0.2764
 6298SOL    HW130530   2.812   4.029   3.676 -1.1530 -0.2834 -0.2566
 6298SOL    HW230531   2.893   4.148   3.683 -0.1186 -2.5762 -1.9588
 6299SOL     OW30532   2.641   3.095   6.465  0.4347 -0.3590  1.1540
 6299SOL    HW130533   2.639   3.002   6.444 -0.2165 -0.0123 -0.3150
 6299SOL    HW230534   2.559   3.109   6.512 -0.3864 -0.4195 -0.2489
 6300SOL     OW30535   1.255   4.090   2.179 -0.6666 -0.0275 -0.4629
 6300SOL    HW130536   1.330   4.138   2.214 -1.3989  0.8382 -0.0877
 6300SOL    HW230537   1.253   4.132   2.093  0.6123  0.8651 -0.0526
 6301SOL     OW30538   2.409   3.277  10.956  0.3629  0.2473 -0.4394
 6301SOL    HW130539   2.450   3.213  11.014  0.4343  0.6728 -0.0136
 6301SOL    HW230540   2.338   3.220  10.928 -0.8179  1.6206 -0.2842
 6302SOL     OW30541   2.206   3.439   5.945  0.2416  0.8167  0.1568
 6302SOL    HW130542   2.237   3.523   5.981 -1.4199  1.5740 -0.2036
 6302SOL    HW230543   2.278   3.408   5.890  0.5945 -0.8055  1.5363
 6303SOL     OW30544   0.615   2.225   3.214 -0.1151 -0.4133 -0.1172
 6303SOL    HW130545   0.524   2.205   3.192  0.1539 -0.4017 -1.2271
 6303SOL    HW230546   0.608   2.244   3.308  0.1438 -0.9779  0.0133
 6304SOL     OW30547   2.746   4.365   3.443  0.2765 -0.1070 -0.5376
 6304SOL    HW130548   2.812   4.300   3.422  0.2398  0.0916 -1.2993
 6304SOL    HW230549   2.664   4.321   3.421  0.4420 -0.6415 -0.0763
 6305SOL     OW30550   4.479   0.155   7.621 -0.3996  0.4081  0.4892
 6305SOL    HW130551   4.525   0.178   7.541 -0.5582 -1.1279 -0.0289
 6305SOL    HW230552   4.536   0.191   7.689  0.1778 -2.3730  1.4777
 6306SOL     OW30553   3.599   4.257   9.316  0.7044 -0.1900  0.3862
 6306SOL    HW130554   3.679   4.276   9.267 -1.2210 -0.2637 -2.7965
 6306SOL    HW230555   3.628   4.257   9.407 -0.2125 -0.9391  0.6738
 6307SOL     OW30556   3.834   4.601   7.885  0.1878  0.2747 -0.2248
 6307SOL    HW130557   3.908   4.596   7.825  0.7918  1.0756  0.4599
 6307SOL    HW230558   3.854   4.680   7.935  0.0135 -0.3369  0.8291
 6308SOL     OW30559   3.184   1.308   5.419  0.0537  0.1666  0.5320
 6308SOL    HW130560   3.122   1.379   5.437 -0.2925  0.2437 -0.9662
 6308SOL    HW230561   3.200   1.273   5.506 -2.5213  1.1815  1.4059
 6309SOL     OW30562   1.834   4.241   5.616 -0.0043 -0.5139 -0.4116
 6309SOL    HW130563   1.757   4.230   5.560  0.3652  1.4095 -1.3152
 6309SOL    HW230564   1.894   4.292   5.562 -0.4865 -1.1163 -1.5185
 6310SOL     OW30565   0.348   3.870  16.639 -0.1320  0.4963  0.2662
 6310SOL    HW130566   0.377   3.872  16.731 -2.7542  0.3597  1.0828
 6310SOL    HW230567   0.436   3.887  16.605 -0.8797 -0.4952 -2.1043
 6311SOL     OW30568   4.269   1.764   5.475 -0.4450 -0.6653  0.2590
 6311SOL    HW130569   4.244   1.718   5.395 -1.1419 -0.9986  0.6660
 6311SOL    HW230570   4.211   1.716   5.534 -1.6549  0.1096 -0.3031
 6312SOL     OW30571   1.331   0.731   8.029  0.9426 -0.1760  0.7122
 6312SOL    HW130572   1.306   0.729   7.937  1.4820 -0.8530  0.5833
 6312SOL    HW230573   1.245   0.740   8.070 -0.5987 -0.1212 -2.5603
 6313SOL     OW30574   2.206   2.330   5.418 -0.2613 -0.2010 -0.3631
 6313SOL    HW130575   2.256   2.395   5.370  1.1006  0.5092  2.0025
 6313SOL    HW230576   2.278   2.276   5.452  1.3832  0.6360 -2.5313
 6314SOL     OW30577   4.538   2.631   8.248 -0.5610 -0.0553  0.1847
 6314SOL    HW130578   4.626   2.596   8.264 -0.6676 -0.5075 -0.2085
 6314SOL    HW230579   4.542   2.654   8.155 -1.3782 -1.0162 -0.0916
 6315SOL     OW30580   4.539   1.898   6.036  0.1980 -0.5791  0.4238
 6315SOL    HW130581   4.603   1.969   6.034 -1.0709  0.4813 -2.4777
 6315SOL    HW230582   4.453   1.938   6.024 -0.2422 -1.1365  1.7008
 6316SOL     OW30583   4.726   2.305  10.549  0.0894  0.4431 -0.7023
 6316SOL    HW130584   0.048   2.373  10.585 -2.2572  0.2570  3.3037
 6316SOL    HW230585   4.657   2.288  10.613  0.8631  1.3990  0.3864
 6317SOL     OW30586   0.720   0.183   6.437 -0.0256 -0.9926  0.4499
 6317SOL    HW130587   0.699   0.239   6.512  1.3689 -1.4140  1.1506
 6317SOL    HW230588   0.689   0.098   6.467  0.4188 -1.8440 -1.5474
 6318SOL     OW30589   1.641   0.150  13.898  0.1688  0.8806 -0.1121
 6318SOL    HW130590   1.603   0.124  13.982 -1.7693 -0.5427 -1.4455
 6318SOL    HW230591   1.717   0.195  13.937  1.1895 -0.5193 -0.4983
 6319SOL     OW30592   2.398   3.575  10.008  0.6249  0.0565 -0.5924
 6319SOL    HW130593   2.441   3.637  10.067 -1.8511 -1.0311  2.3459
 6319SOL    HW230594   2.408   3.615   9.922  1.2533  1.2869  0.0538
 6320SOL     OW30595   2.885   3.637   4.827  0.2239  0.1505 -0.0154
 6320SOL    HW130596   2.933   3.569   4.875  2.4281  1.6389 -0.0970
 6320SOL    HW230597   2.930   3.623   4.744 -1.1240 -0.4048 -0.6457
 6321SOL     OW30598   1.851   1.660  14.083 -0.0435  0.2736 -0.1316
 6321SOL    HW130599   1.757   1.678  14.093  0.2700  0.7554  1.9524
 6321SOL    HW230600   1.839   1.574  14.044  0.1991  0.0018  0.3942
 6322SOL     OW30601   3.660   0.117   5.710  0.0745 -0.0455  0.0231
 6322SOL    HW130602   3.600   0.190   5.692  0.3374  0.4706  1.2611
 6322SOL    HW230603   3.635   0.058   5.639  0.0664  0.5524 -0.4714
 6323SOL     OW30604   1.820   1.616   4.483 -0.1726 -0.9502 -0.4984
 6323SOL    HW130605   1.835   1.610   4.577 -1.5813  0.2255 -0.2063
 6323SOL    HW230606   1.893   1.570   4.441  0.7929 -0.3350  0.5056
 6324SOL     OW30607   2.789   0.575   8.386  0.4542  0.3397 -0.5128
 6324SOL    HW130608   2.793   0.482   8.364 -0.3003  0.7014 -2.2288
 6324SOL    HW230609   2.819   0.607   8.301 -1.5910 -3.0268 -2.4887
 6325SOL     OW30610   0.029   2.769  14.436 -0.5290 -0.6480 -0.3014
 6325SOL    HW130611   0.009   2.777  14.342 -1.1435 -1.8241 -0.2790
 6325SOL    HW230612   0.121   2.748  14.419 -0.2295  2.7410 -2.7958
 6326SOL     OW30613   1.323   2.334  15.824  0.1495 -0.4124  0.1203
 6326SOL    HW130614   1.330   2.339  15.919 -1.5230  3.0305  0.0831
 6326SOL    HW230615   1.393   2.397  15.814  0.2439 -1.0732 -3.3539
 6327SOL     OW30616   4.204   1.396   8.292 -0.1785  0.1432  0.3313
 6327SOL    HW130617   4.124   1.347   8.309  0.0599  0.6795  2.8661
 6327SOL    HW230618   4.223   1.376   8.200  0.3093 -0.3309  0.5321
 6328SOL     OW30619   4.602   4.111  15.094 -0.1902  0.5209 -0.0692
 6328SOL    HW130620   4.695   4.130  15.080 -0.4711  1.6640 -0.4104
 6328SOL    HW230621   4.604   4.017  15.076  0.5206  0.3090  1.1104
 6329SOL     OW30622   0.209   0.533   5.004  0.6954 -0.4515 -0.2182
 6329SOL    HW130623   0.256   0.453   5.027  2.4467  0.8964  0.8634
 6329SOL    HW230624   0.137   0.496   4.952 -0.3815 -1.9185  2.2588
 6330SOL     OW30625   3.927   1.072   5.704 -0.1310  0.2770 -0.4429
 6330SOL    HW130626   3.958   1.003   5.645 -1.2233  0.4012 -1.1556
 6330SOL    HW230627   3.869   1.117   5.643 -0.3867 -0.1930 -0.5502
 6331SOL     OW30628   1.536   0.108   0.584  0.2216 -0.7883 -0.6235
 6331SOL    HW130629   1.461   0.165   0.566  0.8710  0.4982  0.7799
 6331SOL    HW230630   1.508   0.075   0.669  1.8507  0.2491  0.3005
 6332SOL     OW30631   3.678   0.728   1.499  0.5621 -0.5672  0.3462
 6332SOL    HW130632   3.731   0.804   1.475 -0.9276  0.4701  0.3393
 6332SOL    HW230633   3.674   0.726   1.594 -0.0945  1.3917  0.3540
 6333SOL     OW30634   1.561   0.967   4.412  0.0931  0.0624 -0.0161
 6333SOL    HW130635   1.517   0.958   4.327  1.6571 -1.1303 -0.7186
 6333SOL    HW230636   1.478   0.948   4.454  1.0381 -0.9050  1.3977
 6334SOL     OW30637   4.112   3.243   3.557 -0.2836  0.0716 -0.0739
 6334SOL    HW130638   4.127   3.337   3.547 -0.1765  0.0611 -0.0162
 6334SOL    HW230639   4.173   3.229   3.630 -0.8044  2.9347  0.9264
 6335SOL     OW30640   3.722   3.122   8.127 -0.4492 -0.0093 -0.3747
 6335SOL    HW130641   3.665   3.183   8.175 -0.2191  1.8864 -2.5128
 6335SOL    HW230642   3.665   3.045   8.127 -1.1726  0.5272 -0.4185
 6336SOL     OW30643   0.269   0.996   4.196  0.3259 -0.0190  0.3325
 6336SOL    HW130644   0.306   0.919   4.240 -1.1417 -0.5207  0.6773
 6336SOL    HW230645   0.200   0.956   4.143 -0.6127  0.8353  0.9110
 6337SOL     OW30646   0.838   0.221   4.699 -0.8528  0.6203  0.2145
 6337SOL    HW130647   0.828   0.153   4.766  0.6904 -0.3223 -0.5086
 6337SOL    HW230648   0.901   0.172   4.646 -1.9765 -0.7104  0.1141
 6338SOL     OW30649   1.934   3.811  15.134  0.0217 -1.0199 -0.1363
 6338SOL    HW130650   1.970   3.725  15.156 -1.6167 -1.0109  2.4990
 6338SOL    HW230651   1.996   3.870  15.178 -1.0206  0.0877 -0.1695
 6339SOL     OW30652   1.387   3.862   4.438  0.1527  0.0092  0.2193
 6339SOL    HW130653   1.437   3.934   4.399 -1.0136  0.6173 -0.1508
 6339SOL    HW230654   1.456   3.811   4.480 -0.5126 -2.0495 -1.2190
 6340SOL     OW30655   3.740   0.060  13.332  0.2965  0.3020  0.3880
 6340SOL    HW130656   3.755   4.709  13.369 -1.3394  0.8080  2.2090
 6340SOL    HW230657   3.817   0.064  13.276 -0.0960 -0.1451 -0.1907
 6341SOL     OW30658   3.162   0.490   6.140 -0.1199  0.0211 -0.0758
 6341SOL    HW130659   3.069   0.483   6.163  0.0056 -1.2243  0.0245
 6341SOL    HW230660   3.168   0.399   6.114  1.0621  0.1986 -0.4049
 6342SOL     OW30661   1.592   1.755  16.402 -0.0147  0.0280 -0.1895
 6342SOL    HW130662   1.557   1.688  16.343 -0.9926  1.6924 -1.4853
 6342SOL    HW230663   1.524   1.763  16.469  1.0271 -2.2791  1.1402
 6343SOL     OW30664   4.726   1.067  12.660 -0.1886 -0.3976  0.1805
 6343SOL    HW130665   0.060   1.023  12.710 -1.1858  0.0970  1.9735
 6343SOL    HW230666   4.671   1.107  12.727  3.0339  1.4705  1.7084
 6344SOL     OW30667   2.911   0.147   4.825  0.3460 -0.4879  0.6546
 6344SOL    HW130668   2.959   0.216   4.778 -0.4491 -0.8717 -0.7450
 6344SOL    HW230669   2.972   0.074   4.827 -0.4726 -1.1699  0.7275
 6345SOL     OW30670   1.617   1.516  11.810  0.1608  0.6934 -0.3556
 6345SOL    HW130671   1.545   1.503  11.749 -1.7074  0.6730  1.8472
 6345SOL    HW230672   1.595   1.452  11.877  0.7126  0.8967  0.0163
 6346SOL     OW30673   3.268   4.045   0.538 -0.5054 -0.5494 -0.3172
 6346SOL    HW130674   3.258   4.006   0.451  0.5683 -0.0703 -0.6531
 6346SOL    HW230675   3.354   4.086   0.535  0.5379 -2.7931 -1.2713
 6347SOL     OW30676   4.693   4.317   5.525  0.0115  0.5158  0.6501
 6347SOL    HW130677   4.731   4.283   5.606  3.1171  1.7800 -0.2544
 6347SOL    HW230678   4.709   4.411   5.533 -1.9287  0.9632 -0.5620
 6348SOL     OW30679   4.585   3.060   1.131  0.5600 -0.2672 -0.1613
 6348SOL    HW130680   4.609   3.044   1.040  2.3317 -0.5052  0.3606
 6348SOL    HW230681   4.664   3.096   1.172 -2.0762  1.6259  3.3770
 6349SOL     OW30682   4.659   3.562   6.006  0.5179 -0.0307  0.0187
 6349SOL    HW130683   4.669   3.475   5.968 -0.9351 -0.5784  0.9123
 6349SOL    HW230684   4.721   3.565   6.079  1.5251 -0.9782 -0.7987
 6350SOL     OW30685   4.206   0.760   4.360 -0.2783  0.2031  0.0475
 6350SOL    HW130686   4.287   0.716   4.387  0.6932  0.6804 -2.0583
 6350SOL    HW230687   4.150   0.689   4.330  0.8683 -1.1388  1.0600
 6351SOL     OW30688   3.433   4.701   4.761  0.0748 -0.3285 -0.0899
 6351SOL    HW130689   3.490   4.646   4.707 -2.4163 -3.4481  0.4707
 6351SOL    HW230690   3.413   4.630   4.821  0.2732  0.1433  0.5376
 6352SOL     OW30691   1.795   2.776  11.739  0.3053 -0.5895 -0.1886
 6352SOL    HW130692   1.842   2.751  11.660 -1.9007  0.8603 -1.9479
 6352SOL    HW230693   1.857   2.767  11.812 -1.8793  0.2458  1.7552
 6353SOL     OW30694   2.776   3.618   2.344 -0.2174  0.2188 -0.9652
 6353SOL    HW130695   2.733   3.618   2.429  1.0230  2.3031 -0.3471
 6353SOL    HW230696   2.703   3.575   2.298 -1.1646 -3.1594  3.6485
 6354SOL     OW30697   0.520   2.800   0.991  0.3740 -0.0444  0.1118
 6354SOL    HW130698   0.434   2.835   1.015 -0.7505 -1.3783 -1.9674
 6354SOL    HW230699   0.502   2.710   0.963  0.7349  0.4176 -1.6281
 6355SOL     OW30700   2.754   1.261   6.162 -0.6678 -0.1893  0.3526
 6355SOL    HW130701   2.841   1.301   6.163 -1.0642  0.6383  3.9300
 6355SOL    HW230702   2.732   1.275   6.254  2.1539  2.0648  0.7025
 6356SOL     OW30703   3.083   0.229  11.834 -0.6660  0.4795  0.3134
 6356SOL    HW130704   3.054   0.141  11.811  2.1997 -0.7997  1.5725
 6356SOL    HW230705   3.003   0.278  11.815 -1.0635 -0.4327 -0.3636
 6357SOL     OW30706   4.618   3.760   4.097 -0.5319  0.2864 -0.3905
 6357SOL    HW130707   4.561   3.730   4.168  1.7620  1.5281  1.9647
 6357SOL    HW230708   4.581   3.845   4.074  3.6159  1.9300 -0.8080
 6358SOL     OW30709   1.946   1.870   6.880 -0.1021 -0.1209 -0.1136
 6358SOL    HW130710   1.927   1.780   6.903  1.7792 -0.2655  0.8551
 6358SOL    HW230711   2.035   1.849   6.851 -0.4104 -1.6848  0.0885
 6359SOL     OW30712   4.038   0.323   3.325  0.0160  0.1118 -0.4568
 6359SOL    HW130713   4.091   0.402   3.311 -0.9046  0.5259 -1.5945
 6359SOL    HW230714   4.080   0.283   3.249 -1.6817 -0.8207 -0.8787
 6360SOL     OW30715   3.490   1.688   5.514  0.3158  0.4814 -0.3363
 6360SOL    HW130716   3.483   1.633   5.591 -0.1228 -0.8656 -1.3465
 6360SOL    HW230717   3.578   1.669   5.482 -0.0690 -1.8882  0.0675
 6361SOL     OW30718   0.346   0.075   2.812  0.2403 -0.1340  0.0934
 6361SOL    HW130719   0.334   0.169   2.823 -1.8274 -0.3537 -0.2438
 6361SOL    HW230720   0.269   0.059   2.756 -0.3731  2.4183  0.1700
 6362SOL     OW30721   3.269   4.295  14.632  0.3910 -0.3731  0.1149
 6362SOL    HW130722   3.198   4.286  14.568 -0.8335 -1.3073  1.5701
 6362SOL    HW230723   3.197   4.304  14.696  0.6190  1.3202  0.1291
 6363SOL     OW30724   4.281   0.382   3.495  0.5963 -0.3107 -0.2131
 6363SOL    HW130725   4.306   0.403   3.405 -3.2819  2.8913 -0.5544
 6363SOL    HW230726   4.273   0.468   3.535  0.4558  0.1444 -1.2194
 6364SOL     OW30727   1.759   2.351   4.629  0.1417  0.2211  0.1767
 6364SOL    HW130728   1.773   2.281   4.566 -0.2209 -0.7128  1.1242
 6364SOL    HW230729   1.696   2.313   4.691  1.1247 -0.6288  0.6467
 6365SOL     OW30730   0.504   1.025   5.981 -0.4782  0.5740 -0.6104
 6365SOL    HW130731   0.460   0.941   5.996 -0.0703  0.9470  2.8279
 6365SOL    HW230732   0.526   1.021   5.888 -3.0390  0.9045 -1.2385
 6366SOL     OW30733   0.167   3.732   9.217 -0.3041  0.5784 -0.1407
 6366SOL    HW130734   0.141   3.762   9.305  0.1940 -1.2682  0.6430
 6366SOL    HW230735   0.258   3.709   9.234  0.2779  1.2574 -2.4071
 6367SOL     OW30736   1.488   0.118  11.362  0.0676  0.0251  0.2648
 6367SOL    HW130737   1.506   0.156  11.275 -0.8409 -0.5955 -0.2009
 6367SOL    HW230738   1.575   0.092  11.391  0.2917 -0.5538 -0.9000
 6368SOL     OW30739   1.379   4.627  12.452 -0.1458 -0.8338 -0.0954
 6368SOL    HW130740   1.314   4.578  12.502 -1.3554  0.7688 -0.0984
 6368SOL    HW230741   1.327   4.683  12.394  0.4529  1.1764  1.3036
 6369SOL     OW30742   4.558   2.956   9.112 -0.1116  0.1448 -0.4141
 6369SOL    HW130743   4.544   2.874   9.066 -1.1678  0.4103 -0.5655
 6369SOL    HW230744   4.629   2.998   9.062  1.3153 -0.4068  1.1407
 6370SOL     OW30745   1.857   0.529   6.013  0.6297  0.2277 -0.1844
 6370SOL    HW130746   1.820   0.569   6.092  0.8405  2.1916 -1.0866
 6370SOL    HW230747   1.842   0.594   5.944  0.0099  2.5438  2.1274
 6371SOL     OW30748   4.316   0.323   1.710  0.3199 -0.2195  0.1114
 6371SOL    HW130749   4.389   0.296   1.764 -0.5774 -1.0404  0.9140
 6371SOL    HW230750   4.347   0.319   1.619 -0.9878  0.9741 -0.3912
 6372SOL     OW30751   0.989   1.505   0.724 -0.0716 -0.5308  0.0225
 6372SOL    HW130752   0.934   1.481   0.649  0.2969 -2.0438  0.2482
 6372SOL    HW230753   1.027   1.420   0.742 -0.0572 -0.4752  0.2528
 6373SOL     OW30754   2.699   2.800  16.555 -0.1006  0.1980  0.8218
 6373SOL    HW130755   2.728   2.771  16.641 -0.8880 -1.3534  0.5642
 6373SOL    HW230756   2.769   2.861  16.535  1.7393 -1.9434  0.7452
 6374SOL     OW30757   0.139   2.853   1.036  0.0339  0.4172  0.3954
 6374SOL    HW130758   0.107   2.820   1.120 -2.5999  2.6375  0.2755
 6374SOL    HW230759   0.196   2.926   1.060 -2.2197  2.6426 -0.9981
 6375SOL     OW30760   3.404   0.042  11.234 -0.4917 -0.7910  0.3948
 6375SOL    HW130761   3.353   4.699  11.255 -1.9097 -0.0727 -0.4699
 6375SOL    HW230762   3.487   4.730  11.221 -1.7721 -2.9311  0.0643
 6376SOL     OW30763   0.324   0.405  14.964 -0.0053 -0.1698  0.1217
 6376SOL    HW130764   0.396   0.413  15.027 -1.2405  1.9612  1.2885
 6376SOL    HW230765   0.333   0.488  14.918 -1.8209  0.1405  0.2957
 6377SOL     OW30766   4.725   4.154   8.143  0.0259  0.0203 -0.0039
 6377SOL    HW130767   0.020   4.068   8.172  0.6363 -0.4554 -2.0391
 6377SOL    HW230768   0.053   4.180   8.075 -0.4171  0.4047 -0.2677
 6378SOL     OW30769   0.889   4.257  16.957 -0.0562 -0.1581  0.5440
 6378SOL    HW130770   0.898   4.293  17.045 -0.8170 -1.0126  0.9742
 6378SOL    HW230771   0.956   4.311  16.915  0.2819 -1.1026 -0.1447
 6379SOL     OW30772   4.406   1.118   8.789  0.1473  0.2371 -0.4855
 6379SOL    HW130773   4.327   1.124   8.843  0.4495  1.0655 -0.1368
 6379SOL    HW230774   4.380   1.054   8.723 -0.3213  0.4365 -0.4907
 6380SOL     OW30775   4.417   4.138  11.733  0.0125 -0.3910 -0.0810
 6380SOL    HW130776   4.442   4.230  11.746  1.8432 -0.7592 -0.9627
 6380SOL    HW230777   4.476   4.095  11.795  0.0564 -0.8612 -0.4452
 6381SOL     OW30778   0.902   0.821  11.283 -0.6354 -0.2938  0.1148
 6381SOL    HW130779   0.924   0.863  11.366  0.4233  0.8765 -0.7579
 6381SOL    HW230780   0.851   0.747  11.315 -3.1206  1.5258  0.3348
 6382SOL     OW30781   4.078   1.627   9.087 -0.4596  0.7135  0.1500
 6382SOL    HW130782   4.085   1.548   9.142 -0.1780  0.5903 -0.0650
 6382SOL    HW230783   3.984   1.644   9.095 -0.6806  0.1709 -1.3892
 6383SOL     OW30784   3.503   4.283   6.615  0.1549 -0.3761  0.1457
 6383SOL    HW130785   3.583   4.313   6.658  1.3011 -0.8673 -1.6553
 6383SOL    HW230786   3.467   4.365   6.582  0.0475  0.3320  2.0290
 6384SOL     OW30787   0.729   1.158   6.039 -0.6462  0.6101 -0.0754
 6384SOL    HW130788   0.653   1.100   6.046 -1.2430  1.2710 -1.1314
 6384SOL    HW230789   0.791   1.097   6.000  0.7032  2.8817 -1.4272
 6385SOL     OW30790   3.334   4.305   1.859 -0.0228  0.4480 -0.0522
 6385SOL    HW130791   3.266   4.366   1.828 -0.4615 -0.7041 -1.3597
 6385SOL    HW230792   3.304   4.267   1.941  1.5867 -0.3282  0.1560
 6386SOL     OW30793   2.255   0.091  16.533 -0.1894 -0.2454  0.0004
 6386SOL    HW130794   2.331   0.057  16.579  1.3291  1.2241 -1.4503
 6386SOL    HW230795   2.239   0.016  16.476 -0.2578 -1.3400  1.4505
 6387SOL     OW30796   3.683   2.035   3.363 -0.3923 -0.1824  0.2099
 6387SOL    HW130797   3.762   2.073   3.401 -1.9784  2.0872  1.2636
 6387SOL    HW230798   3.669   1.963   3.425  0.1302 -0.2833  0.2114
 6388SOL     OW30799   3.344   0.912   4.807  0.2907 -0.4749 -0.3340
 6388SOL    HW130800   3.321   0.886   4.718 -0.0735 -1.3467  0.0230
 6388SOL    HW230801   3.286   0.848   4.847  1.4371 -1.5632 -0.4367
 6389SOL     OW30802   1.693   2.860   1.262 -0.2699 -0.2917  0.0052
 6389SOL    HW130803   1.740   2.845   1.344 -0.5104  1.3097  0.4491
 6389SOL    HW230804   1.686   2.956   1.258 -0.1613 -0.3459 -1.6789
 6390SOL     OW30805   0.788   0.918   2.303  0.0844  0.1687  0.1758
 6390SOL    HW130806   0.749   1.003   2.325 -3.0013 -0.9712 -0.8593
 6390SOL    HW230807   0.750   0.864   2.373 -0.0991  0.5909  0.4098
 6391SOL     OW30808   0.270   2.421   7.236  0.3341 -0.2749 -0.2174
 6391SOL    HW130809   0.312   2.501   7.267 -0.5288  1.3216 -3.2174
 6391SOL    HW230810   0.226   2.389   7.315  4.2152  0.6047  2.3102
 6392SOL     OW30811   1.145   2.084   2.454  0.6394  0.5466  0.3492
 6392SOL    HW130812   1.190   2.053   2.533 -0.0239 -2.5172 -0.4938
 6392SOL    HW230813   1.197   2.165   2.447 -2.5399  2.6053  0.5811
 6393SOL     OW30814   0.468   4.449   8.704  0.3775 -0.1102 -0.0762
 6393SOL    HW130815   0.515   4.454   8.621  2.3570  1.1367  1.1272
 6393SOL    HW230816   0.407   4.376   8.690  0.8761 -0.7552  1.0508
 6394SOL     OW30817   3.359   2.984   2.970  0.0171  0.2196 -0.1813
 6394SOL    HW130818   3.416   2.908   2.981 -1.6349 -0.8135  1.2305
 6394SOL    HW230819   3.326   2.961   2.883 -3.9456  0.1938  1.3284
 6395SOL     OW30820   2.604   0.895   0.636 -0.3237 -0.2233 -0.6744
 6395SOL    HW130821   2.630   0.808   0.667 -3.4388 -1.1044 -0.4966
 6395SOL    HW230822   2.554   0.930   0.710 -0.0556  2.2757 -1.6952
 6396SOL     OW30823   2.276   2.449   5.872 -0.5746  0.0728 -0.0266
 6396SOL    HW130824   2.361   2.459   5.914 -1.5555 -1.0020  2.2421
 6396SOL    HW230825   2.254   2.356   5.883  1.5400 -0.5172 -0.8871
 6397SOL     OW30826   2.916   2.526  13.409 -0.0027  0.3213  0.5636
 6397SOL    HW130827   2.918   2.527  13.313  0.4044 -1.2752  0.5526
 6397SOL    HW230828   3.008   2.547  13.426 -0.0037  0.5221  0.3312
 6398SOL     OW30829   4.457   3.475  10.208  0.7485  0.0856 -0.3121
 6398SOL    HW130830   4.498   3.472  10.294  0.8238  4.6614 -0.1632
 6398SOL    HW230831   4.387   3.411  10.213  0.6506  0.2632  0.5013
 6399SOL     OW30832   3.406   4.599   8.052  0.0092 -0.1018  0.2256
 6399SOL    HW130833   3.440   4.517   8.016  1.9461  1.5689 -1.7722
 6399SOL    HW230834   3.400   4.576   8.144 -1.2095  2.3458  0.7601
 6400SOL     OW30835   2.851   2.699   8.015  0.2596 -0.3163 -0.1238
 6400SOL    HW130836   2.941   2.669   8.001  0.2976  0.2477 -1.0796
 6400SOL    HW230837   2.812   2.625   8.062  0.2002  0.6397  1.3399
 6401SOL     OW30838   2.216   1.070   5.131 -0.4136 -0.4043 -0.2452
 6401SOL    HW130839   2.155   1.138   5.156 -0.6989 -0.5946 -0.4255
 6401SOL    HW230840   2.280   1.084   5.201 -1.2180  0.0299  0.3893
 6402SOL     OW30841   2.934   4.166   3.970  0.3211 -0.0571  0.5761
 6402SOL    HW130842   2.997   4.214   4.023  0.0073 -0.1315  1.0090
 6402SOL    HW230843   2.856   4.166   4.025  0.5697  0.6789  0.9202
 6403SOL     OW30844   0.918   2.641   0.431 -0.4471  0.5717 -0.3716
 6403SOL    HW130845   0.942   2.601   0.348  2.1199  0.9901  0.1555
 6403SOL    HW230846   0.836   2.683   0.406 -0.9751 -0.1181  0.1877
 6404SOL     OW30847   2.757   2.880   7.744  0.1128  0.2189  0.0703
 6404SOL    HW130848   2.755   2.959   7.798 -0.0671  0.3310 -0.1017
 6404SOL    HW230849   2.845   2.874   7.707 -0.2884 -0.7210 -0.7292
 6405SOL     OW30850   4.382   2.129   2.821  0.3769  0.6279 -0.0760
 6405SOL    HW130851   4.323   2.103   2.749 -1.0101 -0.9522  1.6307
 6405SOL    HW230852   4.434   2.194   2.773 -0.6001  0.1033 -1.8647
 6406SOL     OW30853   4.395   3.481   8.527 -0.0190  0.2098 -0.3541
 6406SOL    HW130854   4.377   3.569   8.558 -3.0659 -0.0160 -1.4877
 6406SOL    HW230855   4.345   3.468   8.446 -0.5452 -0.3321  0.0512
 6407SOL     OW30856   3.004   1.736  14.993 -0.5973  0.0246 -0.0492
 6407SOL    HW130857   3.097   1.714  14.989 -0.3732  0.8415  0.5013
 6407SOL    HW230858   3.015   1.831  14.999  0.2359 -0.0702 -0.0798
 6408SOL     OW30859   2.341   1.981   9.353  0.0280 -0.4997 -0.0803
 6408SOL    HW130860   2.343   2.036   9.275  0.0494 -1.4904 -0.7872
 6408SOL    HW230861   2.299   2.042   9.413  1.4451 -1.2563  1.6779
 6409SOL     OW30862   3.721   0.199   0.373 -0.3532 -0.3638  0.0314
 6409SOL    HW130863   3.670   0.174   0.296  0.8927 -0.1669 -0.8601
 6409SOL    HW230864   3.795   0.142   0.352  0.5498  1.2893 -1.2688
 6410SOL     OW30865   2.302   1.598   6.756  0.3721 -0.1130  0.1518
 6410SOL    HW130866   2.296   1.515   6.709  1.3881  0.2489 -0.6231
 6410SOL    HW230867   2.359   1.574   6.828  1.6764  1.1543 -0.4521
 6411SOL     OW30868   0.650   2.138   6.195 -0.6358 -0.8089  0.4225
 6411SOL    HW130869   0.719   2.127   6.260 -2.7837 -0.5186  2.7759
 6411SOL    HW230870   0.576   2.097   6.240 -0.4303  0.0396  1.5396
 6412SOL     OW30871   0.572   0.211   8.636 -0.4024  0.6532  0.4983
 6412SOL    HW130872   0.547   0.278   8.699  0.4729  1.8525 -0.4373
 6412SOL    HW230873   0.529   0.132   8.668 -0.6410  0.7300  0.3719
 6413SOL     OW30874   0.519   3.252  16.531 -0.2001 -0.3097  0.3975
 6413SOL    HW130875   0.486   3.210  16.611 -1.6075  0.3646  0.1616
 6413SOL    HW230876   0.548   3.336  16.567 -1.2639 -0.5673  1.8521
 6414SOL     OW30877   1.411   2.556   4.835  0.0231  0.3816 -0.2278
 6414SOL    HW130878   1.322   2.569   4.867  0.2232 -0.1610  0.5548
 6414SOL    HW230879   1.440   2.488   4.896  2.8697  1.8032  0.0420
 6415SOL     OW30880   3.034   2.401  14.257 -0.2269  0.3951 -0.1900
 6415SOL    HW130881   2.988   2.449  14.188  2.9363 -0.9135 -3.1634
 6415SOL    HW230882   2.984   2.429  14.334 -0.2608 -3.8176  1.3016
 6416SOL     OW30883   2.825   2.095   2.840 -0.4513 -0.0351 -0.0315
 6416SOL    HW130884   2.880   2.139   2.905  1.3661 -1.0656 -0.8915
 6416SOL    HW230885   2.737   2.118   2.869  0.7810  1.0689  2.8070
 6417SOL     OW30886   2.326   0.179   1.374 -0.1615  0.3313 -0.0438
 6417SOL    HW130887   2.307   0.265   1.336  0.5855 -0.5958 -2.4991
 6417SOL    HW230888   2.236   0.152   1.389  0.5343 -0.6693  2.3912
 6418SOL     OW30889   1.470   1.254   5.328  0.1310  0.7169 -0.2480
 6418SOL    HW130890   1.537   1.188   5.309  0.0207  0.5836 -0.1683
 6418SOL    HW230891   1.488   1.266   5.421 -2.3207 -2.1604  0.5920
 6419SOL     OW30892   4.133   0.688  12.049 -0.8025  0.3684  0.5484
 6419SOL    HW130893   4.081   0.663  12.126  1.4242 -1.2086  1.5485
 6419SOL    HW230894   4.122   0.613  11.990 -0.3221  1.0723 -0.4345
 6420SOL     OW30895   2.419   2.915   7.135 -0.0037 -0.0287 -0.0921
 6420SOL    HW130896   2.349   2.854   7.111  1.4197 -1.1506 -1.3850
 6420SOL    HW230897   2.374   2.997   7.155 -0.1743 -0.2269  0.3326
 6421SOL     OW30898   1.179   0.220   2.643 -0.3480  0.0411 -0.0429
 6421SOL    HW130899   1.113   0.251   2.581 -1.1901  0.2915  0.9581
 6421SOL    HW230900   1.164   0.268   2.725  1.2811  2.1021 -0.9392
 6422SOL     OW30901   2.807   0.513  15.546 -0.6071 -0.4556 -0.0857
 6422SOL    HW130902   2.726   0.465  15.530 -0.9059  0.0363 -0.0468
 6422SOL    HW230903   2.790   0.561  15.627  0.5244  0.5998 -0.4743
 6423SOL     OW30904   0.412   4.095   9.019 -0.1087 -0.3589 -0.4614
 6423SOL    HW130905   0.492   4.047   9.042  0.7972  0.8631 -1.0360
 6423SOL    HW230906   0.450   4.181   9.039 -0.5468  0.3144 -2.5510
 6424SOL     OW30907   3.335   4.451   2.259  0.1537  0.4706 -0.4343
 6424SOL    HW130908   3.386   4.469   2.180 -1.6177  0.8333 -1.4866
 6424SOL    HW230909   3.340   4.539   2.298  0.7051 -0.6676  2.0689
 6425SOL     OW30910   3.279   1.316   8.130  0.0560  0.2370 -0.4034
 6425SOL    HW130911   3.213   1.247   8.139 -0.2218  0.2786 -2.0072
 6425SOL    HW230912   3.273   1.353   8.218 -0.6955  0.3505 -0.5039
 6426SOL     OW30913   4.510   4.211   1.633  0.0040  0.2832 -0.3812
 6426SOL    HW130914   4.418   4.224   1.611  0.1536  0.5259 -0.8724
 6426SOL    HW230915   4.511   4.252   1.719  0.2495  2.2210 -1.3041
 6427SOL     OW30916   2.596   2.649   4.599  0.3381  0.3516 -0.2325
 6427SOL    HW130917   2.584   2.576   4.538 -1.4421 -0.1506  0.6989
 6427SOL    HW230918   2.511   2.693   4.594  0.4937  0.7757  0.7946
 6428SOL     OW30919   2.280   4.006   5.725  0.2256 -0.5459 -0.7608
 6428SOL    HW130920   2.342   3.980   5.657 -0.2871 -4.1591  0.1366
 6428SOL    HW230921   2.267   4.098   5.702 -0.6533 -1.2011 -2.8917
 6429SOL     OW30922   0.959   3.501   7.382 -0.1114  0.0448 -0.5580
 6429SOL    HW130923   0.873   3.459   7.371 -0.2571 -0.0117  0.7614
 6429SOL    HW230924   1.027   3.434   7.387  0.1501  0.1581 -2.7281
 6430SOL     OW30925   1.088   3.560   7.874  0.2562  0.7759  0.3333
 6430SOL    HW130926   1.087   3.594   7.785 -1.2812  2.1871  0.8863
 6430SOL    HW230927   1.058   3.637   7.922 -1.9091 -0.4089  0.9081
 6431SOL     OW30928   1.584   2.462   9.227 -0.1243 -0.3469 -0.1685
 6431SOL    HW130929   1.619   2.529   9.167  2.2442 -2.8613 -1.6195
 6431SOL    HW230930   1.532   2.410   9.165 -2.7515  0.7698  1.1060
 6432SOL     OW30931   0.613   2.919  15.564  0.3321  0.1086  0.0436
 6432SOL    HW130932   0.565   2.999  15.542  0.7637  0.4570  0.3529
 6432SOL    HW230933   0.703   2.944  15.542  0.9081 -1.0794  1.0644
 6433SOL     OW30934   1.830   2.444   4.020  0.0125 -0.4817  0.1770
 6433SOL    HW130935   1.915   2.473   4.053 -0.0288 -0.5141  0.3128
 6433SOL    HW230936   1.850   2.421   3.930  1.1890 -1.8869  0.8020
 6434SOL     OW30937   3.492   0.909   4.416 -0.6344 -0.4099  0.3698
 6434SOL    HW130938   3.410   0.950   4.443 -0.2426  1.0751 -0.6811
 6434SOL    HW230939   3.473   0.889   4.324  0.2549 -0.8154  0.2741
 6435SOL     OW30940   2.180   0.898   2.520 -0.1118 -0.0587  0.6834
 6435SOL    HW130941   2.252   0.836   2.520 -1.0431 -1.1506 -0.0375
 6435SOL    HW230942   2.231   0.966   2.563 -2.3739  2.6704 -0.9018
 6436SOL     OW30943   2.566   0.003   1.386  0.4408 -0.2663 -0.2706
 6436SOL    HW130944   2.516   0.083   1.402 -0.3682 -0.7356 -0.4984
 6436SOL    HW230945   2.513   4.703   1.315 -1.9073  0.5350  1.0926
 6437SOL     OW30946   1.904   2.736   8.726 -0.7536  0.0134 -0.1557
 6437SOL    HW130947   1.903   2.785   8.644  2.0611  2.2775  1.1900
 6437SOL    HW230948   1.821   2.764   8.765 -0.5209  1.0890 -0.4499
 6438SOL     OW30949   2.376   2.549   2.204  0.1525 -0.3279  0.3984
 6438SOL    HW130950   2.349   2.461   2.228  0.1461 -0.2770  0.5836
 6438SOL    HW230951   2.468   2.526   2.189  0.0091 -1.5708  1.4255
 6439SOL     OW30952   0.453   2.966   7.310  0.6056  0.3116 -0.5581
 6439SOL    HW130953   0.432   3.056   7.286 -1.9297 -0.0507  0.3160
 6439SOL    HW230954   0.421   2.953   7.399  1.4040  0.9095 -0.1849
 6440SOL     OW30955   0.151   1.676   9.844  0.0384 -0.0114 -0.0890
 6440SOL    HW130956   0.103   1.698   9.923  0.6054 -1.0991  0.5630
 6440SOL    HW230957   0.232   1.635   9.873  1.4449  1.1716 -2.3337
 6441SOL     OW30958   0.093   4.355   1.958 -0.2890 -0.5236 -0.2789
 6441SOL    HW130959   0.120   4.336   2.048 -2.4763  0.4986  0.5929
 6441SOL    HW230960   0.098   4.268   1.918 -1.4806 -1.0418  0.6720
 6442SOL     OW30961   1.679   0.598   8.228 -0.3398  0.1762 -0.1772
 6442SOL    HW130962   1.659   0.581   8.320 -1.3533  0.5769 -0.3239
 6442SOL    HW230963   1.712   0.688   8.232  1.0572 -0.3091 -0.7860
 6443SOL     OW30964   0.836   2.143   3.927  0.6666 -0.0814  0.3934
 6443SOL    HW130965   0.895   2.154   3.852  2.3720 -0.3889  1.6913
 6443SOL    HW230966   0.747   2.165   3.898  1.6597  1.5436 -1.4345
 6444SOL     OW30967   2.438   3.996  17.241  0.4015  0.4367  0.3112
 6444SOL    HW130968   2.506   4.064  17.234  0.7396  0.2118  1.3635
 6444SOL    HW230969   2.354   4.041  17.231  0.0486 -0.2825  0.1248
 6445SOL     OW30970   2.825   1.872  16.909 -0.7442  0.1502 -0.0464
 6445SOL    HW130971   2.794   1.919  16.832  0.8374  0.2074 -0.6495
 6445SOL    HW230972   2.758   1.808  16.931  0.5888 -1.4972 -0.8462
 6446SOL     OW30973   4.051   4.489   2.984 -0.1652 -0.5396  0.1531
 6446SOL    HW130974   4.013   4.562   3.033  1.5256  0.9725 -0.7875
 6446SOL    HW230975   4.127   4.471   3.039 -1.3407 -0.3360  1.8377
 6447SOL     OW30976   3.716   3.719   5.086 -0.0947 -0.2662 -0.2737
 6447SOL    HW130977   3.645   3.769   5.126  1.8923  1.1246  1.5801
 6447SOL    HW230978   3.709   3.727   4.991 -0.1888  0.0988 -0.2378
 6448SOL     OW30979   4.673   3.130   5.170 -0.5379 -0.4291  0.7961
 6448SOL    HW130980   4.645   3.105   5.258 -0.4511 -1.5359  0.5180
 6448SOL    HW230981   4.627   3.213   5.160  0.2914  0.0918  1.2288
 6449SOL     OW30982   0.032   3.300   3.823 -0.2538  0.0228  0.1284
 6449SOL    HW130983   0.045   3.377   3.877 -0.9026  0.5520 -0.4689
 6449SOL    HW230984   0.121   3.265   3.818 -0.5108 -0.7659  1.0526
 6450SOL     OW30985   2.765   3.356  16.320 -0.1359  0.2605  0.6001
 6450SOL    HW130986   2.748   3.271  16.280 -0.3798 -0.3779  2.0406
 6450SOL    HW230987   2.680   3.397  16.305 -1.1184 -2.2181 -0.5699
 6451SOL     OW30988   2.328   4.216   9.327  0.0648 -0.1702  0.5729
 6451SOL    HW130989   2.314   4.289   9.387 -0.3039  0.2332 -0.0073
 6451SOL    HW230990   2.365   4.156   9.392  0.5120 -0.0764  0.4020
 6452SOL     OW30991   1.678   1.997   4.884  0.3020  0.4610  0.2948
 6452SOL    HW130992   1.668   1.920   4.939 -0.3142  0.5900  0.3609
 6452SOL    HW230993   1.748   1.970   4.824  0.1370  1.4601 -0.3527
 6453SOL     OW30994   1.042   3.725   5.495 -0.1785  0.6952 -0.6326
 6453SOL    HW130995   0.988   3.803   5.486  0.9373  1.5604  0.0694
 6453SOL    HW230996   1.073   3.732   5.586 -1.1276 -1.4064 -0.1312
 6454SOL     OW30997   1.733   0.366  10.893  0.0023  0.6499  0.0558
 6454SOL    HW130998   1.741   0.404  10.981  2.5830 -1.5260  0.7659
 6454SOL    HW230999   1.711   0.444  10.841 -0.0847 -1.7276 -3.4474
 6455SOL     OW31000   1.387   2.552   2.024  0.2962  0.6906 -0.0596
 6455SOL    HW131001   1.433   2.634   2.004 -0.5641  1.2374  0.1915
 6455SOL    HW231002   1.312   2.566   1.967 -0.2085 -0.2545  0.3751
 6456SOL     OW31003   4.157   2.154  16.158  0.1781  0.6865  0.5613
 6456SOL    HW131004   4.248   2.157  16.129  0.1564  1.1444  0.5507
 6456SOL    HW231005   4.122   2.224  16.103 -0.2136  2.0183  2.5019
 6457SOL     OW31006   0.287   1.563  12.444 -0.6190 -0.5352 -0.0308
 6457SOL    HW131007   0.311   1.489  12.499 -0.2553  0.3675  1.0144
 6457SOL    HW231008   0.377   1.586  12.420 -0.3069 -0.7055  0.9983
 6458SOL     OW31009   0.945   4.704   4.285 -0.0530 -0.7195  0.1782
 6458SOL    HW131010   0.985   4.700   4.371 -1.0424 -1.0281  0.6269
 6458SOL    HW231011   0.918   4.615   4.263 -1.9946 -0.5937  2.0707
 6459SOL     OW31012   0.440   4.236   7.370 -0.0001  0.3602 -0.3829
 6459SOL    HW131013   0.368   4.293   7.342 -0.5098 -1.1503 -2.1460
 6459SOL    HW231014   0.507   4.274   7.313  2.4598 -1.5484  1.2454
 6460SOL     OW31015   2.269   1.642   7.297  0.6898 -0.2718  0.1544
 6460SOL    HW131016   2.348   1.628   7.244  1.7179  0.5460  1.4706
 6460SOL    HW231017   2.295   1.728   7.328  3.0040 -0.9522  0.1447
 6461SOL     OW31018   0.236   4.409   3.770  0.4736 -0.0711 -0.6366
 6461SOL    HW131019   0.142   4.430   3.775  0.2220 -1.4114  0.3304
 6461SOL    HW231020   0.276   4.469   3.833  0.0537 -0.5667  0.1118
 6462SOL     OW31021   3.631   2.353   5.450 -0.0752 -0.3418  0.3328
 6462SOL    HW131022   3.692   2.333   5.380  3.1632  0.3242  2.9176
 6462SOL    HW231023   3.645   2.446   5.470  0.8867 -0.8175  1.9058
 6463SOL     OW31024   0.654   1.669  11.391 -0.4776  0.5225  0.0308
 6463SOL    HW131025   0.665   1.664  11.486  1.7752  1.8855 -0.1623
 6463SOL    HW231026   0.652   1.578  11.364  0.2801 -0.1709  2.2922
 6464SOL     OW31027   0.049   0.013   8.393  0.0611  0.1443  0.0464
 6464SOL    HW131028   0.144   0.012   8.383  0.2533 -1.8321  1.9548
 6464SOL    HW231029   0.040   0.076   8.322  3.4406 -1.6545 -1.9438
 6465SOL     OW31030   3.121   2.786   4.148 -0.4882  0.1711 -0.3904
 6465SOL    HW131031   3.141   2.703   4.191 -0.4850 -0.1026 -0.9134
 6465SOL    HW231032   3.178   2.841   4.203  0.7414 -0.1877 -1.2928
 6466SOL     OW31033   3.540   0.018  14.708  0.0659 -0.2315  0.2086
 6466SOL    HW131034   3.544   0.068  14.790  0.9619  2.3706 -1.4161
 6466SOL    HW231035   3.467   4.693  14.716 -1.5487  1.7770  0.4691
 6467SOL     OW31036   2.356   0.369   3.080 -0.3209 -0.1856 -0.0304
 6467SOL    HW131037   2.385   0.407   2.997 -1.3166 -1.5230 -0.9954
 6467SOL    HW231038   2.282   0.322   3.042 -0.0179  0.1038 -0.9867
 6468SOL     OW31039   2.088   3.700   3.162 -0.1028  0.5372 -0.1821
 6468SOL    HW131040   2.130   3.614   3.157 -3.3835 -1.0925  0.5341
 6468SOL    HW231041   2.072   3.720   3.254  1.9030  1.2303  0.0137
 6469SOL     OW31042   2.328   2.102   5.142  0.3289 -0.2591  0.5670
 6469SOL    HW131043   2.290   2.049   5.071  0.0917 -1.0819  1.3017
 6469SOL    HW231044   2.251   2.140   5.185  1.2275  1.5238  0.5763
 6470SOL     OW31045   4.316   3.052   9.155  0.2588  0.2197 -0.0567
 6470SOL    HW131046   4.318   3.099   9.071  3.6059  1.6241  0.7888
 6470SOL    HW231047   4.407   3.021   9.151 -0.3176 -1.6315  1.1723
 6471SOL     OW31048   4.249   2.347   7.759  0.0342 -0.3470  0.0013
 6471SOL    HW131049   4.236   2.263   7.804 -0.0131 -1.0670 -1.3831
 6471SOL    HW231050   4.157   2.370   7.769  0.7059  1.8087  1.0613
 6472SOL     OW31051   3.746   3.456   5.432  0.3330 -0.3127 -0.1032
 6472SOL    HW131052   3.687   3.386   5.461  1.8345 -2.0716 -1.2922
 6472SOL    HW231053   3.788   3.411   5.359  0.9288 -1.8762  1.1990
 6473SOL     OW31054   3.883   2.630   3.780  0.7163 -0.0075 -0.4827
 6473SOL    HW131055   3.821   2.616   3.852  0.8753 -1.5487 -0.6346
 6473SOL    HW231056   3.832   2.705   3.749 -0.4485 -0.5216  0.1793
 6474SOL     OW31057   2.253   2.785   9.457  0.7429  0.3148  0.5832
 6474SOL    HW131058   2.187   2.832   9.507  1.3230  0.3816  1.2907
 6474SOL    HW231059   2.197   2.747   9.389  2.4848  1.6697 -1.5909
 6475SOL     OW31060   0.209   2.467  11.167  0.7876 -0.0502 -0.1492
 6475SOL    HW131061   0.157   2.539  11.131 -0.6376 -1.6974 -1.3973
 6475SOL    HW231062   0.204   2.478  11.261 -0.3977  1.3381 -0.3691
 6476SOL     OW31063   4.294   0.801   0.822 -0.3001  0.2094 -0.1367
 6476SOL    HW131064   4.225   0.801   0.756  0.1258  2.9350 -0.5797
 6476SOL    HW231065   4.279   0.715   0.862  0.9077  0.3583  0.6334
 6477SOL     OW31066   1.344   1.167   3.318  0.1620  0.0069  0.1851
 6477SOL    HW131067   1.429   1.210   3.324  0.7069 -1.0849  0.4239
 6477SOL    HW231068   1.361   1.073   3.316 -0.0144 -0.0472  1.2470
 6478SOL     OW31069   3.854   0.193   4.198 -0.1417  0.4191  0.3932
 6478SOL    HW131070   3.870   0.215   4.107 -0.6804  0.2536  0.2570
 6478SOL    HW231071   3.767   0.233   4.199  0.8750  2.6176 -0.9191
 6479SOL     OW31072   4.395   4.064  13.991  0.1841 -0.0846 -0.0092
 6479SOL    HW131073   4.324   4.077  13.928 -1.0000 -1.9262  0.9360
 6479SOL    HW231074   4.425   4.155  13.997  1.9718 -0.6356 -0.7293
 6480SOL     OW31075   1.856   0.459  17.044 -0.4392  0.2166  0.1574
 6480SOL    HW131076   1.896   0.433  16.961  0.5601 -0.7784  0.9619
 6480SOL    HW231077   1.786   0.519  17.017 -1.5249 -0.8588  0.5372
 6481SOL     OW31078   4.707   0.519   1.703  0.2532 -0.0366 -0.0191
 6481SOL    HW131079   4.711   0.423   1.699  0.4137  0.0205 -1.3715
 6481SOL    HW231080   0.047   0.531   1.645 -0.1670 -1.8085 -0.9285
 6482SOL     OW31081   0.591   3.796  10.794  0.0473  0.4717  0.0524
 6482SOL    HW131082   0.496   3.799  10.805 -0.0408  0.4893 -0.7505
 6482SOL    HW231083   0.601   3.877  10.744  0.5284  0.1777 -0.3260
 6483SOL     OW31084   2.717   3.409   5.851 -0.5689  0.3886 -0.5468
 6483SOL    HW131085   2.760   3.339   5.802 -0.9208  1.0308 -1.7714
 6483SOL    HW231086   2.726   3.378   5.941 -1.3335 -1.2362 -1.0310
 6484SOL     OW31087   0.042   3.387   2.478 -0.2215  0.7378 -0.0297
 6484SOL    HW131088   0.084   3.306   2.447  1.2264  1.2356  0.6583
 6484SOL    HW231089   0.085   3.398   2.562  1.3300  1.8715 -0.9826
 6485SOL     OW31090   1.301   1.273  10.449  0.3997 -0.3182  0.0091
 6485SOL    HW131091   1.209   1.272  10.424  0.0732  1.2027  1.1387
 6485SOL    HW231092   1.306   1.195  10.505 -0.4717 -0.9533 -0.8055
 6486SOL     OW31093   1.748   2.215  12.137 -0.0185  0.6108 -0.2978
 6486SOL    HW131094   1.723   2.206  12.045 -1.9935 -1.6465  0.4445
 6486SOL    HW231095   1.832   2.170  12.129 -0.8581 -0.4566 -3.0454
 6487SOL     OW31096   3.621   4.114   8.519  0.0545 -0.4661 -0.4547
 6487SOL    HW131097   3.635   4.200   8.478 -0.3017 -0.1875 -0.0058
 6487SOL    HW231098   3.559   4.135   8.590  1.6779 -0.6608  1.0214
 6488SOL     OW31099   1.911   0.351   4.057 -0.0475 -0.1390 -0.1367
 6488SOL    HW131100   1.829   0.348   4.008  0.5730 -2.2116 -1.0462
 6488SOL    HW231101   1.907   0.443   4.081  0.7397  0.5006 -2.4505
 6489SOL     OW31102   3.273   4.705   1.412 -0.1935  0.1430 -0.0428
 6489SOL    HW131103   3.207   4.636   1.420 -0.0210  0.1519  1.6523
 6489SOL    HW231104   3.345   4.664   1.462 -0.7841 -0.1454  0.5781
 6490SOL     OW31105   4.356   2.020  16.305 -0.1003 -0.2221  0.1011
 6490SOL    HW131106   4.324   1.937  16.340  0.4327  0.1060  1.3721
 6490SOL    HW231107   4.271   2.060  16.286 -0.7052 -1.3574  0.4369
 6491SOL     OW31108   3.147   1.626  17.655 -0.2597  0.4398  0.1612
 6491SOL    HW131109   3.205   1.562  17.695  0.7146  2.8206  2.5126
 6491SOL    HW231110   3.064   1.580  17.646  0.3751 -0.2165 -2.3734
 6492SOL     OW31111   4.166   4.075  13.860 -0.2092  0.5391  0.1724
 6492SOL    HW131112   4.102   4.072  13.788  1.1510 -0.8488 -0.9605
 6492SOL    HW231113   4.115   4.033  13.930 -1.6778  1.9426 -0.0499
 6493SOL     OW31114   2.068   2.874  17.193  0.6120 -0.0769 -0.0152
 6493SOL    HW131115   2.002   2.818  17.152 -0.9196  0.9983  1.0197
 6493SOL    HW231116   2.079   2.939  17.123  0.3509  1.0310  0.9704
 6494SOL     OW31117   0.258   1.309   5.064 -0.0688 -0.3633 -0.6346
 6494SOL    HW131118   0.313   1.374   5.021  3.1187 -2.9573 -0.5000
 6494SOL    HW231119   0.216   1.369   5.125  2.0123 -0.7782  1.1875
 6495SOL     OW31120   1.151   1.669   3.906  0.0040 -0.0631  0.2099
 6495SOL    HW131121   1.080   1.666   3.971  0.6035 -1.2266  0.8004
 6495SOL    HW231122   1.207   1.737   3.944 -2.3501  0.9774  1.8260
 6496SOL     OW31123   2.363   1.674   3.263  0.3014 -0.4126  0.3030
 6496SOL    HW131124   2.421   1.747   3.241 -0.4153  0.1805  0.4154
 6496SOL    HW231125   2.308   1.718   3.328 -0.4570  1.2180 -1.4469
 6497SOL     OW31126   2.036   3.019   9.126 -0.9362 -0.1711 -0.0546
 6497SOL    HW131127   2.040   3.114   9.131  0.5107 -0.1027 -2.9643
 6497SOL    HW231128   1.951   3.017   9.082 -1.2439  2.4733  0.4362
 6498SOL     OW31129   1.368   4.006  16.129  0.3285 -0.1063  0.3480
 6498SOL    HW131130   1.434   4.017  16.197 -0.3625 -1.8268  1.2926
 6498SOL    HW231131   1.425   4.006  16.053 -0.6863  0.4274 -0.4169
 6499SOL     OW31132   1.859   4.344   2.949 -1.2731 -0.1805 -0.7884
 6499SOL    HW131133   1.830   4.295   3.025 -0.3729  0.1106 -0.2510
 6499SOL    HW231134   1.899   4.415   3.000  0.0787 -1.9855  0.6419
 6500SOL     OW31135   0.510   3.046   7.980  0.7255 -0.2615 -0.0142
 6500SOL    HW131136   0.434   2.990   7.997 -1.4123  2.7359  0.4306
 6500SOL    HW231137   0.523   3.077   8.069  0.0454  0.5382 -0.1878
 6501SOL     OW31138   3.498   2.975   8.432  0.4140 -0.1968  0.1065
 6501SOL    HW131139   3.429   3.022   8.385 -0.2358 -0.1465  1.1212
 6501SOL    HW231140   3.543   3.035   8.492  0.0537  0.4730 -0.2891
 6502SOL     OW31141   1.654   4.610   3.685  0.6986  0.1007  0.2026
 6502SOL    HW131142   1.627   4.657   3.606 -2.5112 -3.8339 -1.0179
 6502SOL    HW231143   1.663   4.522   3.650  0.1528 -0.4395  1.4307
 6503SOL     OW31144   3.876   2.889   0.701 -0.4286 -0.3030  0.3372
 6503SOL    HW131145   3.794   2.893   0.653 -0.6169  1.2970  0.7852
 6503SOL    HW231146   3.843   2.832   0.770  2.3283 -0.6529  1.4017
 6504SOL     OW31147   2.133   2.426   4.309 -0.3847 -0.3183 -0.7162
 6504SOL    HW131148   2.084   2.344   4.297  2.2128 -1.9357 -0.4323
 6504SOL    HW231149   2.094   2.470   4.234  0.4904 -0.3007 -1.1559
 6505SOL     OW31150   0.082   2.617   8.282  0.3950 -0.0564  0.7975
 6505SOL    HW131151   0.146   2.597   8.350  2.1641  0.6653 -0.6636
 6505SOL    HW231152   0.079   2.712   8.291 -1.2779  0.0181 -0.6171
 6506SOL     OW31153   0.297   0.173  17.007  0.3738 -0.3365 -0.3739
 6506SOL    HW131154   0.232   0.136  16.947  1.5642 -0.7510 -1.4205
 6506SOL    HW231155   0.299   0.110  17.079  1.2508 -0.2642 -0.3244
 6507SOL     OW31156   3.189   4.169   2.067  0.9613  0.5649  0.6282
 6507SOL    HW131157   3.248   4.105   2.107 -0.1795 -1.7428 -1.3782
 6507SOL    HW231158   3.139   4.202   2.142  1.9980  0.6905  1.2640
 6508SOL     OW31159   1.364   1.203   8.596  0.0166 -0.0489  0.6080
 6508SOL    HW131160   1.416   1.157   8.662 -0.7289  1.2609  2.1068
 6508SOL    HW231161   1.413   1.196   8.514  0.6466 -1.8617  1.1312
 6509SOL     OW31162   0.457   1.190   8.156  0.0898  0.2468  0.3918
 6509SOL    HW131163   0.376   1.240   8.163 -1.6491 -2.6727  1.3216
 6509SOL    HW231164   0.518   1.237   8.212  1.0365 -0.2177 -0.2432
 6510SOL     OW31165   0.628   1.884  10.032  0.7857  0.7022  0.0749
 6510SOL    HW131166   0.714   1.925  10.038  1.2226 -0.2234  0.1441
 6510SOL    HW231167   0.641   1.826   9.958  0.1776 -1.0426  1.3209
 6511SOL     OW31168   1.906   1.895   3.046  0.1730  0.0555  0.3613
 6511SOL    HW131169   1.960   1.899   2.967 -2.1837 -0.5236 -1.2573
 6511SOL    HW231170   1.819   1.893   3.007 -0.0526  1.9402  0.7848
 6512SOL     OW31171   0.216   3.064  15.409 -0.6110  0.0620  0.0563
 6512SOL    HW131172   0.159   3.050  15.485  1.2098 -1.6803  1.0859
 6512SOL    HW231173   0.154   3.112  15.353  0.6365  0.4138 -1.0118
 6513SOL     OW31174   0.509   0.415  15.163 -0.2275  0.0869 -0.5509
 6513SOL    HW131175   0.551   0.340  15.204 -0.4108  1.1634  1.6060
 6513SOL    HW231176   0.571   0.479  15.198 -0.9116 -0.4431  1.5918
 6514SOL     OW31177   1.493   0.173   8.111 -0.2148  0.2805 -0.1856
 6514SOL    HW131178   1.511   0.262   8.083 -1.7361  1.0396  1.2844
 6514SOL    HW231179   1.470   0.137   8.025  0.9230  0.8809 -0.7343
 6515SOL     OW31180   3.248   2.219   2.830  0.5172 -0.1563 -0.1905
 6515SOL    HW131181   3.198   2.151   2.785  2.2598 -1.2981 -0.4189
 6515SOL    HW231182   3.313   2.169   2.880  2.9523  2.9274 -0.2556
 6516SOL     OW31183   2.477   4.299   7.154  0.2800  0.1286  0.0936
 6516SOL    HW131184   2.513   4.384   7.126 -1.5477  0.4974 -1.1296
 6516SOL    HW231185   2.554   4.244   7.141 -0.1051 -0.6742  1.1841
 6517SOL     OW31186   4.634   2.911   1.786  0.3548  0.1246  0.4865
 6517SOL    HW131187   4.602   2.830   1.823 -0.3420  0.2217  0.0951
 6517SOL    HW231188   4.698   2.942   1.850  0.5304  3.0136 -1.0640
 6518SOL     OW31189   2.073   1.162   8.623  0.1047 -0.1727  0.3076
 6518SOL    HW131190   1.987   1.195   8.597 -0.2755 -2.7776 -1.7765
 6518SOL    HW231191   2.113   1.099   8.562 -2.6370  0.3904 -2.0732
 6519SOL     OW31192   1.298   3.343   4.587 -0.2634 -0.0828  0.2983
 6519SOL    HW131193   1.305   3.310   4.498  0.5529  0.9770 -0.0304
 6519SOL    HW231194   1.242   3.285   4.639  0.7868 -2.1356 -0.8495
 6520SOL     OW31195   0.563   3.766   2.336  0.2622 -0.0797 -0.6173
 6520SOL    HW131196   0.568   3.723   2.251  0.8628 -1.4629  0.1185
 6520SOL    HW231197   0.522   3.844   2.299 -2.2272 -0.9025  0.3840
 6521SOL     OW31198   2.960   0.197   6.232 -0.3162  0.8061 -0.1864
 6521SOL    HW131199   2.963   0.203   6.328 -0.9795 -0.8961 -0.0472
 6521SOL    HW231200   2.929   0.279   6.195  0.4178  1.3498  0.4065
 6522SOL     OW31201   0.460   3.046   3.682  0.4409 -0.4550  0.1495
 6522SOL    HW131202   0.499   3.086   3.760  0.0092 -2.0734  1.1834
 6522SOL    HW231203   0.529   2.984   3.661 -0.4223 -1.7123  0.9965
 6523SOL     OW31204   2.678   3.149   7.439 -0.1332 -0.5724 -0.4950
 6523SOL    HW131205   2.597   3.199   7.434  0.7523  0.9912  0.7190
 6523SOL    HW231206   2.730   3.184   7.367  2.0338  0.1850  1.4014
 6524SOL     OW31207   0.149   0.830  10.988  0.3150  0.5854 -0.4739
 6524SOL    HW131208   0.229   0.778  10.983  1.7920  2.5888  2.8187
 6524SOL    HW231209   0.123   0.817  10.896  1.4734 -3.0158 -0.3172
 6525SOL     OW31210   4.621   1.234  13.736  0.4447  0.1452  0.0595
 6525SOL    HW131211   4.614   1.329  13.727  1.8699  0.4104  1.6777
 6525SOL    HW231212   4.687   1.218  13.668 -0.0032  0.0195 -0.3526
 6526SOL     OW31213   1.994   1.970  11.591  0.1934 -0.0135  0.1496
 6526SOL    HW131214   1.941   1.890  11.590 -1.1926  0.9006  0.5361
 6526SOL    HW231215   1.990   2.000  11.682  1.5740  0.0494  0.1942
 6527SOL     OW31216   2.300   2.885  11.196 -0.3791 -0.1871  0.0277
 6527SOL    HW131217   2.241   2.940  11.247  0.2186 -0.1762  0.7136
 6527SOL    HW231218   2.300   2.808  11.253 -1.1490 -0.2273 -0.0316
 6528SOL     OW31219   4.594   4.097   7.454  0.0339  0.0760 -0.5591
 6528SOL    HW131220   4.625   4.179   7.415  1.0882 -0.9306 -1.8497
 6528SOL    HW231221   4.511   4.132   7.485  0.6859  1.5546 -0.4376
 6529SOL     OW31222   1.310   3.206   3.144  0.1628 -1.5142  0.2858
 6529SOL    HW131223   1.359   3.179   3.066  1.7976 -0.8805  1.1008
 6529SOL    HW231224   1.365   3.277   3.176 -2.1059  0.4668 -0.1644
 6530SOL     OW31225   1.822   4.508   7.052  0.6342 -0.1392 -0.3591
 6530SOL    HW131226   1.740   4.459   7.047 -0.6106  2.1778 -2.1558
 6530SOL    HW231227   1.792   4.589   7.093  1.5214  0.5943 -1.1621
 6531SOL     OW31228   0.713   0.913   7.752  0.3157 -0.6651  0.4082
 6531SOL    HW131229   0.628   0.946   7.781  0.0710  0.7178 -1.8901
 6531SOL    HW231230   0.768   0.977   7.798 -1.1442  1.7926 -1.2248
 6532SOL     OW31231   3.580   1.397  17.099  0.0740 -0.0703  0.2155
 6532SOL    HW131232   3.673   1.411  17.080  0.0068 -1.4589 -1.1419
 6532SOL    HW231233   3.549   1.375  17.011  0.6207  0.7997 -0.1972
 6533SOL     OW31234   1.084   3.285   0.384  0.0961 -0.3044  0.4802
 6533SOL    HW131235   0.993   3.286   0.354  0.7075 -0.0881 -1.4109
 6533SOL    HW231236   1.087   3.204   0.434 -2.2819  1.0445  2.7665
 6534SOL     OW31237   3.782   3.594   6.515  0.2341 -0.4838 -0.1774
 6534SOL    HW131238   3.807   3.605   6.606 -0.7191 -1.3236  0.1902
 6534SOL    HW231239   3.718   3.665   6.506  1.0810  0.2877 -0.0842
 6535SOL     OW31240   2.133   2.823   7.029  0.4016  0.3499  0.0177
 6535SOL    HW131241   2.121   2.915   7.005 -2.7717  0.5077  2.2497
 6535SOL    HW231242   2.051   2.783   6.997  0.0887 -0.0690  1.3520
 6536SOL     OW31243   4.160   0.585   8.927 -0.1968 -0.4526  0.4285
 6536SOL    HW131244   4.248   0.552   8.947  0.3431  0.6537 -0.1390
 6536SOL    HW231245   4.167   0.588   8.832 -0.5029  0.1554  0.4235
 6537SOL     OW31246   4.481   1.219   6.885 -0.4106 -0.4065 -0.1294
 6537SOL    HW131247   4.543   1.238   6.955 -0.8634  0.4527  0.0388
 6537SOL    HW231248   4.464   1.308   6.852 -0.9931 -0.9850 -1.3675
 6538SOL     OW31249   4.124   0.765   1.632  0.4231  0.6891  0.3760
 6538SOL    HW131250   4.112   0.757   1.537  0.9096 -0.2669  0.3987
 6538SOL    HW231251   4.207   0.813   1.638 -0.0012  1.6119 -1.0013
 6539SOL     OW31252   0.754   2.873   3.961 -0.6225  0.2171 -0.1098
 6539SOL    HW131253   0.700   2.940   4.003  0.5670 -0.0341  1.8215
 6539SOL    HW231254   0.776   2.823   4.040  1.1617  1.1011 -0.0428
 6540SOL     OW31255   1.988   1.638   7.126 -0.7364  0.1373  0.3776
 6540SOL    HW131256   1.917   1.680   7.078 -0.8156  0.6702  0.9549
 6540SOL    HW231257   1.977   1.675   7.214  0.9484  1.0681  0.1905
 6541SOL     OW31258   4.116   4.702   6.661  0.2267  0.3563 -0.1102
 6541SOL    HW131259   4.098   4.609   6.679 -1.4523  0.9118  1.1064
 6541SOL    HW231260   4.103   0.021   6.739 -2.6929 -0.0596 -0.3349
 6542SOL     OW31261   2.473   3.775   5.473  0.3191 -0.0482  0.2592
 6542SOL    HW131262   2.445   3.733   5.554 -2.6965  0.8131 -0.3721
 6542SOL    HW231263   2.409   3.732   5.416 -0.7795  1.5839  0.2624
 6543SOL     OW31264   4.243   0.599  16.225 -0.3059 -0.2192  0.1620
 6543SOL    HW131265   4.253   0.668  16.159  0.0252  0.4060  0.8612
 6543SOL    HW231266   4.201   0.529  16.176  2.0239 -2.7781  1.8559
 6544SOL     OW31267   0.787   0.114  10.843  0.0307  0.4142 -0.3156
 6544SOL    HW131268   0.732   0.182  10.884 -0.3676 -0.6555  0.9192
 6544SOL    HW231269   0.730   0.100  10.767  0.3838  0.6695 -0.6273
 6545SOL     OW31270   0.355   4.595   9.461  0.2494  0.3080  0.5350
 6545SOL    HW131271   0.382   4.673   9.412  1.1979 -0.0306  0.5217
 6545SOL    HW231272   0.353   4.520   9.402  2.1257  1.5879 -1.1646
 6546SOL     OW31273   0.156   1.556  14.145 -0.3242 -0.0463  0.1177
 6546SOL    HW131274   0.062   1.548  14.157 -0.4024 -0.4863 -0.7870
 6546SOL    HW231275   0.179   1.567  14.238 -0.7180 -2.6530  0.5015
 6547SOL     OW31276   1.922   4.551   4.260  0.1095  0.6158  0.2877
 6547SOL    HW131277   2.008   4.539   4.300  0.6327  2.1454 -0.3650
 6547SOL    HW231278   1.911   4.643   4.282 -0.6318  0.5711  0.1011
 6548SOL     OW31279   4.594   4.532   4.276  0.2547 -0.2626 -0.3050
 6548SOL    HW131280   4.586   4.508   4.369  0.2270 -0.9787 -0.4901
 6548SOL    HW231281   4.518   4.483   4.242  0.6818 -1.2417  0.1362
 6549SOL     OW31282   1.363   1.130   6.900  0.6292  0.0709 -0.0081
 6549SOL    HW131283   1.453   1.163   6.896  0.3464  0.7771 -0.7082
 6549SOL    HW231284   1.347   1.111   6.807  1.6015  0.1585 -0.1938
 6550SOL     OW31285   0.541   1.297  12.037 -0.6909  0.1989 -0.0649
 6550SOL    HW131286   0.454   1.327  12.010 -0.7806 -0.6108 -0.6554
 6550SOL    HW231287   0.586   1.380  12.022  0.4025 -0.2968  0.5347
 6551SOL     OW31288   2.283   1.041  14.700 -0.4025  0.1489  0.3858
 6551SOL    HW131289   2.315   1.098  14.770  1.0035 -1.8306  1.3660
 6551SOL    HW231290   2.357   1.023  14.642 -0.6941 -0.3611  0.1699
 6552SOL     OW31291   4.131   2.344   2.720  0.3811  0.1702 -0.5148
 6552SOL    HW131292   4.183   2.423   2.703  1.0744 -0.3348 -0.7281
 6552SOL    HW231293   4.103   2.359   2.810 -1.4361  2.3896 -1.4399
 6553SOL     OW31294   1.802   2.888   3.260 -0.1680  0.0449 -0.1764
 6553SOL    HW131295   1.726   2.830   3.250 -1.2428  1.5766 -0.8623
 6553SOL    HW231296   1.797   2.941   3.180  1.6235  0.7243  0.1561
 6554SOL     OW31297   0.907   2.596   7.946  0.5466 -0.1225  0.0293
 6554SOL    HW131298   0.910   2.555   7.859 -1.0121 -2.7238  1.2211
 6554SOL    HW231299   0.996   2.627   7.961  0.7364 -0.4473 -0.4198
 6555SOL     OW31300   2.074   0.322   2.510 -0.3205  0.1609 -0.5263
 6555SOL    HW131301   2.043   0.304   2.598 -2.9344  0.6660 -1.3482
 6555SOL    HW231302   2.073   0.418   2.509 -2.3445  0.1473 -0.3666
 6556SOL     OW31303   4.456   0.833   5.605 -0.1542  0.2211 -0.3586
 6556SOL    HW131304   4.410   0.755   5.635  0.3902  0.0926  0.1464
 6556SOL    HW231305   4.461   0.820   5.511 -1.2029  1.0480 -0.5365
 6557SOL     OW31306   4.577   0.872   7.499 -0.2942 -0.5179  0.1386
 6557SOL    HW131307   4.663   0.889   7.539 -1.1191 -2.0181  2.5862
 6557SOL    HW231308   4.524   0.888   7.578 -1.5617 -0.4342 -0.7401
 6558SOL     OW31309   2.536   2.206   7.127 -0.1333 -0.8235 -0.4857
 6558SOL    HW131310   2.624   2.231   7.155 -0.3375  1.7504 -2.0965
 6558SOL    HW231311   2.494   2.156   7.197 -1.3996 -1.2978 -1.5803
 6559SOL     OW31312   2.873   3.271   2.086 -0.3104  0.2674 -0.0724
 6559SOL    HW131313   2.892   3.342   2.025  0.2180 -0.1348 -0.3698
 6559SOL    HW231314   2.926   3.293   2.162 -0.8695  2.1374 -0.2289
 6560SOL     OW31315   0.493   3.617   6.757 -0.3867  0.1931  0.4466
 6560SOL    HW131316   0.503   3.668   6.676 -0.6709 -2.3099 -1.1794
 6560SOL    HW231317   0.402   3.591   6.742  0.1040 -0.7437 -0.9838
 6561SOL     OW31318   2.570   2.968  12.998 -0.5936  0.0580 -0.0408
 6561SOL    HW131319   2.507   3.032  13.031  0.4405  1.6844 -1.2544
 6561SOL    HW231320   2.586   2.916  13.077 -1.5468 -0.9758 -0.5209
 6562SOL     OW31321   2.251   3.241  11.549  0.0060  0.0692  0.4413
 6562SOL    HW131322   2.313   3.279  11.612 -1.2950 -0.7920  2.2636
 6562SOL    HW231323   2.263   3.298  11.473  0.7754 -1.3251 -0.4626
 6563SOL     OW31324   2.632   1.898   1.491  0.2609  0.1792 -0.7313
 6563SOL    HW131325   2.554   1.850   1.463  0.3062  0.7021 -1.7802
 6563SOL    HW231326   2.701   1.835   1.470 -0.7181 -0.9741 -0.4839
 6564SOL     OW31327   2.222   1.472   2.320  0.3077  0.4642 -0.0964
 6564SOL    HW131328   2.140   1.497   2.278  1.5926  2.3578 -1.4852
 6564SOL    HW231329   2.219   1.513   2.406 -1.6543 -1.7697  0.9084
 6565SOL     OW31330   4.078   1.613   4.588 -0.2767  0.1014  0.7262
 6565SOL    HW131331   4.089   1.677   4.518  0.6547 -0.4401  0.3706
 6565SOL    HW231332   4.162   1.618   4.633  0.7716  1.1703 -1.3651
 6566SOL     OW31333   2.123   1.432   3.181  0.3799  0.0556 -0.2954
 6566SOL    HW131334   2.174   1.512   3.164  0.0197  0.8047  2.1002
 6566SOL    HW231335   2.098   1.448   3.272  2.6353  3.2493 -0.2244
 6567SOL     OW31336   2.816   1.813   2.852  0.2407 -0.1876 -0.0531
 6567SOL    HW131337   2.837   1.902   2.825 -0.0315 -0.0252  0.2661
 6567SOL    HW231338   2.723   1.820   2.872  0.3651  0.1132  0.4015
 6568SOL     OW31339   2.507   0.586   8.528  0.6622  0.1342 -0.3444
 6568SOL    HW131340   2.482   0.493   8.532  1.1116 -0.0319 -1.3817
 6568SOL    HW231341   2.564   0.590   8.452 -0.2805 -1.5463 -1.1396
 6569SOL     OW31342   4.026   1.549  17.397 -0.2922 -0.2907 -0.1423
 6569SOL    HW131343   3.935   1.520  17.392 -0.3839 -0.0952  0.3758
 6569SOL    HW231344   4.024   1.620  17.333 -1.0183 -1.5664 -1.5496
 6570SOL     OW31345   3.933   3.522  11.459  0.2227 -0.2707  0.3536
 6570SOL    HW131346   3.868   3.566  11.403 -0.4987 -0.1412  1.2935
 6570SOL    HW231347   4.011   3.567  11.427 -0.0774  0.1821  0.2633
 6571SOL     OW31348   3.987   0.858   6.771 -0.0132  0.3965 -0.4871
 6571SOL    HW131349   4.067   0.901   6.801 -0.4468  0.8287  0.0287
 6571SOL    HW231350   3.965   0.919   6.701  0.2508 -0.9739 -1.7781
 6572SOL     OW31351   1.822   3.359   3.965  0.1321 -0.2890  0.1714
 6572SOL    HW131352   1.778   3.277   3.987 -0.9736  0.5756  1.1132
 6572SOL    HW231353   1.754   3.414   4.002 -0.0984  0.3602 -1.2290
 6573SOL     OW31354   2.558   2.216   8.387  0.1950 -0.0963 -0.4811
 6573SOL    HW131355   2.593   2.288   8.440  1.3178 -0.0845 -1.2371
 6573SOL    HW231356   2.467   2.232   8.411  0.6156  3.8765 -1.6160
 6574SOL     OW31357   4.439   0.790   3.759  0.4063  0.2033  0.1534
 6574SOL    HW131358   4.446   0.872   3.710 -0.2555 -0.2019 -0.6163
 6574SOL    HW231359   4.526   0.794   3.800  0.2488  1.1955  0.4009
 6575SOL     OW31360   3.486   4.377   7.921  0.2571 -0.3556 -0.6321
 6575SOL    HW131361   3.446   4.290   7.913 -0.6561 -0.1077  1.1642
 6575SOL    HW231362   3.494   4.400   7.828 -0.5844 -0.7809 -0.8164
 6576SOL     OW31363   1.415   0.605   4.340 -0.4696 -0.2936 -0.1966
 6576SOL    HW131364   1.448   0.532   4.287 -0.2944 -1.0296  0.9268
 6576SOL    HW231365   1.372   0.656   4.271 -1.8748  2.5667  2.8142
 6577SOL     OW31366   2.609   2.746   8.376 -0.0080  0.6527 -0.0425
 6577SOL    HW131367   2.621   2.674   8.314  0.3271  1.3185 -0.7523
 6577SOL    HW231368   2.628   2.695   8.455 -2.9814 -1.5623 -0.7478
 6578SOL     OW31369   3.904   0.247  12.237 -0.2041 -0.4101  0.5829
 6578SOL    HW131370   3.883   0.324  12.291  5.2360  2.0521 -0.8548
 6578SOL    HW231371   3.820   0.233  12.194 -0.4457  0.7280  0.6674
 6579SOL     OW31372   2.035   3.370  14.932 -0.0712  0.3797  0.1168
 6579SOL    HW131373   1.950   3.414  14.927 -0.6357 -0.7755 -0.4222
 6579SOL    HW231374   2.095   3.442  14.951 -1.1618  0.8505  1.7838
 6580SOL     OW31375   1.834   1.765   5.339  0.2082 -0.4792  0.3394
 6580SOL    HW131376   1.889   1.828   5.292 -0.7119 -1.0805 -1.5468
 6580SOL    HW231377   1.870   1.766   5.427  0.5526 -0.9844  0.2081
 6581SOL     OW31378   0.102   4.520  14.062  0.1193  0.0052 -0.0049
 6581SOL    HW131379   0.033   4.581  14.035  1.1317 -0.0187 -2.6055
 6581SOL    HW231380   0.065   4.435  14.037  0.2873 -0.6523  1.9656
 6582SOL     OW31381   4.392   0.047  15.930 -0.0100  0.0098  0.2627
 6582SOL    HW131382   4.349   0.061  15.846 -1.2898  0.9349  1.0899
 6582SOL    HW231383   4.389   4.686  15.929 -3.3662  0.1148  2.1229
 6583SOL     OW31384   0.058   4.577   6.824  0.4605  0.2744  0.2276
 6583SOL    HW131385   0.149   4.590   6.851  0.3024 -0.9509  1.3417
 6583SOL    HW231386   0.028   4.664   6.852 -0.1744 -0.0437  0.5223
 6584SOL     OW31387   2.162   2.786  16.932  0.5818 -0.0300  0.2015
 6584SOL    HW131388   2.107   2.711  16.914 -0.0418  0.8192 -1.4288
 6584SOL    HW231389   2.208   2.751  17.008  0.6979  0.0242  0.1566
 6585SOL     OW31390   4.470   0.746   8.022 -0.3741  0.1350  0.4874
 6585SOL    HW131391   4.497   0.658   7.997 -2.6266 -0.3817 -0.1448
 6585SOL    HW231392   4.376   0.730   8.019  0.0274 -2.2293  0.7892
 6586SOL     OW31393   2.425   3.335   7.427  0.9119 -0.5230  0.4328
 6586SOL    HW131394   2.414   3.407   7.489 -1.3598  0.5922 -1.2664
 6586SOL    HW231395   2.412   3.378   7.343 -0.1532  0.5067  1.1201
 6587SOL     OW31396   2.850   1.954   9.401 -0.0226  0.3216 -0.4541
 6587SOL    HW131397   2.877   1.863   9.390 -1.0715 -0.2939  1.9601
 6587SOL    HW231398   2.771   1.941   9.452 -0.6482  0.2421 -1.4542
 6588SOL     OW31399   3.330   3.489   3.601 -0.2680  0.1469 -0.1671
 6588SOL    HW131400   3.248   3.442   3.615 -0.4983 -0.0126 -2.0333
 6588SOL    HW231401   3.298   3.578   3.615  0.7911  0.6875 -1.2287
 6589SOL     OW31402   2.269   3.659   3.822  0.8358  0.0611  0.0268
 6589SOL    HW131403   2.177   3.645   3.847  0.7577  2.6396  1.1930
 6589SOL    HW231404   2.256   3.645   3.728 -1.2026  1.0903  0.1520
 6590SOL     OW31405   0.446   3.255   6.873  0.1591  0.0232  0.5598
 6590SOL    HW131406   0.497   3.320   6.922  0.7857  0.6973 -0.9988
 6590SOL    HW231407   0.515   3.188   6.878  0.6449  0.3957 -1.0578
 6591SOL     OW31408   3.946   0.764   4.533  0.0008  0.1305  0.2762
 6591SOL    HW131409   3.971   0.698   4.468  0.4627 -1.6601  2.2490
 6591SOL    HW231410   3.998   0.842   4.513  1.1377 -0.6554  0.1619
 6592SOL     OW31411   4.734   2.156   4.192 -0.3786 -0.4458 -1.1926
 6592SOL    HW131412   4.713   2.071   4.231 -2.5076  0.0272 -1.3097
 6592SOL    HW231413   0.074   2.181   4.245  1.2479 -0.0064 -3.7197
 6593SOL     OW31414   2.089   3.090  12.987 -0.0483 -0.1499 -0.1664
 6593SOL    HW131415   2.098   3.070  13.080 -2.1584  0.5702  0.2002
 6593SOL    HW231416   2.149   3.024  12.952  0.8174  0.9951 -0.8259
 6594SOL     OW31417   1.689   1.968   7.154  0.1633 -0.2858  0.3521
 6594SOL    HW131418   1.742   2.019   7.216 -1.2619 -1.1882  2.3042
 6594SOL    HW231419   1.614   1.950   7.211 -1.5218 -0.0844 -1.8155
 6595SOL     OW31420   1.935   2.373   8.788  0.3160 -0.2503 -0.1103
 6595SOL    HW131421   1.928   2.447   8.848  0.5556  0.6234 -1.1703
 6595SOL    HW231422   1.871   2.395   8.721  0.7670  0.6025 -0.2626
 6596SOL     OW31423   1.285   0.207   4.036  0.2399 -0.2350 -0.5130
 6596SOL    HW131424   1.315   0.138   4.096  0.4545 -0.5004 -0.9222
 6596SOL    HW231425   1.242   0.156   3.968  0.5094 -0.8866 -0.1997
 6597SOL     OW31426   0.293   1.953  16.573  0.0008 -0.0458  0.0872
 6597SOL    HW131427   0.263   2.024  16.516  0.9188 -1.5499 -2.2512
 6597SOL    HW231428   0.302   1.885  16.507 -0.7556 -0.7547  0.7220
 6598SOL     OW31429   1.244   2.913  15.183  0.3340  0.1763  0.1284
 6598SOL    HW131430   1.278   2.922  15.272  0.2015  0.1260  0.1833
 6598SOL    HW231431   1.151   2.912  15.207  1.0146  0.4031  2.8174
 6599SOL     OW31432   1.277   1.031  10.180  0.5847  0.0928  0.4817
 6599SOL    HW131433   1.344   1.090  10.215  1.4691 -0.6220 -0.0099
 6599SOL    HW231434   1.312   1.019  10.092 -0.2200 -0.3974  0.2268
 6600SOL     OW31435   0.817   2.938   1.475  0.2658  0.1622  0.6243
 6600SOL    HW131436   0.777   3.014   1.517 -2.8435 -1.0495 -0.1439
 6600SOL    HW231437   0.838   2.975   1.390 -5.3800 -0.2760 -0.9409
 6601SOL     OW31438   3.510   4.152   5.538 -0.0504  0.1848  0.2296
 6601SOL    HW131439   3.439   4.132   5.598  1.1880 -2.9050  0.6799
 6601SOL    HW231440   3.581   4.118   5.592 -0.4871  0.3901  0.9360
 6602SOL     OW31441   0.709   1.984   6.952  0.5426 -0.2508  0.1572
 6602SOL    HW131442   0.628   1.968   7.000 -0.8784  0.3916 -2.0069
 6602SOL    HW231443   0.739   1.894   6.945 -1.0540 -1.0682  3.6582
 6603SOL     OW31444   2.758   0.988  11.046 -0.6137 -0.2956  0.5150
 6603SOL    HW131445   2.798   0.935  11.116 -2.0744 -0.5413  1.1686
 6603SOL    HW231446   2.781   0.931  10.972  1.8660  0.1464  0.9431
 6604SOL     OW31447   0.755   2.221   8.378 -0.1759  0.2420 -0.4211
 6604SOL    HW131448   0.850   2.213   8.379 -0.1705  0.3791  0.9754
 6604SOL    HW231449   0.728   2.143   8.329 -1.5408 -0.0897  0.8455
 6605SOL     OW31450   4.249   4.392   0.986  0.0783 -0.2307  0.0648
 6605SOL    HW131451   4.305   4.469   0.996 -0.5023  0.3567 -1.1310
 6605SOL    HW231452   4.197   4.399   1.066 -0.1383  0.9159 -0.1691
 6606SOL     OW31453   2.915   1.569   3.927 -0.1854 -0.0790  0.1767
 6606SOL    HW131454   2.957   1.626   3.991  1.5921 -0.3875 -0.7314
 6606SOL    HW231455   2.933   1.485   3.970 -0.6898  0.4246  1.3929
 6607SOL     OW31456   2.893   3.921   9.361 -0.1768  0.1879 -0.8871
 6607SOL    HW131457   2.849   3.836   9.360  0.4322 -0.1785  2.2878
 6607SOL    HW231458   2.979   3.882   9.378  0.2463  1.0441 -1.0432
 6608SOL     OW31459   4.048   2.017   1.436 -0.1785 -0.2283  0.1361
 6608SOL    HW131460   4.015   2.100   1.402  0.7632  0.4660  0.9398
 6608SOL    HW231461   4.140   2.026   1.411 -0.2129 -1.2164 -0.3607
 6609SOL     OW31462   1.977   3.469   7.778 -0.3073  0.1494  0.0257
 6609SOL    HW131463   1.922   3.395   7.804 -0.2457  0.8271  2.1114
 6609SOL    HW231464   1.919   3.533   7.736 -0.6585 -1.6807 -2.2522
 6610SOL     OW31465   0.498   2.194   2.698 -0.0501 -0.2091  0.0365
 6610SOL    HW131466   0.493   2.290   2.707 -0.5924 -0.4558  2.4278
 6610SOL    HW231467   0.570   2.174   2.758  0.5086  1.2491 -0.1498
 6611SOL     OW31468   4.354   3.690   6.476 -0.0224  0.3587 -0.6284
 6611SOL    HW131469   4.280   3.629   6.471  1.4055 -1.4251 -0.3060
 6611SOL    HW231470   4.385   3.684   6.385 -1.9268 -0.3239 -1.2500
 6612SOL     OW31471   3.719   0.182   0.634 -0.7463  0.1047  0.3315
 6612SOL    HW131472   3.643   0.124   0.625 -0.3631 -0.3628  0.1216
 6612SOL    HW231473   3.723   0.211   0.543  0.2795  0.1357  0.3875
 6613SOL     OW31474   1.307   2.163  12.474  0.3581 -0.0988 -0.1062
 6613SOL    HW131475   1.225   2.185  12.517  1.3821  0.1288  1.7372
 6613SOL    HW231476   1.273   2.166  12.385 -1.1007 -0.1101  0.4544
 6614SOL     OW31477   3.833   1.058   3.313  0.4224  0.4571 -0.4686
 6614SOL    HW131478   3.832   1.044   3.218 -0.7374 -1.7965 -0.1248
 6614SOL    HW231479   3.745   1.092   3.326 -0.1308 -1.6376  1.2508
 6615SOL     OW31480   1.011   1.892   6.350  0.0626 -0.5936  0.2321
 6615SOL    HW131481   0.958   1.826   6.307 -0.8574  0.4155 -0.1719
 6615SOL    HW231482   1.080   1.903   6.285 -0.4245 -1.2973 -0.4039
 6616SOL     OW31483   1.833   2.947   3.990 -0.2191 -0.0320  0.3255
 6616SOL    HW131484   1.927   2.934   4.006  0.0598 -1.0698 -2.1391
 6616SOL    HW231485   1.793   2.880   4.045 -0.1678  1.1547  1.7995
 6617SOL     OW31486   1.865   3.951   5.112 -0.1858 -0.4763  0.0048
 6617SOL    HW131487   1.836   3.876   5.163  0.0536 -2.3160 -2.5886
 6617SOL    HW231488   1.783   3.999   5.100  0.9916  1.9339  1.5920
 6618SOL     OW31489   1.021   3.564   0.417 -0.2528 -0.1005  0.1652
 6618SOL    HW131490   1.088   3.613   0.370  0.0705  1.9893  2.8318
 6618SOL    HW231491   1.054   3.474   0.416  0.6327  0.2049  1.2485
 6619SOL     OW31492   0.589   0.645   5.214 -0.2956 -0.2929  0.1285
 6619SOL    HW131493   0.556   0.603   5.135  1.8978 -0.8839 -0.4640
 6619SOL    HW231494   0.561   0.578   5.276  0.0262 -0.0292  0.5621
 6620SOL     OW31495   1.067   4.647  15.048  0.0095 -0.0922  0.3356
 6620SOL    HW131496   1.008   4.610  14.982  0.3437 -1.2952  0.7117
 6620SOL    HW231497   1.064   0.003  15.017  5.8305  0.1167  0.3226
 6621SOL     OW31498   1.751   4.589  12.767  0.0506  0.6691 -0.1415
 6621SOL    HW131499   1.709   4.557  12.847 -1.4877 -0.0060 -1.2109
 6621SOL    HW231500   1.791   4.670  12.797 -0.0533  0.2734  1.0719
 6622SOL     OW31501   3.888   0.980   0.954  0.0270  0.2674 -0.3090
 6622SOL    HW131502   3.887   1.068   0.916 -3.0800 -0.3441 -1.5638
 6622SOL    HW231503   3.949   0.984   1.029  0.0282 -0.9045 -0.2376
 6623SOL     OW31504   2.451   2.294   8.790  1.1082  0.1875 -0.2463
 6623SOL    HW131505   2.468   2.201   8.779  0.5433 -0.1226  1.4202
 6623SOL    HW231506   2.484   2.324   8.875 -0.4407  0.0324  0.4076
 6624SOL     OW31507   3.453   4.464   7.609  0.1601 -0.2099  0.0378
 6624SOL    HW131508   3.536   4.417   7.608  0.5644  0.5315 -1.2974
 6624SOL    HW231509   3.488   4.550   7.635  0.4986  0.3484 -2.3112
 6625SOL     OW31510   3.086   3.110   6.056  0.1746 -0.1133  0.0854
 6625SOL    HW131511   3.130   3.032   6.023  1.6082  0.2802  1.0408
 6625SOL    HW231512   3.128   3.179   6.006 -2.7516  0.0188 -2.1966
 6626SOL     OW31513   0.855   1.625   4.375  0.4801 -0.2265  0.5256
 6626SOL    HW131514   0.915   1.688   4.414 -0.6442  0.1750  1.5958
 6626SOL    HW231515   0.770   1.668   4.380  1.2039  1.1556  1.0953
 6627SOL     OW31516   2.478   1.004  14.136 -0.3012  0.9668 -0.0687
 6627SOL    HW131517   2.470   1.099  14.138 -0.2805  0.9472  0.8720
 6627SOL    HW231518   2.392   0.984  14.099 -0.1535 -0.4123  0.3201
 6628SOL     OW31519   0.136   0.410   7.868 -0.2831  0.4633  0.7058
 6628SOL    HW131520   0.167   0.458   7.791  0.7538 -3.6840 -1.4775
 6628SOL    HW231521   0.220   0.393   7.911  0.7810 -0.2689 -1.6614
 6629SOL     OW31522   0.260   4.367  14.274 -0.2353 -0.1725 -0.2651
 6629SOL    HW131523   0.208   4.290  14.298  3.8718 -2.9829 -0.2237
 6629SOL    HW231524   0.205   4.414  14.212 -0.1943  1.4066  0.9088
 6630SOL     OW31525   4.234   1.261   2.478  0.2251  0.4190  0.2439
 6630SOL    HW131526   4.165   1.252   2.413 -0.0666 -1.8786  0.9076
 6630SOL    HW231527   4.207   1.339   2.527 -0.9165  0.9213 -1.2021
 6631SOL     OW31528   2.723   1.508  10.854 -0.0996 -0.0176 -0.4421
 6631SOL    HW131529   2.726   1.415  10.877 -1.3098 -0.3941 -1.8224
 6631SOL    HW231530   2.653   1.512  10.789 -0.8520  0.2561  0.3869
 6632SOL     OW31531   3.706   0.815   8.942  0.0755  0.3596 -0.4633
 6632SOL    HW131532   3.800   0.812   8.925  0.1657  1.8134 -0.1580
 6632SOL    HW231533   3.695   0.910   8.937  0.2508  0.2304 -3.3844
 6633SOL     OW31534   2.149   2.528   8.536 -0.4213  0.0625 -0.8608
 6633SOL    HW131535   2.097   2.552   8.613  1.4727 -0.5197  0.6050
 6633SOL    HW231536   2.096   2.570   8.469  0.4710 -1.1614 -2.3177
 6634SOL     OW31537   1.315   3.970   4.050 -0.1955 -0.4720  0.1149
 6634SOL    HW131538   1.408   3.957   4.036  0.0733  2.2999 -0.5470
 6634SOL    HW231539   1.321   4.037   4.118 -3.8424  0.3072 -0.2875
 6635SOL     OW31540   4.047   2.277   6.981  0.3473  0.3120  0.3266
 6635SOL    HW131541   4.109   2.295   6.911 -1.7860 -0.6896 -1.8108
 6635SOL    HW231542   4.095   2.330   7.045 -1.3395  2.1497  0.0393
 6636SOL     OW31543   3.589   3.554   3.646  0.0399  0.2573 -0.1361
 6636SOL    HW131544   3.494   3.549   3.638  0.0677 -4.4790  2.5746
 6636SOL    HW231545   3.601   3.484   3.711 -2.8375 -1.0697 -1.0541
 6637SOL     OW31546   2.485   3.297  15.537 -0.3980 -0.4275  0.2698
 6637SOL    HW131547   2.474   3.224  15.476  1.4106 -0.0947 -0.4774
 6637SOL    HW231548   2.528   3.352  15.470  0.8319 -3.1711 -1.1946
 6638SOL     OW31549   2.873   4.505  12.287  0.2712 -0.5183 -0.0939
 6638SOL    HW131550   2.904   4.509  12.196  0.6018  2.4653  0.1265
 6638SOL    HW231551   2.779   4.524  12.278  0.2951 -0.4795 -0.2677
 6639SOL     OW31552   3.615   0.601   0.232  0.2560 -0.7370 -0.0807
 6639SOL    HW131553   3.691   0.564   0.277 -0.1367  1.1385  2.1380
 6639SOL    HW231554   3.571   0.527   0.191 -0.4081 -0.5520  0.2824
 6640SOL     OW31555   1.351   0.895   3.051 -0.0096  0.2044  0.0705
 6640SOL    HW131556   1.291   0.969   3.057 -1.7869 -1.3014  0.8359
 6640SOL    HW231557   1.399   0.910   3.133 -0.1858 -0.0301  0.2145
 6641SOL     OW31558   3.967   1.111  11.497  0.8743 -0.4252  0.2818
 6641SOL    HW131559   4.046   1.126  11.548  2.4766 -2.4404 -1.5969
 6641SOL    HW231560   3.906   1.069  11.558 -1.2788  0.1063 -1.5055
 6642SOL     OW31561   2.880   1.612  11.053  0.9532  0.1776 -0.1945
 6642SOL    HW131562   2.848   1.592  11.141  0.8453  3.4550  0.5046
 6642SOL    HW231563   2.833   1.549  10.998  1.0528 -0.8292  0.8670
 6643SOL     OW31564   1.968   4.318   6.743  0.0052  0.1963 -0.3561
 6643SOL    HW131565   1.918   4.349   6.667 -1.4969 -3.2817 -0.7802
 6643SOL    HW231566   2.043   4.284   6.695 -0.2737 -1.1966  0.1933
 6644SOL     OW31567   2.148   1.881   3.800  0.1577 -0.2520  0.1232
 6644SOL    HW131568   2.103   1.802   3.828 -1.8747  0.5107 -1.0113
 6644SOL    HW231569   2.176   1.853   3.713 -2.9230 -0.5140 -0.7560
 6645SOL     OW31570   4.560   0.565   7.309  0.1933 -0.0934  0.4190
 6645SOL    HW131571   4.607   0.489   7.275 -0.2744 -0.5277  0.7277
 6645SOL    HW231572   4.598   0.572   7.397  2.2098 -2.0578 -0.3134
 6646SOL     OW31573   2.522   2.973   5.058  0.2901  0.0468 -0.3620
 6646SOL    HW131574   2.491   3.063   5.069  1.8982  0.2213  2.8872
 6646SOL    HW231575   2.536   2.962   4.964 -1.1957 -1.7049 -0.3782
 6647SOL     OW31576   1.006   0.211   3.779 -0.0472 -0.3555  0.0435
 6647SOL    HW131577   1.089   0.177   3.746  1.0899 -0.7628  3.3537
 6647SOL    HW231578   0.990   0.150   3.852 -0.1040 -0.8676 -0.3998
 6648SOL     OW31579   3.243   0.392   6.806  0.1526 -0.0937  0.1465
 6648SOL    HW131580   3.312   0.377   6.870 -0.9956  0.6534  1.5516
 6648SOL    HW231581   3.294   0.423   6.731 -0.4783 -1.3349 -0.8067
 6649SOL     OW31582   0.123   3.001   7.087 -0.6938  0.1194  0.4089
 6649SOL    HW131583   0.166   3.056   7.153  0.2141  0.3693 -0.3998
 6649SOL    HW231584   0.135   2.921   7.140 -3.0617 -1.3945 -1.3925
 6650SOL     OW31585   1.672   3.090   4.282  0.2708  0.5326  0.1153
 6650SOL    HW131586   1.664   3.091   4.377  0.5265 -1.1963  0.1431
 6650SOL    HW231587   1.744   3.029   4.269 -1.2361 -1.1252 -0.4130
 6651SOL     OW31588   1.538   0.183   1.615  0.7007 -0.0400 -0.8561
 6651SOL    HW131589   1.454   0.192   1.570  2.3581  0.7283 -3.8247
 6651SOL    HW231590   1.524   0.233   1.695  1.6223 -0.8945 -0.1627
 6652SOL     OW31591   0.243   3.192   5.834 -0.0354  0.1073 -0.6094
 6652SOL    HW131592   0.320   3.152   5.795 -0.9763 -1.4155 -0.8738
 6652SOL    HW231593   0.232   3.144   5.916 -3.1271  0.5656 -0.7342
 6653SOL     OW31594   2.475   4.036   9.954 -0.2555 -0.3016 -0.3653
 6653SOL    HW131595   2.569   4.050   9.943 -0.3030 -0.4700 -1.0181
 6653SOL    HW231596   2.444   4.123   9.928 -0.8279 -0.6318 -0.8033
 6654SOL     OW31597   2.064   3.740   3.421 -0.2325 -0.1125  0.5185
 6654SOL    HW131598   1.977   3.742   3.460 -0.6804  2.3444 -0.6140
 6654SOL    HW231599   2.121   3.697   3.485  0.8116  0.8962  0.2696
 6655SOL     OW31600   1.639   3.705   9.849  0.0798  0.3696 -0.3481
 6655SOL    HW131601   1.588   3.780   9.818 -2.6336 -0.1496  2.8655
 6655SOL    HW231602   1.721   3.745   9.880 -0.7287  1.5714  0.2643
 6656SOL     OW31603   2.614   3.574   5.295 -0.0396 -0.2286  1.0072
 6656SOL    HW131604   2.572   3.615   5.371 -1.4328  0.2480 -0.0175
 6656SOL    HW231605   2.543   3.572   5.231  1.4064 -1.3109 -0.5290
 6657SOL     OW31606   2.988   1.428   0.401 -0.6170  0.0922  0.1127
 6657SOL    HW131607   3.043   1.505   0.383  1.7574 -2.1165 -1.9757
 6657SOL    HW231608   2.966   1.446   0.493  0.1785 -2.9275  0.8866
 6658SOL     OW31609   3.989   2.403  13.974  0.7466  0.0791  0.2344
 6658SOL    HW131610   3.974   2.493  13.947  1.6578  0.5455  1.2850
 6658SOL    HW231611   4.040   2.422  14.053  3.0887 -0.7192 -1.0568
 6659SOL     OW31612   3.259   1.489   4.720 -0.4060 -0.2178 -0.2470
 6659SOL    HW131613   3.168   1.479   4.747 -0.1985  1.2758  0.9558
 6659SOL    HW231614   3.282   1.396   4.714  0.9492  0.1428 -0.5597
 6660SOL     OW31615   0.551   1.759  11.901 -0.0517 -0.5434  0.4860
 6660SOL    HW131616   0.466   1.799  11.917 -0.5483 -0.9953 -0.9795
 6660SOL    HW231617   0.552   1.726  11.811 -2.6294  1.2248 -0.1932
 6661SOL     OW31618   0.484   1.310  13.759 -0.5136 -0.7127  0.1385
 6661SOL    HW131619   0.435   1.229  13.774  0.2871 -1.1242  0.4931
 6661SOL    HW231620   0.524   1.294  13.673 -2.0712 -0.1869 -0.7027
 6662SOL     OW31621   0.822   2.721   4.203 -1.0614  0.3065  0.2910
 6662SOL    HW131622   0.903   2.732   4.253 -0.6675 -0.4922 -0.1775
 6662SOL    HW231623   0.756   2.731   4.271 -1.0399  1.2609  0.1827
 6663SOL     OW31624   3.765   1.526   4.216 -0.2292 -0.1609  0.4271
 6663SOL    HW131625   3.786   1.600   4.273 -0.5840 -0.4516  0.9286
 6663SOL    HW231626   3.792   1.451   4.269 -0.9754 -1.2060 -0.6688
 6664SOL     OW31627   3.283   3.194   2.197 -0.4623  0.4705 -0.4720
 6664SOL    HW131628   3.262   3.108   2.160  0.5512  0.1229 -0.2641
 6664SOL    HW231629   3.371   3.208   2.162 -0.9671  0.5163 -1.7342
 6665SOL     OW31630   0.353   1.774   1.441 -0.2017  0.0760  0.0508
 6665SOL    HW131631   0.272   1.738   1.477 -0.4142  1.9483  1.4819
 6665SOL    HW231632   0.378   1.829   1.516  1.4651 -0.7065  0.0570
 6666SOL     OW31633   0.637   2.038   2.393 -0.2629 -0.6701 -0.4241
 6666SOL    HW131634   0.719   2.052   2.441 -0.8741  1.4564 -0.0387
 6666SOL    HW231635   0.590   2.115   2.423  0.1701 -0.1848 -0.9937
 6667SOL     OW31636   3.391   1.579   4.496 -0.1720  0.4101 -0.1011
 6667SOL    HW131637   3.359   1.581   4.586 -3.7859 -1.6184 -1.3454
 6667SOL    HW231638   3.397   1.485   4.483  1.7071  0.5556 -0.2489
 6668SOL     OW31639   1.883   3.133   0.492  0.3429 -0.3848  0.4154
 6668SOL    HW131640   1.861   3.222   0.464 -0.2446 -0.8364 -0.5511
 6668SOL    HW231641   1.926   3.143   0.577 -0.5040  2.3552  0.5132
 6669SOL     OW31642   3.783   0.369  16.714  0.0221 -0.5029 -0.1056
 6669SOL    HW131643   3.773   0.348  16.621 -0.0516  1.8713 -0.6576
 6669SOL    HW231644   3.856   0.431  16.716 -1.3123  1.0703 -0.1679
 6670SOL     OW31645   0.670   2.687   8.504 -0.5530 -0.0291  0.1645
 6670SOL    HW131646   0.702   2.674   8.415 -3.7254  0.1200 -0.9998
 6670SOL    HW231647   0.699   2.609   8.552 -0.2320 -0.5020 -0.8087
 6671SOL     OW31648   1.435   1.691   1.988 -0.1478  0.3169 -0.5671
 6671SOL    HW131649   1.491   1.693   1.911  4.1092 -2.3277  2.4569
 6671SOL    HW231650   1.382   1.769   1.976 -0.0372  0.7178  1.6043
 6672SOL     OW31651   2.390   0.081  11.229  0.2675 -0.3780  0.1992
 6672SOL    HW131652   2.428   0.155  11.181 -2.2579  0.8433  0.0803
 6672SOL    HW231653   2.407   0.012  11.164 -0.2475  0.8853 -1.2839
 6673SOL     OW31654   0.980   0.168  14.999 -0.1897  0.0988 -0.2612
 6673SOL    HW131655   1.020   0.254  15.010  0.3222 -0.3019  1.0052
 6673SOL    HW231656   0.909   0.184  14.937 -0.8697 -0.3155  0.4114
 6674SOL     OW31657   2.228   1.143  15.367  0.0153  0.1240 -0.3252
 6674SOL    HW131658   2.200   1.051  15.367 -1.3945  0.5641  1.6270
 6674SOL    HW231659   2.294   1.144  15.297  0.1657 -0.3134 -0.1889
 6675SOL     OW31660   2.474   0.630  12.331 -0.1618 -0.4725  0.0707
 6675SOL    HW131661   2.415   0.612  12.257 -0.6463 -0.2330  0.3939
 6675SOL    HW231662   2.484   0.726  12.333 -0.4708 -0.4666  1.3621
 6676SOL     OW31663   0.062   2.777   5.213 -0.2795  0.6582 -0.9147
 6676SOL    HW131664   4.707   2.796   5.240 -0.5263  0.7897 -1.8250
 6676SOL    HW231665   0.080   2.712   5.281  0.8898  2.5233  0.5873
 6677SOL     OW31666   0.601   2.930   5.273 -0.3756 -0.1981 -0.5385
 6677SOL    HW131667   0.618   2.985   5.349 -1.6434 -0.4187 -0.0852
 6677SOL    HW231668   0.508   2.918   5.291 -0.2220 -0.0043  0.4042
 6678SOL     OW31669   1.074   0.464   5.450 -0.3922  0.1858 -0.2498
 6678SOL    HW131670   1.025   0.440   5.371 -1.2031  2.9431 -0.6179
 6678SOL    HW231671   1.158   0.485   5.409 -2.0035  2.2518 -2.5225
 6679SOL     OW31672   3.152   4.460  15.589 -0.4397  0.0842  0.6469
 6679SOL    HW131673   3.118   4.370  15.588  0.7955 -0.3573 -1.3381
 6679SOL    HW231674   3.145   4.490  15.499  0.0678  0.6701  0.8045
 6680SOL     OW31675   0.580   1.620  16.631 -0.2002 -0.4026  0.2303
 6680SOL    HW131676   0.662   1.651  16.592 -0.7187 -1.4287 -1.6849
 6680SOL    HW231677   0.544   1.706  16.650 -0.3333 -0.5652  0.6975
 6681SOL     OW31678   2.711   4.292  13.910 -0.1505 -0.6796 -0.0833
 6681SOL    HW131679   2.742   4.247  13.989  0.5968 -0.9009 -0.5070
 6681SOL    HW231680   2.666   4.367  13.949  0.7050 -0.6540  0.8519
 6682SOL     OW31681   2.751   3.934   2.222 -0.0104  0.2738  0.3586
 6682SOL    HW131682   2.812   3.861   2.233 -0.4649 -0.2402 -0.5439
 6682SOL    HW231683   2.809   3.996   2.178 -0.6831  0.1907 -0.6474
 6683SOL     OW31684   2.655   4.037   3.934 -0.1272  0.4958 -0.0705
 6683SOL    HW131685   2.575   4.087   3.915 -0.0852  1.3767  2.1150
 6683SOL    HW231686   2.700   4.051   3.851 -1.9760  4.4082 -0.4534
 6684SOL     OW31687   0.987   1.357   7.241  0.0087 -0.0989  0.6432
 6684SOL    HW131688   0.955   1.445   7.255 -0.7906 -0.3184  0.1770
 6684SOL    HW231689   1.017   1.369   7.150 -2.1140 -1.0166 -0.1815
 6685SOL     OW31690   4.320   1.459   6.661 -0.2559 -1.2074  0.0890
 6685SOL    HW131691   4.413   1.435   6.666 -0.5061 -1.6270  2.4885
 6685SOL    HW231692   4.332   1.553   6.645 -0.2982 -0.9053  1.8726
 6686SOL     OW31693   2.075   2.215   5.847 -0.2451  0.8608 -0.5166
 6686SOL    HW131694   2.003   2.241   5.789 -0.6918 -2.6467 -1.4882
 6686SOL    HW231695   2.119   2.143   5.803  2.4450 -0.0018  3.6206
 6687SOL     OW31696   0.065   3.425   9.147  0.5960  0.6341  0.4899
 6687SOL    HW131697   4.712   3.457   9.168 -0.0276  1.3761 -3.2070
 6687SOL    HW231698   0.107   3.499   9.104 -1.1253 -0.4139 -3.0414
 6688SOL     OW31699   1.335   3.937   1.818 -0.1411 -0.1417 -0.1987
 6688SOL    HW131700   1.363   3.907   1.731  0.1823 -1.7279  0.4527
 6688SOL    HW231701   1.390   4.016   1.821 -2.1498  1.1571  2.1096
 6689SOL     OW31702   4.704   3.294   3.255 -0.1739 -0.4992  0.4954
 6689SOL    HW131703   4.687   3.343   3.336 -2.6841 -2.7031  1.2866
 6689SOL    HW231704   4.624   3.309   3.205  0.6628  0.1282 -0.6521
 6690SOL     OW31705   1.145   3.471   6.535 -0.0615 -0.0563 -0.2430
 6690SOL    HW131706   1.120   3.532   6.464  0.0181  3.3274  2.6158
 6690SOL    HW231707   1.202   3.410   6.489 -1.3778 -0.6668 -1.0537
 6691SOL     OW31708   2.728   1.124   8.223  0.4338  0.6713  0.1094
 6691SOL    HW131709   2.734   1.196   8.285  0.3430 -0.0531  0.9508
 6691SOL    HW231710   2.742   1.051   8.283 -1.6613  0.3173  0.1509
 6692SOL     OW31711   0.194   2.045   1.830  0.3364  0.5495 -0.7610
 6692SOL    HW131712   0.184   2.135   1.799  1.8001  1.5798  1.7529
 6692SOL    HW231713   0.226   2.060   1.919  0.0756 -0.1187 -0.5538
 6693SOL     OW31714   3.322   0.655   8.820 -0.6336 -0.4794  0.1941
 6693SOL    HW131715   3.287   0.624   8.904 -0.8264 -0.8983 -0.0390
 6693SOL    HW231716   3.274   0.597   8.760  0.0808  0.3727 -1.1761
 6694SOL     OW31717   1.948   0.404   6.651 -0.4795  0.4605  0.0543
 6694SOL    HW131718   2.031   0.409   6.698  0.4692  1.5046 -1.7387
 6694SOL    HW231719   1.949   0.315   6.615 -0.1289  0.9134 -1.0630
 6695SOL     OW31720   3.746   1.960   7.693 -1.0374  0.3596  0.0554
 6695SOL    HW131721   3.803   1.940   7.619 -0.4421  2.0498  0.0731
 6695SOL    HW231722   3.817   1.988   7.750  0.2816 -0.4353 -1.2083
 6696SOL     OW31723   0.709   4.487   2.744 -0.2631  0.1561  0.5272
 6696SOL    HW131724   0.723   4.401   2.705 -1.8585 -0.4376  1.2740
 6696SOL    HW231725   0.615   4.489   2.728 -0.2145  3.4883  0.6567
 6697SOL     OW31726   2.046   0.398   8.097 -0.6268 -0.5284  0.3069
 6697SOL    HW131727   2.048   0.487   8.133 -4.7868 -0.9019  1.4918
 6697SOL    HW231728   1.953   0.386   8.081 -0.6988  0.2357  0.1656
 6698SOL     OW31729   0.250   3.795   3.283  0.0474 -0.3215 -0.1318
 6698SOL    HW131730   0.271   3.711   3.324  1.1521  1.0059  2.0054
 6698SOL    HW231731   0.338   3.818   3.255 -0.6226  2.0990 -0.2278
 6699SOL     OW31732   1.679   1.726  11.660  0.6288 -0.3076  0.6907
 6699SOL    HW131733   1.775   1.732  11.654  0.7318 -2.2661  0.6769
 6699SOL    HW231734   1.670   1.661  11.729 -0.9448 -1.5245 -0.6833
 6700SOL     OW31735   0.836   3.733  16.623  0.7636 -0.1168 -0.7256
 6700SOL    HW131736   0.889   3.715  16.701  0.1839 -1.9770 -0.7603
 6700SOL    HW231737   0.824   3.652  16.572  1.2232 -0.9340  0.4621
 6701SOL     OW31738   0.462   4.553   0.268  0.5801 -0.1542  0.3953
 6701SOL    HW131739   0.499   4.598   0.193 -0.6194  2.9813  1.6737
 6701SOL    HW231740   0.370   4.578   0.257  0.1251 -1.6167  0.8117
 6702SOL     OW31741   3.399   1.214  15.131  0.1520 -0.0202  0.5172
 6702SOL    HW131742   3.398   1.240  15.223 -0.4470 -0.8111  0.7348
 6702SOL    HW231743   3.410   1.297  15.084  0.4718  0.0619  0.7387
 6703SOL     OW31744   3.885   2.338  10.612 -0.5008  0.3373  0.2830
 6703SOL    HW131745   3.855   2.250  10.635  0.7901  0.1060  1.0451
 6703SOL    HW231746   3.972   2.326  10.575 -0.8843  1.9805 -1.1911
 6704SOL     OW31747   0.392   1.582   9.588 -0.4310 -0.4615 -0.0830
 6704SOL    HW131748   0.310   1.608   9.545 -0.8512 -0.4764  0.7060
 6704SOL    HW231749   0.352   1.532   9.659 -2.7736 -0.0143 -1.0741
 6705SOL     OW31750   1.649   1.924   2.067 -0.6270 -0.4324  0.3792
 6705SOL    HW131751   1.660   1.942   2.160 -0.4519  0.9937  0.0762
 6705SOL    HW231752   1.560   1.957   2.061 -0.3098 -0.0428 -1.9865
 6706SOL     OW31753   2.976   2.129  16.650 -0.1026  0.3598  0.2316
 6706SOL    HW131754   2.923   2.086  16.717  0.4387 -0.7651 -0.0763
 6706SOL    HW231755   2.916   2.171  16.587 -1.5921 -0.8083  0.8635
 6707SOL     OW31756   2.822   4.122  16.960 -0.2732  0.2926 -0.1945
 6707SOL    HW131757   2.802   4.158  16.874 -0.7551 -1.1342 -0.6813
 6707SOL    HW231758   2.917   4.127  16.957 -0.1654 -0.2261  2.1375
 6708SOL     OW31759   0.781   2.464   6.842 -0.0784  0.2353  0.3030
 6708SOL    HW131760   0.798   2.370   6.830  1.4688  0.4255  1.1053
 6708SOL    HW231761   0.699   2.459   6.890  0.4704 -1.2402  1.0914
 6709SOL     OW31762   3.749   3.667  15.845  0.5280 -0.0261 -0.3492
 6709SOL    HW131763   3.721   3.639  15.758 -4.7842  0.8986  1.1005
 6709SOL    HW231764   3.671   3.645  15.896  1.1191 -0.3716  0.4059
 6710SOL     OW31765   3.291   3.931   2.605  0.0042  0.6065 -0.1330
 6710SOL    HW131766   3.267   3.847   2.565  1.3459 -0.6395  1.6617
 6710SOL    HW231767   3.384   3.919   2.624 -0.4740 -1.3417  1.0544
 6711SOL     OW31768   4.232   1.133   5.066 -0.3040  0.0314 -0.0799
 6711SOL    HW131769   4.307   1.144   5.008 -0.1389 -0.1170  0.1046
 6711SOL    HW231770   4.216   1.040   5.085 -0.1936 -0.0922 -0.5687
 6712SOL     OW31771   0.595   3.790   7.100  0.6490 -0.2746  0.2903
 6712SOL    HW131772   0.634   3.843   7.030  0.8323  2.6766  2.5930
 6712SOL    HW231773   0.670   3.736   7.121  1.2116 -0.8179 -3.0772
 6713SOL     OW31774   2.157   4.480   4.338  0.0502  0.2204 -0.5837
 6713SOL    HW131775   2.215   4.463   4.412 -1.0782 -0.1394  0.2229
 6713SOL    HW231776   2.161   4.398   4.288  2.0679  0.0052 -0.0714
 6714SOL     OW31777   2.339   0.308  15.530 -0.3228 -0.2366  0.5498
 6714SOL    HW131778   2.276   0.240  15.553 -1.7398  1.0406  0.4157
 6714SOL    HW231779   2.349   0.356  15.612  2.2725 -1.3894  0.9223
 6715SOL     OW31780   4.043   0.001   3.890 -0.4396 -0.0575 -0.1926
 6715SOL    HW131781   4.105   4.673   3.928  0.0206  0.3766 -0.2319
 6715SOL    HW231782   4.112   0.066   3.876  0.2885 -1.0422 -1.2654
 6716SOL     OW31783   1.724   1.303   1.062  0.6052  0.3065  0.3229
 6716SOL    HW131784   1.724   1.335   1.152  1.5320 -1.3467  0.8974
 6716SOL    HW231785   1.808   1.328   1.025  0.7358  0.5784  0.8065
 6717SOL     OW31786   4.336   4.087   9.399  0.0707  0.1202  0.2767
 6717SOL    HW131787   4.368   4.015   9.453 -1.1494 -0.6665 -0.0522
 6717SOL    HW231788   4.379   4.067   9.316 -0.1395  0.4820  0.0833
 6718SOL     OW31789   2.804   1.860   3.803  0.1968  0.2613 -0.3670
 6718SOL    HW131790   2.879   1.881   3.859 -1.5026  1.2161  1.5655
 6718SOL    HW231791   2.812   1.765   3.812 -0.5996  0.3558  1.3465
 6719SOL     OW31792   0.353   3.025   9.040 -0.3658  0.2130  0.0829
 6719SOL    HW131793   0.328   3.027   8.947  2.1053 -1.0032 -0.6037
 6719SOL    HW231794   0.313   2.941   9.062 -0.2678 -0.0684 -0.7932
 6720SOL     OW31795   3.651   1.117   1.387 -0.0425  0.6259 -0.4648
 6720SOL    HW131796   3.719   1.052   1.404  2.1768  2.3290 -2.8859
 6720SOL    HW231797   3.572   1.063   1.384 -0.1645  0.6394  2.8888
 6721SOL     OW31798   1.395   0.879  15.380  0.2163  0.1771  0.2864
 6721SOL    HW131799   1.469   0.933  15.353  1.0691  0.3632  2.9492
 6721SOL    HW231800   1.358   0.860  15.294  2.2368 -0.5685 -0.4228
 6722SOL     OW31801   2.459   2.492   6.418  0.2834 -0.0508  0.4564
 6722SOL    HW131802   2.493   2.552   6.352  0.2821  0.2252  0.7079
 6722SOL    HW231803   2.379   2.457   6.378 -0.4517  2.6716 -0.4642
 6723SOL     OW31804   0.752   1.988   3.103 -0.1572 -0.2725 -0.1638
 6723SOL    HW131805   0.687   2.047   3.139 -0.7240 -0.0988 -1.4820
 6723SOL    HW231806   0.765   1.936   3.183  0.4203  1.5133  0.9064
 6724SOL     OW31807   2.788   0.878  16.853 -0.0048  0.3175  0.2328
 6724SOL    HW131808   2.800   0.972  16.843 -0.4349  0.3038 -0.4044
 6724SOL    HW231809   2.795   0.867  16.948  0.8580 -3.4592 -0.2530
 6725SOL     OW31810   3.046   3.072  10.692  0.2853 -0.0490 -0.6022
 6725SOL    HW131811   3.046   3.087  10.787  2.1609 -3.8765  0.0126
 6725SOL    HW231812   2.981   3.003  10.682  1.0020 -0.7187 -0.7112
 6726SOL     OW31813   3.334   4.201   3.880  0.5525 -0.0044 -0.0454
 6726SOL    HW131814   3.349   4.269   3.945  1.1186  0.5625 -0.7690
 6726SOL    HW231815   3.386   4.219   3.801  0.3494 -0.5665 -0.3050
 6727SOL     OW31816   2.483   4.472   7.975  0.6252 -0.2933 -0.1429
 6727SOL    HW131817   2.402   4.422   7.967 -0.5623  1.7618 -1.1059
 6727SOL    HW231818   2.444   4.558   7.990  3.2167  0.6188  1.3492
 6728SOL     OW31819   1.384   0.385  17.453  0.0465 -0.5158 -0.1128
 6728SOL    HW131820   1.413   0.433  17.375 -0.5931  3.2940  2.0097
 6728SOL    HW231821   1.358   0.459  17.507 -0.0695 -1.0789  0.5979
 6729SOL     OW31822   2.999   3.449   2.514  0.5422 -0.0892  0.0961
 6729SOL    HW131823   2.991   3.512   2.585 -0.9120 -0.8469  0.6037
 6729SOL    HW231824   2.910   3.415   2.502  0.2610  1.4412 -2.0656
 6730SOL     OW31825   3.207   4.663  16.334  0.2538  0.3573  0.5548
 6730SOL    HW131826   3.292   4.688  16.299 -1.3958 -0.9568 -4.3090
 6730SOL    HW231827   3.150   4.689  16.261 -0.4060 -1.7143  0.3337
 6731SOL     OW31828   4.249   1.282  10.343 -0.1517 -0.0365  0.1389
 6731SOL    HW131829   4.188   1.214  10.317 -1.0672  1.3906 -1.4638
 6731SOL    HW231830   4.318   1.232  10.386 -0.0697 -0.3364 -0.3452
 6732SOL     OW31831   2.302   1.168   6.536 -0.9297  0.6078  0.0932
 6732SOL    HW131832   2.242   1.243   6.538  0.7931  1.9365  2.6154
 6732SOL    HW231833   2.374   1.190   6.477 -0.4027  0.0976  0.5436
 6733SOL     OW31834   4.597   0.754   1.493 -0.2441 -0.4510 -0.0732
 6733SOL    HW131835   4.617   0.664   1.519  2.6255  0.4467  0.8979
 6733SOL    HW231836   4.672   0.808   1.520  0.1502 -0.4469 -1.1908
 6734SOL     OW31837   0.835   0.829  17.107  0.6333  0.2598  0.1041
 6734SOL    HW131838   0.802   0.919  17.101  1.3681  0.6251  1.6979
 6734SOL    HW231839   0.797   0.782  17.033 -0.6239  2.0456 -0.3813
 6735SOL     OW31840   0.278   2.553   0.211 -0.8079  0.1994  0.7648
 6735SOL    HW131841   0.304   2.635   0.168  1.4046  0.4748  2.6419
 6735SOL    HW231842   0.289   2.490   0.140 -1.1449 -0.1648  1.0393
 6736SOL     OW31843   2.999   2.611   8.326  0.0720  0.2881 -0.5057
 6736SOL    HW131844   2.928   2.647   8.378  0.4456 -0.8369  0.7899
 6736SOL    HW231845   3.072   2.670   8.346 -2.1647  3.0034 -0.4679
 6737SOL     OW31846   3.943   3.421   8.596 -0.7655  0.2324  1.0323
 6737SOL    HW131847   4.035   3.440   8.578 -1.1506 -1.0247 -2.2074
 6737SOL    HW231848   3.911   3.423   8.506  2.3057 -0.6113 -0.0792
 6738SOL     OW31849   4.305   0.907  14.321 -0.6263 -0.2966  0.2392
 6738SOL    HW131850   4.293   0.839  14.387 -2.1755 -0.4191 -0.1709
 6738SOL    HW231851   4.218   0.943  14.303 -1.3946 -1.6040  1.3704
 6739SOL     OW31852   0.335   3.928   8.769  0.0443 -0.1648 -0.3744
 6739SOL    HW131853   0.270   3.878   8.818  1.4226 -0.9162  0.7025
 6739SOL    HW231854   0.382   3.854   8.730 -1.4845 -0.3799 -1.7651
 6740SOL     OW31855   0.094   3.671   2.630 -0.5072 -0.0460  0.0505
 6740SOL    HW131856   0.184   3.640   2.642 -0.4859 -0.4741 -1.2717
 6740SOL    HW231857   0.049   3.590   2.605 -0.1824  0.2135 -1.3627
 6741SOL     OW31858   2.841   2.830  10.871 -0.3210 -0.0863  0.0462
 6741SOL    HW131859   2.843   2.869  10.784 -2.0754  0.8689  0.4352
 6741SOL    HW231860   2.755   2.856  10.904 -1.0805 -2.5609 -0.0007
 6742SOL     OW31861   0.807   4.266  17.674 -0.2503  0.3577 -0.2798
 6742SOL    HW131862   0.774   4.315   0.011 -2.1656 -0.9393 -0.2829
 6742SOL    HW231863   0.903   4.258  17.679 -0.3689 -0.8290  0.1220
 6743SOL     OW31864   2.691   4.672  13.785  0.5845  0.1778  0.0213
 6743SOL    HW131865   2.619   4.728  13.754  1.3754  1.2110  0.0221
 6743SOL    HW231866   2.645   4.612  13.842 -0.2317 -0.4938 -1.3439
 6744SOL     OW31867   1.425   0.936   2.320  0.3345  0.0345  0.2814
 6744SOL    HW131868   1.352   0.976   2.273 -0.4661 -1.5781  0.1333
 6744SOL    HW231869   1.374   0.885   2.384 -0.4389  0.6009  0.1168
 6745SOL     OW31870   2.962   0.300   4.384 -0.3140 -0.1951  0.0656
 6745SOL    HW131871   2.872   0.276   4.405 -0.5484  0.1311 -0.5683
 6745SOL    HW231872   2.970   0.244   4.307 -0.9464 -0.3513  0.1167
 6746SOL     OW31873   2.976   0.541   7.570 -0.3797  0.1558  0.3181
 6746SOL    HW131874   2.884   0.565   7.561 -0.1700  0.5783 -0.7527
 6746SOL    HW231875   3.011   0.610   7.626 -0.2386 -0.8332  1.4576
 6747SOL     OW31876   1.299   0.385   7.501  0.4193  0.3624 -0.3739
 6747SOL    HW131877   1.266   0.389   7.411  0.7590 -0.3289 -0.5283
 6747SOL    HW231878   1.291   0.289   7.504 -4.1416  0.6897 -1.4475
 6748SOL     OW31879   0.993   1.901   1.252  0.1946  0.5913  0.1393
 6748SOL    HW131880   1.087   1.892   1.266 -0.2391 -1.6875  1.6238
 6748SOL    HW231881   0.994   1.885   1.158  0.7583 -1.9904  0.5916
 6749SOL     OW31882   0.420   3.743   8.592 -0.2784 -0.2998  0.3535
 6749SOL    HW131883   0.436   3.666   8.647  1.3530 -0.9890 -1.1187
 6749SOL    HW231884   0.333   3.720   8.559 -0.0859 -2.0748  1.0673
 6750SOL     OW31885   0.552   4.057   4.184 -0.0575 -0.2764  0.2921
 6750SOL    HW131886   0.579   3.968   4.161  0.0978 -0.2748  0.4710
 6750SOL    HW231887   0.629   4.094   4.227  0.7957 -0.7528 -0.8150
 6751SOL     OW31888   0.894   3.280   5.460 -0.5454  0.2921  0.0884
 6751SOL    HW131889   0.975   3.266   5.508  0.5936 -0.3927 -2.0109
 6751SOL    HW231890   0.926   3.291   5.370  0.6379 -0.3967  0.4269
 6752SOL     OW31891   0.000   1.581  11.835 -0.2169 -0.5148  0.6383
 6752SOL    HW131892   0.013   1.543  11.922 -2.3237  1.6409  1.8836
 6752SOL    HW231893   4.651   1.545  11.807 -0.0120  0.4869 -1.2935
 6753SOL     OW31894   1.692   1.059   6.383 -0.1809 -0.0046  0.4524
 6753SOL    HW131895   1.780   1.096   6.373  0.1240 -0.9473 -0.4605
 6753SOL    HW231896   1.697   1.000   6.458 -0.5334 -0.3274  0.2230
 6754SOL     OW31897   2.344   2.573   7.517  0.2955 -0.4639 -0.3565
 6754SOL    HW131898   2.389   2.537   7.594  1.0363  0.3379 -0.4137
 6754SOL    HW231899   2.309   2.653   7.555 -1.4649 -0.2272 -2.5134
 6755SOL     OW31900   4.489   4.282   1.263  0.3632  0.9896  0.4280
 6755SOL    HW131901   4.502   4.332   1.182  0.0140 -0.5037 -0.5348
 6755SOL    HW231902   4.394   4.295   1.266  0.4018  1.7763 -1.6665
 6756SOL     OW31903   1.460   3.816   6.997  0.5597  0.6145  0.1969
 6756SOL    HW131904   1.490   3.730   6.967 -0.2467 -0.0592  1.3027
 6756SOL    HW231905   1.510   3.820   7.079 -1.0799 -0.4491  1.2388
 6757SOL     OW31906   2.998   2.146   6.057  0.0464  0.1893  0.5021
 6757SOL    HW131907   2.966   2.234   6.078 -0.0405  0.4529 -0.7106
 6757SOL    HW231908   3.022   2.141   5.965  0.5089  0.7627  0.5906
 6758SOL     OW31909   1.256   3.050   0.912 -0.2886  0.1888 -0.1343
 6758SOL    HW131910   1.299   3.120   0.861 -1.0665  0.9831  0.3019
 6758SOL    HW231911   1.176   3.096   0.936 -0.2878 -0.4010  0.9835
 6759SOL     OW31912   3.913   3.021   7.945 -0.1913  0.3402 -0.5851
 6759SOL    HW131913   3.829   3.013   7.991 -0.4063 -0.5125 -1.1393
 6759SOL    HW231914   3.971   3.037   8.020 -2.9927 -1.5988  2.0350
 6760SOL     OW31915   2.203   1.854   3.409 -0.7600  0.6429  0.1383
 6760SOL    HW131916   2.154   1.794   3.464  1.3626  0.6074  2.0138
 6760SOL    HW231917   2.133   1.918   3.393 -1.3685  0.3276  1.5361
 6761SOL     OW31918   1.090   0.052  14.367  0.1137 -0.1528 -0.4974
 6761SOL    HW131919   1.080   0.093  14.453 -1.2001  1.1976 -1.2855
 6761SOL    HW231920   1.006   0.006  14.368  0.2370 -0.3853 -1.5142
 6762SOL     OW31921   3.349   3.997   4.517 -0.1475 -0.0644 -0.5715
 6762SOL    HW131922   3.374   3.993   4.425  2.8377  0.1930  0.2475
 6762SOL    HW231923   3.307   4.083   4.511  2.2445  1.1615  0.5232
 6763SOL     OW31924   4.254   4.398   3.446  0.2037 -0.7556 -0.3384
 6763SOL    HW131925   4.177   4.341   3.447 -0.0495 -0.4031  0.2285
 6763SOL    HW231926   4.216   4.483   3.470  0.3172 -0.9011  0.3702
 6764SOL     OW31927   2.399   2.100   6.067  0.0671 -0.4730  0.3950
 6764SOL    HW131928   2.412   2.006   6.054  0.8055 -0.4526  0.9870
 6764SOL    HW231929   2.380   2.110   6.160  0.9328  1.0073  0.4143
 6765SOL     OW31930   2.371   0.822   1.179  0.1039  0.3811  0.2051
 6765SOL    HW131931   2.446   0.880   1.169  1.1803 -1.0444 -0.0729
 6765SOL    HW231932   2.404   0.755   1.119 -3.9151 -0.9798 -0.4359
 6766SOL     OW31933   2.117   4.225   4.063  0.2106 -0.3591  1.1006
 6766SOL    HW131934   2.025   4.200   4.051  0.4369 -0.8905  0.4897
 6766SOL    HW231935   2.146   4.206   3.974  0.2188 -0.8190  1.2007
 6767SOL     OW31936   2.613   1.695  12.187 -0.2242 -0.4372 -0.0765
 6767SOL    HW131937   2.536   1.744  12.214  0.0023  1.8119 -3.5440
 6767SOL    HW231938   2.661   1.664  12.264 -0.4635  2.3552  1.2000
 6768SOL     OW31939   4.043   2.621   8.810 -0.0575  0.3891 -0.1658
 6768SOL    HW131940   3.977   2.581   8.867  2.0579 -0.9810  1.3033
 6768SOL    HW231941   4.049   2.711   8.839 -1.2072 -0.0666  1.4899
 6769SOL     OW31942   4.561   4.597   2.139  0.2412 -0.6631  0.3316
 6769SOL    HW131943   4.616   4.592   2.217 -1.7439  1.0222  1.8645
 6769SOL    HW231944   4.510   4.516   2.151 -1.8307  0.4069 -1.1061
 6770SOL     OW31945   0.060   0.353   6.295 -0.7411  0.3460 -0.1764
 6770SOL    HW131946   0.100   0.436   6.271 -1.8153  0.4516 -1.5671
 6770SOL    HW231947   4.711   0.376   6.334  0.1997 -0.2281  2.2000
 6771SOL     OW31948   2.546   1.619  17.611  0.3886  0.0093  1.1400
 6771SOL    HW131949   2.453   1.605  17.629  0.7288 -2.4286  1.0118
 6771SOL    HW231950   2.586   1.541  17.652  0.4628 -0.2286  0.6091
 6772SOL     OW31951   2.301   2.643  11.372 -0.3738 -0.0578  0.5048
 6772SOL    HW131952   2.340   2.557  11.355  0.8335  0.5449  0.2169
 6772SOL    HW231953   2.248   2.627  11.449  0.4556 -2.2776  0.6182
 6773SOL     OW31954   0.150   1.283   3.820  0.1814 -0.3358  0.4496
 6773SOL    HW131955   0.058   1.294   3.845 -0.5562  2.3200 -3.3829
 6773SOL    HW231956   0.172   1.353   3.759  2.2197  0.7189  2.3780
 6774SOL     OW31957   1.586   1.215   2.029 -0.5880  0.2397 -0.3466
 6774SOL    HW131958   1.641   1.281   2.072  1.1480 -1.3064 -0.1731
 6774SOL    HW231959   1.537   1.182   2.104  1.9508 -1.3417  0.6388
 6775SOL     OW31960   1.952   0.653   4.366  0.3514  0.0134  0.4886
 6775SOL    HW131961   2.012   0.619   4.432  1.3628  0.6176 -0.1166
 6775SOL    HW231962   1.868   0.641   4.411  0.3096 -3.1686 -0.4311
 6776SOL     OW31963   0.871   3.548   2.712 -0.0092 -0.4620 -0.7347
 6776SOL    HW131964   0.856   3.594   2.629  0.9926  1.7281  0.3135
 6776SOL    HW231965   0.787   3.570   2.753 -0.0555 -0.3990 -0.8654
 6777SOL     OW31966   0.020   0.668   7.999 -0.4652  0.5608 -0.1868
 6777SOL    HW131967   0.077   0.666   7.922 -1.0413  0.6410 -0.6135
 6777SOL    HW231968   4.682   0.611   7.974 -0.7216  0.1496  1.5048
 6778SOL     OW31969   2.936   2.491   7.292  0.0347 -0.4738  0.3188
 6778SOL    HW131970   2.864   2.529   7.341 -0.0755  0.4400 -0.5514
 6778SOL    HW231971   3.014   2.547   7.294 -0.6624  0.4437  1.4764
 6779SOL     OW31972   4.314   2.642   5.672  0.2601  0.3785 -0.2813
 6779SOL    HW131973   4.220   2.638   5.651  0.5955 -1.5115 -1.4900
 6779SOL    HW231974   4.341   2.570   5.615 -0.6562 -1.0717  1.1278
 6780SOL     OW31975   1.739   0.409  15.034 -0.2029  0.7004  0.4578
 6780SOL    HW131976   1.664   0.392  14.978 -0.5838  1.8746  0.6161
 6780SOL    HW231977   1.741   0.333  15.092 -0.7877 -2.3608 -3.5862
 6781SOL     OW31978   1.684   0.973   4.687  0.2940 -0.1130 -0.0640
 6781SOL    HW131979   1.768   1.004   4.653  0.4971  1.2047  1.6179
 6781SOL    HW231980   1.651   0.962   4.598 -1.9490 -0.3687  0.7902
 6782SOL     OW31981   1.475   4.323  14.827 -0.0624  0.4174  0.3555
 6782SOL    HW131982   1.394   4.317  14.777  0.3778  0.4787 -0.3678
 6782SOL    HW231983   1.535   4.261  14.786 -1.3082 -0.0759 -0.6928
 6783SOL     OW31984   0.923   1.199  13.199  0.3375 -0.2523 -0.1653
 6783SOL    HW131985   0.875   1.242  13.128  0.0498 -1.9062 -0.9657
 6783SOL    HW231986   0.855   1.196  13.267  1.5458 -0.5029  1.0489
 6784SOL     OW31987   4.116   1.914   9.836 -0.4086 -0.1309  0.1568
 6784SOL    HW131988   4.145   2.003   9.815 -2.0037  0.4516  0.4631
 6784SOL    HW231989   4.084   1.888   9.749  2.3622  3.4573 -1.9249
 6785SOL     OW31990   1.405   1.641   8.083 -0.2958  0.0886 -0.9209
 6785SOL    HW131991   1.451   1.578   8.139 -0.5084 -0.1191 -0.9781
 6785SOL    HW231992   1.469   1.713   8.085  0.7818 -0.9177  1.3735
 6786SOL     OW31993   3.568   2.558   4.380 -0.0565 -0.2691 -0.8583
 6786SOL    HW131994   3.510   2.582   4.453  1.0515 -0.4300  0.0867
 6786SOL    HW231995   3.505   2.559   4.308 -0.7361  0.9279 -0.2345
 6787SOL     OW31996   0.828   3.772   8.298 -0.3784 -0.0766  0.2699
 6787SOL    HW131997   0.748   3.720   8.294  0.4777 -1.3091 -0.5545
 6787SOL    HW231998   0.888   3.711   8.341  0.6409 -0.8717 -2.2807
 6788SOL     OW31999   0.526   1.048  15.363  0.1637  0.0675  0.6292
 6788SOL    HW132000   0.534   1.042  15.268 -0.2421 -3.2920  0.8371
 6788SOL    HW232001   0.453   0.993  15.389 -1.7392  2.2786  0.0273
 6789SOL     OW32002   3.684   1.087   8.953  0.2998 -0.8148 -0.3527
 6789SOL    HW132003   3.644   1.115   9.035  1.0419 -0.1847 -0.2031
 6789SOL    HW232004   3.735   1.167   8.942 -0.1950 -0.2860  1.1269
 6790SOL     OW32005   2.133   3.074  10.211 -0.4252  0.0838  0.2383
 6790SOL    HW132006   2.042   3.050  10.190 -0.1728  1.7496 -2.7942
 6790SOL    HW232007   2.175   2.996  10.175  0.0597 -0.7378  2.5936
 6791SOL     OW32008   2.910   1.640   4.332 -0.4690 -0.4016  0.2175
 6791SOL    HW132009   2.993   1.595   4.347 -0.1018 -0.5443 -2.1468
 6791SOL    HW232010   2.849   1.568   4.312 -0.0326 -0.1632 -1.9907
 6792SOL     OW32011   1.290   3.060  14.955 -0.2259  0.1802 -0.0200
 6792SOL    HW132012   1.265   2.999  15.025 -0.1230  0.7422  0.5053
 6792SOL    HW232013   1.381   3.033  14.944 -0.7175 -1.3461 -0.3194
 6793SOL     OW32014   0.076   2.725  13.347  0.2381  0.3861 -0.1284
 6793SOL    HW132015   0.048   2.816  13.333  1.7704  0.6485 -1.4978
 6793SOL    HW232016   0.011   2.670  13.304 -0.9250  0.7205  1.1720
 6794SOL     OW32017   2.407   3.374   3.546 -0.6273  0.7201 -0.3732
 6794SOL    HW132018   2.401   3.302   3.483 -2.2908  0.6440 -0.1253
 6794SOL    HW232019   2.501   3.386   3.553 -0.5061 -1.1290  1.0718
 6795SOL     OW32020   1.595   3.657   4.452  0.5142 -0.1980 -0.2893
 6795SOL    HW132021   1.550   3.605   4.519 -0.5928  2.4439  1.0418
 6795SOL    HW232022   1.648   3.716   4.505 -0.3967 -0.9808  1.4999
 6796SOL     OW32023   2.639   4.727   9.823  0.5479  0.4531  0.3566
 6796SOL    HW132024   2.617   0.041   9.902 -1.1353  0.6497 -0.2449
 6796SOL    HW232025   2.582   4.651   9.833  2.1803 -0.7327  0.6038
 6797SOL     OW32026   2.722   0.168   9.224  0.4206 -0.4181 -0.3944
 6797SOL    HW132027   2.692   0.077   9.224 -0.3569 -0.1690  1.2362
 6797SOL    HW232028   2.769   0.175   9.141  0.6181  2.1627 -0.0662
 6798SOL     OW32029   4.162   2.306   3.412  0.3352  0.0631 -0.0437
 6798SOL    HW132030   4.097   2.362   3.455  0.0509 -0.1817 -0.1588
 6798SOL    HW232031   4.208   2.265   3.486 -0.0189 -0.0568  0.1090
 6799SOL     OW32032   3.118   4.266   0.553 -0.3503  0.0429  0.4712
 6799SOL    HW132033   3.156   4.179   0.539  0.1832  0.1045  1.5801
 6799SOL    HW232034   3.139   4.289   0.643 -2.9040 -0.7044  1.2777
 6800SOL     OW32035   4.181   1.252   6.782 -0.8808  0.3829 -0.1232
 6800SOL    HW132036   4.264   1.221   6.818 -1.0301 -1.4435 -1.3731
 6800SOL    HW232037   4.216   1.325   6.730  2.0406 -1.8742 -1.3515
 6801SOL     OW32038   3.167   4.494   1.696  0.1734 -0.0250 -0.1376
 6801SOL    HW132039   3.188   4.537   1.779 -0.9282  4.2313 -2.0686
 6801SOL    HW232040   3.245   4.521   1.647  0.2185  0.8365  0.4230
 6802SOL     OW32041   3.867   2.487   8.379  0.1810  0.1661  0.1839
 6802SOL    HW132042   3.870   2.535   8.297  1.0919  2.1925  1.4141
 6802SOL    HW232043   3.851   2.400   8.342 -0.5939 -0.2718  1.5321
 6803SOL     OW32044   3.221   2.201   3.929 -0.0354  0.1136 -0.0857
 6803SOL    HW132045   3.310   2.193   3.962 -0.9224  1.5759  2.6618
 6803SOL    HW232046   3.229   2.234   3.839  0.1452 -1.5029 -0.6627
 6804SOL     OW32047   1.694   4.689  13.156  0.0019 -0.4344 -0.1158
 6804SOL    HW132048   1.627   4.702  13.222 -0.5453  2.0531 -1.1642
 6804SOL    HW232049   1.687   4.594  13.157  0.1155 -0.4634 -1.2768
 6805SOL     OW32050   4.679   0.332   8.421  0.3066 -0.0998 -0.2844
 6805SOL    HW132051   4.627   0.355   8.344 -0.1086 -1.4137 -0.3830
 6805SOL    HW232052   0.023   0.294   8.381  0.1192  0.8176 -1.5544
 6806SOL     OW32053   1.121   0.579   3.718 -0.3498  0.0889 -0.3502
 6806SOL    HW132054   1.158   0.644   3.658 -1.7225  1.7327  0.5786
 6806SOL    HW232055   1.083   0.515   3.658 -1.4716 -1.5010  2.0577
 6807SOL     OW32056   3.376   4.302   3.305 -0.0483  0.8728 -0.1033
 6807SOL    HW132057   3.427   4.221   3.306  0.3608  1.1358  0.2327
 6807SOL    HW232058   3.311   4.274   3.239  0.1324  1.2731 -0.4541
 6808SOL     OW32059   2.214   1.459  10.820  0.0260 -0.0640 -0.1777
 6808SOL    HW132060   2.140   1.466  10.760  0.4393 -1.8858 -0.8991
 6808SOL    HW232061   2.207   1.366  10.843  2.7453 -0.6886 -1.8314
 6809SOL     OW32062   0.245   2.751   5.659  0.7117  0.4895 -0.0013
 6809SOL    HW132063   0.155   2.721   5.649  0.8293 -0.2642  1.3257
 6809SOL    HW232064   0.226   2.836   5.699 -2.4145  0.1269 -0.7511
 6810SOL     OW32065   1.498   0.042   1.126  0.5813 -0.5217  0.7431
 6810SOL    HW132066   1.565   4.709   1.120  0.2347 -0.5324 -2.9994
 6810SOL    HW232067   1.460   0.016   1.210  0.0204 -1.8904  0.0598
 6811SOL     OW32068   1.488   1.285   4.291  0.0767 -0.3456 -0.1846
 6811SOL    HW132069   1.551   1.263   4.359  0.3151 -0.6220 -0.4984
 6811SOL    HW232070   1.534   1.339   4.228 -0.9176  2.1449  1.1862
 6812SOL     OW32071   1.721   1.699   4.773  0.3028 -0.0284  0.0201
 6812SOL    HW132072   1.648   1.716   4.833  0.5525  0.6685  0.1242
 6812SOL    HW232073   1.751   1.619   4.818  1.9883  2.5454  3.4352
 6813SOL     OW32074   3.159   3.488   7.850 -0.4206 -0.3279  0.3954
 6813SOL    HW132075   3.101   3.437   7.907 -1.3096  1.6967  1.2865
 6813SOL    HW232076   3.178   3.423   7.783 -0.7411 -1.4655  1.3950
 6814SOL     OW32077   1.578   3.938   3.948  0.5080  0.5344 -0.2179
 6814SOL    HW132078   1.631   3.950   4.027 -0.6060 -0.2971  0.6396
 6814SOL    HW232079   1.639   3.882   3.901  0.9977 -0.6474  1.8343
 6815SOL     OW32080   0.405   1.287  15.068  0.4406 -0.0459  0.3824
 6815SOL    HW132081   0.496   1.304  15.091  1.1738 -1.0183 -1.8073
 6815SOL    HW232082   0.391   1.361  15.009 -0.4285 -1.8343 -1.6623
 6816SOL     OW32083   4.139   4.079  16.345  0.1702  0.6290 -0.0663
 6816SOL    HW132084   4.105   4.015  16.281 -1.2354  1.0061  0.3017
 6816SOL    HW232085   4.212   4.036  16.388  0.5316  2.5981  1.2521
 6817SOL     OW32086   3.929   3.146   4.555 -0.0699  0.0997  0.5419
 6817SOL    HW132087   3.956   3.063   4.516  1.0330 -0.6925  2.9782
 6817SOL    HW232088   3.836   3.124   4.560  0.4220 -2.2433 -0.8400
 6818SOL     OW32089   3.133   1.174   8.356  0.0044  0.4178 -0.5044
 6818SOL    HW132090   3.125   1.104   8.420  1.1739 -0.0552 -0.8771
 6818SOL    HW232091   3.192   1.231   8.406  3.3270 -1.5325 -2.2624
 6819SOL     OW32092   1.190   0.899   5.558 -0.3383 -0.2649 -0.4715
 6819SOL    HW132093   1.277   0.894   5.598 -0.3012  1.1855 -0.3723
 6819SOL    HW232094   1.142   0.841   5.618  1.3887  0.7830  1.9435
 6820SOL     OW32095   4.288   4.366   7.696 -0.4599 -0.1754  0.0610
 6820SOL    HW132096   4.265   4.293   7.639 -1.2955 -0.3545  0.6292
 6820SOL    HW232097   4.356   4.413   7.647 -0.1462 -0.3861  0.2956
 6821SOL     OW32098   4.486   3.021   2.034 -0.1811  0.0521 -0.4292
 6821SOL    HW132099   4.412   3.043   1.976 -1.2017 -0.8242  0.5317
 6821SOL    HW232100   4.509   3.103   2.077  1.5810  0.6120 -2.4212
 6822SOL     OW32101   1.820   0.768   7.613  0.1408 -0.1576  0.5287
 6822SOL    HW132102   1.907   0.745   7.579 -0.4500 -1.0310 -0.4041
 6822SOL    HW232103   1.807   0.843   7.555  1.1174  1.5430  2.5032
 6823SOL     OW32104   2.090   3.847   9.591 -0.4548  0.3800 -0.0217
 6823SOL    HW132105   2.023   3.815   9.651  0.2956 -0.8670  0.1345
 6823SOL    HW232106   2.147   3.889   9.656  1.5461 -1.5417 -0.5361
 6824SOL     OW32107   3.579   4.198  17.098 -0.2580  0.1819  0.1753
 6824SOL    HW132108   3.485   4.183  17.094 -0.4844  1.2554  1.2441
 6824SOL    HW232109   3.592   4.270  17.036  0.9817  0.7099  1.0335
 6825SOL     OW32110   1.474   0.126   7.822 -0.3133 -0.2273  0.1941
 6825SOL    HW132111   1.473   0.107   7.728 -0.8050 -1.2642  0.4121
 6825SOL    HW232112   1.552   0.073   7.838  0.9429  1.6284  0.3024
 6826SOL     OW32113   1.935   0.427  10.644 -0.5736 -0.2765  0.1685
 6826SOL    HW132114   1.897   0.481  10.712  0.2683 -2.6431  2.5206
 6826SOL    HW232115   1.909   0.342  10.680 -1.4475  0.4636  1.2391
 6827SOL     OW32116   1.255   0.043   8.287 -0.3597  0.0577  0.1023
 6827SOL    HW132117   1.328   0.010   8.235 -1.5658 -0.0233 -1.5225
 6827SOL    HW232118   1.267   0.137   8.272 -0.9345  0.1274  0.0892
 6828SOL     OW32119   3.081   1.869   3.539 -0.2545 -0.5004 -0.1855
 6828SOL    HW132120   3.068   1.951   3.586  0.9221  0.4355 -1.5185
 6828SOL    HW232121   3.170   1.873   3.506 -0.8681 -2.8625 -2.1687
 6829SOL     OW32122   0.566   1.004   0.877 -0.0524 -0.1432 -0.0022
 6829SOL    HW132123   0.480   0.964   0.892 -0.6888  0.2155 -2.7932
 6829SOL    HW232124   0.628   0.931   0.877  0.0604 -0.0459 -0.2905
 6830SOL     OW32125   1.129   2.642   6.781 -0.4056  0.2867  0.2635
 6830SOL    HW132126   1.136   2.617   6.873  2.4904 -0.9737 -0.2827
 6830SOL    HW232127   1.038   2.668   6.767 -0.6021 -0.0392  0.9333
 6831SOL     OW32128   0.473   2.690   0.352  0.1537  0.4147  0.1272
 6831SOL    HW132129   0.407   2.744   0.395 -0.7494  0.2524 -1.0560
 6831SOL    HW232130   0.432   2.605   0.337  1.4702 -0.6403  2.4147
 6832SOL     OW32131   4.715   3.425   9.959  0.2905  0.5401 -0.5484
 6832SOL    HW132132   0.039   3.404  10.032 -0.1593  3.2116  0.5737
 6832SOL    HW232133   0.018   3.504   9.920 -4.0628  1.8718 -2.0404
 6833SOL     OW32134   0.628   3.308  14.259 -0.3291 -0.7117 -0.0436
 6833SOL    HW132135   0.568   3.377  14.287  1.6519  0.1288  2.1463
 6833SOL    HW232136   0.693   3.362  14.215 -0.1969  0.1010  1.1449
 6834SOL     OW32137   3.804   2.302   3.571  0.2877  0.3974 -0.5778
 6834SOL    HW132138   3.815   2.302   3.666 -1.0215 -1.7896 -0.4322
 6834SOL    HW232139   3.838   2.215   3.551 -1.5537 -0.6616  0.9097
 6835SOL     OW32140   3.469   2.395   7.269  0.0895 -0.1932  0.1136
 6835SOL    HW132141   3.450   2.304   7.293 -1.6761 -0.4286 -2.2260
 6835SOL    HW232142   3.562   2.401   7.292  0.0837 -0.2713  0.1554
 6836SOL     OW32143   3.134   1.662   3.335  0.1871 -0.1571 -0.7594
 6836SOL    HW132144   3.146   1.578   3.379  0.4060  0.1058 -0.3239
 6836SOL    HW232145   3.057   1.709   3.367 -0.7838 -1.5297 -1.0984
 6837SOL     OW32146   2.282   1.113  12.751 -0.1398  0.2888 -0.3546
 6837SOL    HW132147   2.192   1.091  12.726 -0.9210  2.6730  0.3732
 6837SOL    HW232148   2.329   1.094  12.670  2.0974 -0.5998  1.1476
 6838SOL     OW32149   0.785   4.019   1.803  0.2875  0.6766 -0.1742
 6838SOL    HW132150   0.773   3.982   1.715 -0.0769  3.2423 -1.2142
 6838SOL    HW232151   0.877   3.999   1.814  0.3138  0.6389 -0.4477
 6839SOL     OW32152   3.329   3.239   5.517 -0.1563 -0.3005  0.0376
 6839SOL    HW132153   3.243   3.216   5.481  1.0887 -2.1205 -1.8013
 6839SOL    HW232154   3.331   3.333   5.497  0.2660 -0.5638 -1.1821
 6840SOL     OW32155   2.012   4.469   0.016 -0.1979  0.3587 -0.3707
 6840SOL    HW132156   2.106   4.472  17.735 -0.6448  0.5424 -2.5332
 6840SOL    HW232157   2.003   4.386   0.062  0.2333  0.7804  0.4631
 6841SOL     OW32158   2.291   1.128   7.196 -0.3652 -0.1246  0.0678
 6841SOL    HW132159   2.333   1.200   7.244  0.0885  0.1466 -0.7498
 6841SOL    HW232160   2.314   1.051   7.249  2.9324  0.1373 -1.0113
 6842SOL     OW32161   0.161   4.121   6.644 -0.5311  0.6036 -0.1558
 6842SOL    HW132162   0.198   4.209   6.642  2.3695 -0.5731  1.8676
 6842SOL    HW232163   0.123   4.120   6.731 -1.5068  1.8087 -0.5728
 6843SOL     OW32164   1.302   2.825  16.199  0.1696  0.0736  0.7787
 6843SOL    HW132165   1.238   2.789  16.138  0.9874 -0.7651  0.4118
 6843SOL    HW232166   1.383   2.847  16.152  0.9956 -0.2416  2.0469
 6844SOL     OW32167   0.595   1.254   2.107 -0.1861 -0.4258  0.0115
 6844SOL    HW132168   0.635   1.226   2.024  1.9257 -0.5203  1.0525
 6844SOL    HW232169   0.670   1.239   2.165 -1.7216 -2.5018  1.4836
 6845SOL     OW32170   2.754   1.139   8.781  0.0105 -0.4105  0.7169
 6845SOL    HW132171   2.758   1.203   8.852  0.1255  0.4121 -0.0322
 6845SOL    HW232172   2.808   1.069   8.818  0.0712 -0.3760  0.6931
 6846SOL     OW32173   1.523   1.965  14.785  0.2024 -0.1197  0.3796
 6846SOL    HW132174   1.538   1.874  14.759  2.7239  0.5503 -0.5001
 6846SOL    HW232175   1.612   1.999  14.796  0.5383 -1.4601  1.6967
 6847SOL     OW32176   2.932   3.401   9.505 -0.2987 -0.1386 -0.2048
 6847SOL    HW132177   2.936   3.468   9.574 -0.6738 -1.8435  1.4778
 6847SOL    HW232178   2.842   3.410   9.474  0.1722  0.2825 -1.4469
 6848SOL     OW32179   2.429   0.193   4.399  0.1733  0.3778  0.9075
 6848SOL    HW132180   2.428   0.130   4.471 -2.9503 -0.4970  0.0981
 6848SOL    HW232181   2.341   0.231   4.401 -0.1625 -0.4615  1.9632
 6849SOL     OW32182   1.158   2.456  13.055  0.1527 -0.8317  0.0801
 6849SOL    HW132183   1.182   2.368  13.084 -1.7511 -1.6277 -0.7654
 6849SOL    HW232184   1.225   2.491  12.996 -1.2054  1.3108 -0.1939
 6850SOL     OW32185   2.995   3.711   0.834 -0.2260  0.1838  0.2156
 6850SOL    HW132186   2.994   3.736   0.927  0.1524 -0.4502  0.3939
 6850SOL    HW232187   3.008   3.798   0.796 -1.9677 -0.0382 -0.8988
 6851SOL     OW32188   3.868   2.800   3.386 -0.0715  0.5450 -0.5704
 6851SOL    HW132189   3.950   2.758   3.361 -1.6801 -1.9770 -1.5603
 6851SOL    HW232190   3.831   2.716   3.413  0.6756  0.3011 -0.3148
 6852SOL     OW32191   4.237   0.769   2.002  0.1632 -0.3164  0.0073
 6852SOL    HW132192   4.260   0.719   2.080  1.0884 -1.3644 -0.9403
 6852SOL    HW232193   4.250   0.699   1.938 -0.6486 -1.4487  1.0882
 6853SOL     OW32194   1.695   1.697   5.764  0.1439  0.5697 -0.1331
 6853SOL    HW132195   1.661   1.608   5.776 -0.3507  0.6760 -0.7091
 6853SOL    HW232196   1.663   1.726   5.678  0.7220 -0.5391 -0.7282
 6854SOL     OW32197   2.147   4.619   6.707  0.2152  0.0935 -0.9351
 6854SOL    HW132198   2.126   4.586   6.795  1.1154 -0.8307 -1.0820
 6854SOL    HW232199   2.210   4.552   6.681  1.2512  0.7233 -0.0626
 6855SOL     OW32200   2.757   1.326   2.474  0.5201  0.4012 -0.4044
 6855SOL    HW132201   2.797   1.372   2.548  0.9078  1.1029 -1.0534
 6855SOL    HW232202   2.822   1.259   2.455  0.3275  0.9181 -2.8211
 6856SOL     OW32203   3.076   4.567  15.334  0.1615  0.4346 -0.3501
 6856SOL    HW132204   3.084   4.643  15.278 -0.2233  0.3297 -0.5473
 6856SOL    HW232205   2.991   4.586  15.373  0.3414 -1.6994  1.0804
 6857SOL     OW32206   2.510   2.321   1.880 -0.6446  0.7255  0.2335
 6857SOL    HW132207   2.592   2.302   1.926 -1.1324  1.5883  1.4546
 6857SOL    HW232208   2.475   2.232   1.872 -0.0607  0.6696 -1.6790
 6858SOL     OW32209   0.634   0.580   2.273  0.1532  0.0722 -0.7028
 6858SOL    HW132210   0.662   0.629   2.350 -0.4455 -2.1815  0.9284
 6858SOL    HW232211   0.561   0.638   2.249  0.3688  0.8552  0.5703
 6859SOL     OW32212   1.222   0.152  11.443  0.0600 -0.2687 -0.5895
 6859SOL    HW132213   1.311   0.119  11.446 -0.0760 -0.5843 -0.1254
 6859SOL    HW232214   1.227   0.189  11.355  0.1547  0.3134 -0.3427
 6860SOL     OW32215   0.448   1.218   2.631 -0.0329 -0.2672 -0.3560
 6860SOL    HW132216   0.398   1.288   2.588 -2.0398  1.2621  4.4873
 6860SOL    HW232217   0.426   1.231   2.723  1.7994  2.4085 -0.2924
 6861SOL     OW32218   0.507   2.344   8.876  0.0294 -0.1353  0.1201
 6861SOL    HW132219   0.463   2.428   8.867  0.6183  0.1812  0.1986
 6861SOL    HW232220   0.467   2.314   8.958  3.1417 -0.1252  1.6190
 6862SOL     OW32221   0.863   1.829   2.219 -0.3035 -0.1193  0.3398
 6862SOL    HW132222   0.772   1.837   2.245 -0.1965  1.1151  0.3598
 6862SOL    HW232223   0.917   1.839   2.297  0.0369  0.0672  0.0865
 6863SOL     OW32224   1.554   1.156  16.737  0.5632  0.1896  0.1308
 6863SOL    HW132225   1.517   1.115  16.658 -2.8683  0.5255  1.5349
 6863SOL    HW232226   1.488   1.226  16.742  0.8146  0.4825 -0.6052
 6864SOL     OW32227   4.639   0.116   6.833 -0.2082 -0.6017  0.1894
 6864SOL    HW132228   4.553   0.079   6.852  0.1232 -1.0967  0.7393
 6864SOL    HW232229   4.616   0.195   6.784  0.3673 -0.0153  0.8647
 6865SOL     OW32230   2.433   4.441   3.746 -0.3356 -0.1366 -0.1020
 6865SOL    HW132231   2.421   4.389   3.826  0.5789  0.4038  0.3819
 6865SOL    HW232232   2.480   4.371   3.699  1.2981 -0.6870  2.3306
 6866SOL     OW32233   0.482   1.990   5.081  0.1458  0.2763  0.2737
 6866SOL    HW132234   0.492   2.014   5.173 -0.2637  1.2565  0.0610
 6866SOL    HW232235   0.463   2.073   5.038 -1.5263 -0.3230 -0.1580
 6867SOL     OW32236   2.129   3.969   3.605 -0.1941 -0.3213 -0.1234
 6867SOL    HW132237   2.105   4.021   3.528  1.1870  0.7119  0.1404
 6867SOL    HW232238   2.222   3.954   3.592  0.1793  1.5963  0.3779
 6868SOL     OW32239   4.543   2.339   7.992  0.0394  0.6391 -0.0075
 6868SOL    HW132240   4.496   2.417   7.964 -0.1855  0.7057  0.5705
 6868SOL    HW232241   4.608   2.378   8.050 -0.1710  0.9436  0.0190
 6869SOL     OW32242   2.776   4.649  11.793  0.0467 -0.3123  0.6540
 6869SOL    HW132243   2.753   4.562  11.761  0.1238  0.5953 -1.8609
 6869SOL    HW232244   2.697   4.703  11.788  0.1489 -0.4226 -2.1687
 6870SOL     OW32245   0.984   2.513   8.839  0.2064 -0.1546 -0.7471
 6870SOL    HW132246   0.972   2.456   8.916 -0.2957 -1.0124 -1.4636
 6870SOL    HW232247   0.931   2.473   8.770 -0.3213  2.2093 -1.7041
 6871SOL     OW32248   3.768   3.472   7.096 -0.2650 -0.1844 -0.4285
 6871SOL    HW132249   3.818   3.420   7.032 -1.2297  0.3610 -1.6317
 6871SOL    HW232250   3.777   3.562   7.064  0.8623  0.1376  0.7941
 6872SOL     OW32251   0.794   1.182   7.163  0.0819 -0.1105  0.4703
 6872SOL    HW132252   0.782   1.141   7.249 -2.1885  1.4433  0.9052
 6872SOL    HW232253   0.860   1.249   7.178  0.9644 -0.8876  0.0644
 6873SOL     OW32254   4.375   0.896  12.583  0.1682 -0.2914  0.2567
 6873SOL    HW132255   4.335   0.832  12.523 -1.2887  2.6826 -1.9075
 6873SOL    HW232256   4.392   0.838  12.657  0.0403  1.8905  1.9772
 6874SOL     OW32257   1.978   2.847   3.466  0.2709 -0.6011 -0.1404
 6874SOL    HW132258   1.931   2.874   3.545  0.3367  1.2566 -0.7578
 6874SOL    HW232259   1.910   2.853   3.399 -1.1565 -4.7113  0.9171
 6875SOL     OW32260   0.218   1.133  15.183  0.6056  0.1751 -0.2546
 6875SOL    HW132261   0.212   1.188  15.261 -2.2974  1.1299 -1.1171
 6875SOL    HW232262   0.282   1.179  15.129  0.2803  0.0450 -0.7466
 6876SOL     OW32263   2.169   1.442   3.902  0.0803 -0.5984 -0.1432
 6876SOL    HW132264   2.170   1.348   3.921  1.3824 -0.3759  0.8799
 6876SOL    HW232265   2.241   1.442   3.839  0.4549  1.3464  0.2820
 6877SOL     OW32266   4.208   1.804   7.910 -0.0292 -0.1824 -0.5925
 6877SOL    HW132267   4.179   1.713   7.923 -0.9092  0.0919 -0.6568
 6877SOL    HW232268   4.253   1.823   7.992 -5.1798  1.3562  1.8140
 6878SOL     OW32269   1.583   2.751  11.278  0.2430 -0.3768  0.2683
 6878SOL    HW132270   1.642   2.788  11.212 -0.6066  1.0097  0.2755
 6878SOL    HW232271   1.532   2.692  11.222 -0.5849  1.3096 -0.7368
 6879SOL     OW32272   1.836   1.600  17.633 -0.6063 -0.5179  0.1909
 6879SOL    HW132273   1.847   1.553  17.716  0.4545  0.0222  0.3580
 6879SOL    HW232274   1.880   1.681  17.659  0.5215 -1.6137  1.6563
 6880SOL     OW32275   1.277   1.066  14.002 -0.7661 -0.4882 -0.1712
 6880SOL    HW132276   1.340   1.138  13.998 -0.3456 -0.8655 -0.4255
 6880SOL    HW232277   1.231   1.058  13.919  0.1480  0.4543 -0.7676
 6881SOL     OW32278   2.083   4.189  16.348 -0.2886  0.0036 -0.0497
 6881SOL    HW132279   2.128   4.129  16.288 -1.7273  0.0665 -1.1817
 6881SOL    HW232280   2.121   4.173  16.434  0.3834  0.1242 -0.3196
 6882SOL     OW32281   3.859   3.961   4.546 -0.0627 -0.1054  0.0592
 6882SOL    HW132282   3.840   3.873   4.576  0.1370  0.0621  0.6820
 6882SOL    HW232283   3.919   3.946   4.474 -1.2256 -1.0499 -0.7137
 6883SOL     OW32284   3.491   2.985   3.288 -0.3669 -0.4518 -0.0915
 6883SOL    HW132285   3.438   2.924   3.238  3.0230 -3.5542  0.0950
 6883SOL    HW232286   3.568   2.991   3.231 -0.2412 -1.9898 -0.0754
 6884SOL     OW32287   0.436   2.636   8.019  0.0510  0.6449 -0.2163
 6884SOL    HW132288   0.505   2.627   8.085 -1.0044 -0.1106  0.7612
 6884SOL    HW232289   0.390   2.708   8.060 -0.2487  0.5202 -0.3334
 6885SOL     OW32290   0.908   3.190   3.645  0.0622  0.0477  0.0966
 6885SOL    HW132291   0.915   3.095   3.646 -1.0608 -0.0545 -1.5730
 6885SOL    HW232292   0.999   3.217   3.659 -0.2771  0.0304  2.2182
 6886SOL     OW32293   3.425   1.161  17.455 -0.1068 -0.0097  0.7992
 6886SOL    HW132294   3.497   1.216  17.424  0.5468 -2.2439 -1.7007
 6886SOL    HW232295   3.456   1.077  17.422 -0.5683 -0.5214  1.6845
 6887SOL     OW32296   3.716   3.490  13.140  0.0533 -0.4297  0.1598
 6887SOL    HW132297   3.696   3.583  13.137 -0.9711 -0.6154  0.9139
 6887SOL    HW232298   3.654   3.462  13.208  0.4042 -1.1928  0.1707
 6888SOL     OW32299   0.983   3.992  12.812 -0.0543  0.6508  0.3466
 6888SOL    HW132300   1.067   3.950  12.832 -0.6627 -0.3891  0.6873
 6888SOL    HW232301   0.980   3.988  12.716  1.7682  1.9017  0.2267
 6889SOL     OW32302   1.348   1.376  10.977 -0.2806  0.5707  0.2046
 6889SOL    HW132303   1.396   1.451  11.011 -0.5020  0.5086  0.6537
 6889SOL    HW232304   1.283   1.424  10.925 -2.3920  0.4730  2.7828
 6890SOL     OW32305   1.566   1.802   2.463  0.1372 -0.3662  0.4345
 6890SOL    HW132306   1.629   1.873   2.470 -1.4253  0.9461  1.1681
 6890SOL    HW232307   1.614   1.740   2.518 -0.6068 -0.5198  0.8963
 6891SOL     OW32308   0.822   4.020   7.182 -0.4216 -0.4875 -0.4014
 6891SOL    HW132309   0.898   4.076   7.165 -0.6176  0.0780  0.5636
 6891SOL    HW232310   0.846   3.987   7.268 -2.3275  1.0028  0.7095
 6892SOL     OW32311   1.662   0.851  16.653 -0.3449  0.2023  0.6315
 6892SOL    HW132312   1.739   0.902  16.629 -1.0219  0.5140 -0.8664
 6892SOL    HW232313   1.640   0.861  16.746  2.1266 -0.0366  1.2335
 6893SOL     OW32314   2.806   4.389   3.798 -0.4053  0.3024 -0.1991
 6893SOL    HW132315   2.854   4.306   3.790 -0.4698  0.2324  0.1717
 6893SOL    HW232316   2.826   4.413   3.707  0.5311  0.4349  0.0408
 6894SOL     OW32317   3.694   4.650   6.181  0.5064  0.2064  0.1039
 6894SOL    HW132318   3.756   4.722   6.195  0.1039  0.3927  0.9033
 6894SOL    HW232319   3.620   4.679   6.234  0.0443  0.8899 -0.9155
 6895SOL     OW32320   4.310   4.057  11.512 -0.2067 -0.0286  0.6437
 6895SOL    HW132321   4.223   4.021  11.532 -1.3572  2.6350  0.4783
 6895SOL    HW232322   4.331   4.109  11.589 -0.4841  1.5744 -0.3443
 6896SOL     OW32323   1.552   0.543  12.547 -0.1228 -0.2163 -0.4092
 6896SOL    HW132324   1.464   0.555  12.512 -0.5362 -0.6326  0.4982
 6896SOL    HW232325   1.596   0.476  12.494  1.0917 -0.9029  1.4433
 6897SOL     OW32326   0.284   1.787   0.740 -0.4905 -0.5162 -0.2694
 6897SOL    HW132327   0.207   1.736   0.768  1.6072 -2.3142  2.2751
 6897SOL    HW232328   0.344   1.713   0.741  2.0240  1.5845  2.4213
 6898SOL     OW32329   3.730   1.655  15.911 -0.1689  0.2885  0.1700
 6898SOL    HW132330   3.661   1.721  15.918  0.3609  0.8099  0.4168
 6898SOL    HW232331   3.769   1.679  15.827  3.3700  1.2044  2.1158
 6899SOL     OW32332   2.858   0.361   9.532 -0.4706  0.1253 -0.1821
 6899SOL    HW132333   2.949   0.334   9.524 -0.3295  0.5153  0.1306
 6899SOL    HW232334   2.820   0.274   9.545 -0.0100  0.1535  1.3433
 6900SOL     OW32335   0.461   4.683   9.181  0.1552 -0.1881  0.8868
 6900SOL    HW132336   0.432   4.620   9.116  0.4739 -0.8994  1.4436
 6900SOL    HW232337   0.547   4.704   9.143 -0.7926  0.2832 -1.0067
 6901SOL     OW32338   0.738   3.513   8.998  0.1938 -0.2574 -0.4911
 6901SOL    HW132339   0.818   3.563   9.016 -0.6079  0.4551  1.0842
 6901SOL    HW232340   0.730   3.472   9.084  3.7763  3.1501  1.4954
 6902SOL     OW32341   2.163   1.559   4.147 -0.4915 -0.2104 -0.5504
 6902SOL    HW132342   2.173   1.520   4.060 -0.3974 -1.7933  0.1681
 6902SOL    HW232343   2.247   1.605   4.143 -1.6127  1.7794 -1.1441
 6903SOL     OW32344   2.900   1.630   7.081  0.0722 -0.1750  0.0844
 6903SOL    HW132345   2.900   1.690   7.006 -2.3005 -0.3767 -0.0839
 6903SOL    HW232346   2.816   1.651   7.121  0.2665 -0.0589  0.4340
 6904SOL     OW32347   4.696   0.193  10.101  0.1966 -0.4593  0.5194
 6904SOL    HW132348   4.660   0.233  10.022 -0.0186 -1.2247  0.2289
 6904SOL    HW232349   4.621   0.142  10.132 -0.5473 -0.8950 -2.0402
 6905SOL     OW32350   2.774   3.305  13.080  0.0492 -0.0700  0.4569
 6905SOL    HW132351   2.747   3.216  13.105  1.3738 -1.2595 -2.3343
 6905SOL    HW232352   2.807   3.329  13.166 -0.5057 -1.1363  0.9771
 6906SOL     OW32353   1.168   4.585   7.971  0.3745  0.5694 -0.6721
 6906SOL    HW132354   1.164   4.679   7.950  0.0576  0.7152  0.0545
 6906SOL    HW232355   1.263   4.577   7.985  0.2252 -1.7853 -0.9740
 6907SOL     OW32356   0.374   3.513   8.080 -0.0824 -1.1409  0.6314
 6907SOL    HW132357   0.376   3.505   8.175 -1.2382 -2.3034  0.5636
 6907SOL    HW232358   0.455   3.466   8.060  0.0070 -0.6265 -0.2130
 6908SOL     OW32359   0.096   3.656   3.029  0.2107  0.9504  0.1378
 6908SOL    HW132360   0.071   3.734   2.979  0.9092  1.3955  0.4744
 6908SOL    HW232361   0.141   3.689   3.107 -1.7840  3.2850  0.3304
 6909SOL     OW32362   4.681   0.423   3.854 -0.1426 -0.2512  0.2947
 6909SOL    HW132363   4.586   0.417   3.869 -0.7278  3.3630 -1.7958
 6909SOL    HW232364   4.693   0.404   3.761  0.6931  1.6713  0.0162
 6910SOL     OW32365   2.742   1.675  15.076 -0.0291 -0.3239  0.4526
 6910SOL    HW132366   2.739   1.585  15.110 -0.4864 -0.2839  0.5225
 6910SOL    HW232367   2.830   1.675  15.040  0.1384 -0.0049  0.8618
 6911SOL     OW32368   2.738   1.272   7.736  0.0861  0.0231 -0.6508
 6911SOL    HW132369   2.652   1.294   7.699 -0.6343 -0.1464  0.8762
 6911SOL    HW232370   2.722   1.235   7.823 -0.7078  2.1485  0.1131
 6912SOL     OW32371   3.811   1.076   5.967  0.5259  0.3372 -0.4463
 6912SOL    HW132372   3.841   1.041   5.883 -0.4199  0.0936 -0.6748
 6912SOL    HW232373   3.722   1.042   5.976  0.7235 -0.0070  0.2126
 6913SOL     OW32374   2.001   0.261   1.952  0.3388 -0.3420 -0.3705
 6913SOL    HW132375   1.906   0.266   1.948  0.3484  1.8412  1.5499
 6913SOL    HW232376   2.029   0.206   1.880  2.1955  0.3623 -0.2013
 6914SOL     OW32377   1.001   3.538   3.309 -0.3927  0.0778 -0.0421
 6914SOL    HW132378   0.922   3.488   3.328 -0.3945  0.9066  2.2195
 6914SOL    HW232379   1.025   3.573   3.395 -0.3667 -0.1707  0.0522
 6915SOL     OW32380   4.384   2.082   6.964  0.1444  0.2960 -0.1505
 6915SOL    HW132381   4.407   2.128   7.046 -2.5891  2.8569 -0.8072
 6915SOL    HW232382   4.325   2.020   7.006  0.9339 -0.6836 -0.4950
 6916SOL     OW32383   3.687   4.352   7.627 -0.0117 -0.1044 -0.1801
 6916SOL    HW132384   3.763   4.313   7.584 -0.1622 -0.1790 -0.3838
 6916SOL    HW232385   3.715   4.338   7.717  2.6014  1.3478 -0.7828
 6917SOL     OW32386   1.368   1.666   7.751 -0.1456 -0.5213 -0.0198
 6917SOL    HW132387   1.317   1.598   7.794  1.2824 -0.9583  0.9388
 6917SOL    HW232388   1.355   1.641   7.659 -0.4225 -0.7115  0.0733
 6918SOL     OW32389   3.253   3.184   8.023  0.1796  0.0810 -0.0812
 6918SOL    HW132390   3.252   3.089   8.012  0.1212 -0.0363  0.8823
 6918SOL    HW232391   3.163   3.202   7.999  0.3033  1.6770  0.6552
 6919SOL     OW32392   2.639   3.350   3.305 -0.3002  0.1100  0.0986
 6919SOL    HW132393   2.709   3.368   3.242  0.3227  3.3864  1.7353
 6919SOL    HW232394   2.559   3.370   3.257  0.1317  2.4027  0.3255
 6920SOL     OW32395   3.675   2.621   2.570  0.4515  0.0774 -0.2852
 6920SOL    HW132396   3.632   2.601   2.486  0.3952 -0.2205 -0.1870
 6920SOL    HW232397   3.600   2.634   2.628 -0.9992  0.3180 -2.1821
 6921SOL     OW32398   0.588   3.402  10.887  0.0587  0.1397 -0.1752
 6921SOL    HW132399   0.591   3.371  10.797 -2.5197 -2.8696  0.7787
 6921SOL    HW232400   0.663   3.376  10.942 -0.3897 -1.2635 -0.2273
 6922SOL     OW32401   0.722   4.104  16.807 -0.0413  0.3021  0.1955
 6922SOL    HW132402   0.771   4.134  16.883  1.5850  0.6092 -0.9775
 6922SOL    HW232403   0.731   4.182  16.752 -2.0254  0.8180  0.6175
 6923SOL     OW32404   3.982   3.923  10.268  0.5901  0.2188 -0.3430
 6923SOL    HW132405   4.030   3.894  10.191 -1.9150 -1.7203 -1.1760
 6923SOL    HW232406   3.904   3.962  10.228  1.3455  2.4556  0.3406
 6924SOL     OW32407   3.239   1.206   3.637  0.2177 -0.5063  0.3630
 6924SOL    HW132408   3.324   1.169   3.612 -0.1723 -2.2290  1.6007
 6924SOL    HW232409   3.270   1.296   3.642  0.3970 -0.4602 -1.6526
 6925SOL     OW32410   0.400   4.608  13.229 -1.0835 -0.0634 -0.1514
 6925SOL    HW132411   0.404   4.595  13.323  0.8580  0.1685 -0.1924
 6925SOL    HW232412   0.482   4.652  13.206 -0.9401  0.6319  1.7367
 6926SOL     OW32413   4.307   3.065  14.631  0.0094  0.9983  0.7513
 6926SOL    HW132414   4.259   3.009  14.692 -0.8736  0.2911 -0.5853
 6926SOL    HW232415   4.363   2.998  14.593 -0.6463  1.3808 -0.9128
 6927SOL     OW32416   1.904   1.688   7.738 -0.4687 -0.3628 -0.1559
 6927SOL    HW132417   1.881   1.597   7.723 -1.8225  0.2095 -1.5669
 6927SOL    HW232418   1.846   1.725   7.670  1.3281  1.8034 -0.5293
 6928SOL     OW32419   4.263   4.027  15.407 -0.4184  0.3382  0.1116
 6928SOL    HW132420   4.262   4.122  15.423  1.5155  0.2922  0.5376
 6928SOL    HW232421   4.186   4.019  15.351  0.8041 -1.5904 -1.2795
 6929SOL     OW32422   4.199   1.376   4.746 -0.1559 -0.4634 -0.3953
 6929SOL    HW132423   4.236   1.337   4.667 -3.6945 -1.0193 -1.8018
 6929SOL    HW232424   4.112   1.339   4.733 -1.5469  2.0398  1.6272
 6930SOL     OW32425   4.149   1.069   7.671  0.2239  0.3722  0.7307
 6930SOL    HW132426   4.131   0.976   7.680  2.5624  0.0171  1.6935
 6930SOL    HW232427   4.135   1.110   7.756  1.4761  0.2174  1.0111
 6931SOL     OW32428   4.694   3.627   5.156  0.0921  0.1508 -0.1871
 6931SOL    HW132429   0.047   3.664   5.144  0.0257  0.7250  1.0911
 6931SOL    HW232430   4.655   3.703   5.198 -1.7758  0.1991 -2.0248
 6932SOL     OW32431   0.242   2.053   0.703  0.1308  0.1789  0.6038
 6932SOL    HW132432   0.273   1.963   0.699 -0.3780  0.0657 -0.7490
 6932SOL    HW232433   0.223   2.066   0.610 -0.1615  1.6267  0.8665
 6933SOL     OW32434   1.455   3.160   3.575 -0.6341 -0.4229  0.2345
 6933SOL    HW132435   1.400   3.228   3.538 -0.3706  0.0634  0.7260
 6933SOL    HW232436   1.544   3.195   3.577  0.2989 -2.8095  0.0603
 6934SOL     OW32437   0.663   4.304   6.150 -0.2107 -0.1033 -0.4891
 6934SOL    HW132438   0.704   4.340   6.071  0.4221  0.4927  0.1038
 6934SOL    HW232439   0.584   4.270   6.109 -1.7142  3.2872 -0.3945
 6935SOL     OW32440   3.445   0.297   6.060  0.9299  0.5130  0.8499
 6935SOL    HW132441   3.408   0.235   6.124 -0.0549  0.2997  0.0738
 6935SOL    HW232442   3.368   0.312   6.005  1.1360 -1.5468 -0.0091
 6936SOL     OW32443   0.477   1.059   6.952 -0.0164 -0.6160  0.0277
 6936SOL    HW132444   0.503   1.048   6.860 -1.4701 -0.6828 -0.3787
 6936SOL    HW232445   0.393   1.012   6.955 -0.1810 -0.2631  1.0360
 6937SOL     OW32446   4.262   3.668   4.047 -0.5050  0.4626  0.1142
 6937SOL    HW132447   4.258   3.645   3.955  2.8702  0.6691 -0.0870
 6937SOL    HW232448   4.196   3.737   4.047 -2.1241 -1.1198 -2.4998
 6938SOL     OW32449   2.008   2.954   8.519 -0.1964 -0.2699  0.1274
 6938SOL    HW132450   2.072   2.977   8.587 -1.3463 -0.6111  1.3309
 6938SOL    HW232451   2.019   3.022   8.453 -2.4756  0.0212  0.0283
 6939SOL     OW32452   0.721   1.868  13.194 -0.6981  0.3077 -0.0729
 6939SOL    HW132453   0.802   1.817  13.197  0.3137  2.0320  1.7842
 6939SOL    HW232454   0.708   1.854  13.100 -0.7521  0.8713 -0.1502
 6940SOL     OW32455   0.123   3.092   7.372  0.1445  0.6630 -0.1957
 6940SOL    HW132456   0.134   3.181   7.403  1.0260 -0.0320  1.4912
 6940SOL    HW232457   0.168   3.039   7.437  0.7693  1.2422 -0.1600
 6941SOL     OW32458   2.702   2.017   3.598  0.4522 -0.4070  0.1430
 6941SOL    HW132459   2.748   1.980   3.523 -1.9870 -0.5372 -1.2868
 6941SOL    HW232460   2.732   1.967   3.675  1.1643 -0.7015 -0.3265
 6942SOL     OW32461   3.252   0.659   4.918 -0.3496  0.7649 -0.5292
 6942SOL    HW132462   3.343   0.640   4.893 -0.7133 -0.4020 -0.9552
 6942SOL    HW232463   3.267   0.685   5.009 -0.6971 -1.2926  0.1106
 6943SOL     OW32464   0.354   3.631   2.465 -0.0598  0.0410  0.5932
 6943SOL    HW132465   0.434   3.676   2.437  0.8927  0.1639  3.4851
 6943SOL    HW232466   0.375   3.547   2.425  1.5960  0.3570  0.7811
 6944SOL     OW32467   0.412   2.438   1.461  0.3840 -0.1384 -0.8345
 6944SOL    HW132468   0.499   2.433   1.422  0.8358 -1.5024  0.3293
 6944SOL    HW232469   0.384   2.517   1.416 -1.5171  0.5421  1.5408
 6945SOL     OW32470   1.893   0.840   7.135 -0.5288  0.0346  0.6739
 6945SOL    HW132471   1.957   0.775   7.163  0.1811  0.4398 -0.0146
 6945SOL    HW232472   1.952   0.914   7.118  0.6003 -0.5246  2.1374
 6946SOL     OW32473   3.936   0.607  17.517  0.5772  0.4215 -0.1110
 6946SOL    HW132474   4.011   0.608  17.458 -0.3625 -1.9301 -1.3467
 6946SOL    HW232475   3.972   0.625  17.604  1.6857  0.5364 -0.5981
 6947SOL     OW32476   1.348   4.274   3.569  0.1405 -0.1032 -0.3042
 6947SOL    HW132477   1.265   4.232   3.547 -0.5706  1.6404 -0.9508
 6947SOL    HW232478   1.326   4.304   3.657  0.7789  1.9611 -0.8624
 6948SOL     OW32479   0.867   2.916   6.910 -0.3650  0.4224  0.3938
 6948SOL    HW132480   0.846   2.886   6.998 -1.1481  2.7637  1.0192
 6948SOL    HW232481   0.870   2.834   6.862 -1.4927 -0.5109  1.9272
 6949SOL     OW32482   1.331   1.810   2.618  0.6707 -0.1110  0.0595
 6949SOL    HW132483   1.409   1.797   2.563 -0.0730 -0.2595 -0.9515
 6949SOL    HW232484   1.352   1.756   2.695 -0.2783  0.6453  0.8456
 6950SOL     OW32485   4.430   1.805   4.666 -0.6499  0.0456 -0.2259
 6950SOL    HW132486   4.509   1.850   4.698 -0.8527  0.6236 -0.5384
 6950SOL    HW232487   4.384   1.766   4.740 -0.9390  0.0552 -0.4000
 6951SOL     OW32488   4.093   0.250  17.423 -0.0100 -0.1309 -0.1959
 6951SOL    HW132489   4.183   0.248  17.456 -0.6241  0.2353  1.4855
 6951SOL    HW232490   4.046   0.316  17.474  1.6695 -0.2461  1.4803
 6952SOL     OW32491   1.765   0.057  12.044  0.2103  0.0224 -0.3821
 6952SOL    HW132492   1.768   4.729  12.117  2.8356  0.0060 -0.4852
 6952SOL    HW232493   1.817   0.010  11.979  0.3323 -0.4453  0.0461
 6953SOL     OW32494   4.461   3.465  10.497 -0.3263  0.4471 -0.0795
 6953SOL    HW132495   4.384   3.469  10.555 -0.2589  0.7012 -0.0073
 6953SOL    HW232496   4.475   3.371  10.499 -2.0449  0.1425 -2.4141
 6954SOL     OW32497   1.869   3.445   9.902 -0.3570 -0.0648 -0.4826
 6954SOL    HW132498   1.890   3.372   9.959 -0.9711  1.0719  1.2122
 6954SOL    HW232499   1.937   3.504   9.933 -0.7599  1.0933 -1.8047
 6955SOL     OW32500   1.203   2.175  13.156  0.0091  0.0589  0.1460
 6955SOL    HW132501   1.129   2.116  13.171 -1.7075  2.8682  2.8545
 6955SOL    HW232502   1.219   2.204  13.246  0.0014  0.4191  0.0322
 6956SOL     OW32503   0.858   0.608  17.677  0.1610 -0.2975 -0.6840
 6956SOL    HW132504   0.813   0.616   0.023  1.7024 -0.3236  0.1329
 6956SOL    HW232505   0.873   0.701  17.661 -0.2981  0.3000  2.3961
 6957SOL     OW32506   1.371   0.814  14.507  0.2755 -0.1222  0.3018
 6957SOL    HW132507   1.462   0.789  14.519  0.2688 -1.1061 -1.7181
 6957SOL    HW232508   1.348   0.806  14.600  3.3368  0.0985  1.0728
 6958SOL     OW32509   0.176   1.769   4.569  0.0088 -0.1360 -0.8053
 6958SOL    HW132510   0.188   1.838   4.634  1.1967 -1.2824  0.1992
 6958SOL    HW232511   0.198   1.694   4.625  1.2862  0.0803 -1.0273
 6959SOL     OW32512   4.445   3.155  12.401  0.0770  0.4564  0.0804
 6959SOL    HW132513   4.484   3.236  12.433 -0.1657 -0.0087  1.5283
 6959SOL    HW232514   4.506   3.094  12.443  1.9474  1.3150 -1.3635
 6960SOL     OW32515   2.524   1.096  15.395 -0.0051  0.0658 -0.3263
 6960SOL    HW132516   2.507   1.018  15.342 -0.7042  0.3399 -0.4975
 6960SOL    HW232517   2.576   1.146  15.332 -1.8789  0.8376 -1.2580
 6961SOL     OW32518   4.070   1.398   6.391  0.1122  0.3895 -0.2190
 6961SOL    HW132519   4.024   1.465   6.340  1.0529 -0.0070 -1.6100
 6961SOL    HW232520   4.023   1.406   6.473 -2.5465  0.5655 -1.7712
 6962SOL     OW32521   3.180   2.475   9.084  0.1354 -0.0398  0.3446
 6962SOL    HW132522   3.210   2.566   9.087 -1.3938  0.3991  2.3451
 6962SOL    HW232523   3.243   2.427   9.138 -0.5603  0.8932  1.9949
 6963SOL     OW32524   1.985   3.690   7.403 -0.2833  0.3797 -0.1390
 6963SOL    HW132525   1.937   3.771   7.387 -0.1958  0.2973 -0.8363
 6963SOL    HW232526   2.020   3.682   7.314  2.2368 -2.2497  1.1139
 6964SOL     OW32527   4.143   4.510   5.378  0.7610 -0.3059 -0.6456
 6964SOL    HW132528   4.073   4.452   5.406  2.7713 -3.3021 -1.8305
 6964SOL    HW232529   4.108   4.545   5.296  0.4728 -0.2676 -0.5023
 6965SOL     OW32530   3.577   0.950   6.018 -0.0112 -0.5647  0.2862
 6965SOL    HW132531   3.601   0.861   5.993  0.9225 -0.0671 -0.6054
 6965SOL    HW232532   3.518   0.971   5.946  0.7865  0.7011  0.0018
 6966SOL     OW32533   1.058   4.700   6.033  0.0261 -0.4242  0.2301
 6966SOL    HW132534   1.011   4.692   6.116  0.8767 -0.0938  0.7389
 6966SOL    HW232535   1.048   0.059   6.017  2.5574 -0.3863 -1.1521
 6967SOL     OW32536   3.961   2.252   8.296  0.1754  0.6919 -0.3647
 6967SOL    HW132537   3.976   2.202   8.216 -0.0539 -1.1045  0.6992
 6967SOL    HW232538   3.914   2.189   8.351  0.1960  0.9326 -0.0715
 6968SOL     OW32539   0.689   3.304   1.293  0.7940 -0.8230  0.0427
 6968SOL    HW132540   0.695   3.215   1.257  2.6356 -0.8539  0.3856
 6968SOL    HW232541   0.641   3.294   1.375 -0.7428  0.4467 -0.7108
 6969SOL     OW32542   3.034   2.511   5.295  0.0603  0.2856 -0.6525
 6969SOL    HW132543   2.938   2.508   5.285 -0.1193  2.3937  0.2815
 6969SOL    HW232544   3.061   2.421   5.311  1.0149  0.4967 -1.1045
 6970SOL     OW32545   1.470   4.566   8.020 -0.1156 -0.5255 -0.3120
 6970SOL    HW132546   1.468   4.476   7.988  2.0746 -1.2414  1.6382
 6970SOL    HW232547   1.535   4.554   8.088 -0.9329  1.4817  0.8257
 6971SOL     OW32548   3.473   4.568   5.210  0.1844  0.2532 -0.4487
 6971SOL    HW132549   3.533   4.524   5.270  0.4553 -1.8743 -2.2910
 6971SOL    HW232550   3.451   4.492   5.155 -1.1480  1.6035 -1.7958
 6972SOL     OW32551   1.208   4.118   5.546 -0.0345  0.1469 -0.0887
 6972SOL    HW132552   1.241   4.039   5.505  1.2298  0.0307  1.1804
 6972SOL    HW232553   1.287   4.170   5.561  0.7056 -1.4916  1.6227
 6973SOL     OW32554   4.385   1.478   3.396 -0.2823  0.1580 -0.6121
 6973SOL    HW132555   4.411   1.567   3.371  0.0136  0.5095  0.9664
 6973SOL    HW232556   4.305   1.506   3.439 -0.2367  0.2896 -0.6117
 6974SOL     OW32557   4.402   3.402   1.602 -1.2734  0.1109 -0.0724
 6974SOL    HW132558   4.415   3.314   1.638  0.6813  0.3514 -0.2159
 6974SOL    HW232559   4.369   3.390   1.513 -0.1902  0.2689 -0.4897
 6975SOL     OW32560   1.084   2.357   6.751  0.0931  0.1678 -0.1944
 6975SOL    HW132561   1.144   2.431   6.763 -1.4142  1.2683  0.6214
 6975SOL    HW232562   1.028   2.364   6.828  0.4771  1.0767  0.0009
 6976SOL     OW32563   1.380   0.965   4.194  0.0100  0.5651 -0.1326
 6976SOL    HW132564   1.336   0.881   4.179  1.7664 -0.7448  2.1276
 6976SOL    HW232565   1.304   1.020   4.175 -0.0133  0.2493 -0.9455
 6977SOL     OW32566   2.589   2.553  13.161  0.6873 -0.0902 -0.0582
 6977SOL    HW132567   2.520   2.519  13.218  0.7861  1.1363  0.7862
 6977SOL    HW232568   2.656   2.486  13.180  1.1515  0.3448 -0.1675
 6978SOL     OW32569   4.498   2.819   2.194 -0.2811 -0.4685  0.4040
 6978SOL    HW132570   4.589   2.792   2.182 -0.0802 -0.6830  2.4781
 6978SOL    HW232571   4.498   2.899   2.140 -1.2101 -1.8053 -1.5807
 6979SOL     OW32572   3.901   1.051   4.212  0.5173  0.3334 -0.2032
 6979SOL    HW132573   3.854   1.014   4.138  0.6241  5.0647 -2.6433
 6979SOL    HW232574   3.906   1.143   4.187  0.1696  0.6875  1.0282
 6980SOL     OW32575   0.128   4.522  14.934  0.1902 -0.2420  0.2480
 6980SOL    HW132576   0.194   4.495  14.998 -0.5188  1.4889  1.7133
 6980SOL    HW232577   0.178   4.559  14.862  0.6565  0.8836  1.1466
 6981SOL     OW32578   0.414   0.982   2.067 -0.1462  0.7276 -0.1460
 6981SOL    HW132579   0.325   1.003   2.096  0.2824  0.6690  1.2087
 6981SOL    HW232580   0.450   1.068   2.090  1.6192 -0.7610  2.5121
 6982SOL     OW32581   3.148   2.088   6.475 -0.1435 -0.3647  0.3246
 6982SOL    HW132582   3.213   2.153   6.448 -1.6027  1.0961  0.3413
 6982SOL    HW232583   3.164   2.097   6.569  1.1081  0.4797  0.0277
 6983SOL     OW32584   0.167   3.388   2.710 -0.1272 -0.0301  0.9632
 6983SOL    HW132585   0.096   3.363   2.768 -0.4639 -1.0429  0.1066
 6983SOL    HW232586   0.248   3.386   2.762  0.2160  0.8919  0.4728
 6984SOL     OW32587   2.357   1.158   4.453 -0.4530  0.3423  0.3636
 6984SOL    HW132588   2.443   1.121   4.471 -1.0973 -0.9068  0.8829
 6984SOL    HW232589   2.384   1.247   4.429  1.1350 -0.1001  0.5040
 6985SOL     OW32590   3.583   3.200   0.810 -0.5586 -0.2362  0.0110
 6985SOL    HW132591   3.542   3.117   0.786 -1.0855 -0.4054  1.4912
 6985SOL    HW232592   3.569   3.196   0.905 -2.4060 -0.7653 -0.2870
 6986SOL     OW32593   2.127   3.118  15.056  0.1457 -0.1962 -0.5925
 6986SOL    HW132594   2.197   3.120  14.991  1.3668  1.0879  0.7647
 6986SOL    HW232595   2.074   3.186  15.016  0.7756  0.6280 -0.0297
 6987SOL     OW32596   1.474   4.429   2.147  0.4371 -0.4949  0.2478
 6987SOL    HW132597   1.459   4.349   2.198  2.5642 -1.3893 -0.5536
 6987SOL    HW232598   1.545   4.463   2.201  2.3453 -2.3567 -1.0766
 6988SOL     OW32599   3.454   3.256   7.228 -0.3427 -0.0803 -0.1475
 6988SOL    HW132600   3.360   3.234   7.230 -0.4716  0.5567  0.7597
 6988SOL    HW232601   3.487   3.166   7.237 -4.9011 -1.9170 -1.5162
 6989SOL     OW32602   3.611   2.232   7.633 -0.3878  0.2633 -0.1981
 6989SOL    HW132603   3.517   2.221   7.647 -0.4481 -1.2556 -1.9447
 6989SOL    HW232604   3.648   2.145   7.626  0.8109  0.6871  0.8468
 6990SOL     OW32605   3.153   3.593   9.101 -0.1266 -0.2897  0.6647
 6990SOL    HW132606   3.132   3.566   9.191 -4.2930  2.7840  0.6044
 6990SOL    HW232607   3.126   3.512   9.058  0.8326 -0.9172  1.2403
 6991SOL     OW32608   0.903   1.118   7.809 -0.1346 -0.4047  0.3160
 6991SOL    HW132609   0.925   1.170   7.732  0.8987 -0.5666  0.5053
 6991SOL    HW232610   0.979   1.062   7.824 -0.6839 -1.1839  0.1855
 6992SOL     OW32611   3.545   0.680  14.420 -0.4216  0.3304  0.1592
 6992SOL    HW132612   3.618   0.682  14.482  0.8440  0.1655 -1.3333
 6992SOL    HW232613   3.522   0.587  14.416  2.1667 -0.3116 -0.1812
 6993SOL     OW32614   0.474   3.166  15.513 -0.3861 -0.0318 -0.1409
 6993SOL    HW132615   0.496   3.259  15.518 -0.5602  0.0651 -1.0888
 6993SOL    HW232616   0.387   3.170  15.473 -0.1665  2.8032 -0.2910
 6994SOL     OW32617   0.461   3.431  15.426 -0.2472  0.4254 -0.4372
 6994SOL    HW132618   0.463   3.512  15.477  0.8699  0.1163  0.0185
 6994SOL    HW232619   0.518   3.455  15.352  1.0707 -0.9276  0.1434
 6995SOL     OW32620   4.313   3.293   2.400  0.3601  0.0920 -0.1567
 6995SOL    HW132621   4.348   3.382   2.409  0.0754  0.0324  1.4477
 6995SOL    HW232622   4.388   3.243   2.370 -2.7623 -3.2301 -2.5193
 6996SOL     OW32623   1.445   3.451   8.681 -0.2775 -0.1585  0.2193
 6996SOL    HW132624   1.535   3.421   8.671  0.1698  0.9376  1.0030
 6996SOL    HW232625   1.456   3.539   8.716 -1.5268  0.2447 -0.4166
 6997SOL     OW32626   2.587   3.591   0.894 -0.3946 -0.5825  0.0230
 6997SOL    HW132627   2.574   3.506   0.854  0.3668 -0.7826  0.1969
 6997SOL    HW232628   2.502   3.599   0.938  0.8284  2.8761  1.7879
 6998SOL     OW32629   4.487   3.936  16.423  0.3098  0.0566  0.4805
 6998SOL    HW132630   4.554   3.953  16.489  0.2768 -2.4035  1.1216
 6998SOL    HW232631   4.410   3.915  16.476 -1.4714  1.9205 -1.3405
 6999SOL     OW32632   1.207   3.715  12.271 -0.1434 -0.0110  0.1628
 6999SOL    HW132633   1.226   3.624  12.292  0.6947 -0.0721 -0.8362
 6999SOL    HW232634   1.151   3.714  12.193  0.2947  2.2739 -0.1976
 7000SOL     OW32635   2.729   0.335   7.833  0.0049  0.4986  0.1250
 7000SOL    HW132636   2.759   0.280   7.906 -0.9406 -0.3690 -0.1448
 7000SOL    HW232637   2.645   0.364   7.867 -0.0248  1.3720 -0.7246
 7001SOL     OW32638   2.185   1.828   5.979  0.0229 -0.1066 -0.7370
 7001SOL    HW132639   2.210   1.758   6.039 -0.6360 -0.0813 -0.4272
 7001SOL    HW232640   2.149   1.901   6.029 -1.9665 -1.1442 -0.6304
 7002SOL     OW32641   2.621   3.112   3.929 -0.5975 -0.0164  0.5052
 7002SOL    HW132642   2.628   3.066   3.845  0.3996 -0.4936  0.8490
 7002SOL    HW232643   2.710   3.099   3.964 -0.4661 -0.2823  0.0747
 7003SOL     OW32644   0.373   1.988   5.453  0.5347  0.1000 -0.3991
 7003SOL    HW132645   0.444   2.024   5.401  0.5476 -0.3550 -0.7001
 7003SOL    HW232646   0.396   2.030   5.536  2.5859  1.3357 -1.6128
 7004SOL     OW32647   3.791   0.923  14.263  0.1385  0.2188 -0.0939
 7004SOL    HW132648   3.764   0.980  14.335 -0.6473 -0.8613  0.4711
 7004SOL    HW232649   3.721   0.935  14.199 -0.1601 -0.0490  0.1825
 7005SOL     OW32650   3.163   1.919   6.263  0.1464  0.0819 -0.8090
 7005SOL    HW132651   3.150   1.963   6.347 -1.0694 -0.2949 -0.8047
 7005SOL    HW232652   3.212   1.845   6.297 -1.8296 -0.2091  1.4253
 7006SOL     OW32653   0.352   4.599   1.772  0.2102 -0.4231 -0.3586
 7006SOL    HW132654   0.389   4.686   1.758 -1.2926  0.2790  0.0121
 7006SOL    HW232655   0.415   4.566   1.836 -0.8721  0.0325  0.9355
 7007SOL     OW32656   3.894   1.350   8.935 -0.5151  0.1242  0.1363
 7007SOL    HW132657   3.850   1.432   8.955 -1.8006 -0.8254  1.2103
 7007SOL    HW232658   3.975   1.387   8.900  0.0350  0.6927  2.0314
 7008SOL     OW32659   0.788   1.092   1.972  0.0519  0.0525  0.1751
 7008SOL    HW132660   0.795   1.017   2.030 -0.9558 -1.0950 -1.2071
 7008SOL    HW232661   0.882   1.106   1.959 -0.5319  1.7441 -2.4347
 7009SOL     OW32662   0.645   0.951   8.553 -0.0038  0.4269 -0.5228
 7009SOL    HW132663   0.718   0.995   8.597  1.5137 -2.1469 -0.5209
 7009SOL    HW232664   0.572   0.968   8.613 -0.8585 -0.1637 -1.3985
 7010SOL     OW32665   0.380   0.560   6.701 -0.5566  0.9636 -0.5828
 7010SOL    HW132666   0.390   0.602   6.786  2.6035  0.6002 -0.7610
 7010SOL    HW232667   0.287   0.546   6.716 -0.3388 -0.5995 -0.6573
 7011SOL     OW32668   2.307   0.618  12.098 -0.0629  0.5241  0.2133
 7011SOL    HW132669   2.340   0.707  12.087 -1.8251  1.1567  0.0516
 7011SOL    HW232670   2.239   0.632  12.032 -0.6710 -2.2919  0.2368
 7012SOL     OW32671   3.630   0.637   1.244 -0.3426  0.4849 -0.1973
 7012SOL    HW132672   3.684   0.694   1.189 -1.5975  0.1887 -1.7537
 7012SOL    HW232673   3.643   0.670   1.333 -0.2823  1.1566 -0.4538
 7013SOL     OW32674   3.495   1.930   4.920  0.0497 -0.2288 -0.3213
 7013SOL    HW132675   3.577   1.918   4.873  0.4192 -0.7709  0.4646
 7013SOL    HW232676   3.436   1.871   4.873  1.5922 -1.5816 -0.5587
 7014SOL     OW32677   3.998   4.625  10.382 -0.1115 -0.3780 -0.1545
 7014SOL    HW132678   4.080   4.673  10.389  0.1068 -0.7115 -0.3913
 7014SOL    HW232679   3.946   4.685  10.328 -1.2191 -0.8024  0.4344
 7015SOL     OW32680   1.593   1.783  15.996 -0.1376  0.1644 -0.2669
 7015SOL    HW132681   1.569   1.827  15.914 -1.3276 -1.1053 -0.5958
 7015SOL    HW232682   1.629   1.698  15.971 -0.9164  0.5306 -2.5999
 7016SOL     OW32683   3.444   0.295   5.665  0.4582  0.4645 -0.5035
 7016SOL    HW132684   3.427   0.308   5.572 -2.5297 -3.4564 -0.4921
 7016SOL    HW232685   3.397   0.214   5.684  0.3449  0.2101 -1.8900
 7017SOL     OW32686   0.458   2.887   2.593 -0.7132  0.0118  0.5202
 7017SOL    HW132687   0.398   2.818   2.623  1.0006 -1.6869  0.0698
 7017SOL    HW232688   0.436   2.956   2.655 -0.0341  1.9717 -1.4254
 7018SOL     OW32689   1.854   3.262  15.883  0.4079 -0.3955 -0.2719
 7018SOL    HW132690   1.773   3.238  15.838  1.4244 -1.0937 -1.7398
 7018SOL    HW232691   1.890   3.175  15.899 -0.5433 -1.2218 -2.5567
 7019SOL     OW32692   0.659   1.926  17.072  0.2978 -0.2691 -0.0728
 7019SOL    HW132693   0.589   1.919  17.137 -1.8089  2.3070 -2.0488
 7019SOL    HW232694   0.732   1.950  17.128 -0.0867 -0.2298  0.4133
 7020SOL     OW32695   3.683   4.413  14.228  0.1307 -0.2329  0.3990
 7020SOL    HW132696   3.733   4.488  14.258 -2.1821  1.4788 -0.0068
 7020SOL    HW232697   3.600   4.459  14.215  0.4529 -0.0856 -1.1384
 7021SOL     OW32698   3.004   1.591   6.495 -0.3655 -0.1791  0.1227
 7021SOL    HW132699   2.982   1.547   6.576 -0.6599  1.1173  0.7461
 7021SOL    HW232700   2.932   1.654   6.494 -1.8732 -1.9215  0.8033
 7022SOL     OW32701   1.085   4.483   3.474  0.4029 -0.6812  0.0663
 7022SOL    HW132702   1.097   4.479   3.569 -1.1048 -0.7062  0.2592
 7022SOL    HW232703   1.022   4.554   3.464  0.1962 -0.6819  1.3242
 7023SOL     OW32704   2.101   2.177   3.864 -0.0228  0.3757 -0.0662
 7023SOL    HW132705   2.030   2.164   3.928 -1.8176  1.4946 -1.8349
 7023SOL    HW232706   2.115   2.085   3.842  0.5759 -0.1180  2.3143
 7024SOL     OW32707   1.265   0.718   4.125  0.0067 -0.4291  0.5414
 7024SOL    HW132708   1.348   0.720   4.078 -0.9646  1.2324 -1.1109
 7024SOL    HW232709   1.206   0.745   4.055 -0.3884 -1.7782  0.3638
 7025SOL     OW32710   0.708   2.797   5.865 -0.4341 -0.7458 -0.1445
 7025SOL    HW132711   0.772   2.842   5.809 -1.5852  1.2682  0.1426
 7025SOL    HW232712   0.760   2.762   5.938 -1.0017  1.2603  1.2390
 7026SOL     OW32713   3.222   0.198  12.626  0.7245  0.1065  0.1284
 7026SOL    HW132714   3.287   0.266  12.610 -1.7035  1.7125 -2.8652
 7026SOL    HW232715   3.173   0.232  12.701  0.9889  0.7086  0.0305
 7027SOL     OW32716   0.181   3.720  11.192  0.2242  0.1360 -0.3870
 7027SOL    HW132717   0.210   3.640  11.235  0.1657 -0.4529 -1.4725
 7027SOL    HW232718   0.148   3.686  11.109  1.3084 -0.4508 -0.5779
 7028SOL     OW32719   2.280   2.722   8.216  0.6755 -0.3494  1.0871
 7028SOL    HW132720   2.290   2.627   8.221  0.8046 -0.3118  1.5814
 7028SOL    HW232721   2.257   2.727   8.123  1.5738 -0.8816  0.8303
 7029SOL     OW32722   2.764   1.657   2.022 -0.6725  0.5229  0.5247
 7029SOL    HW132723   2.859   1.655   2.014 -0.9228  0.4350 -2.2482
 7029SOL    HW232724   2.756   1.614   2.108 -0.6726  1.5447  1.0367
 7030SOL     OW32725   3.280   2.539   7.436 -0.1509  0.4608 -0.7165
 7030SOL    HW132726   3.346   2.584   7.490  0.7508 -0.1916 -1.2870
 7030SOL    HW232727   3.326   2.531   7.353  1.0508  1.4760 -0.1419
 7031SOL     OW32728   4.582   1.924   4.880  0.3510 -0.3333  0.1325
 7031SOL    HW132729   4.667   1.964   4.900 -0.6670  2.3845 -0.9675
 7031SOL    HW232730   4.567   1.868   4.957  0.5604 -1.5830 -0.7361
 7032SOL     OW32731   1.397   0.733   4.762 -0.0476 -0.2239 -0.0262
 7032SOL    HW132732   1.305   0.716   4.783  0.7800 -3.4922  0.8430
 7032SOL    HW232733   1.390   0.783   4.680  1.6130  1.1864  0.6890
 7033SOL     OW32734   2.115   3.734  10.829  0.0271  0.0973 -0.1077
 7033SOL    HW132735   2.190   3.782  10.795 -0.6800  0.7397 -0.7518
 7033SOL    HW232736   2.059   3.745  10.753  1.3355 -0.2799 -1.1204
 7034SOL     OW32737   4.324   4.081   4.498  0.7064 -0.3910 -0.4506
 7034SOL    HW132738   4.419   4.079   4.492  0.6526 -2.0988 -0.5473
 7034SOL    HW232739   4.309   4.175   4.511  1.7306 -0.1433 -1.0894
 7035SOL     OW32740   4.268   2.582   2.631  0.2291  0.1351 -0.1121
 7035SOL    HW132741   4.353   2.623   2.614  0.6187 -0.5855  0.1179
 7035SOL    HW232742   4.215   2.651   2.591  0.3264 -0.3500 -1.0699
 7036SOL     OW32743   0.932   0.504   4.367  0.0388 -0.2430 -0.0309
 7036SOL    HW132744   0.985   0.579   4.341  0.0750 -0.0148  0.7084
 7036SOL    HW232745   0.990   0.440   4.325  0.5799 -0.7312  1.4626
 7037SOL     OW32746   0.935   0.258  13.270 -0.5737 -0.3093  0.2861
 7037SOL    HW132747   0.977   0.328  13.220 -4.8158  0.1664 -2.6005
 7037SOL    HW232748   0.872   0.232  13.203  0.1026  1.8762 -1.1809
 7038SOL     OW32749   3.635   4.442  15.534 -0.4207 -0.3707 -0.2794
 7038SOL    HW132750   3.629   4.382  15.609 -1.5040  0.5074  0.3294
 7038SOL    HW232751   3.594   4.387  15.467 -0.6716  0.5590 -0.8813
 7039SOL     OW32752   2.243   3.034  16.881  0.3258  0.0657  0.2591
 7039SOL    HW132753   2.207   2.950  16.911  0.4724  0.7364  2.3490
 7039SOL    HW232754   2.202   3.043  16.795  1.6314  1.6807 -0.1808
 7040SOL     OW32755   1.541   2.649   1.770 -0.3433  0.2716 -0.2584
 7040SOL    HW132756   1.635   2.667   1.770 -0.3709  0.4420 -1.5258
 7040SOL    HW232757   1.518   2.720   1.709  1.3339  0.1383 -1.0403
 7041SOL     OW32758   3.645   1.561   3.464  0.0407 -0.0925 -0.0221
 7041SOL    HW132759   3.659   1.507   3.387 -0.0104  0.3535 -0.3462
 7041SOL    HW232760   3.726   1.537   3.509  0.6037  0.7172 -0.6017
 7042SOL     OW32761   2.422   1.713   1.634 -0.5131 -0.1134 -0.3512
 7042SOL    HW132762   2.498   1.707   1.692  0.2348 -1.9673 -1.5375
 7042SOL    HW232763   2.383   1.636   1.676 -0.4514 -0.4688 -0.9545
 7043SOL     OW32764   0.998   2.528  10.186 -0.1826 -0.8341  0.3487
 7043SOL    HW132765   0.942   2.535  10.108 -2.0067 -2.2297  1.5343
 7043SOL    HW232766   0.929   2.532  10.252  0.6517  0.9508  1.0966
 7044SOL     OW32767   1.674   3.777  11.687 -0.1596 -0.4095 -0.0921
 7044SOL    HW132768   1.694   3.759  11.779 -3.3151 -0.8711  0.5009
 7044SOL    HW232769   1.604   3.715  11.667  0.0202 -0.6937  0.1566
 7045SOL     OW32770   2.051   0.197   2.809  0.0474 -0.2975 -0.3602
 7045SOL    HW132771   2.039   0.102   2.799  2.2203 -0.7259  1.0522
 7045SOL    HW232772   2.088   0.207   2.897 -2.1761  1.6712  0.3591
 7046SOL     OW32773   1.319   1.333   3.617 -0.5754 -0.3598  0.3416
 7046SOL    HW132774   1.391   1.374   3.568 -1.0593 -1.8326 -1.5637
 7046SOL    HW232775   1.318   1.248   3.574 -1.5089 -0.2871  0.2237
 7047SOL     OW32776   1.075   4.010   6.289 -0.0602 -0.0567 -0.2188
 7047SOL    HW132777   1.013   4.078   6.314  1.3096  1.1596 -0.0790
 7047SOL    HW232778   1.064   4.017   6.194 -1.2958  0.0401 -0.0612
 7048SOL     OW32779   3.801   2.227   8.696  0.1522 -0.2926  0.6905
 7048SOL    HW132780   3.828   2.246   8.786  1.6472  1.2964 -0.1023
 7048SOL    HW232781   3.853   2.282   8.638 -0.6160  1.2649  1.4810
 7049SOL     OW32782   4.056   3.643   6.253  0.1541  0.3750  0.3010
 7049SOL    HW132783   3.999   3.602   6.189  1.9181  0.2989 -1.2242
 7049SOL    HW232784   4.133   3.587   6.246  0.5400  0.8288  0.9110
 7050SOL     OW32785   2.294   4.675   5.690 -0.3847 -0.1560  0.5833
 7050SOL    HW132786   2.267   4.697   5.601  2.7880 -0.6961 -0.5268
 7050SOL    HW232787   2.268   0.022   5.733 -1.2794 -1.0228  1.6883
 7051SOL     OW32788   0.184   3.596   8.584 -0.8528 -0.2720  0.4167
 7051SOL    HW132789   0.108   3.645   8.614 -0.3316  1.3096 -0.8465
 7051SOL    HW232790   0.157   3.516   8.629 -2.3627 -0.6122 -1.1290
 7052SOL     OW32791   1.109   0.756   3.251 -0.2140  0.2708  0.3361
 7052SOL    HW132792   1.113   0.757   3.155  2.7961  0.9486  0.4720
 7052SOL    HW232793   1.125   0.664   3.271  0.7377 -0.0581 -1.9472
 7053SOL     OW32794   0.625   2.806  16.553  0.1025 -0.1402  0.3896
 7053SOL    HW132795   0.642   2.870  16.622 -0.2360  1.8691 -1.3785
 7053SOL    HW232796   0.619   2.861  16.475  1.7685 -2.6076 -1.4589
 7054SOL     OW32797   0.938   4.276   4.974  0.7689 -0.4810  0.1662
 7054SOL    HW132798   0.941   4.362   4.932 -0.6322 -0.5039  0.0144
 7054SOL    HW232799   0.863   4.235   4.931  0.7452  1.1560 -1.3673
 7055SOL     OW32800   1.150   0.965  17.200  0.0831 -0.4028 -0.6394
 7055SOL    HW132801   1.102   0.906  17.142 -3.1735  1.1946  0.4406
 7055SOL    HW232802   1.122   0.944  17.289  0.8278  1.9022  0.1299
 7056SOL     OW32803   1.759   1.057  12.689  0.2472 -0.2301 -0.2272
 7056SOL    HW132804   1.775   0.963  12.683 -0.3160 -0.2114 -1.8299
 7056SOL    HW232805   1.850   1.087  12.680  1.1068 -2.1612  1.9745
 7057SOL     OW32806   3.499   4.212   8.754  0.1302 -0.3545  0.6974
 7057SOL    HW132807   3.471   4.163   8.832  1.0071  0.8769  1.7848
 7057SOL    HW232808   3.435   4.283   8.755  0.3822 -0.1263  0.5379
 7058SOL     OW32809   2.044   2.083   8.974  0.1132 -0.1680  0.1909
 7058SOL    HW132810   2.079   2.113   8.890 -0.7924  0.0179 -0.1172
 7058SOL    HW232811   1.952   2.065   8.958 -0.4423  1.2782  1.7394
 7059SOL     OW32812   0.904   4.429   4.294 -0.2787 -0.1827 -0.5506
 7059SOL    HW132813   0.924   4.389   4.379  0.6885 -2.9858 -2.0707
 7059SOL    HW232814   0.952   4.374   4.232 -0.6069 -2.2897  1.0581
 7060SOL     OW32815   1.784   0.172   4.230  0.1843  0.4218 -0.1706
 7060SOL    HW132816   1.839   0.234   4.182 -1.0372 -1.0560 -3.4791
 7060SOL    HW232817   1.725   0.228   4.280  1.2350  1.8049 -0.4821
 7061SOL     OW32818   3.237   2.088   8.371 -0.1924 -0.0214 -0.4290
 7061SOL    HW132819   3.321   2.051   8.400  0.0746  1.3919  0.6318
 7061SOL    HW232820   3.248   2.177   8.404 -2.2106 -1.3260  3.6738
 7062SOL     OW32821   2.856   4.613  15.548 -0.3575  0.4156  0.1923
 7062SOL    HW132822   2.826   4.702  15.564  0.0577  0.5312  0.3291
 7062SOL    HW232823   2.785   4.566  15.592  0.4011  0.1326  1.1398
 7063SOL     OW32824   3.913   2.367   6.086 -0.2567  0.1395  0.5228
 7063SOL    HW132825   3.835   2.393   6.135 -0.0390  2.7716 -0.5703
 7063SOL    HW232826   3.917   2.273   6.107  0.8398  0.0862  0.1204
 7064SOL     OW32827   2.265   2.804   7.741 -0.0107 -0.3500  0.1675
 7064SOL    HW132828   2.192   2.861   7.717 -1.4445 -2.2411 -0.0332
 7064SOL    HW232829   2.324   2.873   7.770 -0.4962 -1.6050  4.1679
 7065SOL     OW32830   0.310   1.442   2.563 -0.2307  0.2330  0.4196
 7065SOL    HW132831   0.383   1.504   2.561  0.8754 -1.1049 -0.6676
 7065SOL    HW232832   0.315   1.404   2.475 -1.0259 -0.9677  0.8990
 7066SOL     OW32833   2.139   2.916   2.982  0.2075  0.0895 -0.0536
 7066SOL    HW132834   2.078   2.918   2.908  0.1810 -1.3963 -0.0843
 7066SOL    HW232835   2.201   2.986   2.962  1.3685 -1.3609 -1.5575
 7067SOL     OW32836   4.042   1.702   8.810  0.0728 -0.8014 -0.4238
 7067SOL    HW132837   4.036   1.776   8.870 -0.2991 -1.2134  0.0542
 7067SOL    HW232838   4.087   1.644   8.872 -0.8261  0.0725  1.0431
 7068SOL     OW32839   1.710   3.669   3.528 -0.4023 -0.3366  0.3457
 7068SOL    HW132840   1.712   3.758   3.563 -2.0095  0.0830 -0.6572
 7068SOL    HW232841   1.796   3.632   3.548 -0.5880 -1.2562 -0.5851
 7069SOL     OW32842   3.141   0.414   5.037  0.1917 -0.1184  0.0241
 7069SOL    HW132843   3.195   0.408   4.959 -1.9302 -0.4856 -1.4092
 7069SOL    HW232844   3.143   0.324   5.071  1.3098 -0.1761 -0.1939
 7070SOL     OW32845   4.142   2.555   6.033  0.0770  0.2629 -0.2240
 7070SOL    HW132846   4.175   2.532   6.120  1.1472 -0.8431 -0.9284
 7070SOL    HW232847   4.056   2.513   6.029 -0.7320  1.6792  2.1646
 7071SOL     OW32848   0.148   1.821   3.328  0.6528 -0.7626  0.1780
 7071SOL    HW132849   0.234   1.823   3.286  1.5173 -0.4772  1.9652
 7071SOL    HW232850   0.171   1.831   3.421 -1.6265  1.9452  0.4781
 7072SOL     OW32851   3.212   4.189  15.500 -0.1537  0.0552  0.0114
 7072SOL    HW132852   3.177   4.107  15.466  1.4289 -0.0235 -1.4792
 7072SOL    HW232853   3.185   4.246  15.428  0.5284 -0.0217 -0.3065
 7073SOL     OW32854   3.469   1.542   3.104  0.0203 -0.6253 -0.2628
 7073SOL    HW132855   3.445   1.629   3.134 -1.3461 -1.0029 -0.2501
 7073SOL    HW232856   3.398   1.487   3.137 -0.7285 -0.9210 -2.3669
 7074SOL     OW32857   2.535   1.586   7.212  0.4385  0.2012 -0.3224
 7074SOL    HW132858   2.581   1.657   7.167  0.0716  1.1366  0.7940
 7074SOL    HW232859   2.606   1.553   7.267  0.1314 -0.7328 -0.4922
 7075SOL     OW32860   0.816   3.865   3.569  0.5260 -0.1800  0.7291
 7075SOL    HW132861   0.880   3.919   3.614  0.1552  1.1824 -0.3846
 7075SOL    HW232862   0.791   3.794   3.628 -0.6931 -0.1394  0.2708
 7076SOL     OW32863   1.928   2.333   5.334  0.2299  0.5909  0.1208
 7076SOL    HW132864   1.951   2.389   5.260 -1.3072  0.8645 -0.1361
 7076SOL    HW232865   2.018   2.327   5.369 -0.8238 -0.8697  2.6223
 7077SOL     OW32866   0.661   2.525   2.179  0.8161 -0.4689 -0.5214
 7077SOL    HW132867   0.651   2.481   2.264 -1.3371 -0.0488 -0.5610
 7077SOL    HW232868   0.752   2.501   2.160  1.2330  0.1726  0.6439
 7078SOL     OW32869   3.932   0.536   2.277  0.3011 -0.3283 -0.0349
 7078SOL    HW132870   3.862   0.540   2.212 -0.4657 -0.9710  0.7708
 7078SOL    HW232871   3.896   0.472   2.338  0.8026 -1.1006 -0.5426
 7079SOL     OW32872   1.983   0.614   2.523 -0.3196  0.1414  0.0120
 7079SOL    HW132873   2.010   0.645   2.609  1.0315  1.2052 -0.7960
 7079SOL    HW232874   1.890   0.624   2.540 -0.2976 -1.3860  1.0185
 7080SOL     OW32875   0.929   0.363   8.197 -0.1433 -0.6001 -0.4874
 7080SOL    HW132876   0.914   0.334   8.287 -1.8235  0.0295 -0.5614
 7080SOL    HW232877   0.929   0.457   8.214  1.9039 -0.6984  0.1007
 7081SOL     OW32878   0.321   1.477   3.030 -0.5377  0.0370 -0.2991
 7081SOL    HW132879   0.405   1.508   3.065 -0.3523 -1.6179  0.7381
 7081SOL    HW232880   0.279   1.554   2.992  1.6510  0.2108 -2.4046
 7082SOL     OW32881   0.979   2.051  12.042  0.4285 -0.4349 -0.1620
 7082SOL    HW132882   0.991   2.110  12.116  3.3176 -1.2960  0.0618
 7082SOL    HW232883   0.909   2.088  11.988  1.4198 -0.9888 -1.8288
 7083SOL     OW32884   2.950   4.397   8.855  0.0259 -0.2173  0.7862
 7083SOL    HW132885   2.950   4.310   8.816  1.0484 -0.5110  1.4209
 7083SOL    HW232886   2.867   4.432   8.824  1.8121  2.2979 -1.1671
 7084SOL     OW32887   2.181   2.162  11.225  0.4818  0.5355  0.1680
 7084SOL    HW132888   2.261   2.213  11.238  0.2724  0.6851  0.8663
 7084SOL    HW232889   2.122   2.185  11.296  0.2108 -0.8271  0.3914
 7085SOL     OW32890   0.177   3.432   1.639  0.5019 -0.0809  0.0738
 7085SOL    HW132891   0.202   3.339   1.641  2.4492  0.4755  1.4500
 7085SOL    HW232892   0.148   3.435   1.548 -0.6448  1.3887  0.5053
 7086SOL     OW32893   4.618   0.856  12.894 -0.3139  0.1678  0.3099
 7086SOL    HW132894   4.584   0.787  12.837  0.0599  0.5611 -0.3932
 7086SOL    HW232895   4.710   0.862  12.868  0.1515 -1.6107  1.5208
 7087SOL     OW32896   0.024   3.591  16.420 -0.3981  0.4956 -0.0780
 7087SOL    HW132897   0.067   3.621  16.340 -2.9580 -1.1058 -2.0389
 7087SOL    HW232898   4.724   3.671  16.459 -1.2149  0.0125  0.1699
 7088SOL     OW32899   3.803   3.725   4.742  0.4872  0.0643  0.3360
 7088SOL    HW132900   3.754   3.661   4.690  0.2872  0.0169  0.5838
 7088SOL    HW232901   3.871   3.669   4.780  0.0168 -0.5999  0.1958
 7089SOL     OW32902   0.385   4.168   9.400  0.5280  0.1703 -0.1304
 7089SOL    HW132903   0.480   4.176   9.393  0.7111 -0.4175  1.5815
 7089SOL    HW232904   0.349   4.246   9.358 -0.2699 -0.2155 -0.1650
 7090SOL     OW32905   3.194   2.996   7.569  0.0317 -0.1274  0.6137
 7090SOL    HW132906   3.171   2.907   7.542  0.6172 -0.0940  0.0199
 7090SOL    HW232907   3.109   3.033   7.543  0.1186 -0.6799 -0.4338
 7091SOL     OW32908   1.939   3.412   6.835 -0.7410  0.0686 -0.5621
 7091SOL    HW132909   1.865   3.441   6.782 -1.6432 -2.1520 -0.5317
 7091SOL    HW232910   1.960   3.327   6.796  0.4455  1.3051 -2.6537
 7092SOL     OW32911   3.925   3.971   0.618 -0.1013 -0.1087  0.2007
 7092SOL    HW132912   3.936   3.938   0.707  1.0094 -1.3049 -0.3721
 7092SOL    HW232913   4.016   3.977   0.589 -0.0623  0.2415  0.3975
 7093SOL     OW32914   0.275   1.104  11.035 -0.1330 -0.5857  0.0868
 7093SOL    HW132915   0.192   1.067  11.004 -1.1524  0.5159  1.4672
 7093SOL    HW232916   0.329   1.025  11.035 -1.6688 -1.6406 -1.4487
 7094SOL     OW32917   1.614   2.034  13.275  0.1584  0.0977  0.0872
 7094SOL    HW132918   1.571   1.965  13.225  2.2374  0.5045 -2.2711
 7094SOL    HW232919   1.551   2.045  13.345  0.6083  0.8875  0.3705
 7095SOL     OW32920   3.992   2.188   0.506  0.2066 -0.3335 -0.4010
 7095SOL    HW132921   4.060   2.124   0.527  0.7802 -0.3661 -2.3254
 7095SOL    HW232922   4.014   2.265   0.559  1.4399 -2.0181  1.5356
 7096SOL     OW32923   3.908   4.620   5.546  0.2607  0.1313 -0.2408
 7096SOL    HW132924   3.998   4.648   5.530 -0.0865  3.0042  2.7514
 7096SOL    HW232925   3.892   4.640   5.638  0.0552  1.7668 -0.6367
 7097SOL     OW32926   1.603   1.989   4.264 -0.4464 -0.3187 -0.1803
 7097SOL    HW132927   1.648   1.906   4.279 -0.4385 -0.2466  0.2025
 7097SOL    HW232928   1.565   1.977   4.177 -0.2078  0.9585 -0.4693
 7098SOL     OW32929   4.091   4.563   6.328 -0.0576  0.5156  0.3128
 7098SOL    HW132930   4.069   4.501   6.259  1.4781  0.4148 -0.0944
 7098SOL    HW232931   4.179   4.535   6.356 -0.7101 -0.6400  1.2083
 7099SOL     OW32932   4.468   3.992   2.179 -0.3911 -0.4134 -0.0562
 7099SOL    HW132933   4.552   4.005   2.221 -0.1768 -0.2013 -0.5550
 7099SOL    HW232934   4.421   4.059   2.228 -2.3616 -0.7807 -1.4120
 7100SOL     OW32935   4.572   1.166   8.096  0.1501 -0.3776  0.4566
 7100SOL    HW132936   4.629   1.093   8.073 -1.1395 -1.6183  1.1583
 7100SOL    HW232937   4.496   1.121   8.134  0.1363 -1.2092 -0.5431
 7101SOL     OW32938   1.313   2.487   6.923  0.1248 -0.0802 -0.2593
 7101SOL    HW132939   1.307   2.421   6.993 -0.2213 -0.2561 -0.4551
 7101SOL    HW232940   1.349   2.567   6.961 -0.4791  0.0911 -0.0425
 7102SOL     OW32941   2.043   1.166   5.524 -0.0879  0.3782  0.3317
 7102SOL    HW132942   2.036   1.168   5.619 -0.8289 -1.3842  0.3220
 7102SOL    HW232943   1.991   1.088   5.507 -1.9713  1.6447  0.3459
 7103SOL     OW32944   4.440   3.903   9.589  0.4900 -0.2832  0.0760
 7103SOL    HW132945   4.431   3.826   9.645  0.1967  0.2232  0.7322
 7103SOL    HW232946   4.532   3.897   9.564  0.4310  1.3594 -0.5283
 7104SOL     OW32947   0.137   1.385   5.371 -0.0661  0.6224  0.1720
 7104SOL    HW132948   0.174   1.404   5.457  0.2089  0.3467  0.1165
 7104SOL    HW232949   0.096   1.300   5.391  0.0712  0.3537 -0.6752
 7105SOL     OW32950   2.846   0.030   6.528 -0.0423 -0.0042  0.2973
 7105SOL    HW132951   2.776   0.012   6.465  0.2163  1.2403 -0.3533
 7105SOL    HW232952   2.862   4.678   6.564 -0.4715  0.4375  1.5618
 7106SOL     OW32953   1.115   4.678   4.882 -0.1991  0.3913 -0.7986
 7106SOL    HW132954   1.208   4.683   4.902  0.1927  0.5352 -2.6303
 7106SOL    HW232955   1.094   0.033   4.907  2.8517  0.6475  0.8456
 7107SOL     OW32956   1.889   1.681   7.364  0.1442 -0.5912  0.4698
 7107SOL    HW132957   1.838   1.612   7.406 -0.0664 -0.9161 -0.3186
 7107SOL    HW232958   1.855   1.756   7.413  0.2314 -0.2718  0.0431
 7108SOL     OW32959   1.879   2.380   6.906  0.2659 -0.0820 -0.4146
 7108SOL    HW132960   1.823   2.442   6.952 -0.9045  0.1109 -2.1286
 7108SOL    HW232961   1.855   2.293   6.937  1.5146  0.2188  1.3917
 7109SOL     OW32962   3.292   3.761   3.054 -0.2058  0.0507  0.1969
 7109SOL    HW132963   3.277   3.707   3.132 -1.0545 -2.0070 -1.3782
 7109SOL    HW232964   3.349   3.709   2.998 -0.6123 -0.2303  0.0468
 7110SOL     OW32965   3.805   3.239  13.852  0.3117  0.6663  0.3691
 7110SOL    HW132966   3.723   3.231  13.901 -0.8687  1.3155 -1.5138
 7110SOL    HW232967   3.776   3.257  13.763  1.1870  0.6208  0.0695
 7111SOL     OW32968   1.277   3.774   3.710  0.4377  0.5070 -0.1554
 7111SOL    HW132969   1.299   3.867   3.718  1.2257  0.1014  2.1480
 7111SOL    HW232970   1.345   3.720   3.669 -1.8038 -1.1971 -1.6104
 7112SOL     OW32971   0.249   2.416   4.831 -0.3830 -0.6701  0.1407
 7112SOL    HW132972   0.217   2.504   4.814 -1.5843 -0.6373  2.6656
 7112SOL    HW232973   0.292   2.406   4.746 -1.1161 -0.6708 -0.2319
 7113SOL     OW32974   4.311   1.805   9.994  0.0621  0.2203 -0.0217
 7113SOL    HW132975   4.278   1.716   9.982  4.1173 -1.5111  1.7554
 7113SOL    HW232976   4.248   1.843   9.933 -0.4565  1.0160  1.0078
 7114SOL     OW32977   4.700   4.249   9.231  0.1760 -0.0062 -0.5981
 7114SOL    HW132978   0.017   4.176   9.266  0.8157  1.6826  1.9884
 7114SOL    HW232979   0.022   4.320   9.261  0.6997 -0.8462  0.3848
 7115SOL     OW32980   0.760   2.232  11.712 -0.0021 -0.5407  0.7825
 7115SOL    HW132981   0.759   2.153  11.765 -2.1465 -1.8487 -1.2036
 7115SOL    HW232982   0.794   2.292  11.778 -1.2643  0.8877  0.1675
 7116SOL     OW32983   4.502   4.042   9.160  0.1737  0.0467  0.1333
 7116SOL    HW132984   4.450   4.087   9.093  0.1531 -0.3683 -0.1292
 7116SOL    HW232985   4.572   4.107   9.164  0.4894 -0.2001 -1.1467
 7117SOL     OW32986   2.419   1.790   7.630 -0.0135 -0.4562  0.9593
 7117SOL    HW132987   2.439   1.806   7.538 -0.5203  1.6916  1.2332
 7117SOL    HW232988   2.335   1.743   7.630  0.1496 -0.7424  1.6424
 7118SOL     OW32989   2.881   2.138   2.218  0.3535  0.0016  0.1960
 7118SOL    HW132990   2.831   2.061   2.244 -1.6439  1.2287  0.0106
 7118SOL    HW232991   2.848   2.158   2.130  1.8949  0.8438 -0.1852
 7119SOL     OW32992   4.228   0.386   5.449  0.3438 -0.8890 -0.1873
 7119SOL    HW132993   4.207   0.343   5.366 -1.0346 -1.3325  0.3889
 7119SOL    HW232994   4.259   0.472   5.421 -1.5448  0.0380  0.5625
 7120SOL     OW32995   2.011   3.259   2.692  0.5450 -0.2210  0.2979
 7120SOL    HW132996   2.025   3.263   2.598 -0.7751  2.1881  0.2074
 7120SOL    HW232997   2.023   3.353   2.704  0.8355 -0.3887  1.3244
 7121SOL     OW32998   1.594   0.914   5.445 -0.7139 -0.1396 -0.0196
 7121SOL    HW132999   1.500   0.905   5.430 -0.6345  0.1362 -0.6669
 7121SOL    HW233000   1.617   0.952   5.360 -1.1341 -0.2019 -0.1590
 7122SOL     OW33001   0.195   1.577  11.134  0.2601 -0.2821 -0.0529
 7122SOL    HW133002   0.212   1.583  11.040 -2.5223 -2.0906 -0.6843
 7122SOL    HW233003   0.205   1.483  11.149 -1.4541 -0.5964 -0.8406
 7123SOL     OW33004   1.120   0.956   2.820  0.8324 -0.3234  0.5288
 7123SOL    HW133005   1.036   0.912   2.803  0.2698  0.3689  1.5289
 7123SOL    HW233006   1.156   0.901   2.889  0.6518 -0.6317  0.3811
 7124SOL     OW33007   4.197   4.210   2.056 -0.3310  0.4763  0.1141
 7124SOL    HW133008   4.164   4.196   1.967 -0.4237  1.0351  0.0623
 7124SOL    HW233009   4.115   4.211   2.106 -1.0599  1.7193 -1.1172
 7125SOL     OW33010   0.139   4.024   3.603  0.2358  0.0491  0.0853
 7125SOL    HW133011   0.201   4.071   3.659 -0.6358  0.4697  0.6843
 7125SOL    HW233012   0.180   3.938   3.601  1.6670  0.6915  1.0438
 7126SOL     OW33013   1.013   3.224  11.406 -0.0646 -0.7059 -0.7497
 7126SOL    HW133014   1.095   3.180  11.427  0.9414  0.2155 -2.6988
 7126SOL    HW233015   0.986   3.177  11.327 -1.4666 -0.8367 -0.1926
 7127SOL     OW33016   2.209   0.374  17.263  0.0956 -0.2438 -0.5739
 7127SOL    HW133017   2.127   0.333  17.234 -1.0862  1.3263  0.5770
 7127SOL    HW233018   2.267   0.299  17.247  1.8955  0.6641  1.6404
 7128SOL     OW33019   3.679   2.623  15.085  0.6002 -0.2779  0.7231
 7128SOL    HW133020   3.642   2.535  15.088 -1.4979  0.5841  0.1724
 7128SOL    HW233021   3.755   2.598  15.138 -0.3103  0.2392  2.2916
 7129SOL     OW33022   0.319   2.646   3.764  0.4614 -0.0212 -0.3884
 7129SOL    HW133023   0.368   2.644   3.682 -0.6252  1.0175 -1.0485
 7129SOL    HW233024   0.245   2.703   3.743 -1.1624 -2.4499 -1.2415
 7130SOL     OW33025   3.733   4.596  11.320  0.1598 -0.3094  0.0761
 7130SOL    HW133026   3.761   4.639  11.239 -1.0343 -0.9533 -0.6749
 7130SOL    HW233027   3.810   4.573  11.371  1.7061  0.2590 -2.0026
 7131SOL     OW33028   0.641   1.678  10.375 -0.4687  0.1458  0.6561
 7131SOL    HW133029   0.568   1.710  10.322 -0.3341  1.3630  1.1991
 7131SOL    HW233030   0.677   1.765  10.393  1.0458 -0.4149  0.3515
 7132SOL     OW33031   3.423   1.534   7.851 -0.2272  0.6974 -0.1862
 7132SOL    HW133032   3.491   1.467   7.847 -0.8821 -0.0101  0.2541
 7132SOL    HW233033   3.471   1.596   7.796  0.7315  0.2133  0.1060
 7133SOL     OW33034   1.684   0.570   7.814  0.0352  0.1770  0.6738
 7133SOL    HW133035   1.713   0.625   7.741 -1.1331 -1.2140 -0.8289
 7133SOL    HW233036   1.590   0.554   7.799 -0.3994  1.6864  1.7275
 7134SOL     OW33037   2.197   0.560   4.170  0.4705 -0.3847 -0.2746
 7134SOL    HW133038   2.111   0.585   4.137  0.2200  1.3324  1.7109
 7134SOL    HW233039   2.173   0.513   4.250  0.3717 -0.5128 -0.3789
 7135SOL     OW33040   1.284   3.513   2.835 -0.4459  0.2171 -0.1075
 7135SOL    HW133041   1.220   3.513   2.905 -1.0025 -2.8278 -0.6050
 7135SOL    HW233042   1.241   3.461   2.767 -1.9590  1.7592 -0.3039
 7136SOL     OW33043   4.325   0.238  17.520  0.2152  0.0298  0.0969
 7136SOL    HW133044   4.373   0.168  17.475  1.9213  1.9568 -1.0880
 7136SOL    HW233045   4.374   0.313  17.486  0.6424 -0.8196 -1.1762
 7137SOL     OW33046   1.062   1.032   6.991 -0.5255 -0.1077 -0.1968
 7137SOL    HW133047   1.073   1.127   6.994 -0.1723 -0.1904  1.0560
 7137SOL    HW233048   1.087   1.013   7.082  0.4674  0.5976 -0.3224
 7138SOL     OW33049   4.630   2.599   7.214 -0.1263 -0.3278  0.5935
 7138SOL    HW133050   4.576   2.650   7.153 -1.2944 -0.5188  1.4523
 7138SOL    HW233051   4.606   2.508   7.193 -0.4229  0.3623 -2.0569
 7139SOL     OW33052   1.733   4.488   6.316  0.4658 -0.1751 -0.1826
 7139SOL    HW133053   1.770   4.494   6.228 -1.1382  0.1954 -0.8355
 7139SOL    HW233054   1.687   4.571   6.327  1.7900  0.4313  0.8670
 7140SOL     OW33055   2.898   2.933   6.005 -0.6102 -0.0586 -0.1356
 7140SOL    HW133056   2.856   2.963   6.086 -2.6763 -1.8685 -0.5403
 7140SOL    HW233057   2.963   3.003   6.003  1.5894 -2.0813  0.7922
 7141SOL     OW33058   0.665   2.281   4.172  0.0139  0.3170  0.0527
 7141SOL    HW133059   0.686   2.367   4.136  1.6378 -0.6617 -1.3484
 7141SOL    HW233060   0.726   2.239   4.112  0.7100 -0.9297  1.6368
 7142SOL     OW33061   1.188   0.347   7.254 -0.5079 -0.0086 -0.3951
 7142SOL    HW133062   1.175   0.283   7.184  3.8381 -0.9000 -0.4187
 7142SOL    HW233063   1.105   0.342   7.301 -1.1438 -0.0925 -1.5450
 7143SOL     OW33064   2.581   3.852   6.796 -0.6467  0.3822 -0.1683
 7143SOL    HW133065   2.641   3.825   6.866 -0.8226 -0.3747 -0.3138
 7143SOL    HW233066   2.555   3.936   6.834  0.2490  0.8505 -0.6044
 7144SOL     OW33067   0.337   2.178   8.763 -0.5786  0.0663 -0.2539
 7144SOL    HW133068   0.368   2.266   8.781 -0.6607  0.5743 -2.6504
 7144SOL    HW233069   0.374   2.158   8.677  2.7657  0.0124  1.1784
 7145SOL     OW33070   0.012   2.438   6.732  0.8144  0.2148 -0.3164
 7145SOL    HW133071   0.038   2.401   6.817 -1.4594 -2.3467 -0.7102
 7145SOL    HW233072   4.734   2.528   6.762 -0.6975 -0.5946  1.4850
 7146SOL     OW33073   0.187   1.346   6.931 -0.0312 -0.4411  0.3395
 7146SOL    HW133074   0.239   1.417   6.968 -0.3307 -0.0151 -0.0649
 7146SOL    HW233075   0.156   1.391   6.853  2.0888 -0.4230 -0.5000
 7147SOL     OW33076   4.582   3.761   9.327 -0.3359 -0.4075 -0.2210
 7147SOL    HW133077   4.597   3.853   9.351 -0.8910 -0.7961  1.6101
 7147SOL    HW233078   4.613   3.728   9.412 -0.8479  0.9097  0.4827
 7148SOL     OW33079   4.008   0.887   5.524  0.6969 -0.2685  0.7195
 7148SOL    HW133080   4.101   0.865   5.530  1.1717  1.4986 -0.3423
 7148SOL    HW233081   3.979   0.832   5.452  0.0022 -0.4802  1.1585
 7149SOL     OW33082   1.732   1.716   7.993  0.0049 -0.3150 -0.2140
 7149SOL    HW133083   1.741   1.681   7.904 -0.0389 -0.6868 -0.0684
 7149SOL    HW233084   1.827   1.714   8.005 -0.0905  3.1409  1.1091
 7150SOL     OW33085   0.788   1.274   0.900  0.2506  0.1525 -0.2631
 7150SOL    HW133086   0.825   1.226   0.826  2.8876  0.2003  1.0012
 7150SOL    HW233087   0.859   1.329   0.933  0.4319 -0.4234  0.3128
 7151SOL     OW33088   1.106   4.356   3.225  0.4983  0.3493 -0.1112
 7151SOL    HW133089   1.101   4.440   3.178  0.8354  0.7616  0.5783
 7151SOL    HW233090   1.088   4.381   3.315 -0.2445  1.5254 -0.5896
 7152SOL     OW33091   2.285   4.638   0.371  0.2857  0.4594 -0.0808
 7152SOL    HW133092   2.261   4.547   0.355 -1.2801  0.6010  1.4956
 7152SOL    HW233093   2.201   4.683   0.375  0.7141  1.2517  0.0042
 7153SOL     OW33094   4.612   0.179   6.504  0.0497 -0.1515 -0.0442
 7153SOL    HW133095   4.704   0.158   6.491 -0.1685 -0.0692 -1.6988
 7153SOL    HW233096   4.576   0.091   6.514 -0.6485 -0.0623 -1.6900
 7154SOL     OW33097   2.444   4.249   3.935 -0.5306 -0.0666  0.1008
 7154SOL    HW133098   2.426   4.246   4.029 -0.6664  1.4583  0.1268
 7154SOL    HW233099   2.373   4.192   3.908 -1.4736  0.9708  0.4112
 7155SOL     OW33100   0.598   2.811   2.046  0.2959 -0.1626  0.6869
 7155SOL    HW133101   0.631   2.751   1.980  0.3855  1.6952 -0.9334
 7155SOL    HW233102   0.651   2.888   2.031 -2.0526  0.8781 -2.1022
 7156SOL     OW33103   3.118   2.257   7.305  0.1148  0.1022 -0.3244
 7156SOL    HW133104   3.060   2.333   7.300 -2.7839 -1.9379  2.3420
 7156SOL    HW233105   3.161   2.284   7.387  0.6228 -0.2159 -0.4871
 7157SOL     OW33106   1.331   2.888   4.269 -0.0818 -0.1106 -0.0876
 7157SOL    HW133107   1.364   2.874   4.180 -1.3684 -1.4412 -0.3558
 7157SOL    HW233108   1.352   2.806   4.313 -1.3442 -0.4311 -0.0653
 7158SOL     OW33109   3.291   3.410  11.448 -0.0475  0.0201 -0.1514
 7158SOL    HW133110   3.283   3.320  11.480  2.1204 -0.3424 -0.6543
 7158SOL    HW233111   3.352   3.399  11.375  0.3223  2.2525 -0.1725
 7159SOL     OW33112   2.933   0.313   7.393 -0.1118  0.4382  0.7187
 7159SOL    HW133113   2.955   0.379   7.459 -0.6365  1.2293  0.1094
 7159SOL    HW233114   2.886   0.253   7.451  0.3319 -0.2709  0.3475
 7160SOL     OW33115   4.627   1.758   2.483 -0.0520 -0.1509  0.3916
 7160SOL    HW133116   4.546   1.781   2.529 -0.4780 -2.2383  0.6664
 7160SOL    HW233117   4.655   1.847   2.461  1.8263 -0.4388  1.5694
 7161SOL     OW33118   3.818   3.347  12.421 -0.3598 -0.2186  0.1772
 7161SOL    HW133119   3.815   3.358  12.326  0.7815  1.1127  0.2944
 7161SOL    HW233120   3.910   3.363  12.440 -0.6026  0.2438  0.9982
 7162SOL     OW33121   1.032   0.382   6.263  0.3284  0.3043 -0.0150
 7162SOL    HW133122   1.079   0.378   6.346  1.3852 -2.7657 -0.7725
 7162SOL    HW233123   0.970   0.451   6.289  0.1282 -0.0865  0.5483
 7163SOL     OW33124   4.616   2.102   6.808 -0.2193 -0.3627  0.1430
 7163SOL    HW133125   4.630   2.012   6.779 -0.0704 -0.4524  0.4966
 7163SOL    HW233126   4.527   2.102   6.842 -1.2368 -0.5440 -2.5505
 7164SOL     OW33127   4.026   0.031   2.651  0.2416 -0.0800 -0.4415
 7164SOL    HW133128   4.020   0.012   2.557  2.2043 -0.4339 -0.5017
 7164SOL    HW233129   4.101   4.708   2.665  0.9569 -0.0875 -4.1221
 7165SOL     OW33130   1.625   1.130   0.853 -0.1030 -0.0036  0.4315
 7165SOL    HW133131   1.665   1.187   0.919 -2.2872  1.7050  0.2972
 7165SOL    HW233132   1.698   1.077   0.823  0.4260 -1.0163  3.4805
 7166SOL     OW33133   3.953   0.388   2.679  0.4201  0.5316 -0.2797
 7166SOL    HW133134   3.945   0.338   2.760  2.5072 -2.2481 -1.7827
 7166SOL    HW233135   3.932   0.474   2.715 -0.2320 -0.0070  0.6057
 7167SOL     OW33136   1.255   1.164   6.630 -0.4625 -0.1471 -0.0819
 7167SOL    HW133137   1.317   1.093   6.612 -1.8574 -1.4765  0.4490
 7167SOL    HW233138   1.173   1.116   6.629 -0.7375  0.3061  1.8387
 7168SOL     OW33139   2.458   0.297   2.525 -0.7844 -0.2716  0.0876
 7168SOL    HW133140   2.471   0.203   2.537  1.0412 -0.2775 -1.8193
 7168SOL    HW233141   2.478   0.317   2.433 -0.1047 -0.1158  0.2661
 7169SOL     OW33142   4.655   3.562  17.147 -0.3017 -0.2310  0.4056
 7169SOL    HW133143   4.698   3.586  17.065 -1.4922  0.0855 -0.1186
 7169SOL    HW233144   4.611   3.483  17.114 -0.8209  0.7910 -1.3129
 7170SOL     OW33145   2.988   0.280  15.085 -0.1617  0.1717 -0.0977
 7170SOL    HW133146   2.992   0.214  15.154  2.9147  0.5553  0.0904
 7170SOL    HW233147   3.042   0.354  15.113 -0.5814  0.3451  0.2512
 7171SOL     OW33148   4.432   0.521  16.406  0.8062  1.1328 -0.7834
 7171SOL    HW133149   4.468   0.605  16.377  1.5697  1.4207  0.9865
 7171SOL    HW233150   4.344   0.531  16.370  1.6727 -2.3924 -3.9384
 7172SOL     OW33151   2.969   2.201   8.386 -0.7110  0.3316 -0.1731
 7172SOL    HW133152   3.064   2.217   8.384 -0.8124  0.8601 -0.6395
 7172SOL    HW233153   2.955   2.107   8.375 -0.0085  0.4198 -1.8378
 7173SOL     OW33154   4.275   4.177  12.804  0.0779  0.3372  0.1946
 7173SOL    HW133155   4.249   4.138  12.888 -2.3797  1.3400 -0.1200
 7173SOL    HW233156   4.238   4.263  12.820  2.1403  0.9886  1.5923
 7174SOL     OW33157   2.847   0.289  12.908  0.3047  0.2514 -0.1968
 7174SOL    HW133158   2.883   0.248  12.986  2.3747 -0.0643 -1.3082
 7174SOL    HW233159   2.778   0.225  12.890 -2.9109  3.7567 -0.2449
 7175SOL     OW33160   1.281   1.665  10.242 -0.0378 -0.1417  0.0449
 7175SOL    HW133161   1.331   1.609  10.302  0.5610  0.4789  0.1291
 7175SOL    HW233162   1.309   1.651  10.152  1.2830 -0.6675  0.5326
 7176SOL     OW33163   4.072   4.199  10.241  0.1516 -0.4500 -0.1341
 7176SOL    HW133164   4.038   4.110  10.242  2.0034 -1.1407  2.5177
 7176SOL    HW233165   4.161   4.188  10.208  0.0569 -0.8228 -0.2620
 7177SOL     OW33166   3.689   0.173   7.114 -0.3861 -0.1606  0.2408
 7177SOL    HW133167   3.667   0.198   7.204  0.3301  1.5127 -0.0605
 7177SOL    HW233168   3.779   0.142   7.113 -0.0842  0.5781  2.7038
 7178SOL     OW33169   3.195   1.268  14.554  0.0772 -0.3001 -0.6958
 7178SOL    HW133170   3.152   1.214  14.488  0.2055 -1.8546  0.4881
 7178SOL    HW233171   3.272   1.218  14.583 -0.4599  0.2246  1.6555
 7179SOL     OW33172   4.384   3.820   4.255  0.4114  0.0403 -0.4089
 7179SOL    HW133173   4.323   3.773   4.312  1.6339 -1.4411 -0.3390
 7179SOL    HW233174   4.339   3.795   4.175  0.9241 -0.1495 -0.6338
 7180SOL     OW33175   3.900   1.531   5.126  0.2380  0.2752 -0.3823
 7180SOL    HW133176   3.993   1.512   5.120  0.0132 -0.3166 -1.8742
 7180SOL    HW233177   3.872   1.492   5.043 -1.4425 -0.3903  0.4962
 7181SOL     OW33178   1.400   3.898  12.295 -0.9345  0.1638  0.0536
 7181SOL    HW133179   1.376   3.939  12.378  0.2320  0.3651  0.2913
 7181SOL    HW233180   1.340   3.824  12.294  1.6453 -1.9133 -0.0991
 7182SOL     OW33181   1.611   2.338  12.337 -0.3717 -0.4407 -0.5734
 7182SOL    HW133182   1.533   2.356  12.284 -1.0005  0.7486  0.7434
 7182SOL    HW233183   1.672   2.306  12.270 -0.7610  0.7180 -1.4873
 7183SOL     OW33184   0.869   2.810  13.386  0.8082 -0.3286  0.2457
 7183SOL    HW133185   0.938   2.758  13.344  0.0922 -1.3745  0.3691
 7183SOL    HW233186   0.807   2.819  13.314  0.9474 -1.8133 -0.0587
 7184SOL     OW33187   0.026   4.004   7.848  0.3903 -0.6262  0.4789
 7184SOL    HW133188   0.008   3.951   7.770  0.2535 -2.2148  1.5746
 7184SOL    HW233189   4.683   4.060   7.844  0.1833 -0.8749  0.9835
 7185SOL     OW33190   4.528   4.285   8.756 -0.3966 -0.0639 -0.3775
 7185SOL    HW133191   4.615   4.264   8.790 -1.0785  1.9026  2.5777
 7185SOL    HW233192   4.477   4.244   8.826 -1.8872 -1.0460 -2.0568
 7186SOL     OW33193   1.502   0.676  15.567  0.1968  0.3414 -0.1191
 7186SOL    HW133194   1.474   0.713  15.651  1.1901  0.2710  0.2474
 7186SOL    HW233195   1.475   0.747  15.509 -0.0004  1.4145  1.2851
 7187SOL     OW33196   3.333   0.288   8.144  0.1749 -0.1022 -0.0272
 7187SOL    HW133197   3.377   0.373   8.142  0.0822  0.0351  4.1803
 7187SOL    HW233198   3.400   0.222   8.127 -0.9013 -1.3394  0.5515
 7188SOL     OW33199   4.691   1.862   6.700  0.6012  0.1731 -0.5538
 7188SOL    HW133200   4.625   1.801   6.732  0.5413  0.5390  0.0177
 7188SOL    HW233201   4.707   1.829   6.611  0.1336  2.5037 -1.5106
 7189SOL     OW33202   0.082   3.980   5.480  0.2653 -0.0572  0.7707
 7189SOL    HW133203   0.146   3.932   5.427 -1.6447 -0.4859 -1.1433
 7189SOL    HW233204   4.733   3.953   5.442  0.5313  1.2284 -0.7410
 7190SOL     OW33205   1.111   3.104   2.158 -0.0839 -0.3254  0.3281
 7190SOL    HW133206   1.094   3.071   2.070  0.4576 -0.0311  0.1109
 7190SOL    HW233207   1.046   3.174   2.155 -0.6100 -0.8175  0.3572
 7191SOL     OW33208   1.318   3.168   4.312 -0.2533 -0.1976 -0.6385
 7191SOL    HW133209   1.319   3.220   4.231  1.1462 -0.7187 -0.9546
 7191SOL    HW233210   1.313   3.084   4.268 -1.4815  1.3600 -3.5203
 7192SOL     OW33211   3.725   3.961   4.249 -0.8171 -0.7605 -0.1530
 7192SOL    HW133212   3.783   3.947   4.324  2.8229 -0.2477 -2.9210
 7192SOL    HW233213   3.649   3.908   4.275  0.4500 -1.5321  1.9451
 7193SOL     OW33214   2.814   2.752   1.597 -0.3445  0.2871 -0.1574
 7193SOL    HW133215   2.904   2.744   1.629 -0.4948  0.6723  0.3543
 7193SOL    HW233216   2.791   2.659   1.593 -1.3637  0.5792 -1.2297
 7194SOL     OW33217   0.788   3.836   6.612 -0.2781  0.1574  0.0852
 7194SOL    HW133218   0.699   3.841   6.577 -1.4582  2.4839  3.3623
 7194SOL    HW233219   0.839   3.818   6.533 -0.2757  2.3229 -0.4022
 7195SOL     OW33220   4.471   0.734  16.735  0.0169  0.9093 -0.1021
 7195SOL    HW133221   4.543   0.714  16.796  0.1573  0.9304 -0.2608
 7195SOL    HW233222   4.394   0.705  16.784 -0.4929  1.0186 -0.8479
 7196SOL     OW33223   4.543   0.661   8.634  0.0508  0.6292  0.2808
 7196SOL    HW133224   4.529   0.575   8.673 -0.1837  0.9665  0.9324
 7196SOL    HW233225   4.552   0.715   8.713 -1.6369  0.7188  0.4086
 7197SOL     OW33226   1.001   4.541  17.220 -0.0032  0.1369  0.0636
 7197SOL    HW133227   1.020   4.621  17.268 -0.7206  1.4829 -1.8956
 7197SOL    HW233228   0.930   4.571  17.164 -1.0962 -0.5723  1.0623
 7198SOL     OW33229   1.351   0.502   3.836 -0.2690 -0.0699  0.2234
 7198SOL    HW133230   1.257   0.484   3.831 -0.2347  0.3053 -1.8447
 7198SOL    HW233231   1.394   0.422   3.866 -0.0466 -0.5571 -1.3624
 7199SOL     OW33232   4.488   3.155   6.034 -0.1742 -0.1508 -0.2523
 7199SOL    HW133233   4.488   3.153   6.130 -1.4780 -0.9897 -0.2754
 7199SOL    HW233234   4.396   3.174   6.015 -0.7898 -1.7291  1.1918
 7200SOL     OW33235   2.542   1.148   0.552 -0.1155  0.0955 -0.4667
 7200SOL    HW133236   2.594   1.173   0.628  1.2667  1.8075 -1.9471
 7200SOL    HW233237   2.549   1.053   0.547 -0.2053  0.0588  0.1818
 7201SOL     OW33238   2.630   3.012  10.864 -0.1648  0.1336 -0.2780
 7201SOL    HW133239   2.553   3.031  10.810 -0.9215  2.2129  1.5374
 7201SOL    HW233240   2.672   3.098  10.856  1.0478 -0.2904  1.5120
 7202SOL     OW33241   0.088   4.546   8.867  0.3612 -0.3754 -0.1357
 7202SOL    HW133242   0.056   4.562   8.956 -0.3515 -3.2929  0.1199
 7202SOL    HW233243   0.028   4.477   8.839 -0.5746 -1.3526  4.3338
 7203SOL     OW33244   2.322   2.664   2.627 -0.2013  0.3820  0.0594
 7203SOL    HW133245   2.352   2.712   2.550  0.8073  0.3231  0.4102
 7203SOL    HW233246   2.257   2.604   2.589  0.1405 -0.2835  0.5244
 7204SOL     OW33247   3.792   0.852   2.429  0.2329  0.8470  0.0015
 7204SOL    HW133248   3.757   0.857   2.518 -1.0941  0.1766 -0.4825
 7204SOL    HW233249   3.714   0.836   2.376  0.2361  1.0171 -0.0551
 7205SOL     OW33250   2.174   0.922  10.355 -0.1686  0.5372  0.3959
 7205SOL    HW133251   2.233   0.930  10.430  2.1748  0.0181 -1.3997
 7205SOL    HW233252   2.244   0.914  10.290 -0.5762 -0.4377  0.0806
 7206SOL     OW33253   3.660   0.680   9.195  0.6389 -0.4631  0.4161
 7206SOL    HW133254   3.702   0.731   9.265  0.6698  0.1589 -0.0537
 7206SOL    HW233255   3.681   0.731   9.117  1.1653 -1.6546 -0.2207
 7207SOL     OW33256   4.029   3.252   6.682 -0.1032  0.3022 -0.9847
 7207SOL    HW133257   4.087   3.329   6.687 -1.4545  1.2402  0.1208
 7207SOL    HW233258   4.071   3.204   6.610 -2.1069  0.3726 -2.1949
 7208SOL     OW33259   3.195   0.641   2.729 -0.4028 -0.1629  0.0331
 7208SOL    HW133260   3.121   0.582   2.711  0.5193 -0.3939 -2.9942
 7208SOL    HW233261   3.161   0.690   2.804  2.1241  2.1923 -0.3695
 7209SOL     OW33262   4.138   3.652   8.514 -0.0669 -0.0439 -0.0299
 7209SOL    HW133263   4.136   3.681   8.423  0.4708  1.3173  0.3861
 7209SOL    HW233264   4.209   3.708   8.548 -0.7416  1.0372 -0.3843
 7210SOL     OW33265   1.812   4.158   3.128  0.1452  0.2739  0.5078
 7210SOL    HW133266   1.738   4.122   3.080  0.1920  1.3858 -0.3827
 7210SOL    HW233267   1.831   4.080   3.181 -1.6408 -1.2851 -1.1201
 7211SOL     OW33268   0.315   3.473   3.617  0.2989 -0.4158  0.2019
 7211SOL    HW133269   0.292   3.553   3.666 -0.0463 -0.0019 -0.6401
 7211SOL    HW233270   0.274   3.412   3.678  3.6083 -2.2354  0.6167
 7212SOL     OW33271   1.017   4.581   2.399  0.1402  0.1819 -0.0804
 7212SOL    HW133272   1.076   4.609   2.329  1.3514 -1.5658  0.2320
 7212SOL    HW233273   1.059   4.499   2.427 -0.7505  0.4187  1.8997
 7213SOL     OW33274   2.578   2.509  12.409  0.0690 -0.1785  0.2212
 7213SOL    HW133275   2.661   2.557  12.416 -0.5212  0.4639  2.7920
 7213SOL    HW233276   2.574   2.481  12.317 -0.4139  2.6348 -0.6079
 7214SOL     OW33277   4.415   2.445   5.483  0.3193  0.2589  0.1637
 7214SOL    HW133278   4.481   2.401   5.536  2.6016  1.4847 -1.6621
 7214SOL    HW233279   4.467   2.448   5.403  0.2789 -1.4329  0.0927
 7215SOL     OW33280   0.704   1.060  17.084  0.3726  0.5207 -0.2397
 7215SOL    HW133281   0.720   1.123  17.153  1.3996 -1.7595  1.6128
 7215SOL    HW233282   0.722   1.116  17.008  1.0323 -1.5639 -1.6474
 7216SOL     OW33283   0.740   0.664   9.484 -0.0372 -0.1539 -0.2405
 7216SOL    HW133284   0.779   0.600   9.544  0.2048  1.7654  1.6423
 7216SOL    HW233285   0.664   0.698   9.532  0.5400  0.0446  0.5335
 7217SOL     OW33286   2.701   2.092   4.879  0.3770 -0.1578  0.0812
 7217SOL    HW133287   2.682   2.144   4.957 -2.8884 -2.3165  0.7664
 7217SOL    HW233288   2.620   2.109   4.830  1.7488 -0.1833 -2.2258
 7218SOL     OW33289   3.964   2.423   4.000  0.1772 -0.0006 -0.3682
 7218SOL    HW133290   4.013   2.351   3.961  0.0541 -0.3980  0.2089
 7218SOL    HW233291   4.015   2.500   3.975  0.8956 -0.2844  0.2244
 7219SOL     OW33292   0.270   2.888  11.825 -0.4535 -0.2730 -0.1466
 7219SOL    HW133293   0.239   2.879  11.915  1.4991  1.3708  0.7016
 7219SOL    HW233294   0.356   2.928  11.840 -0.9185  0.9296 -0.6995
 7220SOL     OW33295   1.185   1.583  10.871 -0.0514  0.4609  0.2122
 7220SOL    HW133296   1.246   1.578  10.798  0.3423  0.1669  0.5586
 7220SOL    HW233297   1.221   1.659  10.917 -0.4038  0.5642  0.3177
 7221SOL     OW33298   3.318   4.149   5.271  0.7736 -0.2354 -0.2173
 7221SOL    HW133299   3.227   4.117   5.271  0.9847 -0.8518 -1.1944
 7221SOL    HW233300   3.375   4.073   5.284 -1.6556 -2.0835 -0.2401
 7222SOL     OW33301   2.697   0.278   7.064  0.0391 -0.5707 -0.3653
 7222SOL    HW133302   2.661   0.237   7.143  0.9175 -0.2070  0.2229
 7222SOL    HW233303   2.741   0.356   7.097  2.5330 -1.8577 -0.6119
 7223SOL     OW33304   1.183   1.574   8.513 -0.2267 -0.2909 -0.6413
 7223SOL    HW133305   1.261   1.529   8.546 -0.1268  0.0796 -0.3726
 7223SOL    HW233306   1.116   1.542   8.572  0.5909 -1.0019 -0.1075
 7224SOL     OW33307   0.068   1.418   2.677  0.1627  0.3447  0.3548
 7224SOL    HW133308   0.029   1.448   2.595  0.5273 -0.1587 -0.0008
 7224SOL    HW233309   0.159   1.441   2.658 -0.4073  0.8442 -1.7530
 7225SOL     OW33310   1.347   0.736   2.790  0.3805 -0.4028  0.0220
 7225SOL    HW133311   1.338   0.780   2.874  1.4674 -1.2148  0.5611
 7225SOL    HW233312   1.433   0.694   2.786  1.8141  2.5366 -0.0364
 7226SOL     OW33313   1.942   4.320   4.575  0.1626 -0.1779  0.3361
 7226SOL    HW133314   2.001   4.393   4.588  2.0100 -1.4562 -0.8589
 7226SOL    HW233315   1.995   4.251   4.615  2.4645  1.5629  0.2472
 7227SOL     OW33316   0.122   0.010   0.742 -0.2002  0.1901 -0.2318
 7227SOL    HW133317   0.083   0.026   0.656 -0.7497  1.9523  0.3491
 7227SOL    HW233318   0.150   4.656   0.719  1.3829  0.5336  0.3485
 7228SOL     OW33319   2.667   4.495   0.527 -0.7514  0.5069  0.3117
 7228SOL    HW133320   2.734   4.426   0.529  0.0460  1.3200  1.9134
 7228SOL    HW233321   2.695   4.537   0.446 -1.9300  1.3110  0.3335
 7229SOL     OW33322   2.016   4.039   6.571  0.3066  0.7184 -1.0238
 7229SOL    HW133323   2.074   4.116   6.570  0.2947  0.7315 -0.7574
 7229SOL    HW233324   2.063   3.997   6.643 -0.4288  0.0566 -0.9310
 7230SOL     OW33325   0.496   0.123   1.812  0.3910  0.6582  0.0744
 7230SOL    HW133326   0.524   0.090   1.898  1.0558  0.8300 -0.0779
 7230SOL    HW233327   0.577   0.139   1.764  0.5991 -0.9167 -0.0816
 7231SOL     OW33328   1.252   0.624  13.138 -0.8320  0.3743 -0.0502
 7231SOL    HW133329   1.307   0.656  13.209 -1.8575 -0.1163  0.9587
 7231SOL    HW233330   1.313   0.634  13.065 -0.5580 -0.2941  0.0880
 7232SOL     OW33331   4.169   3.164   4.861 -0.2606  0.0745 -0.4236
 7232SOL    HW133332   4.188   3.180   4.953 -2.0008 -0.3322  0.0046
 7232SOL    HW233333   4.203   3.247   4.829 -2.0707  0.3142 -1.7032
 7233SOL     OW33334   1.878   4.726  17.698  0.1551  0.0070 -0.2350
 7233SOL    HW133335   1.839   0.011  17.613  1.7026 -1.2411 -1.2366
 7233SOL    HW233336   1.874   4.630  17.696 -0.1139  0.0479 -1.2767
 7234SOL     OW33337   4.350   2.886  11.830 -0.1013 -0.4026 -0.4013
 7234SOL    HW133338   4.296   2.845  11.898  0.0568 -1.4683 -0.9095
 7234SOL    HW233339   4.399   2.939  11.893  0.1485 -0.1107 -0.8393
 7235SOL     OW33340   0.731   4.273  17.330 -0.1590  0.1157  0.0437
 7235SOL    HW133341   0.713   4.210  17.400 -2.4935  0.9299  0.1494
 7235SOL    HW233342   0.643   4.275  17.294 -0.9007  2.3962  1.9841
 7236SOL     OW33343   2.271   3.698   9.007 -0.3529 -0.1381 -0.1738
 7236SOL    HW133344   2.299   3.608   8.996  1.4518  0.4270 -0.1863
 7236SOL    HW233345   2.356   3.740   9.023  0.5682 -1.5707 -1.2975
 7237SOL     OW33346   1.150   0.987   7.833  0.7999  0.1516  0.3146
 7237SOL    HW133347   1.196   1.071   7.825  1.5849 -0.3915 -0.9066
 7237SOL    HW233348   1.200   0.937   7.769 -1.0655 -1.5715  0.2080
 7238SOL     OW33349   2.425   4.473  11.384 -0.4176  0.2431 -0.0054
 7238SOL    HW133350   2.467   4.538  11.328 -0.1808 -1.1727 -1.4862
 7238SOL    HW233351   2.380   4.531  11.444 -1.1799 -0.4773  0.1167
 7239SOL     OW33352   3.397   4.014   1.860 -0.0779  0.2177  0.1088
 7239SOL    HW133353   3.367   4.006   1.950 -2.4988  1.3171 -0.6035
 7239SOL    HW233354   3.393   4.108   1.842  0.5514  0.6300  2.1920
 7240SOL     OW33355   2.652   3.464   1.855 -0.0147 -0.2965  0.5335
 7240SOL    HW133356   2.627   3.372   1.861  0.6136 -0.3659  2.1705
 7240SOL    HW233357   2.743   3.477   1.882  0.5507 -0.3782 -1.3562
 7241SOL     OW33358   1.657   0.536   9.400 -0.3534 -0.3205  0.6591
 7241SOL    HW133359   1.678   0.510   9.311 -0.8989  0.9437  0.1685
 7241SOL    HW233360   1.594   0.467   9.426 -0.2718 -0.5300  0.2996
 7242SOL     OW33361   0.044   2.018  14.684 -0.2552 -0.0505  0.0738
 7242SOL    HW133362   0.128   2.012  14.729 -1.0598 -0.3797  1.5383
 7242SOL    HW233363   0.045   1.933  14.640 -1.6759 -0.6181  1.1327
 7243SOL     OW33364   2.160   2.580   8.837  0.4909  0.1864  0.1038
 7243SOL    HW133365   2.208   2.606   8.758  0.6768  0.6954  0.3908
 7243SOL    HW233366   2.086   2.639   8.849  0.3139  0.0455 -0.2851
 7244SOL     OW33367   2.010   3.202  17.078  0.5035  0.6423 -0.2698
 7244SOL    HW133368   1.945   3.259  17.119  0.4047  0.0541  0.3842
 7244SOL    HW233369   2.006   3.226  16.985  0.6936 -2.3626 -1.0587
 7245SOL     OW33370   3.237   0.242   7.452  0.1927 -0.5028 -0.2560
 7245SOL    HW133371   3.157   0.253   7.401  0.9137  0.8044 -1.0887
 7245SOL    HW233372   3.275   0.162   7.416  0.5025 -0.5862  0.2560
 7246SOL     OW33373   2.911   4.456   0.282  0.5904  0.1974 -0.4941
 7246SOL    HW133374   2.870   4.533   0.242  0.1690  0.1382 -0.1755
 7246SOL    HW233375   2.869   4.385   0.233  1.3148 -1.6729  1.6041
 7247SOL     OW33376   0.855   3.839  13.343 -0.1814 -0.2505 -0.5038
 7247SOL    HW133377   0.868   3.771  13.276  2.1837 -0.1498 -0.1367
 7247SOL    HW233378   0.923   3.896  13.308  1.3931 -2.1294 -0.5334
 7248SOL     OW33379   1.199   2.524   8.433  0.2987 -0.5394 -0.8332
 7248SOL    HW133380   1.235   2.588   8.372  4.0056  0.2235  2.1822
 7248SOL    HW233381   1.232   2.443   8.393 -1.4466 -0.8466 -1.6827
 7249SOL     OW33382   2.653   0.761  11.923 -0.5797  0.4850  0.2519
 7249SOL    HW133383   2.622   0.764  11.833  0.5269  1.0775 -0.1057
 7249SOL    HW233384   2.576   0.795  11.970 -2.2239  0.0309 -2.1428
 7250SOL     OW33385   1.650   3.666   9.528 -0.5704  0.0959  0.1151
 7250SOL    HW133386   1.600   3.627   9.455  0.8152  1.0252 -1.3299
 7250SOL    HW233387   1.737   3.631   9.509 -0.5524  0.3415 -0.2589
 7251SOL     OW33388   0.368   2.289  11.910 -0.2507 -0.3124  0.0230
 7251SOL    HW133389   0.323   2.205  11.919 -2.6584  0.8761 -1.1659
 7251SOL    HW233390   0.440   2.290  11.974 -0.7676 -3.8620  0.6787
 7252SOL     OW33391   0.891   3.227  12.087 -0.0493 -0.0739  0.1591
 7252SOL    HW133392   0.824   3.163  12.062 -0.2714  0.5122 -0.7543
 7252SOL    HW233393   0.935   3.249  12.005 -1.0867 -1.3080 -0.7374
 7253SOL     OW33394   3.114   0.450  13.307 -0.2794 -0.1597  0.0822
 7253SOL    HW133395   3.126   0.420  13.217  2.0846 -0.4325  0.5039
 7253SOL    HW233396   3.117   0.372  13.363 -2.8163  0.5851  1.2462
 7254SOL     OW33397   3.828   0.358   1.314 -0.1103 -0.0928  0.4333
 7254SOL    HW133398   3.825   0.265   1.290 -0.7912  0.0993 -0.2390
 7254SOL    HW233399   3.847   0.397   1.229 -0.3036  0.5845  0.7046
 7255SOL     OW33400   4.577   1.076   9.481 -0.2303  0.0045  0.0390
 7255SOL    HW133401   4.643   1.092   9.413 -0.1137 -1.8981 -0.3133
 7255SOL    HW233402   4.594   1.152   9.536 -0.3948  1.7571 -2.3502
 7256SOL     OW33403   0.946   3.889  15.534 -0.2838 -0.5514  0.1531
 7256SOL    HW133404   0.880   3.943  15.491 -0.0637 -1.5224 -1.3860
 7256SOL    HW233405   0.987   3.949  15.597 -0.3914 -0.4688  0.1446
 7257SOL     OW33406   2.166   4.645  11.297  0.5030  0.1046  0.0405
 7257SOL    HW133407   2.207   4.729  11.321 -0.1404  0.5150 -0.2903
 7257SOL    HW233408   2.169   4.594  11.378 -0.3229 -0.4397 -0.2850
 7258SOL     OW33409   3.289   4.035   3.525 -0.4832  0.4509 -0.1864
 7258SOL    HW133410   3.284   3.961   3.585 -3.2823  0.0157 -0.9489
 7258SOL    HW233411   3.383   4.049   3.522 -0.2446 -1.2427 -0.6160
 7259SOL     OW33412   0.911   1.133   2.922  0.2103  0.7411 -0.3776
 7259SOL    HW133413   0.820   1.148   2.899  0.1685 -0.8486 -1.1940
 7259SOL    HW233414   0.933   1.083   2.844  0.8812  1.7056 -0.8052
 7260SOL     OW33415   1.251   3.303   0.692  0.0983  0.1507  0.4003
 7260SOL    HW133416   1.299   3.329   0.613 -1.2521  0.4771 -0.3158
 7260SOL    HW233417   1.186   3.253   0.642  1.9420 -1.2439 -0.6148
 7261SOL     OW33418   3.154   3.087  14.706  0.0484 -0.1671 -0.2691
 7261SOL    HW133419   3.241   3.083  14.744 -0.3981 -1.3247  0.6399
 7261SOL    HW233420   3.126   2.998  14.727 -0.1588  0.1223  0.6980
 7262SOL     OW33421   4.269   2.889   8.099 -0.2857  0.4004 -0.2995
 7262SOL    HW133422   4.198   2.953   8.093 -0.0533  0.8390  1.6039
 7262SOL    HW233423   4.325   2.932   8.163  0.8462 -1.0416 -0.3400
 7263SOL     OW33424   4.082   4.026   7.220  0.1567 -0.2814  0.2478
 7263SOL    HW133425   4.069   4.058   7.310 -0.8140  1.2244 -0.4393
 7263SOL    HW233426   4.070   3.931   7.226 -0.3329 -0.3131 -1.3115
 7264SOL     OW33427   0.354   2.188   3.122 -0.2976  0.1127  0.5664
 7264SOL    HW133428   0.261   2.168   3.115 -0.3604  0.7861 -0.5612
 7264SOL    HW233429   0.349   2.276   3.085 -0.4564 -0.1716 -0.0988
 7265SOL     OW33430   3.969   4.255   2.577 -0.0286  0.1066  0.0113
 7265SOL    HW133431   4.017   4.326   2.618 -1.5342  2.4861 -2.3772
 7265SOL    HW233432   3.964   4.194   2.651  0.8385  1.7514  1.4172
 7266SOL     OW33433   3.219   2.632  13.495  0.2841 -0.0749  0.3485
 7266SOL    HW133434   3.188   2.699  13.556  1.1129  0.7730 -0.1652
 7266SOL    HW233435   3.253   2.565  13.555 -2.3828 -0.2138  1.7187
 7267SOL     OW33436   0.947   2.823  10.157 -0.2282 -0.0934  0.0537
 7267SOL    HW133437   1.023   2.774  10.189 -0.7519 -1.4858 -0.8870
 7267SOL    HW233438   0.945   2.803  10.064  1.7709  0.7468 -0.1775
 7268SOL     OW33439   3.102   2.874   5.334 -0.5803 -0.0491  0.2271
 7268SOL    HW133440   3.115   2.801   5.395  0.4280 -0.3972 -0.3969
 7268SOL    HW233441   3.111   2.837   5.246 -0.4060  2.0792 -0.6328
 7269SOL     OW33442   4.479   2.676   1.808 -0.2541  0.5506  0.2231
 7269SOL    HW133443   4.544   2.607   1.808  0.1675  0.9399  2.3915
 7269SOL    HW233444   4.437   2.665   1.723  1.0572 -0.8535 -0.2250
 7270SOL     OW33445   0.055   3.218  15.222  0.0867 -0.3303 -0.0069
 7270SOL    HW133446   0.083   3.296  15.269 -0.8849 -1.5546  2.6260
 7270SOL    HW233447   0.105   3.224  15.140  1.0220 -1.2209  0.4898
 7271SOL     OW33448   0.116   4.592  10.833  0.0299 -0.2905 -0.3956
 7271SOL    HW133449   0.046   4.584  10.898 -1.8002 -1.3439 -2.5146
 7271SOL    HW233450   0.079   4.541  10.762 -0.2996  0.5665 -0.8367
 7272SOL     OW33451   0.036   4.395   5.979  0.1315  0.3823  0.0343
 7272SOL    HW133452   4.709   4.468   5.990  0.2677  0.5951 -0.6468
 7272SOL    HW233453   4.719   4.318   6.000  2.5516 -0.9342  1.2073
 7273SOL     OW33454   0.246   4.438   5.820 -0.1001  0.1707 -0.1648
 7273SOL    HW133455   0.211   4.513   5.773  2.1564  1.6358  0.4834
 7273SOL    HW233456   0.173   4.418   5.879  0.4011 -1.7072 -0.1796
 7274SOL     OW33457   3.415   0.762   3.935  0.2171  0.0524  0.2010
 7274SOL    HW133458   3.335   0.720   3.966  0.4071 -1.0288 -0.7689
 7274SOL    HW233459   3.399   0.855   3.948  0.8982  0.0565  1.0256
 7275SOL     OW33460   1.834   4.102   4.436  0.0075 -0.0745  0.5238
 7275SOL    HW133461   1.905   4.038   4.431  0.0084 -0.0216 -0.1047
 7275SOL    HW233462   1.883   4.183   4.450 -0.2813  0.0110  1.0094
 7276SOL     OW33463   1.616   3.133   4.010  0.0498 -0.5386 -0.2537
 7276SOL    HW133464   1.640   3.109   4.100 -3.2865  1.2025  1.0990
 7276SOL    HW233465   1.665   3.076   3.951 -0.3867  0.5673 -1.6765
 7277SOL     OW33466   0.974   2.834  16.316 -0.0158 -0.2399 -0.0132
 7277SOL    HW133467   0.975   2.914  16.264 -0.1883 -0.0454  0.2828
 7277SOL    HW233468   0.890   2.794  16.294  0.1934  0.6509 -2.3426
 7278SOL     OW33469   0.773   3.911   5.719 -0.1926  0.4692 -0.0383
 7278SOL    HW133470   0.779   3.818   5.738  2.8465  0.1869 -2.3577
 7278SOL    HW233471   0.823   3.933   5.640 -0.8833  0.6138 -0.4366
 7279SOL     OW33472   4.042   1.794   6.088 -0.4445 -0.1094  0.3512
 7279SOL    HW133473   4.137   1.784   6.098 -0.4893  0.2496  1.1496
 7279SOL    HW233474   4.031   1.884   6.058 -0.0306 -1.1510 -2.9695
 7280SOL     OW33475   3.889   2.421  10.225 -0.1582 -0.6317 -0.1732
 7280SOL    HW133476   3.962   2.473  10.258  0.0889 -0.3995 -1.0671
 7280SOL    HW233477   3.873   2.468  10.143  0.1124 -0.9457 -0.4068
 7281SOL     OW33478   2.002   0.923   4.312 -0.6699 -0.1076  0.0754
 7281SOL    HW133479   1.916   0.947   4.279 -1.0938 -0.0682  1.2168
 7281SOL    HW233480   1.995   0.833   4.343  0.7002 -0.3077 -0.1772
 7282SOL     OW33481   2.794   0.547   4.898  0.4069 -0.5930 -0.2085
 7282SOL    HW133482   2.888   0.562   4.912  0.1646  1.7624 -1.1694
 7282SOL    HW233483   2.790   0.458   4.933  0.9234 -0.1900  0.8607
 7283SOL     OW33484   1.502   1.282   0.587 -0.2954  0.2416  0.0497
 7283SOL    HW133485   1.534   1.299   0.676  0.5062 -3.0492  0.3718
 7283SOL    HW233486   1.436   1.217   0.610 -2.5665  2.7623  0.6556
 7284SOL     OW33487   2.317   4.070   2.925 -0.4940  0.6297  0.0182
 7284SOL    HW133488   2.262   4.028   2.859 -1.8029  2.9778 -0.3686
 7284SOL    HW233489   2.387   4.099   2.867 -0.5914  1.1426  0.1588
 7285SOL     OW33490   4.243   4.715   6.051 -0.0443 -0.3573  0.1437
 7285SOL    HW133491   4.328   0.018   6.074 -0.9023  0.0535  2.7169
 7285SOL    HW233492   4.187   0.014   6.121 -0.2446 -2.2879  0.8944
 7286SOL     OW33493   1.122   4.229  12.912 -0.0911  0.6509  0.3991
 7286SOL    HW133494   1.130   4.189  12.999 -0.5048  1.9413  1.0236
 7286SOL    HW233495   1.031   4.209  12.888  1.0430 -2.0740 -1.6620
 7287SOL     OW33496   1.917   3.974   4.833 -0.2205 -0.2063  0.1584
 7287SOL    HW133497   1.918   3.888   4.791  2.3440  1.0986 -2.5176
 7287SOL    HW233498   1.919   3.959   4.927 -0.1319 -1.2329 -0.0129
 7288SOL     OW33499   2.165   1.185   3.078 -0.1461 -0.3772 -0.3508
 7288SOL    HW133500   2.146   1.275   3.106 -0.1008 -1.1866  2.2857
 7288SOL    HW233501   2.097   1.137   3.126  0.2003 -0.4185  0.0927
 7289SOL     OW33502   2.865   3.229   7.772 -0.0383  0.4606 -0.1283
 7289SOL    HW133503   2.911   3.240   7.855  0.3847  2.0066 -0.5656
 7289SOL    HW233504   2.775   3.243   7.801  0.8769  3.8167  1.1032
 7290SOL     OW33505   0.398   1.420  14.048  0.1202 -0.1050 -0.1157
 7290SOL    HW133506   0.400   1.360  14.122 -1.4079  0.1507  0.1321
 7290SOL    HW233507   0.323   1.479  14.056  0.8507  0.7995  0.1551
 7291SOL     OW33508   0.945   1.001   0.870 -0.2804 -0.3332  0.3630
 7291SOL    HW133509   0.877   0.934   0.856 -1.9383  1.3546  0.2553
 7291SOL    HW233510   0.904   1.058   0.935 -0.1537  1.2519 -0.9582
 7292SOL     OW33511   0.925   0.381   5.239  0.3820  0.4973  0.1834
 7292SOL    HW133512   0.980   0.357   5.164 -0.0499 -0.5072  0.1930
 7292SOL    HW233513   0.836   0.376   5.205  0.4651  0.8950 -0.0963
 7293SOL     OW33514   3.872   3.844   2.370 -0.2155 -0.2597 -0.8013
 7293SOL    HW133515   3.852   3.936   2.385 -1.7258 -0.8153  0.5577
 7293SOL    HW233516   3.813   3.830   2.296 -0.8604  2.5619 -0.8381
 7294SOL     OW33517   0.281   4.266   5.292 -0.1235  0.2274  0.1296
 7294SOL    HW133518   0.220   4.338   5.274 -2.3601 -1.7111  0.0150
 7294SOL    HW233519   0.314   4.306   5.373 -0.2486 -1.8899  1.2146
 7295SOL     OW33520   4.465   2.874   3.907 -0.3773  0.2123  0.7350
 7295SOL    HW133521   4.521   2.948   3.929 -1.8591  0.8463  2.3103
 7295SOL    HW233522   4.392   2.920   3.866 -0.8894 -1.4327 -0.1887
 7296SOL     OW33523   1.242   4.545  12.658  0.1158 -0.4928 -0.3145
 7296SOL    HW133524   1.291   4.606  12.712  1.2217 -0.2914 -1.5346
 7296SOL    HW233525   1.272   4.468  12.706  2.8257  0.3824 -0.6263
 7297SOL     OW33526   3.480   0.821   0.343  0.2043  0.4968 -0.3852
 7297SOL    HW133527   3.545   0.793   0.408  1.1264  2.1589 -0.5773
 7297SOL    HW233528   3.529   0.780   0.272  0.0336 -1.1541  0.4623
 7298SOL     OW33529   3.342   4.216   9.460 -0.3971  0.6403  0.1832
 7298SOL    HW133530   3.338   4.214   9.364 -0.3129  1.4203  0.1649
 7298SOL    HW233531   3.432   4.187   9.476 -0.7299  0.1335  1.1404
 7299SOL     OW33532   0.674   3.945   2.659 -0.1073 -0.0051 -0.2253
 7299SOL    HW133533   0.754   3.949   2.710  0.3550  0.3687 -0.9728
 7299SOL    HW233534   0.700   3.862   2.620 -1.8247 -1.0602  0.8684
 7300SOL     OW33535   1.596   1.286   6.882  0.7376 -0.4850  0.0018
 7300SOL    HW133536   1.642   1.317   6.960 -0.8591 -1.0277  1.1633
 7300SOL    HW233537   1.666   1.224   6.861  1.6978  0.9212 -0.9474
 7301SOL     OW33538   2.054   0.720   7.491 -0.0336 -0.1100 -0.0181
 7301SOL    HW133539   2.149   0.713   7.491 -0.1455 -1.4701  3.3662
 7301SOL    HW233540   2.029   0.648   7.433 -0.4110 -1.3473  1.6682
 7302SOL     OW33541   4.510   2.629   0.480 -0.5050  0.0366  0.4734
 7302SOL    HW133542   4.557   2.664   0.405  1.2182 -1.4553  0.8758
 7302SOL    HW233543   4.564   2.552   0.498 -1.9679 -0.8721  0.9962
 7303SOL     OW33544   2.280   4.298   7.943 -0.0745 -0.2295 -0.0453
 7303SOL    HW133545   2.250   4.278   8.031 -0.2386  1.4529  0.2618
 7303SOL    HW233546   2.200   4.282   7.894  0.1434  0.6803 -0.6982
 7304SOL     OW33547   2.770   2.611  12.635 -0.1573  0.1309 -0.3673
 7304SOL    HW133548   2.695   2.633  12.691  0.5058 -2.5023  1.5440
 7304SOL    HW233549   2.845   2.663  12.662  0.4038 -0.9965  0.2320
 7305SOL     OW33550   2.447   1.948   5.349 -0.4173  0.2117  0.1614
 7305SOL    HW133551   2.380   1.940   5.280  0.0387  0.3779 -0.3022
 7305SOL    HW233552   2.514   1.901   5.298 -1.0569 -1.4099  0.8207
 7306SOL     OW33553   2.284   3.605   3.558 -0.3285 -0.2189  0.1400
 7306SOL    HW133554   2.321   3.639   3.477  1.4037  0.3625  1.1605
 7306SOL    HW233555   2.326   3.519   3.564  0.0935  0.0128  0.5364
 7307SOL     OW33556   2.719   2.671   0.959 -0.1937 -0.5740 -0.5328
 7307SOL    HW133557   2.803   2.707   0.929 -0.4949 -0.6731 -1.4830
 7307SOL    HW233558   2.744   2.627   1.040 -2.9826  1.2645  1.3239
 7308SOL     OW33559   3.674   1.739   1.080  0.6263  0.4223 -0.0115
 7308SOL    HW133560   3.748   1.792   1.109 -0.4857  1.4773  0.9046
 7308SOL    HW233561   3.606   1.756   1.145 -0.5855 -0.5113 -1.0201
 7309SOL     OW33562   1.172   0.294   6.493 -0.1587 -0.0454  0.2568
 7309SOL    HW133563   1.106   0.225   6.484  0.9766 -1.2170  0.9392
 7309SOL    HW233564   1.225   0.254   6.562  1.1264  1.3053  0.0508
 7310SOL     OW33565   4.652   2.147   6.096 -0.1980 -0.1831 -0.2939
 7310SOL    HW133566   4.614   2.201   6.166 -0.7132  1.2735 -1.6965
 7310SOL    HW233567   4.657   2.219   6.033  0.0680 -0.3105 -0.4174
 7311SOL     OW33568   3.010   1.042   4.701 -0.5014 -0.0270  0.5622
 7311SOL    HW133569   3.098   1.078   4.713  0.2827 -1.3904 -1.0728
 7311SOL    HW233570   2.995   1.103   4.629  2.6122 -0.4954 -0.4732
 7312SOL     OW33571   3.292   4.216  16.068 -0.5607  0.2911  0.0049
 7312SOL    HW133572   3.291   4.188  15.976 -0.2569  0.1717  0.0389
 7312SOL    HW233573   3.362   4.160  16.102 -0.9500 -0.9555 -1.2412
 7313SOL     OW33574   1.646   2.340  13.344 -0.5261  0.2608  0.3695
 7313SOL    HW133575   1.578   2.398  13.309  0.2330  2.0980  1.9419
 7313SOL    HW233576   1.636   2.258  13.296 -1.2660 -0.7206  2.1924
 7314SOL     OW33577   3.316   4.640   2.615  0.2714 -0.4604 -0.6589
 7314SOL    HW133578   3.316   4.672   2.706 -0.1875 -0.1926 -0.7517
 7314SOL    HW233579   3.410   4.640   2.598  0.2764 -0.3537 -0.6340
 7315SOL     OW33580   0.289   0.760  15.975  0.0093  0.3370 -0.0660
 7315SOL    HW133581   0.315   0.671  15.996  0.8392  0.8296  0.9853
 7315SOL    HW233582   0.199   0.755  16.008 -0.8192  0.3635 -2.3285
 7316SOL     OW33583   4.310   3.747   5.085 -0.1268 -0.1495 -0.0518
 7316SOL    HW133584   4.390   3.735   5.034 -0.5460 -0.7557 -0.5721
 7316SOL    HW233585   4.260   3.818   5.044 -2.9149 -1.5571  0.9568
 7317SOL     OW33586   0.943   4.411   5.320  0.3062  0.3785 -0.1179
 7317SOL    HW133587   0.997   4.405   5.399  1.4528 -1.8083 -1.0606
 7317SOL    HW233588   0.970   4.492   5.277 -1.6613  0.2766 -1.5445
 7318SOL     OW33589   0.887   3.151   8.627 -0.7952 -0.9391 -0.3391
 7318SOL    HW133590   0.965   3.115   8.585  1.5079  1.6250  1.6689
 7318SOL    HW233591   0.837   3.075   8.656  0.0598 -1.2759  0.2793
 7319SOL     OW33592   0.336   0.150   4.209  0.1454 -0.3012  0.4174
 7319SOL    HW133593   0.331   0.058   4.232 -0.7199  0.4177  3.0941
 7319SOL    HW233594   0.420   0.147   4.164  0.1851  2.5295  0.2798
 7320SOL     OW33595   0.097   1.623  13.620 -1.0820 -0.4758 -0.6260
 7320SOL    HW133596   0.045   1.690  13.576  0.7967  1.9318  0.8543
 7320SOL    HW233597   0.141   1.596  13.539 -0.6090  1.0981 -0.9012
 7321SOL     OW33598   1.782   1.619   6.139 -0.1898 -0.2685  0.3027
 7321SOL    HW133599   1.687   1.617   6.124 -0.1604  1.8417 -0.1660
 7321SOL    HW233600   1.803   1.710   6.122 -1.9371 -0.1395 -1.2526
 7322SOL     OW33601   0.409   3.279  11.029 -0.6116 -0.0322  0.0939
 7322SOL    HW133602   0.463   3.268  11.107  2.2313  1.8759 -1.6134
 7322SOL    HW233603   0.470   3.334  10.979 -1.3248 -1.1488 -2.0222
 7323SOL     OW33604   2.917   4.262   4.291  0.1575  0.3267  0.6934
 7323SOL    HW133605   2.841   4.314   4.317  0.4183  2.8417 -3.4713
 7323SOL    HW233606   2.972   4.328   4.248  0.7550 -0.8332 -0.3300
 7324SOL     OW33607   4.654   2.617   3.133  0.0399  0.1438  0.2686
 7324SOL    HW133608   4.630   2.555   3.065 -1.2142  0.8799  0.0465
 7324SOL    HW233609   4.718   2.570   3.186  1.0853  1.7039  0.3903
 7325SOL     OW33610   0.286   2.691   2.622 -0.1806 -0.4879  0.3125
 7325SOL    HW133611   0.252   2.704   2.534 -1.5987 -0.6075  0.8397
 7325SOL    HW233612   0.220   2.733   2.678  0.0659 -0.3286  0.4854
 7326SOL     OW33613   2.708   0.979  15.066 -0.4264 -0.0639 -0.1311
 7326SOL    HW133614   2.733   0.897  15.109 -2.1599  0.7799  2.4252
 7326SOL    HW233615   2.666   0.933  14.993  0.4455 -0.5353 -0.3412
 7327SOL     OW33616   1.608   3.307   7.142  0.6184  0.2321 -0.7057
 7327SOL    HW133617   1.653   3.227   7.116  0.0343 -0.4342  0.3507
 7327SOL    HW233618   1.673   3.353   7.196  0.7481  0.2689 -0.8915
 7328SOL     OW33619   1.573   2.542   4.575  0.2007  0.3925  0.4311
 7328SOL    HW133620   1.529   2.511   4.654 -2.6248 -0.6522 -1.5571
 7328SOL    HW233621   1.656   2.499   4.594  0.7106  0.6722 -1.1204
 7329SOL     OW33622   2.684   2.894  12.307  0.1062 -0.7303 -0.1496
 7329SOL    HW133623   2.687   2.871  12.400  1.8393  0.7938  0.1653
 7329SOL    HW233624   2.755   2.846  12.263 -0.5257 -1.6234 -0.1923
 7330SOL     OW33625   3.866   2.899   6.513 -0.8014  0.5504 -0.3638
 7330SOL    HW133626   3.892   2.893   6.605 -1.0522 -1.0507 -0.3978
 7330SOL    HW233627   3.878   2.809   6.482 -0.2013  0.3426  0.4766
 7331SOL     OW33628   4.414   4.124   5.638 -0.0210  0.4219 -0.0833
 7331SOL    HW133629   4.433   4.128   5.544  0.0498  1.9651 -0.0032
 7331SOL    HW233630   4.324   4.093   5.630 -0.3063  0.6157  2.2730
 7332SOL     OW33631   0.666   2.454   1.333  0.0264  0.4789 -0.4232
 7332SOL    HW133632   0.693   2.542   1.360 -3.0850  1.3466 -0.1845
 7332SOL    HW233633   0.650   2.474   1.241 -0.9113  0.1540 -0.3281
 7333SOL     OW33634   0.255   2.735   0.808 -0.7051 -0.4094  0.3632
 7333SOL    HW133635   0.320   2.671   0.835  0.1845  0.6393  0.7209
 7333SOL    HW233636   0.200   2.761   0.882 -0.6056  3.1958 -0.8155
 7334SOL     OW33637   2.113   2.337  12.277 -0.0133 -0.2159 -0.8459
 7334SOL    HW133638   2.148   2.391  12.206 -0.2372 -1.3021 -1.7781
 7334SOL    HW233639   2.103   2.400  12.349  0.3796  1.8029 -2.5423
 7335SOL     OW33640   1.889   2.082   4.016 -0.0663  0.5696  0.7195
 7335SOL    HW133641   1.817   2.086   3.952 -0.8139 -0.6524  1.4951
 7335SOL    HW233642   1.850   2.030   4.086 -1.4407  1.6259  0.7385
 7336SOL     OW33643   0.529   2.446  11.409  0.3255  0.2197  0.0607
 7336SOL    HW133644   0.439   2.428  11.435  0.4365  0.7163  0.7665
 7336SOL    HW233645   0.543   2.519  11.469 -0.6453 -1.1207  1.9059
 7337SOL     OW33646   4.498   4.270  13.567  0.6442  0.9264 -0.3656
 7337SOL    HW133647   4.439   4.219  13.512  1.7208 -1.4361  0.6718
 7337SOL    HW233648   4.574   4.212  13.562 -0.7566 -0.8695 -0.7154
 7338SOL     OW33649   2.309   1.747  10.413  0.5012  0.2129  0.7355
 7338SOL    HW133650   2.393   1.725  10.453  0.8641  1.6533  0.7608
 7338SOL    HW233651   2.337   1.778  10.327 -0.5806  0.2352  0.3792
 7339SOL     OW33652   4.035   3.878  10.595 -0.4597 -0.2498  0.0248
 7339SOL    HW133653   4.125   3.887  10.627 -1.0738 -0.0585  1.7353
 7339SOL    HW233654   4.012   3.966  10.564  0.1450  0.3253  1.1785
 7340SOL     OW33655   1.927   4.216   1.603 -0.3063 -0.1120  0.1392
 7340SOL    HW133656   1.940   4.232   1.510 -2.2207 -1.1575 -0.3131
 7340SOL    HW233657   1.907   4.122   1.601  3.0998 -0.8639  1.6360
 7341SOL     OW33658   1.123   2.432  10.962 -0.4452  0.5850 -0.4869
 7341SOL    HW133659   1.056   2.476  11.015 -0.7185 -0.3477 -0.0551
 7341SOL    HW233660   1.209   2.446  11.001 -0.7689  0.9034  0.1018
 7342SOL     OW33661   1.413   1.000   8.108 -0.9172 -0.0204  0.0286
 7342SOL    HW133662   1.356   0.973   8.180 -0.2377 -2.1341 -0.2311
 7342SOL    HW233663   1.404   0.930   8.043  2.2540 -0.5583  0.1605
 7343SOL     OW33664   4.321   3.268   3.751  0.0672 -0.6053 -0.1031
 7343SOL    HW133665   4.341   3.361   3.763 -1.0622 -0.3959  0.0955
 7343SOL    HW233666   4.403   3.240   3.711  0.0325  2.3356 -2.2233
 7344SOL     OW33667   0.463   2.299   5.000 -0.9133 -0.4250 -0.0229
 7344SOL    HW133668   0.394   2.364   5.016 -0.4231  0.0103  0.3020
 7344SOL    HW233669   0.438   2.285   4.908  0.6707 -2.4041 -0.1382
 7345SOL     OW33670   1.404   3.071   0.464  0.3892 -0.0283 -0.1336
 7345SOL    HW133671   1.403   2.984   0.504 -1.2413  0.9133  1.8321
 7345SOL    HW233672   1.323   3.067   0.414  0.2309  1.6135  0.0166
 7346SOL     OW33673   2.616   2.553   8.194 -0.1602 -0.1412 -0.3897
 7346SOL    HW133674   2.574   2.499   8.127 -0.2629  1.7760 -1.8627
 7346SOL    HW233675   2.702   2.510   8.187 -0.1798 -0.1001 -0.8828
 7347SOL     OW33676   2.792   2.693   3.867 -0.3299  0.3688 -0.2125
 7347SOL    HW133677   2.751   2.609   3.845  0.7741 -0.2900  0.2108
 7347SOL    HW233678   2.747   2.712   3.949  0.3516 -0.0215  0.2627
 7348SOL     OW33679   0.576   2.405   6.355  0.0551 -0.1389 -0.3086
 7348SOL    HW133680   0.530   2.489   6.352  0.0580 -0.1159  0.4107
 7348SOL    HW233681   0.526   2.344   6.300 -1.7590  0.1406  1.0510
 7349SOL     OW33682   2.251   0.142   6.856 -0.8660  0.0619 -0.2075
 7349SOL    HW133683   2.218   0.142   6.945 -2.3932 -1.9501 -0.7595
 7349SOL    HW233684   2.267   0.049   6.839 -1.0715  0.0091 -0.1086
 7350SOL     OW33685   1.641   2.835   5.890 -0.4575 -0.2976 -0.9479
 7350SOL    HW133686   1.671   2.753   5.930  0.5848 -0.8746 -2.9002
 7350SOL    HW233687   1.547   2.813   5.888 -1.1901  2.5019  2.9616
 7351SOL     OW33688   3.913   0.362   6.561 -0.0565  0.6019 -0.3499
 7351SOL    HW133689   3.905   0.271   6.591 -0.6423  0.8487  0.2505
 7351SOL    HW233690   3.995   0.378   6.607  1.4743 -0.1627 -2.7824
 7352SOL     OW33691   2.395   0.746   6.985 -0.2623  0.1830  0.1358
 7352SOL    HW133692   2.435   0.815   6.932 -0.3489 -1.8759 -2.6245
 7352SOL    HW233693   2.416   0.675   6.924 -1.2995  0.9438 -1.1178
 7353SOL     OW33694   4.400   1.940   4.422 -0.0314 -0.0390 -0.0184
 7353SOL    HW133695   4.487   1.940   4.382  0.6271 -1.6141  1.4170
 7353SOL    HW233696   4.408   1.901   4.509  1.2938 -1.4620 -0.7858
 7354SOL     OW33697   0.314   3.790  10.926 -0.2915 -0.2532  0.0747
 7354SOL    HW133698   0.368   3.727  10.973  1.5523  0.5927 -0.9390
 7354SOL    HW233699   0.228   3.789  10.970 -0.7582 -0.2423 -0.8334
 7355SOL     OW33700   3.422   0.512   1.753  0.2465 -0.2576 -0.1424
 7355SOL    HW133701   3.466   0.461   1.821  0.9267  0.1091 -0.3159
 7355SOL    HW233702   3.456   0.601   1.759 -0.2266 -0.0590 -0.3657
 7356SOL     OW33703   1.292   0.783   5.968 -0.6348  0.1171 -0.5455
 7356SOL    HW133704   1.368   0.733   5.939 -0.3540 -0.7785  1.8001
 7356SOL    HW233705   1.251   0.719   6.026  0.9403 -0.6921 -0.3472
 7357SOL     OW33706   2.696   4.186   4.573  0.2510  0.6109  0.3017
 7357SOL    HW133707   2.630   4.220   4.634  0.8625  1.0710  0.7069
 7357SOL    HW233708   2.750   4.263   4.555 -0.2957  0.0968 -3.5975
 7358SOL     OW33709   2.868   2.674  12.272 -0.0219 -0.1697 -0.4161
 7358SOL    HW133710   2.874   2.629  12.187  0.2827  0.4309 -0.7107
 7358SOL    HW233711   2.935   2.620  12.315 -1.0561 -0.0110  1.3760
 7359SOL     OW33712   4.229   0.749   3.930  0.0056  0.1906 -0.4023
 7359SOL    HW133713   4.239   0.670   3.983  1.4276  0.5851 -0.1013
 7359SOL    HW233714   4.305   0.753   3.871 -0.1722  0.8988 -0.5792
 7360SOL     OW33715   0.863   3.392   4.594  0.4544  0.0051 -0.2033
 7360SOL    HW133716   0.888   3.460   4.656  0.3067 -0.8301  0.7707
 7360SOL    HW233717   0.913   3.438   4.527 -0.3366 -0.8644 -1.3807
 7361SOL     OW33718   3.327   1.035   9.442  0.1440 -0.1380  0.4450
 7361SOL    HW133719   3.349   0.943   9.454  0.2097 -0.0464  0.9987
 7361SOL    HW233720   3.259   1.047   9.508  0.8445  0.5240  1.0390
 7362SOL     OW33721   0.576   2.800   5.621  0.5976 -0.0932  0.2911
 7362SOL    HW133722   0.577   2.704   5.623  0.2424 -0.0960  0.2042
 7362SOL    HW233723   0.592   2.822   5.713 -3.5240  0.4205  0.8730
 7363SOL     OW33724   1.960   2.288   2.237  0.6731 -0.1525  0.2126
 7363SOL    HW133725   2.024   2.274   2.307 -1.5974  0.1799  2.3513
 7363SOL    HW233726   1.953   2.202   2.196  0.0871  0.7599 -1.5854
 7364SOL     OW33727   1.784   2.830   4.257  0.0167 -0.1749 -0.1749
 7364SOL    HW133728   1.878   2.821   4.275 -0.3398 -1.3959  1.1517
 7364SOL    HW233729   1.749   2.798   4.340  3.2279 -0.5992  1.0446
 7365SOL     OW33730   4.634   4.634   5.180 -0.1634  0.1062 -0.4033
 7365SOL    HW133731   4.616   4.626   5.273  1.4452  0.0595 -0.1069
 7365SOL    HW233732   4.645   4.728   5.170 -0.3766  0.3490  1.6488
 7366SOL     OW33733   3.159   1.646   5.204 -0.1877 -0.0414  0.2846
 7366SOL    HW133734   3.248   1.660   5.170  0.6588 -1.9895  1.6898
 7366SOL    HW233735   3.157   1.700   5.283  0.6074 -0.1655  0.3923
 7367SOL     OW33736   4.209   4.581   7.167  0.2530 -0.0706 -0.3662
 7367SOL    HW133737   4.210   4.651   7.233 -3.1535 -1.1887  0.8984
 7367SOL    HW233738   4.140   4.521   7.196 -0.5901  0.0782 -2.0735
 7368SOL     OW33739   1.583   2.738   6.522  0.0589  0.4375  0.4975
 7368SOL    HW133740   1.545   2.668   6.573  0.2110  0.2361  0.3357
 7368SOL    HW233741   1.508   2.770   6.471  0.1206 -0.0831  0.0820
 7369SOL     OW33742   2.912   1.995  14.908  0.2367 -0.5610  0.1751
 7369SOL    HW133743   2.830   1.985  14.955 -1.2063 -0.8762 -2.3757
 7369SOL    HW233744   2.879   2.013  14.820  0.4314  3.4673  0.9399
 7370SOL     OW33745   0.786   4.102  15.899 -0.2002 -0.4692 -0.2514
 7370SOL    HW133746   0.850   4.081  15.831  3.7318 -1.0340  3.6414
 7370SOL    HW233747   0.836   4.065  15.972  2.1458  1.5229 -0.8810
 7371SOL     OW33748   1.196   1.292  13.275 -0.1554 -0.2256 -0.1548
 7371SOL    HW133749   1.246   1.223  13.230 -1.9026 -1.2184 -0.5763
 7371SOL    HW233750   1.104   1.287  13.246 -0.2056  0.9135 -0.1791
 7372SOL     OW33751   0.996   3.941   8.586  0.5779 -0.2630  0.3089
 7372SOL    HW133752   1.060   3.904   8.525  1.7186  1.5708  0.3865
 7372SOL    HW233753   1.010   4.035   8.570  0.0808 -0.1110  0.7276
 7373SOL     OW33754   3.750   0.009   2.729  0.2242  0.2482 -0.4272
 7373SOL    HW133755   3.770   4.731   2.822 -1.5496  0.5024 -0.0014
 7373SOL    HW233756   3.835   0.036   2.695  0.2847 -1.5968 -1.7699
 7374SOL     OW33757   4.580   0.189  15.677  0.1653  0.1679 -0.3457
 7374SOL    HW133758   4.545   0.254  15.617 -0.8111  0.5320  0.6282
 7374SOL    HW233759   4.640   0.143  15.618 -0.7438 -1.6565  0.1256
 7375SOL     OW33760   4.218   1.542   5.093 -0.0260  0.6254 -0.3910
 7375SOL    HW133761   4.217   1.470   5.156  0.3460  0.2782 -0.7805
 7375SOL    HW233762   4.307   1.525   5.061  0.7423  1.0064  1.5581
 7376SOL     OW33763   1.729   1.300   4.442  0.1014 -0.1329  0.5043
 7376SOL    HW133764   1.796   1.343   4.389  1.0528 -1.2421  0.8107
 7376SOL    HW233765   1.781   1.222   4.456 -0.4557 -0.7594 -0.9395
 7377SOL     OW33766   0.433   1.278  11.604  0.9823  0.3521  0.6462
 7377SOL    HW133767   0.417   1.186  11.587 -3.3808  1.3096 -0.2578
 7377SOL    HW233768   0.369   1.292  11.674 -0.1119  2.9414 -0.8792
 7378SOL     OW33769   0.799   3.149   6.559  0.0551 -0.1643  0.1614
 7378SOL    HW133770   0.863   3.190   6.617 -1.1444 -0.5501  1.7672
 7378SOL    HW233771   0.855   3.072   6.548 -0.0437 -0.0776 -0.9265
 7379SOL     OW33772   0.106   1.794  17.018 -0.8771 -0.3014 -0.2009
 7379SOL    HW133773   0.200   1.812  17.011 -0.9140  0.3624  1.0561
 7379SOL    HW233774   0.080   1.848  17.093 -2.0066  1.0697 -1.5635
 7380SOL     OW33775   2.898   0.803   5.807  0.3978 -0.2212  0.0844
 7380SOL    HW133776   2.940   0.718   5.818  0.9778  0.0341 -0.1134
 7380SOL    HW233777   2.844   0.788   5.730 -1.0822  1.2698  0.8299
 7381SOL     OW33778   4.150   2.000   8.554  0.5624  0.0040 -0.3279
 7381SOL    HW133779   4.178   1.918   8.512 -1.4155 -1.7426  1.7872
 7381SOL    HW233780   4.074   1.966   8.601  0.0805  0.2170 -0.9409
 7382SOL     OW33781   0.375   0.521   3.274 -0.0527  0.2372 -0.3793
 7382SOL    HW133782   0.400   0.455   3.338  0.3772  0.2190 -0.5653
 7382SOL    HW233783   0.410   0.483   3.194 -1.5516  1.0764 -1.4327
 7383SOL     OW33784   1.244   2.565   5.458  0.0158  0.0875 -0.0878
 7383SOL    HW133785   1.195   2.566   5.376  0.9529  0.4524 -0.6333
 7383SOL    HW233786   1.331   2.590   5.428 -0.2705  1.4777  0.2502
 7384SOL     OW33787   1.121   1.789   3.190 -0.2064  0.0088  0.6885
 7384SOL    HW133788   1.172   1.835   3.257 -0.0957 -2.8896  2.5592
 7384SOL    HW233789   1.030   1.789   3.220 -0.0933  0.7631  1.0272
 7385SOL     OW33790   2.339   3.966  17.692  0.5394 -0.4780 -0.6290
 7385SOL    HW133791   2.304   4.042  17.645  1.2627 -0.4485 -1.1348
 7385SOL    HW233792   2.266   3.905  17.687  0.0331  0.1381 -0.7725
 7386SOL     OW33793   0.559   4.009   7.897  0.1948 -0.0321  0.0780
 7386SOL    HW133794   0.571   3.942   7.964  0.2586  0.9922  1.0897
 7386SOL    HW233795   0.539   4.087   7.950 -0.2916  0.5367 -0.9514
 7387SOL     OW33796   2.274   1.746   8.074  0.3416 -0.1304 -0.0760
 7387SOL    HW133797   2.328   1.752   8.153  1.5399  1.9041 -1.0348
 7387SOL    HW233798   2.246   1.655   8.075  0.4926 -0.1688  0.8833
 7388SOL     OW33799   3.607   3.962  17.248  0.0441  0.3805  0.2932
 7388SOL    HW133800   3.525   3.938  17.293  0.0993  0.6292  0.5278
 7388SOL    HW233801   3.568   4.034  17.197 -0.6011  0.8236  1.3985
 7389SOL     OW33802   2.745   2.077   4.555 -0.2233 -0.0433 -0.0535
 7389SOL    HW133803   2.753   2.005   4.492  0.3593 -0.6672  0.7401
 7389SOL    HW233804   2.654   2.107   4.553 -0.1388  0.1476 -1.1841
 7390SOL     OW33805   2.537   2.131   1.422  0.7406  0.6885  0.2782
 7390SOL    HW133806   2.464   2.130   1.484  0.6851  2.2979  0.2450
 7390SOL    HW233807   2.591   2.055   1.443 -1.3971 -0.6981  0.8488
 7391SOL     OW33808   2.445   0.121  16.914  0.3856 -0.0032  0.1689
 7391SOL    HW133809   2.467   0.198  16.862  1.0985 -0.5056 -0.2789
 7391SOL    HW233810   2.401   0.075  16.842 -2.0650  0.8509  1.1149
 7392SOL     OW33811   4.567   1.744   2.816  0.2894  0.4118  0.1116
 7392SOL    HW133812   4.511   1.803   2.766 -0.9716  0.5092  1.6475
 7392SOL    HW233813   4.517   1.667   2.789 -0.5857  1.1995 -0.5198
 7393SOL     OW33814   0.736   2.329   4.963  0.1340  0.5609 -0.3755
 7393SOL    HW133815   0.643   2.306   4.961 -0.4236  2.7318  0.3215
 7393SOL    HW233816   0.766   2.292   5.046  0.7729  0.9667 -0.4296
 7394SOL     OW33817   1.559   2.072   1.774 -0.0411 -0.3088  0.0721
 7394SOL    HW133818   1.614   2.129   1.827 -0.0358 -1.5245  1.3633
 7394SOL    HW233819   1.472   2.098   1.802  0.7349 -0.0515  2.2359
 7395SOL     OW33820   3.856   3.177  10.322  0.1226 -0.3214  0.6554
 7395SOL    HW133821   3.776   3.136  10.355  1.3331 -1.7145  1.8287
 7395SOL    HW233822   3.853   3.272  10.339 -3.2446 -0.4227  0.6671
 7396SOL     OW33823   3.040   2.532  11.791  0.3644 -0.7601  0.4511
 7396SOL    HW133824   2.999   2.537  11.705 -3.1591 -1.5672  2.0694
 7396SOL    HW233825   3.134   2.538  11.777  0.3787 -0.4930  0.6772
 7397SOL     OW33826   3.439   0.083   5.054 -0.2226  0.0284  0.4410
 7397SOL    HW133827   3.522   0.109   5.094  0.0440  0.2803 -0.2833
 7397SOL    HW233828   3.441   4.723   5.069  3.2097  0.1423  0.8646
 7398SOL     OW33829   1.323   1.618   2.860  0.0479 -0.3489 -0.0655
 7398SOL    HW133830   1.312   1.617   2.955 -4.1102 -0.0005 -0.5322
 7398SOL    HW233831   1.269   1.548   2.825 -2.0814  0.7190  1.0601
 7399SOL     OW33832   2.371   2.005   3.936 -0.2433  0.1964 -0.3517
 7399SOL    HW133833   2.304   1.949   3.897 -1.4277  2.3371 -1.3605
 7399SOL    HW233834   2.440   1.938   3.935 -0.2917  0.1212  1.9340
 7400SOL     OW33835   3.198   4.435   9.546  0.4036 -0.4520 -0.4187
 7400SOL    HW133836   3.245   4.353   9.530  0.1633 -0.6343 -0.1865
 7400SOL    HW233837   3.267   4.501   9.545 -0.4778  0.4624 -0.0969
 7401SOL     OW33838   4.456   0.370   0.074 -0.3314 -0.0867  0.0194
 7401SOL    HW133839   4.544   0.342   0.048 -2.1259 -1.9365 -4.1104
 7401SOL    HW233840   4.406   0.353  17.733 -0.1812  1.3522 -0.3922
 7402SOL     OW33841   4.384   1.438   3.749 -0.2802 -0.0754 -0.1525
 7402SOL    HW133842   4.357   1.449   3.840 -1.3213 -1.6772 -0.2558
 7402SOL    HW233843   4.303   1.449   3.699 -0.2596 -3.0802 -0.8940
 7403SOL     OW33844   1.627   4.528  12.493  0.0729  0.0078 -0.5295
 7403SOL    HW133845   1.642   4.551  12.585 -0.6609  0.2433 -0.4686
 7403SOL    HW233846   1.536   4.559  12.492  0.1550  0.3117  1.0741
 7404SOL     OW33847   2.621   1.173   4.037  0.3631 -0.5236 -0.2519
 7404SOL    HW133848   2.693   1.131   3.991  0.1499 -0.6890 -0.4359
 7404SOL    HW233849   2.540   1.131   4.007  0.0068 -0.9926  1.3534
 7405SOL     OW33850   1.978   1.971   3.314  0.2786 -0.3398 -0.0490
 7405SOL    HW133851   1.948   1.922   3.237 -0.6855  0.6365 -0.2888
 7405SOL    HW233852   1.947   2.058   3.288 -1.0760 -0.8636 -0.1715
 7406SOL     OW33853   2.470   2.439  11.552  0.1995 -0.0573 -0.2737
 7406SOL    HW133854   2.555   2.408  11.583  0.1634 -0.6939 -0.8261
 7406SOL    HW233855   2.429   2.360  11.518 -0.7011  0.7713 -1.1215
 7407SOL     OW33856   0.392   2.869   4.456  0.5108 -0.2336  0.0005
 7407SOL    HW133857   0.402   2.925   4.533  0.4030 -1.6293  1.0271
 7407SOL    HW233858   0.435   2.927   4.393 -0.9667  0.6905 -0.1679
 7408SOL     OW33859   1.641   2.524  12.592  0.5151  0.4239  0.1299
 7408SOL    HW133860   1.555   2.552  12.561  0.9534 -1.6408 -2.9932
 7408SOL    HW233861   1.659   2.449  12.535  2.4945 -0.6759  2.2337
 7409SOL     OW33862   2.178   0.526   7.651 -0.2163 -0.5206 -0.4611
 7409SOL    HW133863   2.175   0.448   7.706  1.4565  0.0889  0.4731
 7409SOL    HW233864   2.136   0.590   7.708 -0.8566 -0.4207 -1.0366
 7410SOL     OW33865   3.482   0.401   0.100 -0.2782 -0.4444 -0.3165
 7410SOL    HW133866   3.404   0.413   0.046 -3.0130 -1.9301  3.3351
 7410SOL    HW233867   3.510   0.311   0.086  1.0838  0.5268 -4.0497
 7411SOL     OW33868   3.221   3.687   8.030 -0.0768  0.9757 -0.0181
 7411SOL    HW133869   3.245   3.636   8.108  1.5125 -1.8283 -2.3519
 7411SOL    HW233870   3.221   3.617   7.965 -2.4179  0.6358  0.3350
 7412SOL     OW33871   0.958   2.157  15.458 -0.0335  0.4663  0.1042
 7412SOL    HW133872   0.952   2.103  15.379 -1.3319 -1.3732  1.4643
 7412SOL    HW233873   0.960   2.246  15.422  2.7681 -0.8525 -2.9686
 7413SOL     OW33874   1.680   2.765   3.835 -0.2180 -0.3264  0.2462
 7413SOL    HW133875   1.632   2.752   3.753 -0.9376  0.7424  0.4980
 7413SOL    HW233876   1.743   2.694   3.827 -0.5488 -0.4880 -0.8932
 7414SOL     OW33877   1.131   1.108   8.737  0.6472 -0.6629  0.5917
 7414SOL    HW133878   1.163   1.049   8.806  1.1001  0.2274  1.1330
 7414SOL    HW233879   1.215   1.124   8.695  0.6109  1.2716  1.2970
 7415SOL     OW33880   4.160   3.016   4.035  0.4506  0.4834 -0.1586
 7415SOL    HW133881   4.097   2.951   4.067 -1.7600  3.2932  1.2037
 7415SOL    HW233882   4.163   3.090   4.096  2.6651  0.5242 -0.2995
 7416SOL     OW33883   0.147   1.120   7.273  0.0311  0.8169 -0.0982
 7416SOL    HW133884   0.118   1.040   7.229  1.2973  0.5241 -0.3731
 7416SOL    HW233885   0.068   1.174   7.262 -0.6640  0.1183  1.3880
 7417SOL     OW33886   2.648   3.292  15.765  0.1780  0.0424  0.2439
 7417SOL    HW133887   2.614   3.210  15.801  1.1274 -0.8579 -0.9222
 7417SOL    HW233888   2.587   3.303  15.692  1.5500  0.0782 -0.8914
 7418SOL     OW33889   4.209   4.361  14.600  0.3687 -0.3943  0.0027
 7418SOL    HW133890   4.273   4.429  14.620  0.0247  0.0030 -0.2538
 7418SOL    HW233891   4.132   4.414  14.621  0.1526 -0.0509 -1.7194
 7419SOL     OW33892   0.830   4.627  15.462  0.5165 -0.4959 -0.3154
 7419SOL    HW133893   0.887   4.662  15.393 -1.1980 -1.4009 -2.2277
 7419SOL    HW233894   0.894   4.604  15.528  1.6802  2.3721 -0.4565
 7420SOL     OW33895   0.383   0.784   3.301  0.2010 -0.5115  0.0906
 7420SOL    HW133896   0.393   0.690   3.312  1.3291 -0.1488  2.1384
 7420SOL    HW233897   0.312   0.788   3.237 -0.0607  1.0486  0.4786
 7421SOL     OW33898   0.052   0.424   0.160  1.0677  0.1864  0.1700
 7421SOL    HW133899   0.086   0.422   0.071  0.7202  0.4380  0.0310
 7421SOL    HW233900   0.113   0.483   0.205  1.5568 -0.1834 -0.0126
 7422SOL     OW33901   4.041   0.199   5.577 -0.1142  0.3387  0.0965
 7422SOL    HW133902   4.094   0.273   5.549 -0.6158  0.5289 -0.3634
 7422SOL    HW233903   3.987   0.174   5.502 -1.1511  0.5108  0.7696
 7423SOL     OW33904   4.435   4.183   8.124 -0.3718 -0.3869  0.8522
 7423SOL    HW133905   4.520   4.167   8.165 -0.1643  0.9922  0.9922
 7423SOL    HW233906   4.394   4.237   8.192 -0.8382 -0.0370  0.2926
 7424SOL     OW33907   3.276   3.454   4.405 -0.3727 -0.2597  0.2322
 7424SOL    HW133908   3.256   3.380   4.348 -0.3695 -1.8129  2.2685
 7424SOL    HW233909   3.324   3.403   4.470 -0.8278 -0.9752  0.0032
 7425SOL     OW33910   0.154   0.278  13.621 -1.3274 -0.2158  0.1474
 7425SOL    HW133911   0.237   0.294  13.666  0.1365 -1.3364 -2.1613
 7425SOL    HW233912   0.166   0.341  13.549  0.2303 -2.6732 -1.7280
 7426SOL     OW33913   4.066   4.633   7.725  0.5777  0.3156 -0.1584
 7426SOL    HW133914   4.033   4.645   7.637  1.2647  3.1377 -0.0114
 7426SOL    HW233915   4.132   4.565   7.708 -2.0904 -2.5255  0.7923
 7427SOL     OW33916   1.495   0.248  11.107 -0.0192  0.5338  0.7547
 7427SOL    HW133917   1.460   0.289  11.028 -1.1983 -1.6889  0.1374
 7427SOL    HW233918   1.586   0.277  11.103  0.0532  0.4869  2.0396
 7428SOL     OW33919   0.396   2.848   3.260  0.0870  0.4763 -0.7874
 7428SOL    HW133920   0.440   2.933   3.268  0.2951  0.3052 -0.0482
 7428SOL    HW233921   0.393   2.827   3.167  1.1609 -0.3433 -0.6402
 7429SOL     OW33922   3.708   4.623   7.426  0.5381 -0.0136  0.1913
 7429SOL    HW133923   3.702   4.562   7.500  0.5514  0.3601  0.4968
 7429SOL    HW233924   3.629   4.676   7.440 -0.2227 -0.8324 -0.9193
 7430SOL     OW33925   1.285   0.109   7.508  0.2701 -0.0331  0.0757
 7430SOL    HW133926   1.268   0.032   7.563 -2.5494  1.1200  0.7912
 7430SOL    HW233927   1.243   0.071   7.430 -0.4366  0.2772  0.3098
 7431SOL     OW33928   0.398   1.749   5.714  0.3003 -0.0419 -0.3364
 7431SOL    HW133929   0.388   1.732   5.808 -0.8938  1.4584 -0.1897
 7431SOL    HW233930   0.318   1.798   5.697 -0.3959 -1.0533  0.0247
 7432SOL     OW33931   0.419   1.605   5.447 -0.1375 -0.2508  0.0110
 7432SOL    HW133932   0.515   1.606   5.456 -0.3067 -2.7168  1.8285
 7432SOL    HW233933   0.403   1.657   5.526  1.7050  2.7210 -1.5374
 7433SOL     OW33934   1.133   2.018   3.386 -0.0802 -0.0901  0.1026
 7433SOL    HW133935   1.046   2.054   3.367  0.0627 -0.8745 -1.9527
 7433SOL    HW233936   1.103   1.986   3.471 -2.6607  1.5793 -0.1582
 7434SOL     OW33937   3.318   3.154   4.842 -0.0990 -0.4139  0.3203
 7434SOL    HW133938   3.356   3.077   4.885  2.0563 -0.6336 -1.9299
 7434SOL    HW233939   3.225   3.145   4.860 -0.3765  2.3303  0.2251
 7435SOL     OW33940   1.174   1.378   2.794 -0.8992 -0.2586 -0.2959
 7435SOL    HW133941   1.191   1.283   2.795 -0.0627 -0.1146 -1.0216
 7435SOL    HW233942   1.098   1.374   2.852 -1.1894 -2.0099 -0.7717
 7436SOL     OW33943   1.566   0.326   3.922 -0.3869 -0.2921 -0.1617
 7436SOL    HW133944   1.652   0.314   3.883 -0.5806 -0.0270 -0.6673
 7436SOL    HW233945   1.555   0.243   3.968 -0.7916  0.1341  0.5151
 7437SOL     OW33946   1.329   3.233   7.801  0.2451  0.1527  0.0618
 7437SOL    HW133947   1.365   3.318   7.828  0.2177  0.2623 -0.2541
 7437SOL    HW233948   1.320   3.246   7.707  1.4867 -0.3333 -0.1284
 7438SOL     OW33949   3.445   2.152   9.472  0.6618 -0.2881 -0.3446
 7438SOL    HW133950   3.533   2.185   9.488  0.5465  0.6368 -1.5969
 7438SOL    HW233951   3.399   2.184   9.550  0.9801  2.0302 -1.0898
 7439SOL     OW33952   2.510   0.979   3.147 -0.8588  0.0170 -0.2248
 7439SOL    HW133953   2.589   0.966   3.200 -0.8319 -1.2723 -0.5969
 7439SOL    HW233954   2.506   0.902   3.091 -0.4296 -1.4311  1.7267
 7440SOL     OW33955   3.122   1.981  13.334  0.7755  0.3383 -0.0309
 7440SOL    HW133956   3.076   1.942  13.408  0.3057  0.6430 -0.1597
 7440SOL    HW233957   3.131   1.902  13.280 -0.1851  1.0659 -1.2655
 7441SOL     OW33958   2.615   0.109  16.485 -0.3033  0.6825  0.5118
 7441SOL    HW133959   2.561   0.117  16.406  2.1462  0.7389 -1.1852
 7441SOL    HW233960   2.597   0.019  16.514  1.0730  0.4092  0.5224
 7442SOL     OW33961   3.954   2.660   9.231  0.5379  0.0152 -0.2091
 7442SOL    HW133962   3.881   2.721   9.216  0.3404 -0.2223 -0.2274
 7442SOL    HW233963   4.021   2.721   9.201  0.5865  0.5802  1.0468
 7443SOL     OW33964   4.598   0.282   4.598  0.2648 -0.7841  0.5045
 7443SOL    HW133965   4.574   0.220   4.530 -2.7135  2.5221 -1.4196
 7443SOL    HW233966   4.534   0.349   4.575  1.9516  0.7375  0.1625
 7444SOL     OW33967   1.612   2.327   9.593 -0.4639 -0.6890  0.2652
 7444SOL    HW133968   1.608   2.231   9.586  0.0370 -0.7496  0.7823
 7444SOL    HW233969   1.608   2.361   9.504  1.3228  2.4689  1.3800
 7445SOL     OW33970   1.161   2.175  13.569  0.0358  0.3527 -0.2073
 7445SOL    HW133971   1.205   2.166  13.654  0.8947 -2.1377 -0.9076
 7445SOL    HW233972   1.069   2.161  13.592 -0.1034  1.0520 -0.3645
 7446SOL     OW33973   2.456   4.575   3.199 -0.4460  0.1874 -0.6887
 7446SOL    HW133974   2.496   4.652   3.239  0.6023 -1.3650  1.2869
 7446SOL    HW233975   2.394   4.615   3.139 -2.2728 -1.6038 -0.0048
 7447SOL     OW33976   1.172   3.097   4.515  0.0917 -0.1131  0.3504
 7447SOL    HW133977   1.224   3.112   4.436 -2.2594 -0.8096 -1.3464
 7447SOL    HW233978   1.083   3.112   4.481 -0.9760 -1.7834  2.4136
 7448SOL     OW33979   1.752   2.141   7.559  0.0155 -0.0220 -0.4374
 7448SOL    HW133980   1.813   2.215   7.552  0.1583 -0.2939 -2.1702
 7448SOL    HW233981   1.678   2.187   7.519 -1.0026 -0.3965  1.0434
 7449SOL     OW33982   0.783   4.129   2.306 -0.0050  0.2337  0.5381
 7449SOL    HW133983   0.702   4.159   2.348 -1.9058 -0.1259 -2.8811
 7449SOL    HW233984   0.772   4.165   2.218 -1.1569 -1.3078  0.0575
 7450SOL     OW33985   1.548   3.164   9.033 -0.2666 -0.8313  0.2029
 7450SOL    HW133986   1.454   3.156   9.050 -0.7628  0.0649 -2.0237
 7450SOL    HW233987   1.556   3.258   9.046  1.5238 -0.9776  0.1330
 7451SOL     OW33988   4.103   1.151   5.910  0.1558  0.0433  0.1290
 7451SOL    HW133989   4.057   1.226   5.948 -1.0740 -0.1301 -0.9882
 7451SOL    HW233990   4.044   1.107   5.848 -0.8983  0.4077  0.8697
 7452SOL     OW33991   2.524   0.567  15.915 -0.0503 -0.1313  0.9163
 7452SOL    HW133992   2.473   0.487  15.903 -1.5050  0.5955  2.2605
 7452SOL    HW233993   2.601   0.541  15.965  1.2638 -1.0030 -1.5722
 7453SOL     OW33994   2.855   3.791   3.427 -0.1040  0.4258 -0.5759
 7453SOL    HW133995   2.916   3.862   3.405 -1.7472  1.9167 -0.3274
 7453SOL    HW233996   2.793   3.797   3.354 -0.6954  1.0207 -0.0282
 7454SOL     OW33997   0.958   2.836   2.947 -0.7366 -0.8300 -0.0024
 7454SOL    HW133998   1.025   2.904   2.955 -2.0687  0.5287 -0.5618
 7454SOL    HW233999   0.982   2.789   3.027 -2.0595  0.5677  1.2027
 7455SOL     OW34000   4.086   3.099  12.555 -0.0896 -0.4123  0.1221
 7455SOL    HW134001   4.061   3.101  12.648 -0.4112 -1.6133  0.0638
 7455SOL    HW234002   4.110   3.190  12.541  0.4591 -0.6423 -0.4107
 7456SOL     OW34003   1.029   2.661  13.215 -0.5960 -0.8263  0.1373
 7456SOL    HW134004   1.083   2.649  13.137  0.0558  1.2003  0.2873
 7456SOL    HW234005   0.951   2.611  13.189 -1.0084  1.1129 -2.2892
 7457SOL     OW34006   3.732   3.692  11.785 -0.5907  0.9141 -0.3114
 7457SOL    HW134007   3.669   3.750  11.828  2.6761  2.8834  1.8485
 7457SOL    HW234008   3.671   3.620  11.769 -1.8444  2.2087 -1.3011
 7458SOL     OW34009   1.026   1.272  10.679  0.3007  0.4826 -0.1690
 7458SOL    HW134010   1.058   1.213  10.746  0.7870 -0.2608 -1.0669
 7458SOL    HW234011   0.970   1.335  10.725 -0.9302  1.7746 -3.4074
 7459SOL     OW34012   2.191   3.515   7.478 -0.1436 -0.5961  0.3282
 7459SOL    HW134013   2.245   3.591   7.500  0.2874 -0.8870  0.2553
 7459SOL    HW234014   2.107   3.561   7.490 -1.2520 -1.7839 -2.9220
 7460SOL     OW34015   1.728   3.865   7.102 -0.2708  0.0957  0.0297
 7460SOL    HW134016   1.795   3.805   7.069  1.0940  1.8942 -0.4342
 7460SOL    HW234017   1.775   3.947   7.115  0.3037  0.2131 -2.9536
 7461SOL     OW34018   3.527   4.362  14.867  0.5016 -0.5150 -0.2378
 7461SOL    HW134019   3.562   4.372  14.779  0.7726 -0.1505 -0.0881
 7461SOL    HW234020   3.455   4.299  14.856  0.5193 -0.2321 -1.9576
 7462SOL     OW34021   1.595   0.483  12.833 -0.1033  0.1932 -0.0153
 7462SOL    HW134022   1.578   0.511  12.743  0.1319 -1.4929 -0.5909
 7462SOL    HW234023   1.686   0.514  12.840 -0.4072  0.6855  1.6230
 7463SOL     OW34024   0.040   2.844  12.326 -0.3078 -0.1099  0.4505
 7463SOL    HW134025   4.694   2.856  12.375 -0.3237 -2.4753  1.0127
 7463SOL    HW234026   0.098   2.817  12.397  0.7914  0.2042 -0.3116
 7464SOL     OW34027   1.559   1.306   3.365 -0.4511  0.7018 -0.2781
 7464SOL    HW134028   1.591   1.364   3.434  0.9478 -0.8534  0.3946
 7464SOL    HW234029   1.536   1.371   3.299  0.0911  3.6656  2.4600
 7465SOL     OW34030   3.070   4.204  14.490  0.3251  0.0366 -0.1333
 7465SOL    HW134031   3.016   4.265  14.441 -0.1727  0.3675  0.8219
 7465SOL    HW234032   3.020   4.123  14.500  1.7199 -0.5595  2.2393
 7466SOL     OW34033   4.650   4.138   6.025  0.3785  0.2654 -0.0450
 7466SOL    HW134034   4.643   4.068   6.090  2.1391 -1.3388 -1.5924
 7466SOL    HW234035   4.626   4.081   5.952  2.0740 -0.1783 -0.2424
 7467SOL     OW34036   2.011   3.881   5.760  0.7305 -0.3561  0.2840
 7467SOL    HW134037   2.082   3.943   5.750  1.7185 -1.6108 -0.5018
 7467SOL    HW234038   1.971   3.910   5.842 -4.1975 -1.6982 -1.5832
 7468SOL     OW34039   3.630   2.818   4.057  0.2638 -0.3681 -0.2152
 7468SOL    HW134040   3.651   2.728   4.080 -0.6032 -1.1850 -2.6939
 7468SOL    HW234041   3.627   2.818   3.961  1.2102  1.7732 -0.2397
 7469SOL     OW34042   4.318   0.517  17.548 -0.2353  0.2800 -0.3562
 7469SOL    HW134043   4.272   0.581  17.602 -1.4924 -2.2791  1.5865
 7469SOL    HW234044   4.272   0.532  17.465 -3.6699 -1.3278  1.2541
 7470SOL     OW34045   1.227   2.345   2.139  0.3363 -0.6073 -0.4249
 7470SOL    HW134046   1.234   2.303   2.053 -3.6646 -1.3194 -0.4059
 7470SOL    HW234047   1.290   2.416   2.128 -0.6556  0.0681 -1.7897
 7471SOL     OW34048   1.611   0.010   2.077 -0.8665  0.2212  0.7060
 7471SOL    HW134049   1.671   0.083   2.093 -0.2588  0.1815 -1.3310
 7471SOL    HW234050   1.588   4.729   2.168 -1.5246 -0.6214  0.3944
 7472SOL     OW34051   2.125   3.960   2.759 -0.1000  0.0681  0.6006
 7472SOL    HW134052   2.045   3.998   2.795 -0.1423 -0.9113  1.5256
 7472SOL    HW234053   2.099   3.948   2.667  0.1778 -1.9088  0.7758
 7473SOL     OW34054   4.204   4.601   4.074  0.7132 -0.0644 -0.7895
 7473SOL    HW134055   4.291   4.621   4.039  1.0713 -0.6665 -0.2181
 7473SOL    HW234056   4.224   4.512   4.101 -1.2212 -0.9914 -2.3863
 7474SOL     OW34057   0.434   2.058   4.205 -0.0438  0.3541 -0.7265
 7474SOL    HW134058   0.404   2.143   4.237  1.3073  0.2997  0.6717
 7474SOL    HW234059   0.528   2.064   4.219 -0.2564  3.2921 -0.4047
 7475SOL     OW34060   2.244   3.528   4.467 -0.2420  0.3080  0.0263
 7475SOL    HW134061   2.234   3.551   4.559  0.9530 -3.2938  1.0654
 7475SOL    HW234062   2.184   3.593   4.432  2.5342  1.3516 -2.7608
 7476SOL     OW34063   2.527   1.794   3.824 -0.2610 -0.5143 -0.3666
 7476SOL    HW134064   2.490   1.807   3.736  3.4158 -0.7135 -1.9275
 7476SOL    HW234065   2.616   1.767   3.804  0.3164  2.2205 -1.4685
 7477SOL     OW34066   0.731   2.235   4.596 -0.1446 -0.9064  0.0571
 7477SOL    HW134067   0.810   2.193   4.563 -0.0191 -0.8892  0.3352
 7477SOL    HW234068   0.762   2.306   4.653  2.0865 -0.6630 -1.4556
 7478SOL     OW34069   0.481   1.289   5.471 -0.2323  0.2741 -0.3517
 7478SOL    HW134070   0.518   1.281   5.383 -2.2152 -2.2244 -0.9679
 7478SOL    HW234071   0.502   1.378   5.499  0.8904  0.3227 -1.3401
 7479SOL     OW34072   1.255   3.720  11.820  0.3602 -0.1702 -0.5081
 7479SOL    HW134073   1.300   3.711  11.736  2.7613  0.4655  0.7019
 7479SOL    HW234074   1.331   3.755  11.867 -0.0683 -0.3483  0.3107
 7480SOL     OW34075   3.659   4.400   4.399  0.3792 -0.2298  0.1802
 7480SOL    HW134076   3.585   4.344   4.375 -0.7486  1.5765 -0.4713
 7480SOL    HW234077   3.725   4.334   4.420  0.5447 -0.3002 -0.5841
 7481SOL     OW34078   2.389   4.608  17.540 -0.0397  0.1958 -0.5452
 7481SOL    HW134079   2.339   4.547  17.487 -1.6855  0.0568  1.1777
 7481SOL    HW234080   2.377   4.577  17.630 -0.7540 -4.6841 -2.3348
 7482SOL     OW34081   0.526   1.441   3.638 -0.2364 -0.0512  0.3846
 7482SOL    HW134082   0.469   1.372   3.605  0.6394 -0.6308  0.0923
 7482SOL    HW234083   0.607   1.392   3.645  1.8424  3.2866 -0.1414
 7483SOL     OW34084   1.655   0.308   1.221 -0.5672 -0.4050 -0.3867
 7483SOL    HW134085   1.641   0.214   1.234  1.6396 -1.0702 -2.9024
 7483SOL    HW234086   1.606   0.338   1.145 -2.5298  4.7795  2.9151
 7484SOL     OW34087   3.684   1.906  14.696  0.0918 -0.3234  0.8189
 7484SOL    HW134088   3.725   1.868  14.618 -0.1495  0.6906  0.2011
 7484SOL    HW234089   3.656   1.990  14.659  0.5480  0.4927  2.2936
 7485SOL     OW34090   3.332   0.542   6.325 -0.0955 -0.0614 -0.5954
 7485SOL    HW134091   3.263   0.530   6.259 -1.6269  1.1749  0.7552
 7485SOL    HW234092   3.414   0.543   6.276  1.2107  1.0454  1.6206
 7486SOL     OW34093   0.327   1.352   7.560 -0.4349  0.1153 -0.7082
 7486SOL    HW134094   0.320   1.319   7.470 -0.6569  1.5029 -1.1906
 7486SOL    HW234095   0.365   1.440   7.551 -2.3207  0.8948 -0.9015
 7487SOL     OW34096   3.367   2.452   2.848 -0.0267 -0.1756 -1.0878
 7487SOL    HW134097   3.323   2.367   2.853  1.0551 -0.4804  2.5783
 7487SOL    HW234098   3.321   2.483   2.769 -0.6827  0.0185 -0.6283
 7488SOL     OW34099   2.877   1.402   8.178  0.1303 -0.3018  0.0422
 7488SOL    HW134100   2.903   1.438   8.263 -0.9898 -1.0166  0.6994
 7488SOL    HW234101   2.853   1.480   8.129  0.2379 -0.1161  0.2869
 7489SOL     OW34102   2.398   0.207   3.399  0.2901  0.3641  0.0726
 7489SOL    HW134103   2.434   0.194   3.486  2.7546 -0.2655 -1.0594
 7489SOL    HW234104   2.427   0.133   3.347  0.9115 -0.3123  1.3936
 7490SOL     OW34105   2.985   3.575   6.055  0.2536  0.3088  0.2901
 7490SOL    HW134106   2.904   3.529   6.079 -0.2678  1.1504  0.1585
 7490SOL    HW234107   3.010   3.516   5.984 -0.9228 -0.7812  0.7749
 7491SOL     OW34108   0.308   2.187  10.701  0.5600  0.3570 -0.4179
 7491SOL    HW134109   0.325   2.143  10.785 -0.6632 -1.7165 -1.2468
 7491SOL    HW234110   0.239   2.132  10.665 -2.2162  2.9764  0.9207
 7492SOL     OW34111   3.915   2.665   2.764  0.4748 -0.4401 -0.0883
 7492SOL    HW134112   3.831   2.630   2.793  0.3118 -0.2256 -0.3107
 7492SOL    HW234113   3.977   2.641   2.833  1.7072  1.6058 -0.4896
 7493SOL     OW34114   2.029   1.539   0.178  0.0315 -0.4148 -0.8470
 7493SOL    HW134115   2.071   1.489   0.248  2.1794  0.6921 -1.3425
 7493SOL    HW234116   2.084   1.614   0.157 -1.8807  0.6901 -1.8850
 7494SOL     OW34117   0.011   0.893   2.790 -0.5668  0.2485  0.1541
 7494SOL    HW134118   0.084   0.905   2.850  0.1080  0.9650 -0.7977
 7494SOL    HW234119   4.682   0.943   2.841  1.0798 -1.0568  3.5053
 7495SOL     OW34120   4.075   3.975   9.641 -0.3170 -0.1006 -0.5579
 7495SOL    HW134121   4.132   3.900   9.658 -1.0084 -0.5763 -0.3458
 7495SOL    HW234122   4.088   4.031   9.717 -0.6159 -0.4699 -0.2378
 7496SOL     OW34123   4.170   2.498  14.159 -0.2326 -0.1523 -0.6832
 7496SOL    HW134124   4.217   2.531  14.083  1.9100  1.0384  1.1665
 7496SOL    HW234125   4.199   2.564  14.222 -1.4800 -1.1994  0.9894
 7497SOL     OW34126   0.066   1.938   9.654  0.1212 -0.0436  0.2516
 7497SOL    HW134127   0.090   1.846   9.668 -1.2484 -0.1475  1.9229
 7497SOL    HW234128   0.132   1.982   9.707 -1.0161  0.4044  1.2776
 7498SOL     OW34129   0.610   0.564   4.803 -0.1627 -0.0788 -0.2759
 7498SOL    HW134130   0.700   0.596   4.792 -0.1064  0.2938  1.3406
 7498SOL    HW234131   0.594   0.522   4.718 -0.1341 -1.3866  0.3629
 7499SOL     OW34132   0.751   2.451  14.470 -0.2927  0.1278  0.7102
 7499SOL    HW134133   0.844   2.470  14.481  0.0740  0.6539 -3.3254
 7499SOL    HW234134   0.754   2.393  14.394  1.1088 -0.6753  1.3849
 7500SOL     OW34135   0.061   3.261   5.623 -0.5535  0.3008  0.0387
 7500SOL    HW134136   0.148   3.250   5.583  0.1658  1.5929  1.2523
 7500SOL    HW234137   0.082   3.299   5.708 -0.0862  0.9828 -0.3890
 7501SOL     OW34138   1.932   2.833   6.826  0.3533 -0.1415  0.0940
 7501SOL    HW134139   1.889   2.882   6.897 -1.8331 -0.9211 -0.7313
 7501SOL    HW234140   1.875   2.853   6.752  0.2565  2.9309  0.9684
 7502SOL     OW34141   2.093   2.383   3.675  1.2388 -0.0814 -0.5653
 7502SOL    HW134142   2.104   2.314   3.741  0.9895 -0.6122 -1.0713
 7502SOL    HW234143   2.178   2.426   3.680  0.5796  1.2795 -1.2927
 7503SOL     OW34144   0.881   3.559   2.278  0.3851  0.4497 -0.1094
 7503SOL    HW134145   0.869   3.644   2.236 -0.8598 -0.5208 -1.7017
 7503SOL    HW234146   0.865   3.506   2.200 -1.1063 -1.7008  1.6361
 7504SOL     OW34147   4.107   2.617  10.350  0.2605  0.6635 -0.1156
 7504SOL    HW134148   4.198   2.647  10.347 -0.0810  1.9726  2.4489
 7504SOL    HW234149   4.106   2.570  10.434  0.6076  2.1511  0.7282
 7505SOL     OW34150   3.999   1.650  10.178  0.2395 -0.3274  0.3335
 7505SOL    HW134151   4.031   1.734  10.146 -0.1821  0.7590  2.7377
 7505SOL    HW234152   4.087   1.614  10.194  1.1758  1.1840 -1.4494
 7506SOL     OW34153   2.969   3.813   0.368  0.8903  0.5468 -0.0565
 7506SOL    HW134154   2.905   3.773   0.426  0.3915  1.9633  0.3527
 7506SOL    HW234155   2.914   3.870   0.315 -0.9087  0.6196  1.9040
 7507SOL     OW34156   2.080   2.754   3.200  0.6804 -0.2572  0.5665
 7507SOL    HW134157   2.038   2.801   3.272 -1.3299 -2.5741  0.9034
 7507SOL    HW234158   2.080   2.816   3.128  0.5060 -2.6973 -1.5297
 7508SOL     OW34159   0.123   2.330  13.059  0.3081 -0.1851  0.4312
 7508SOL    HW134160   0.121   2.413  13.011  1.4986  0.2066  1.0616
 7508SOL    HW234161   0.030   2.308  13.061  0.4015 -0.6153  0.1713
 7509SOL     OW34162   1.802   1.767  12.762  0.0948  0.0811  0.1487
 7509SOL    HW134163   1.796   1.686  12.813  0.2068  0.3222  0.5466
 7509SOL    HW234164   1.845   1.726  12.687 -2.1961 -2.7237  0.3361
 7510SOL     OW34165   2.768   0.522  12.279 -0.0109 -0.4978 -0.5244
 7510SOL    HW134166   2.781   0.546  12.187 -1.0260  1.5223 -0.1487
 7510SOL    HW234167   2.677   0.551  12.288 -0.0910 -0.7364 -0.5733
 7511SOL     OW34168   4.194   1.509  10.519  0.2660  0.4929 -0.7072
 7511SOL    HW134169   4.209   1.456  10.441  0.5594 -1.0841  0.4231
 7511SOL    HW234170   4.225   1.599  10.505 -1.6853  1.2672 -0.0247
 7512SOL     OW34171   0.288   2.170  14.072 -0.0492  0.5925  0.1500
 7512SOL    HW134172   0.208   2.219  14.053 -0.5013 -2.0616 -4.7490
 7512SOL    HW234173   0.250   2.086  14.095  0.3878  0.1449 -0.7432
 7513SOL     OW34174   3.171   3.034  15.429 -0.1433  0.8403 -0.0566
 7513SOL    HW134175   3.180   3.047  15.335 -3.5702 -0.5983 -0.6092
 7513SOL    HW234176   3.253   3.058  15.471  0.0436 -0.8171  0.5080
 7514SOL     OW34177   0.918   0.927   4.689 -0.0668 -0.7775  0.0691
 7514SOL    HW134178   0.875   0.971   4.616 -1.8063  1.8427  2.6542
 7514SOL    HW234179   0.899   0.986   4.762  0.1475 -1.9494  1.0760
 7515SOL     OW34180   1.199   2.723   2.791 -0.1548 -0.1998  0.0573
 7515SOL    HW134181   1.265   2.655   2.804 -0.6373 -0.6256  0.2812
 7515SOL    HW234182   1.211   2.781   2.866 -1.5204  2.1707 -1.5375
 7516SOL     OW34183   3.072   0.849   6.994 -0.7864  0.2847  0.2302
 7516SOL    HW134184   3.018   0.928   6.989 -1.2558 -0.1884 -2.1643
 7516SOL    HW234185   3.035   0.794   6.925 -0.5034 -1.4186  1.4537
 7517SOL     OW34186   0.653   0.302   5.119 -0.4795  0.3658  0.7069
 7517SOL    HW134187   0.676   0.224   5.069  1.5848  0.8878  0.8094
 7517SOL    HW234188   0.580   0.346   5.076 -1.8646 -2.3322  0.3001
 7518SOL     OW34189   1.263   2.206  10.045 -0.1911  0.3670 -0.1622
 7518SOL    HW134190   1.315   2.286  10.038  1.0336 -0.1794  2.5450
 7518SOL    HW234191   1.306   2.170  10.123  0.4955  1.8079  0.1244
 7519SOL     OW34192   3.618   4.048   0.754 -0.6800  0.5482  0.3525
 7519SOL    HW134193   3.672   4.038   0.832 -0.0035  2.8745  0.1655
 7519SOL    HW234194   3.551   4.108   0.787  0.7344  1.4373  1.5608
 7520SOL     OW34195   1.141   0.216   3.369 -0.9593  0.4021 -0.0794
 7520SOL    HW134196   1.121   0.153   3.300 -1.1156 -0.9249  1.1749
 7520SOL    HW234197   1.221   0.173   3.401 -1.7224  0.4829  1.9841
 7521SOL     OW34198   1.185   0.633   1.765 -0.3429  0.2664 -0.0575
 7521SOL    HW134199   1.190   0.551   1.716 -1.5737 -0.8447  1.7043
 7521SOL    HW234200   1.275   0.667   1.760 -0.1402 -0.1795  0.5845
 7522SOL     OW34201   1.321   0.267   8.524  0.1796  0.3742 -0.0504
 7522SOL    HW134202   1.316   0.257   8.429  1.1476 -2.1289  0.1469
 7522SOL    HW234203   1.265   0.343   8.538 -0.5390 -0.2825  0.6070
 7523SOL     OW34204   0.343   1.427   9.804 -0.5659  0.0882 -0.3098
 7523SOL    HW134205   0.438   1.431   9.820 -0.9142 -1.1491  2.1365
 7523SOL    HW234206   0.351   1.342   9.762  1.4366 -0.9763  2.1911
 7524SOL     OW34207   0.154   2.575   3.003  0.2707  0.1749 -0.0959
 7524SOL    HW134208   0.119   2.663   2.990  0.5403  0.7638  3.2257
 7524SOL    HW234209   0.173   2.579   3.096 -0.8279 -1.8183  0.2009
 7525SOL     OW34210   3.116   0.160  15.883 -0.3302  0.3552  0.4011
 7525SOL    HW134211   3.084   0.232  15.828  0.2485  1.0470  0.9582
 7525SOL    HW234212   3.117   0.212  15.964 -1.2791  0.8365  0.1027
 7526SOL     OW34213   3.042   3.236   4.360 -0.2147  0.3855  0.4575
 7526SOL    HW134214   2.991   3.177   4.305  0.2425 -0.2546  0.7202
 7526SOL    HW234215   3.091   3.255   4.280 -0.1331 -1.2403  0.1260
 7527SOL     OW34216   1.023   1.917   2.971  0.2417  0.8176 -0.9082
 7527SOL    HW134217   1.080   1.861   3.024 -0.0074  1.5623  0.1618
 7527SOL    HW234218   0.938   1.900   3.012 -0.4617  2.0157 -1.8581
 7528SOL     OW34219   1.873   0.092  16.874  0.0388 -0.6225 -0.4732
 7528SOL    HW134220   1.895   0.181  16.847 -0.1527 -1.1804 -2.4114
 7528SOL    HW234221   1.955   0.046  16.859 -0.8222 -1.2703 -3.0570
 7529SOL     OW34222   0.239   2.997   8.733  0.3228 -0.1805 -0.4527
 7529SOL    HW134223   0.294   2.958   8.665  0.3070  1.3782 -1.3743
 7529SOL    HW234224   0.164   2.940   8.719  0.8222 -0.6659 -1.1457
 7530SOL     OW34225   2.043   1.290   9.494 -0.3866 -0.1482  0.4347
 7530SOL    HW134226   1.993   1.368   9.473 -2.1813 -1.4711 -0.2215
 7530SOL    HW234227   2.051   1.249   9.408  0.9037 -0.3066  0.6387
 7531SOL     OW34228   2.877   3.692   8.235  0.2149  0.0952 -0.1908
 7531SOL    HW134229   2.923   3.632   8.294  0.3020 -0.9598 -1.3273
 7531SOL    HW234230   2.911   3.680   8.147  0.0679  1.9350 -0.4985
 7532SOL     OW34231   2.612   0.716  16.724 -0.4366 -0.4827 -0.0994
 7532SOL    HW134232   2.571   0.663  16.792 -3.5319 -0.0065 -1.6197
 7532SOL    HW234233   2.687   0.764  16.759  1.0202 -3.1735  0.4327
 7533SOL     OW34234   4.165   3.187   2.591  0.8033 -0.1715 -0.7187
 7533SOL    HW134235   4.105   3.143   2.530 -0.9320  1.2467 -0.0367
 7533SOL    HW234236   4.232   3.214   2.529  0.0344  0.6568 -1.1907
 7534SOL     OW34237   0.952   1.808   5.390 -0.4216 -0.5139 -0.2283
 7534SOL    HW134238   1.010   1.732   5.396 -1.1006 -0.9734  0.6047
 7534SOL    HW234239   1.006   1.874   5.434 -1.3616  0.6786 -0.8783
 7535SOL     OW34240   2.486   3.052   5.643 -0.8349  0.7337 -1.0772
 7535SOL    HW134241   2.555   2.987   5.658 -0.2205  1.5458 -0.3534
 7535SOL    HW234242   2.424   2.983   5.622  1.7149 -2.1354  0.9881
 7536SOL     OW34243   0.891   1.712   9.718  0.1794  0.1966  0.1067
 7536SOL    HW134244   0.960   1.663   9.673 -0.0723 -1.8621  1.9866
 7536SOL    HW234245   0.898   1.787   9.659  2.6408 -2.0278 -2.4348
 7537SOL     OW34246   4.524   0.596   2.883  0.2969  0.1716  0.3321
 7537SOL    HW134247   4.604   0.604   2.936 -0.6644 -0.3910  1.8674
 7537SOL    HW234248   4.486   0.680   2.908  0.2437  0.4781 -0.7663
 7538SOL     OW34249   3.672   3.006   4.554 -0.0068 -0.0759 -0.3986
 7538SOL    HW134250   3.673   3.014   4.458  1.2017  0.7986 -0.3078
 7538SOL    HW234251   3.578   3.014   4.569 -0.1390  0.2968 -1.3886
 7539SOL     OW34252   1.297   1.211   5.765  0.0960 -0.0629  0.0508
 7539SOL    HW134253   1.373   1.168   5.726 -0.8165 -1.4451 -0.2104
 7539SOL    HW234254   1.262   1.135   5.810 -0.4128  0.6579  0.8811
 7540SOL     OW34255   3.239   1.472   2.834  0.0573 -0.2921  0.0355
 7540SOL    HW134256   3.166   1.533   2.840 -0.1588 -0.4010 -1.4325
 7540SOL    HW234257   3.185   1.395   2.853 -0.1817  0.1568  1.1391
 7541SOL     OW34258   2.740   2.533   6.914 -0.5018 -0.3525  0.0495
 7541SOL    HW134259   2.719   2.564   6.825 -0.4013  0.1687  0.2117
 7541SOL    HW234260   2.650   2.530   6.948 -0.2176  2.9320  1.0901
 7542SOL     OW34261   3.990   0.614  17.128  0.0046  0.2198 -1.0850
 7542SOL    HW134262   3.896   0.608  17.148 -0.2205  2.4331 -1.4305
 7542SOL    HW234263   3.988   0.686  17.065  1.3675  1.2315  0.0198
 7543SOL     OW34264   0.613   2.458  15.722  0.5239  0.0245 -0.1228
 7543SOL    HW134265   0.538   2.402  15.703  1.1166 -0.8032 -0.0339
 7543SOL    HW234266   0.678   2.389  15.739  1.3630  0.5122 -1.3440
 7544SOL     OW34267   1.478   4.498  13.231 -0.8241 -0.3012 -0.1192
 7544SOL    HW134268   1.460   4.579  13.280  1.5408 -0.0884  0.3910
 7544SOL    HW234269   1.402   4.507  13.174 -0.1937  4.2388 -0.2527
 7545SOL     OW34270   4.423   2.795   4.203 -0.2299 -0.2235  0.6092
 7545SOL    HW134271   4.358   2.757   4.144  0.2472 -2.5024  1.5591
 7545SOL    HW234272   4.500   2.742   4.181 -0.0932  0.1633  0.1731
 7546SOL     OW34273   0.510   3.164   4.431 -0.8904 -0.0195 -0.2399
 7546SOL    HW134274   0.490   3.150   4.524  1.4756  1.5302  0.5013
 7546SOL    HW234275   0.431   3.204   4.394 -0.1479  1.9104  0.2869
 7547SOL     OW34276   3.190   1.408   8.561  0.1753 -0.2177 -0.5133
 7547SOL    HW134277   3.279   1.381   8.539  0.0884  1.7497 -3.3542
 7547SOL    HW234278   3.198   1.500   8.585 -1.8728 -0.1949  0.1059
 7548SOL     OW34279   4.336   3.712   5.336  0.0927  0.0076 -0.2469
 7548SOL    HW134280   4.262   3.763   5.369  0.8614  1.2953 -0.4879
 7548SOL    HW234281   4.327   3.729   5.242  1.6599 -1.0197 -0.5862
 7549SOL     OW34282   4.568   3.053   8.111 -0.0339  0.5716  0.2198
 7549SOL    HW134283   4.556   3.146   8.130 -1.1070  0.6467 -0.8402
 7549SOL    HW234284   4.566   3.025   8.203 -2.3978 -0.0669 -0.0460
 7550SOL     OW34285   1.847   3.543  16.869 -0.0934  0.0584 -0.5730
 7550SOL    HW134286   1.885   3.628  16.846  0.8366 -0.2438 -0.1769
 7550SOL    HW234287   1.882   3.495  16.794  0.1470  0.4059 -0.6802
 7551SOL     OW34288   1.927   1.583   3.019 -0.1065  0.5414  0.3116
 7551SOL    HW134289   1.994   1.531   3.062  0.5740  0.0868 -1.3441
 7551SOL    HW234290   1.988   1.654   3.000 -0.7003  0.7699 -0.7558
 7552SOL     OW34291   2.116   1.863   1.984 -0.0611  0.1071  0.3944
 7552SOL    HW134292   2.178   1.794   2.009 -2.0344 -0.7688  2.9155
 7552SOL    HW234293   2.086   1.839   1.896 -0.5934  3.1225 -0.2532
 7553SOL     OW34294   0.383   4.465   9.012  0.4431 -0.3494  0.0071
 7553SOL    HW134295   0.388   4.504   8.925 -0.3424 -2.7183 -1.1042
 7553SOL    HW234296   0.458   4.405   9.009  1.2736  0.6872  0.1229
 7554SOL     OW34297   2.189   4.105  10.553  0.6876  0.1296  0.0155
 7554SOL    HW134298   2.228   4.186  10.587  0.9253 -0.2526  0.6559
 7554SOL    HW234299   2.206   4.044  10.624 -2.1677 -1.0715 -0.3469
 7555SOL     OW34300   0.772   0.151   4.215 -0.3095 -0.9724 -0.5105
 7555SOL    HW134301   0.844   0.090   4.228 -1.0743 -1.5606  1.0357
 7555SOL    HW234302   0.714   0.131   4.288  0.8730  1.3876  1.0675
 7556SOL     OW34303   0.671   3.689   1.429  0.5413 -0.3974 -0.2099
 7556SOL    HW134304   0.646   3.759   1.369  1.7475 -1.2117 -1.6708
 7556SOL    HW234305   0.743   3.654   1.377 -1.5444 -1.9231 -2.0712
 7557SOL     OW34306   4.655   4.572  15.471 -0.7013  0.1065 -0.2431
 7557SOL    HW134307   4.570   4.576  15.427 -0.7942  0.1852 -0.0567
 7557SOL    HW234308   4.630   4.542  15.558 -0.9985  0.1136 -0.3233
 7558SOL     OW34309   4.207   0.212   7.573 -0.2618  0.8899 -0.3578
 7558SOL    HW134310   4.303   0.207   7.571 -0.2986 -0.8120  1.9556
 7558SOL    HW234311   4.195   0.277   7.641 -0.6179  0.6508 -0.1950
 7559SOL     OW34312   4.417   0.371  17.256  0.0042  0.2112  0.1023
 7559SOL    HW134313   4.402   0.314  17.181 -1.1671  0.6509  0.0061
 7559SOL    HW234314   4.336   0.418  17.276 -0.2294 -0.5339  0.8868
 7560SOL     OW34315   3.444   1.963   2.509  0.3219  0.1036  0.5894
 7560SOL    HW134316   3.387   1.890   2.483  0.8028  0.9158 -2.7544
 7560SOL    HW234317   3.490   1.932   2.586 -0.1188 -1.3356  0.2777
 7561SOL     OW34318   2.659   1.631   4.514 -0.6103  0.5083  0.8223
 7561SOL    HW134319   2.697   1.684   4.443 -2.4447  1.5452  0.5934
 7561SOL    HW234320   2.731   1.573   4.536 -1.4661 -1.7275 -2.2456
 7562SOL     OW34321   1.506   2.995   4.726 -0.4430  0.1432  0.5604
 7562SOL    HW134322   1.554   2.913   4.742  0.5153  0.6219  0.1262
 7562SOL    HW234323   1.431   2.950   4.686 -0.0465  1.1705 -1.3348
 7563SOL     OW34324   0.308   2.051   6.105  0.4752  0.2905  0.1042
 7563SOL    HW134325   0.252   2.013   6.174 -1.2413  0.7408 -1.0474
 7563SOL    HW234326   0.291   2.144   6.121 -0.7983  0.0340  0.2794
 7564SOL     OW34327   1.773   3.761   3.848  0.2960 -0.2769 -0.6222
 7564SOL    HW134328   1.800   3.694   3.786  0.1259 -0.8717 -0.0465
 7564SOL    HW234329   1.847   3.821   3.841  0.5054 -0.2806  1.6007
 7565SOL     OW34330   4.385   1.537   2.711  0.3259 -0.1240  0.4222
 7565SOL    HW134331   4.344   1.486   2.781  0.0684 -0.0523  0.3245
 7565SOL    HW234332   4.407   1.463   2.655  0.9673 -0.1393  0.6918
 7566SOL     OW34333   1.243   1.243   5.199  0.3255  0.0319  0.0111
 7566SOL    HW134334   1.319   1.256   5.257  0.0552  0.1983  0.3307
 7566SOL    HW234335   1.291   1.244   5.116 -1.5124  2.5237 -1.0245
 7567SOL     OW34336   1.524   2.524  13.137  0.4110  0.3947 -0.1484
 7567SOL    HW134337   1.457   2.499  13.074 -0.8566  0.4283  1.1921
 7567SOL    HW234338   1.607   2.525  13.090 -0.8228 -0.0060 -2.3422
 7568SOL     OW34339   1.329   1.741  17.240  0.8597  0.1287  0.1168
 7568SOL    HW134340   1.389   1.701  17.176  0.8673  0.5846 -0.1603
 7568SOL    HW234341   1.338   1.836  17.234  0.4547  0.0737 -1.4273
 7569SOL     OW34342   3.704   1.479   9.293 -1.0889  0.0032 -0.1161
 7569SOL    HW134343   3.796   1.492   9.316 -1.2304  1.0720 -0.1758
 7569SOL    HW234344   3.658   1.519   9.367  2.5910  0.1479  2.1091
 7570SOL     OW34345   0.531   1.578   4.302 -0.2729  0.0912 -0.0936
 7570SOL    HW134346   0.602   1.528   4.262 -0.4703 -0.8314  0.7224
 7570SOL    HW234347   0.507   1.513   4.368 -0.9023  1.7998  1.3681
 7571SOL     OW34348   2.221   0.534  13.124  0.4995 -0.2852 -0.3668
 7571SOL    HW134349   2.233   0.442  13.146  0.6771 -0.0460  0.5236
 7571SOL    HW234350   2.147   0.531  13.063 -0.7206 -2.0244  1.2171
 7572SOL     OW34351   1.292   4.423   1.587  0.6347 -0.2384 -1.1770
 7572SOL    HW134352   1.225   4.387   1.528 -0.3763  0.0501 -0.1921
 7572SOL    HW234353   1.375   4.401   1.544  1.7666  1.3583  0.1579
 7573SOL     OW34354   4.585   2.556   5.264 -0.4457  0.3333  0.2898
 7573SOL    HW134355   4.557   2.647   5.277  0.2924  0.5788  0.1608
 7573SOL    HW234356   4.678   2.577   5.271 -0.5760 -0.0047  3.0464
 7574SOL     OW34357   2.032   0.493  13.623  0.1996  0.7333  0.2581
 7574SOL    HW134358   2.114   0.445  13.614  3.0428  5.3000  1.8049
 7574SOL    HW234359   2.044   0.577  13.579  0.7416 -0.2656 -1.5168
 7575SOL     OW34360   1.687   2.271   5.383  0.7467 -0.2589  0.4370
 7575SOL    HW134361   1.782   2.281   5.382  0.2370  4.0723 -3.3330
 7575SOL    HW234362   1.661   2.358   5.354 -0.1591 -0.5114  0.4704
 7576SOL     OW34363   4.317   2.292   4.058 -0.2514  0.7993  0.0142
 7576SOL    HW134364   4.377   2.296   4.133  1.0778 -2.2106 -0.8617
 7576SOL    HW234365   4.376   2.340   3.999  0.6597 -1.4730 -0.9368
 7577SOL     OW34366   1.884   0.713   9.434  0.2739 -0.3504 -0.0493
 7577SOL    HW134367   1.804   0.664   9.412 -0.7869  1.4489 -0.1309
 7577SOL    HW234368   1.936   0.646   9.479 -0.6258  0.5331  2.2661
 7578SOL     OW34369   2.393   4.031   8.589  0.2773  0.0194  0.0790
 7578SOL    HW134370   2.330   3.971   8.629 -1.0869  1.5314  0.2237
 7578SOL    HW234371   2.411   4.099   8.654 -2.0125 -0.3147  1.0924
 7579SOL     OW34372   0.714   2.017  11.891 -0.5880  0.0009  0.7318
 7579SOL    HW134373   0.678   1.998  11.978 -2.3134 -0.1849 -0.0243
 7579SOL    HW234374   0.730   1.929  11.858 -2.8891 -0.7379  1.5820
 7580SOL     OW34375   1.675   1.544   3.922 -0.1842  0.2989  0.6964
 7580SOL    HW134376   1.769   1.527   3.919 -0.2003  0.3191 -0.0555
 7580SOL    HW234377   1.655   1.542   4.015  1.4494 -2.3917  0.9924
 7581SOL     OW34378   2.125   2.609   1.515  0.1937 -0.9097  0.4191
 7581SOL    HW134379   2.108   2.515   1.501  0.4984 -1.0895  1.2851
 7581SOL    HW234380   2.218   2.604   1.536  0.0003  0.6657  1.6012
 7582SOL     OW34381   3.420   0.178   3.053  0.0028 -0.1368  0.1282
 7582SOL    HW134382   3.342   0.139   3.092 -0.3239  1.2274  0.8141
 7582SOL    HW234383   3.487   0.156   3.117  1.0684 -0.9105 -1.2494
 7583SOL     OW34384   0.014   0.382   5.946 -0.0981  0.3583 -0.0153
 7583SOL    HW134385   0.067   0.435   6.005  1.9358 -1.2105 -0.4148
 7583SOL    HW234386   0.000   0.441   5.872  0.3160 -1.2137 -1.3560
 7584SOL     OW34387   0.290   3.061  14.402 -0.5455  0.2416 -0.1967
 7584SOL    HW134388   0.289   3.114  14.482 -2.2510 -1.7795  1.1059
 7584SOL    HW234389   0.200   3.064  14.371 -1.2675 -0.1099  1.8337
 7585SOL     OW34390   0.199   4.552  15.371 -0.1788  0.4895 -0.3433
 7585SOL    HW134391   0.112   4.583  15.396  0.8206  0.9772  2.5248
 7585SOL    HW234392   0.260   4.595  15.431  0.6778 -1.9220  0.4996
 7586SOL     OW34393   3.688   2.902   8.884 -0.5312 -0.0195  0.1659
 7586SOL    HW134394   3.631   2.844   8.833 -1.0753 -0.8129  1.6570
 7586SOL    HW234395   3.619   2.963   8.912  1.8602  2.8758 -0.3475
 7587SOL     OW34396   1.024   4.413   7.667  0.0268  0.0014 -0.2702
 7587SOL    HW134397   0.963   4.418   7.593  0.9470  1.3582 -0.9436
 7587SOL    HW234398   1.051   4.322   7.660 -0.8078 -0.2986  0.4316
 7588SOL     OW34399   2.676   4.648  17.521 -0.0639 -0.1469 -0.3428
 7588SOL    HW134400   2.665   0.007  17.538 -2.4206 -0.5696  0.3668
 7588SOL    HW234401   2.599   4.610  17.563 -0.1037 -0.8296 -1.0477
 7589SOL     OW34402   2.061   2.638   2.382 -0.3717  0.2406  0.0435
 7589SOL    HW134403   2.080   2.575   2.452 -1.3323 -1.3290 -1.1398
 7589SOL    HW234404   1.967   2.628   2.370 -0.6280 -0.0443  2.2386
 7590SOL     OW34405   4.670   1.121   8.686  0.0536 -0.2286  0.5603
 7590SOL    HW134406   4.667   1.085   8.598 -0.0203 -3.9360  2.0788
 7590SOL    HW234407   4.577   1.120   8.707  0.0928 -0.6344  0.7118
 7591SOL     OW34408   3.852   0.694   8.237 -0.1883 -0.2311  0.3211
 7591SOL    HW134409   3.844   0.677   8.143  1.6183 -0.3328  0.1790
 7591SOL    HW234410   3.765   0.666   8.264 -1.1329  1.6189 -0.8177
 7592SOL     OW34411   4.346   0.967   3.182  0.1858  0.1946 -0.2152
 7592SOL    HW134412   4.353   1.038   3.245 -0.6191 -0.0852  0.1979
 7592SOL    HW234413   4.283   0.909   3.226 -1.2104  1.3332 -0.7106
 7593SOL     OW34414   1.042   3.526   4.385  0.0446 -0.1670  0.7637
 7593SOL    HW134415   1.112   3.490   4.330 -1.6715 -0.5740 -1.1241
 7593SOL    HW234416   1.092   3.596   4.427 -1.1870 -1.7219  4.8259
 7594SOL     OW34417   2.746   2.704   2.696 -0.5428  0.5111 -0.8260
 7594SOL    HW134418   2.673   2.762   2.676 -1.3488 -0.7477 -1.5522
 7594SOL    HW234419   2.702   2.622   2.676  0.6510 -0.5628  0.9522
 7595SOL     OW34420   3.509   2.985   7.553  0.1805  0.0324  0.5039
 7595SOL    HW134421   3.508   2.896   7.517  0.2186  0.3253 -0.2222
 7595SOL    HW234422   3.416   3.004   7.549 -0.0690 -1.9589 -3.4605
 7596SOL     OW34423   4.177   2.035   2.670  0.1689 -0.0447 -0.0025
 7596SOL    HW134424   4.116   2.023   2.743 -0.4165 -2.3601 -0.8488
 7596SOL    HW234425   4.122   2.081   2.607 -1.6729 -1.8216  0.2931
 7597SOL     OW34426   3.456   0.959  15.291 -0.2687  0.3976 -0.0140
 7597SOL    HW134427   3.377   0.915  15.260  1.6180 -0.7633 -3.1802
 7597SOL    HW234428   3.504   0.969  15.209  1.1279 -0.1136  0.7581
 7598SOL     OW34429   4.399   4.552   0.700  0.5841  0.3141 -0.5934
 7598SOL    HW134430   4.388   4.457   0.691 -2.6543  0.5104  0.9222
 7598SOL    HW234431   4.338   4.571   0.629 -0.7571  2.8269  1.2218
 7599SOL     OW34432   0.333   0.881  13.295 -0.3451  0.5152  0.0654
 7599SOL    HW134433   0.304   0.942  13.363  0.5885  1.7209 -0.6027
 7599SOL    HW234434   0.407   0.921  13.248 -0.4240  0.6167  0.0282
 7600SOL     OW34435   4.317   3.475   8.250 -0.2267  0.0840  0.4430
 7600SOL    HW134436   4.238   3.422   8.252  0.1071 -0.4429 -0.2153
 7600SOL    HW234437   4.292   3.567   8.250 -0.2080  0.1027  2.6732
 7601SOL     OW34438   3.600   0.610  12.641  0.0149 -0.2616 -0.2533
 7601SOL    HW134439   3.593   0.676  12.710  0.2277 -0.1544 -0.3341
 7601SOL    HW234440   3.694   0.594  12.648 -0.2659 -1.1935  1.6842
 7602SOL     OW34441   0.860   2.618  16.634 -0.1000 -0.3573 -0.1012
 7602SOL    HW134442   0.928   2.671  16.674  1.2966 -1.5071 -0.9527
 7602SOL    HW234443   0.794   2.685  16.617 -0.1154 -0.2122  0.5441
 7603SOL     OW34444   0.669   0.573  10.072  0.0021 -0.2636  0.2280
 7603SOL    HW134445   0.576   0.553  10.061  0.0273  1.1349 -2.3709
 7603SOL    HW234446   0.672   0.560  10.167  3.5204 -1.5208 -0.0400
 7604SOL     OW34447   3.940   1.367   5.988 -0.9978  0.7202 -0.5416
 7604SOL    HW134448   3.881   1.299   6.020  0.8824 -0.1510  1.1104
 7604SOL    HW234449   3.898   1.439   5.942 -1.0948 -0.1941 -1.8984
 7605SOL     OW34450   1.452   2.093  17.009 -0.6525 -0.2856  0.3288
 7605SOL    HW134451   1.477   2.049  16.928 -2.0049  0.7891 -0.6730
 7605SOL    HW234452   1.378   2.136  16.966  0.9419  1.6184 -0.5399
 7606SOL     OW34453   0.095   0.219   4.755  0.2679  0.9092  0.1042
 7606SOL    HW134454   0.033   0.277   4.712 -1.4192 -0.5625  0.5576
 7606SOL    HW234455   0.162   0.208   4.688  0.1054  1.1782 -0.1048
 7607SOL     OW34456   3.217   3.161   6.367 -0.4431 -0.0609 -0.2255
 7607SOL    HW134457   3.163   3.179   6.291  0.8549 -0.9413 -1.3569
 7607SOL    HW234458   3.272   3.240   6.367  0.5577 -0.7541  1.0551
 7608SOL     OW34459   2.740   3.921   4.617  0.0585 -0.2358  0.0217
 7608SOL    HW134460   2.827   3.927   4.580  1.0440 -1.6120  2.1019
 7608SOL    HW234461   2.724   4.015   4.616 -2.5759 -0.6839 -1.2013
 7609SOL     OW34462   1.740   3.841   3.004 -0.1257 -0.1304  0.3570
 7609SOL    HW134463   1.658   3.865   2.961  1.9161  2.5635 -2.0187
 7609SOL    HW234464   1.707   3.801   3.084  1.0387 -0.0605  0.8717
 7610SOL     OW34465   0.182   1.557   0.576  0.1846  0.5984 -0.1925
 7610SOL    HW134466   0.180   1.598   0.662 -0.5029 -2.3382  1.1951
 7610SOL    HW234467   0.272   1.524   0.572 -0.2903 -0.6021 -0.9436
 7611SOL     OW34468   3.393   3.371   6.744 -0.7394 -0.0628  0.1638
 7611SOL    HW134469   3.388   3.276   6.738 -0.4773  0.1075 -2.7033
 7611SOL    HW234470   3.430   3.384   6.831 -0.1962  0.8849 -0.2052
 7612SOL     OW34471   1.238   3.525   9.078 -0.2779  0.0744 -0.1639
 7612SOL    HW134472   1.248   3.575   8.997  1.3524  2.0408  1.2558
 7612SOL    HW234473   1.324   3.520   9.120  0.0973 -0.7100 -1.0255
 7613SOL     OW34474   1.120   4.087   6.688 -0.2108 -0.0618  0.3987
 7613SOL    HW134475   1.081   4.010   6.730  0.6951 -0.4508  0.5188
 7613SOL    HW234476   1.211   4.058   6.680 -0.6308 -1.2450 -0.0878
 7614SOL     OW34477   4.119   3.939   2.337  0.0439  0.7913 -0.6303
 7614SOL    HW134478   4.150   3.904   2.253 -1.3527 -0.5135 -0.6049
 7614SOL    HW234479   4.035   3.895   2.348 -0.3350  2.3168  2.6555
 7615SOL     OW34480   4.003   4.673   4.247  0.1064 -0.0358  0.1483
 7615SOL    HW134481   3.957   0.021   4.231 -0.5816 -0.5472 -0.5635
 7615SOL    HW234482   4.037   4.652   4.160 -2.3897 -0.1162 -0.8226
 7616SOL     OW34483   0.387   1.814  16.998 -0.2362 -0.0458 -0.0895
 7616SOL    HW134484   0.439   1.743  17.037  1.3983  0.5752 -1.1771
 7616SOL    HW234485   0.443   1.845  16.928  0.4588 -0.2610  0.3677
 7617SOL     OW34486   2.174   4.524  12.351 -0.5571 -0.0298  0.1634
 7617SOL    HW134487   2.128   4.565  12.424  0.2781 -0.6366  1.0168
 7617SOL    HW234488   2.226   4.601  12.328 -0.8152 -0.3930 -1.6550
 7618SOL     OW34489   3.286   3.668   2.769 -0.3611  0.1943 -0.8704
 7618SOL    HW134490   3.355   3.735   2.772 -0.9368  0.6089  4.2807
 7618SOL    HW234491   3.279   3.652   2.675 -0.4183 -1.3977 -0.6001
 7619SOL     OW34492   2.526   0.353   5.259 -0.1711  0.4997 -0.7511
 7619SOL    HW134493   2.536   0.441   5.223 -1.0477  0.1354 -1.8793
 7619SOL    HW234494   2.447   0.369   5.310 -1.3341  0.5202 -2.5383
 7620SOL     OW34495   3.595   3.556   5.955  0.6368  0.0778 -0.6119
 7620SOL    HW134496   3.614   3.462   5.955  2.1500  0.3956  0.5304
 7620SOL    HW234497   3.508   3.554   5.996  0.7315 -1.9753 -0.5027
 7621SOL     OW34498   3.501   2.041   4.519  0.1142 -0.3310  0.4144
 7621SOL    HW134499   3.441   2.092   4.574  0.3660 -1.1741  1.4763
 7621SOL    HW234500   3.451   1.962   4.498  1.6131 -0.8951 -1.0049
 7622SOL     OW34501   3.306   3.253   9.144  0.2907 -0.1346 -0.2745
 7622SOL    HW134502   3.235   3.317   9.157  0.9769  0.5387  0.1762
 7622SOL    HW234503   3.279   3.229   9.056 -2.0269  1.4685 -0.0265
 7623SOL     OW34504   1.785   2.138   8.819  0.2044  0.3412 -0.5714
 7623SOL    HW134505   1.712   2.167   8.874  1.4348  2.8495 -0.2674
 7623SOL    HW234506   1.837   2.218   8.819  0.4818  0.1652 -1.0756
 7624SOL     OW34507   0.415   1.903   9.879  0.5724  0.0336  0.3716
 7624SOL    HW134508   0.453   1.929   9.963 -1.2969 -2.5513  2.0066
 7624SOL    HW234509   0.480   1.840   9.846  1.4213  0.8096  0.5807
 7625SOL     OW34510   0.356   1.612  11.380 -0.5305  0.0885  0.9646
 7625SOL    HW134511   0.287   1.615  11.314 -0.1629 -1.8330  0.4820
 7625SOL    HW234512   0.396   1.699  11.372  2.2830 -1.2932 -0.0431
 7626SOL     OW34513   4.043   0.810   8.422  0.1859 -0.0673 -0.1323
 7626SOL    HW134514   3.970   0.858   8.460 -0.2033 -0.5422 -0.2811
 7626SOL    HW234515   4.003   0.747   8.362  3.2420 -0.8585 -1.3934
 7627SOL     OW34516   1.952   0.611   1.997  0.6243 -1.0171 -0.2126
 7627SOL    HW134517   1.974   0.703   2.013 -0.8255 -0.8545  0.8161
 7627SOL    HW234518   2.040   0.574   1.999  1.0780 -0.0136 -1.3963
 7628SOL     OW34519   2.735   0.738   6.977  0.0699 -0.4947  0.0767
 7628SOL    HW134520   2.704   0.716   6.889 -0.8295 -0.6174  0.4141
 7628SOL    HW234521   2.753   0.832   6.978  0.5663 -0.5986  2.5610
 7629SOL     OW34522   1.122   4.733   5.539 -0.5369  0.2192 -0.2494
 7629SOL    HW134523   1.070   0.072   5.571 -1.7733  0.2757 -2.4086
 7629SOL    HW234524   1.181   0.042   5.478 -0.5186  0.3681 -0.1244
 7630SOL     OW34525   0.042   3.265  10.899 -0.0830  0.1865 -0.0588
 7630SOL    HW134526   0.118   3.236  10.848 -1.6050 -1.1002 -1.5877
 7630SOL    HW234527   0.018   3.188  10.951 -0.1502  0.4824  0.3510
 7631SOL     OW34528   3.594   3.409   8.256 -0.3142  0.1690 -0.3697
 7631SOL    HW134529   3.575   3.503   8.252 -0.7986  0.0591 -0.5854
 7631SOL    HW234530   3.550   3.380   8.176  1.4992  0.3445 -1.4146
 7632SOL     OW34531   4.150   4.134   0.976  0.4212 -0.1724  0.3900
 7632SOL    HW134532   4.233   4.098   1.009  0.4631  2.0457  2.7682
 7632SOL    HW234533   4.162   4.228   0.985 -1.9102  0.2561 -0.9544
 7633SOL     OW34534   0.010   0.270   1.591  0.6696  0.2027  0.0292
 7633SOL    HW134535   0.101   0.262   1.617  1.7584  1.5315 -3.3814
 7633SOL    HW234536   0.013   0.208   1.518  1.6351  1.5274 -1.0550
 7634SOL     OW34537   0.520   4.579  11.814  0.4518 -0.1714 -0.2401
 7634SOL    HW134538   0.509   4.623  11.730  1.7822 -0.5993 -0.6364
 7634SOL    HW234539   0.605   4.536  11.814  1.0218  0.9637  0.9154
 7635SOL     OW34540   1.116   3.092   0.569 -0.2551  0.3612  0.6084
 7635SOL    HW134541   1.036   3.040   0.564  0.8372 -1.2270 -0.3875
 7635SOL    HW234542   1.165   3.039   0.632  2.9061  2.2503 -0.2527
 7636SOL     OW34543   3.533   4.458   0.713 -0.5854 -0.0802  0.2712
 7636SOL    HW134544   3.601   4.516   0.679  0.5351 -0.9493  1.0512
 7636SOL    HW234545   3.459   4.519   0.701 -1.1257 -1.1171 -1.7478
 7637SOL     OW34546   4.249   3.586   3.775 -0.0909 -0.5303 -1.0006
 7637SOL    HW134547   4.246   3.611   3.683  0.3058  0.2287 -0.8072
 7637SOL    HW234548   4.341   3.557   3.778  0.1274  0.3112  0.6376
 7638SOL     OW34549   1.965   1.519   2.457 -0.8374  0.0482  0.5132
 7638SOL    HW134550   1.934   1.589   2.515 -0.8626  1.1109 -0.7793
 7638SOL    HW234551   1.956   1.438   2.507 -1.0397 -0.9160 -1.0682
 7639SOL     OW34552   2.528   2.508   7.313 -0.7728 -0.5995 -0.0644
 7639SOL    HW134553   2.563   2.443   7.374 -3.4262  1.1833  3.3603
 7639SOL    HW234554   2.458   2.547   7.366  0.0046  0.7637 -0.0274
 7640SOL     OW34555   2.211   2.089  16.338 -0.5944  0.1107 -0.3462
 7640SOL    HW134556   2.175   2.030  16.404  0.8171  1.0740  1.2838
 7640SOL    HW234557   2.150   2.083  16.264  0.5399  0.3746 -1.3096
 7641SOL     OW34558   2.110   2.932  14.690 -0.0697  0.0098  0.0043
 7641SOL    HW134559   2.159   2.993  14.745  0.6081 -1.0691  0.5961
 7641SOL    HW234560   2.031   2.976  14.657 -0.0258 -1.7809 -2.5098
 7642SOL     OW34561   2.703   2.353   2.102 -0.2471 -0.0098 -0.6789
 7642SOL    HW134562   2.784   2.399   2.081  0.0312  0.2316  0.9620
 7642SOL    HW234563   2.683   2.386   2.189  2.7245  1.2398 -0.4573
 7643SOL     OW34564   2.048   1.504   5.142  0.7417  0.2457  0.3083
 7643SOL    HW134565   2.133   1.525   5.182  0.0005 -1.8417  2.9963
 7643SOL    HW234566   2.040   1.561   5.066 -0.5786  1.1634  1.1422
 7644SOL     OW34567   2.675   0.012   7.880  0.1051  0.1709 -0.2201
 7644SOL    HW134568   2.750   0.040   7.932  0.4601 -2.0486  0.4703
 7644SOL    HW234569   2.669   4.656   7.912  1.2119 -0.6699 -2.4635
 7645SOL     OW34570   1.908   1.676   1.008 -0.4284 -0.4011 -0.0312
 7645SOL    HW134571   1.961   1.704   0.933 -1.0594  0.3882 -0.1777
 7645SOL    HW234572   1.833   1.734   0.994  1.5488  2.0650 -0.2309
 7646SOL     OW34573   2.640   3.939   0.492 -0.6959 -0.1484  0.3760
 7646SOL    HW134574   2.576   3.889   0.543 -2.4114  1.5440 -0.1089
 7646SOL    HW234575   2.589   3.969   0.418  2.0849 -0.2878 -1.5917
 7647SOL     OW34576   2.839   4.293   2.391 -0.7211 -0.0642  0.3976
 7647SOL    HW134577   2.825   4.328   2.303  1.4345 -0.5250 -0.1351
 7647SOL    HW234578   2.881   4.370   2.430  1.6041 -0.2058 -1.8624
 7648SOL     OW34579   3.574   3.759   6.533 -0.0541  0.1943 -0.7024
 7648SOL    HW134580   3.564   3.764   6.628  2.2673  0.1641 -0.4411
 7648SOL    HW234581   3.606   3.847   6.512  0.9342 -0.4543 -1.8701
 7649SOL     OW34582   1.891   4.364   1.834 -0.0853  0.0386 -0.0931
 7649SOL    HW134583   1.967   4.317   1.868 -0.4085 -1.0620 -0.8796
 7649SOL    HW234584   1.884   4.329   1.745  0.9486 -0.1070 -0.1174
 7650SOL     OW34585   1.936   0.436   6.378  0.0664  0.4120  0.3125
 7650SOL    HW134586   2.028   0.422   6.356 -0.6936  0.8832 -3.1408
 7650SOL    HW234587   1.941   0.442   6.473  1.1498 -0.4148  0.3139
 7651SOL     OW34588   0.941   1.579   2.145  0.1974 -0.2658 -0.0463
 7651SOL    HW134589   0.924   1.670   2.169  3.7054  0.3420  0.1041
 7651SOL    HW234590   1.035   1.566   2.155  0.4187  1.7730  0.3553
 7652SOL     OW34591   2.814   3.862   3.682  0.2764  0.5791  0.0318
 7652SOL    HW134592   2.775   3.778   3.705 -0.2165  0.9156  0.4324
 7652SOL    HW234593   2.837   3.840   3.592 -1.2598 -0.6856 -0.0470
 7653SOL     OW34594   3.037   4.618  15.792 -0.0650 -0.3409 -0.1858
 7653SOL    HW134595   3.032   4.579  15.705  4.0366 -0.3905 -0.4081
 7653SOL    HW234596   3.033   4.713  15.781 -1.9515 -0.3622  0.2500
 7654SOL     OW34597   3.377   3.930   5.653 -0.2038  0.4229  0.1856
 7654SOL    HW134598   3.373   3.922   5.558 -0.4113  2.1076  0.0649
 7654SOL    HW234599   3.319   3.857   5.675 -0.6141  0.5792 -0.3822
 7655SOL     OW34600   0.592   2.429   1.661  0.0014 -0.2226 -0.2282
 7655SOL    HW134601   0.525   2.450   1.596  0.7753  0.4416 -0.8102
 7655SOL    HW234602   0.674   2.439   1.612  0.1656 -0.7236 -0.0529
 7656SOL     OW34603   1.489   4.433   8.908 -0.4001  0.1891  0.5658
 7656SOL    HW134604   1.508   4.363   8.970  2.0603 -0.6315 -1.1055
 7656SOL    HW234605   1.415   4.399   8.859 -1.0920  1.9709  0.3638
 7657SOL     OW34606   4.718   4.679  14.330 -0.4490 -0.2147  0.2938
 7657SOL    HW134607   4.649   4.695  14.394 -1.5031 -1.6815 -0.4494
 7657SOL    HW234608   4.692   0.016  14.274 -1.1455 -0.9629 -0.3429
 7658SOL     OW34609   1.970   3.130   6.509 -0.2123  0.1982 -0.0501
 7658SOL    HW134610   1.970   3.213   6.461 -1.3835 -1.5278 -3.0199
 7658SOL    HW234611   2.056   3.099   6.481 -0.3149 -0.2467  0.1373
 7659SOL     OW34612   3.547   1.277   4.242  0.9615  0.5073 -0.2334
 7659SOL    HW134613   3.570   1.364   4.274  1.4670  0.3270 -0.1068
 7659SOL    HW234614   3.562   1.286   4.148 -1.6267 -0.5919 -0.7458
 7660SOL     OW34615   2.362   4.289   0.020 -0.8016  0.3932  0.3300
 7660SOL    HW134616   2.289   4.237  17.726  0.0885 -0.4253 -0.3501
 7660SOL    HW234617   2.412   4.310  17.679 -0.2218 -1.6908  0.1511
 7661SOL     OW34618   3.943   4.617   3.669  0.4671 -0.0392 -0.3264
 7661SOL    HW134619   3.955   4.677   3.742 -0.0079 -1.1933  0.6952
 7661SOL    HW234620   3.914   4.536   3.711 -1.1752  0.7525  0.0616
 7662SOL     OW34621   2.742   2.264   3.698 -0.3087  0.4021  0.2692
 7662SOL    HW134622   2.714   2.191   3.644  0.4578 -0.1874  0.6728
 7662SOL    HW234623   2.811   2.295   3.640  0.1428 -1.0156  0.0655
 7663SOL     OW34624   0.732   2.650  12.943  0.3659  0.7506 -0.2414
 7663SOL    HW134625   0.758   2.593  13.015  1.3766 -0.8506 -1.8835
 7663SOL    HW234626   0.816   2.680  12.909  0.4563 -0.4286 -1.0435
 7664SOL     OW34627   1.821   1.451   7.506  0.3156  0.0428 -0.4078
 7664SOL    HW134628   1.772   1.412   7.434 -0.3279 -0.9499  0.5772
 7664SOL    HW234629   1.757   1.436   7.576 -1.0277 -0.2620 -1.7038
 7665SOL     OW34630   4.163   0.610   8.584 -0.0237 -0.3388 -0.3677
 7665SOL    HW134631   4.118   0.694   8.575  1.1275  0.1614 -1.4470
 7665SOL    HW234632   4.182   0.585   8.494  0.1250  0.4187 -0.5441
 7666SOL     OW34633   1.523   2.913   2.758  0.1569 -0.0572  0.2451
 7666SOL    HW134634   1.480   2.833   2.727 -2.3149  1.3969 -0.0336
 7666SOL    HW234635   1.597   2.933   2.700 -0.8898  0.3478 -0.9405
 7667SOL     OW34636   2.406   3.102   3.077 -0.0835  0.4613 -0.0169
 7667SOL    HW134637   2.359   3.136   3.001  1.8948 -0.7434 -1.7806
 7667SOL    HW234638   2.493   3.086   3.040  0.3363 -0.1549  1.2501
 7668SOL     OW34639   2.377   4.199   6.379  0.0520  0.4641 -0.1532
 7668SOL    HW134640   2.413   4.114   6.352  1.8003  1.7714 -1.9229
 7668SOL    HW234641   2.427   4.256   6.321  0.9783  0.0847  0.2748
 7669SOL     OW34642   2.396   4.691   2.181  0.2604  0.8904  0.1663
 7669SOL    HW134643   2.366   4.609   2.142 -0.8284  0.9129  0.9589
 7669SOL    HW234644   2.320   0.014   2.169  0.2816  0.4215 -2.1991
 7670SOL     OW34645   3.008   3.748  11.387  0.0693  0.0716  0.3075
 7670SOL    HW134646   2.918   3.759  11.420  0.5303  2.8645  0.6648
 7670SOL    HW234647   3.006   3.823  11.328 -0.7024 -0.6440 -0.5719
 7671SOL     OW34648   1.854   0.141   6.836  0.0811  0.2128  0.2487
 7671SOL    HW134649   1.767   0.125   6.799  0.0458  2.6508 -0.7370
 7671SOL    HW234650   1.912   0.101   6.770 -2.2602 -0.3015 -1.4871
 7672SOL     OW34651   1.338   3.630   1.729  0.0763  0.0352 -0.1114
 7672SOL    HW134652   1.429   3.658   1.727 -0.6762  2.5004  0.6806
 7672SOL    HW234653   1.339   3.584   1.645  1.2069  0.1697 -0.1701
 7673SOL     OW34654   4.449   4.207  12.088 -0.3278  0.2811  0.0718
 7673SOL    HW134655   4.497   4.171  12.014 -0.9864 -0.1602 -0.1465
 7673SOL    HW234656   4.517   4.243  12.145  0.2699 -1.6751  0.5975
 7674SOL     OW34657   3.816   2.716   5.281 -0.1045  0.1086  0.2647
 7674SOL    HW134658   3.829   2.810   5.293  2.2557 -0.2488  0.5737
 7674SOL    HW234659   3.839   2.684   5.368  0.4123  1.1876  0.5193
 7675SOL     OW34660   4.528   0.503   3.314  0.4025  0.0921 -0.6719
 7675SOL    HW134661   4.551   0.513   3.407 -0.2490 -1.0350 -0.3943
 7675SOL    HW234662   4.566   0.584   3.280  0.2509  0.7899  0.7905
 7676SOL     OW34663   1.119   4.599  11.405 -0.2712 -0.1322  0.2554
 7676SOL    HW134664   1.203   4.575  11.366 -0.4116 -0.0876 -0.0752
 7676SOL    HW234665   1.101   4.669  11.342  0.5867  0.0008  0.1550
 7677SOL     OW34666   3.162   1.288   6.548  0.3996 -0.0823  0.3412
 7677SOL    HW134667   3.214   1.208   6.546  0.7959  0.1712  0.6149
 7677SOL    HW234668   3.075   1.248   6.546  0.7342 -0.8130  0.6516
 7678SOL     OW34669   0.179   4.409  12.363 -0.2266 -0.3553 -0.4090
 7678SOL    HW134670   0.193   4.491  12.411  0.1608  0.6905 -2.3425
 7678SOL    HW234671   0.167   4.338  12.427  1.7304 -0.2881  0.0335
 7679SOL     OW34672   3.289   4.131   5.862 -0.2013  0.8369 -0.0802
 7679SOL    HW134673   3.265   4.054   5.809 -1.3657  3.1607 -2.9058
 7679SOL    HW234674   3.262   4.203   5.805  0.8917  1.4572  0.2011
 7680SOL     OW34675   4.088   3.505   7.130 -0.4279 -0.2578 -0.2785
 7680SOL    HW134676   4.123   3.588   7.099 -0.5523 -0.4991 -1.0675
 7680SOL    HW234677   4.088   3.451   7.051 -1.8500  0.9412 -1.0854
 7681SOL     OW34678   2.447   2.109   6.752  0.5832  0.6432  0.6765
 7681SOL    HW134679   2.506   2.089   6.824  0.8347 -0.5666  0.1390
 7681SOL    HW234680   2.506   2.163   6.699 -0.0652 -0.0179 -0.7161
 7682SOL     OW34681   1.889   2.263   9.407 -0.5965  0.0107  0.2856
 7682SOL    HW134682   1.898   2.298   9.318 -3.6401  0.7550  0.3023
 7682SOL    HW234683   1.799   2.235   9.394 -0.6436 -0.6317  1.9814
 7683SOL     OW34684   2.048   0.756  16.442  0.0786  0.0091 -0.0345
 7683SOL    HW134685   2.104   0.761  16.365 -1.0070 -2.1480 -0.9603
 7683SOL    HW234686   2.104   0.705  16.501  0.4172  0.4039 -0.0114
 7684SOL     OW34687   1.440   0.486   8.079 -0.0575 -0.3105 -0.1660
 7684SOL    HW134688   1.403   0.571   8.056  0.5454  0.8233  2.9280
 7684SOL    HW234689   1.532   0.514   8.086 -0.7273  1.8142  0.0583
 7685SOL     OW34690   0.328   3.665   7.043 -0.0855  0.3696  0.1543
 7685SOL    HW134691   0.419   3.650   7.019  0.1804 -0.5326  1.6958
 7685SOL    HW234692   0.322   3.604   7.117  0.3285  1.8990  1.4542
 7686SOL     OW34693   0.266   3.349  13.068 -0.8590  0.1362 -0.1439
 7686SOL    HW134694   0.190   3.343  13.009  0.0227  0.8886 -1.3507
 7686SOL    HW234695   0.248   3.438  13.097  0.3366  1.5326 -3.7741
 7687SOL     OW34696   4.710   0.344  14.486  0.3073  0.1521 -0.1241
 7687SOL    HW134697   4.726   0.318  14.395 -1.7391 -2.7693  0.3584
 7687SOL    HW234698   0.048   0.403  14.503  0.3004 -0.5380  2.2311
 7688SOL     OW34699   1.385   3.412  13.308 -0.2375  0.2273  0.4787
 7688SOL    HW134700   1.409   3.479  13.245 -4.0664  1.4852  0.3877
 7688SOL    HW234701   1.292   3.428  13.321 -0.6980 -2.1140  0.0634
 7689SOL     OW34702   1.486   0.543   2.399 -0.3776  0.5720 -0.0874
 7689SOL    HW134703   1.458   0.631   2.375  0.5657  0.3780 -1.9116
 7689SOL    HW234704   1.406   0.493   2.387 -0.4034  0.3394  1.0482
 7690SOL     OW34705   1.707   3.767   9.239  0.3046  0.1229 -0.1431
 7690SOL    HW134706   1.725   3.855   9.206 -0.0512  0.2199 -0.0764
 7690SOL    HW234707   1.791   3.753   9.284  0.5493 -1.3385 -1.0655
 7691SOL     OW34708   4.733   3.108   8.948 -0.0139 -0.1294 -0.4747
 7691SOL    HW134709   0.075   3.077   8.900 -1.1600 -1.9626 -1.0973
 7691SOL    HW234710   4.727   3.200   8.924  0.9823  0.5495  1.7888
 7692SOL     OW34711   0.832   0.134   1.928  0.2320  0.2149 -0.2480
 7692SOL    HW134712   0.771   0.126   2.001  0.4267 -1.5510 -0.2815
 7692SOL    HW234713   0.888   0.205   1.959  0.1617  0.4938 -0.7539
 7693SOL     OW34714   1.973   4.689   0.939  0.5267 -0.2788 -0.1007
 7693SOL    HW134715   1.908   0.004   0.988 -0.7465  0.6116 -2.6960
 7693SOL    HW234716   2.046   4.712   0.996 -0.8563  0.6935  1.2586
 7694SOL     OW34717   1.100   4.255   4.470  0.3772 -0.1815  0.0154
 7694SOL    HW134718   1.131   4.181   4.523  1.2822 -0.5480 -1.0174
 7694SOL    HW234719   1.143   4.326   4.519 -0.7890 -0.4328  1.4198
 7695SOL     OW34720   2.978   4.058   2.902  0.0079 -0.0680  0.5801
 7695SOL    HW134721   2.938   4.129   2.953 -1.3972 -0.9885  0.7515
 7695SOL    HW234722   3.012   4.111   2.830 -0.5961  0.2508  0.5286
 7696SOL     OW34723   2.468   4.175   1.685 -0.2037 -0.3271  0.0671
 7696SOL    HW134724   2.506   4.243   1.629 -2.6492  0.3004 -0.8371
 7696SOL    HW234725   2.503   4.105   1.629  0.0903 -1.3429  1.5296
 7697SOL     OW34726   2.403   0.939   5.813  0.5384  0.4463 -0.3676
 7697SOL    HW134727   2.456   0.917   5.890 -0.4005  0.8690  0.4001
 7697SOL    HW234728   2.319   0.900   5.837 -0.1618  0.5175 -2.7632
 7698SOL     OW34729   0.352   2.743  11.613  0.4146  0.0557  0.1946
 7698SOL    HW134730   0.318   2.792  11.538  2.2580  0.2072 -0.5294
 7698SOL    HW234731   0.340   2.805  11.685 -0.4704  0.5021 -0.3345
 7699SOL     OW34732   4.725   3.010  13.293  0.0558 -0.2361 -0.4404
 7699SOL    HW134733   4.651   3.059  13.330  1.4109  0.8156  0.8572
 7699SOL    HW234734   0.054   3.062  13.342 -0.9866  0.0555  0.6268
 7700SOL     OW34735   3.084   2.065   2.675  0.0914 -0.3527  0.4484
 7700SOL    HW134736   3.066   2.067   2.581  2.2290  2.2661  0.0842
 7700SOL    HW234737   3.001   2.040   2.716  0.7327 -1.0686  1.3242
 7701SOL     OW34738   3.362   4.504   5.893  0.2104  0.7314 -0.1235
 7701SOL    HW134739   3.339   4.466   5.809 -0.5968  1.2976 -0.1605
 7701SOL    HW234740   3.443   4.455   5.909 -0.6690  0.6746  4.1736
 7702SOL     OW34741   1.233   1.266   7.304  0.4298 -0.2966 -0.4506
 7702SOL    HW134742   1.142   1.256   7.275  0.1968 -0.3068  0.2710
 7702SOL    HW234743   1.217   1.316   7.385 -0.8339  0.5020 -1.1965
 7703SOL     OW34744   4.657   3.943   1.789 -1.1465 -0.5208 -0.2357
 7703SOL    HW134745   4.616   3.862   1.756  1.8186 -1.6125 -1.1696
 7703SOL    HW234746   4.602   4.003   1.738 -1.1936 -0.5304 -0.1962
 7704SOL     OW34747   0.544   1.649   2.470 -0.3408 -0.0338  0.0817
 7704SOL    HW134748   0.624   1.603   2.495 -1.0282 -0.8186  0.8267
 7704SOL    HW234749   0.549   1.720   2.534  0.0360  0.4969 -0.5406
 7705SOL     OW34750   4.731   2.711   6.842  0.1356 -0.5195 -0.1936
 7705SOL    HW134751   0.048   2.677   6.916 -0.3486  0.3803  0.5570
 7705SOL    HW234752   0.043   2.794   6.830 -0.0178 -0.4934 -0.5823
 7706SOL     OW34753   2.690   4.262   5.951 -0.4068  0.1973 -0.0462
 7706SOL    HW134754   2.613   4.224   5.994 -0.0720 -0.2829  0.1303
 7706SOL    HW234755   2.732   4.307   6.025  0.8699 -3.6594  1.5696
 7707SOL     OW34756   4.460   1.026   2.786  0.0227 -0.1975  0.4829
 7707SOL    HW134757   4.432   1.118   2.791  1.0241  0.1218  0.3157
 7707SOL    HW234758   4.452   1.011   2.692 -2.5001 -0.9375  0.8426
 7708SOL     OW34759   2.622   2.880   7.482 -0.2823 -0.5435  0.9942
 7708SOL    HW134760   2.646   2.867   7.574  1.2065 -2.0370  0.3867
 7708SOL    HW234761   2.635   2.975   7.473 -1.3737 -0.3221  1.7915
 7709SOL     OW34762   3.634   3.011   1.578 -0.0424  0.4219 -0.2925
 7709SOL    HW134763   3.606   3.080   1.519 -0.3614 -0.4538 -1.1665
 7709SOL    HW234764   3.638   2.935   1.520  0.8239  1.0761 -1.0965
 7710SOL     OW34765   3.933   3.064  13.289 -0.3068 -0.1831 -0.5512
 7710SOL    HW134766   3.951   3.156  13.269  2.9068 -0.5166  0.7694
 7710SOL    HW234767   3.853   3.066  13.341 -0.4402  0.4436 -0.7819
 7711SOL     OW34768   1.207   4.028   4.601 -0.1285  0.4759  0.2641
 7711SOL    HW134769   1.281   4.061   4.652 -1.0688  0.4741  1.6350
 7711SOL    HW234770   1.242   3.959   4.545 -0.1996  0.7364 -0.1083
 7712SOL     OW34771   2.552   3.298   4.354  0.1401 -0.2711 -0.0254
 7712SOL    HW134772   2.497   3.257   4.288 -0.9915  0.7843  0.2621
 7712SOL    HW234773   2.617   3.347   4.304  1.5208  0.0261  2.0430
 7713SOL     OW34774   4.218   3.549  14.444  0.4706  0.1645 -0.2889
 7713SOL    HW134775   4.210   3.499  14.363 -0.5413  1.3612 -0.9304
 7713SOL    HW234776   4.178   3.635  14.434  0.8336  0.5900  1.8363
 7714SOL     OW34777   4.343   4.133  15.997 -0.2840 -0.1707 -0.3034
 7714SOL    HW134778   4.412   4.156  16.059 -0.6981  0.9813 -0.2511
 7714SOL    HW234779   4.278   4.090  16.052  2.0213 -3.1899  0.0254
 7715SOL     OW34780   2.288   0.746   5.329 -0.1806 -0.3594  0.1365
 7715SOL    HW134781   2.321   0.795   5.405  0.9410 -1.5505  0.4205
 7715SOL    HW234782   2.347   0.773   5.259  1.3715 -1.3641  1.0488
 7716SOL     OW34783   2.103   3.210   7.908 -0.0978 -0.2392 -0.4607
 7716SOL    HW134784   2.130   3.281   7.849  1.3172 -0.7894 -0.4762
 7716SOL    HW234785   2.013   3.232   7.933 -0.0512 -0.8696  0.2737
 7717SOL     OW34786   4.478   3.454  16.820  0.4119 -0.1675 -0.2650
 7717SOL    HW134787   4.483   3.460  16.724  2.1555 -0.6998 -0.1976
 7717SOL    HW234788   4.409   3.521  16.827 -1.4097 -1.9653 -0.8792
 7718SOL     OW34789   4.549   4.487  12.123  0.3966 -0.2291  0.4218
 7718SOL    HW134790   4.517   4.547  12.056 -0.8362  1.7425  2.7788
 7718SOL    HW234791   4.642   4.486  12.098  0.4418  0.6526  0.5515
 7719SOL     OW34792   0.673   4.027   0.898 -0.0247  0.2024 -0.0704
 7719SOL    HW134793   0.689   4.079   0.977 -0.0057  0.6674 -0.3785
 7719SOL    HW234794   0.758   3.988   0.880 -1.1882 -1.8134 -1.2108
 7720SOL     OW34795   0.004   3.434   0.198  0.0379 -0.1937  0.3842
 7720SOL    HW134796   4.644   3.442   0.187  0.0539 -0.3214  0.1348
 7720SOL    HW234797   0.020   3.519   0.239 -4.4365  0.8173  0.0087
 7721SOL     OW34798   0.289   0.938   9.075  0.3326  0.1829 -0.0064
 7721SOL    HW134799   0.350   0.947   9.148  1.9352 -0.4658 -1.2492
 7721SOL    HW234800   0.283   1.030   9.051  1.4971  0.9742  2.7994
 7722SOL     OW34801   1.584   1.080   4.027  0.4717 -0.4221  0.1880
 7722SOL    HW134802   1.527   1.015   4.069 -0.2498 -0.2311 -0.4835
 7722SOL    HW234803   1.516   1.141   3.997  0.7448  0.1149  0.6605
 7723SOL     OW34804   0.551   1.257   6.535  0.0014 -0.1484 -0.0589
 7723SOL    HW134805   0.462   1.228   6.515 -0.1050  1.6411 -2.1287
 7723SOL    HW234806   0.590   1.288   6.453 -1.0947  2.3817  0.3904
 7724SOL     OW34807   4.529   0.236  16.770 -0.0643 -0.0088 -0.4522
 7724SOL    HW134808   4.484   0.152  16.777  0.3796 -0.2631 -0.6262
 7724SOL    HW234809   4.460   0.285  16.726  1.9032  3.7075  0.5813
 7725SOL     OW34810   4.192   4.167   6.547  0.3495 -0.5681 -0.7616
 7725SOL    HW134811   4.273   4.202   6.512  0.6470  0.6011  1.1184
 7725SOL    HW234812   4.148   4.159   6.463  0.2919 -2.6890 -0.5195
 7726SOL     OW34813   4.670   0.172   5.352  0.5025 -0.1365 -0.0466
 7726SOL    HW134814   4.607   0.126   5.407  2.2089 -2.2495  0.0731
 7726SOL    HW234815   4.610   0.199   5.282  0.6501 -0.6557 -0.3676
 7727SOL     OW34816   0.104   1.546   9.134  0.4460 -0.3335 -1.0544
 7727SOL    HW134817   0.171   1.611   9.115 -0.5277  0.9863  0.0908
 7727SOL    HW234818   0.145   1.481   9.191 -1.1257  0.3534  0.8365
 7728SOL     OW34819   2.722   0.584  14.669  0.0679  0.2451  0.2032
 7728SOL    HW134820   2.811   0.618  14.682 -0.0435 -0.1134  2.0378
 7728SOL    HW234821   2.685   0.644  14.605  1.4053  1.8983  0.9773
 7729SOL     OW34822   4.532   3.710   2.067 -0.0912 -0.4329  1.1214
 7729SOL    HW134823   4.463   3.775   2.054  0.0384 -0.0509  2.3645
 7729SOL    HW234824   4.607   3.765   2.049 -0.2005 -0.3940  0.7870
 7730SOL     OW34825   2.592   0.077   6.369 -0.1564  0.0914 -0.4146
 7730SOL    HW134826   2.620   0.150   6.313  0.6922  0.2647  0.2470
 7730SOL    HW234827   2.542   0.118   6.440 -0.3685 -0.9667  0.0490
 7731SOL     OW34828   0.885   4.245   6.852 -0.2779 -0.5984  0.0107
 7731SOL    HW134829   0.887   4.201   6.767  1.7972 -0.9167  0.2126
 7731SOL    HW234830   0.805   4.200   6.880 -0.5610  0.8074  1.4193
 7732SOL     OW34831   0.026   3.596  13.660 -0.4636 -0.7795  0.5982
 7732SOL    HW134832   4.683   3.650  13.673 -1.3779 -1.8376 -0.5404
 7732SOL    HW234833   4.724   3.516  13.696 -0.7139 -0.0589  1.9602
 7733SOL     OW34834   3.457   4.103  14.529  0.5027  0.4361  0.3886
 7733SOL    HW134835   3.536   4.144  14.493 -0.4915  1.0413 -1.0619
 7733SOL    HW234836   3.404   4.176  14.559  2.0417  1.2642  1.1154
 7734SOL     OW34837   2.364   3.132   4.780 -0.2370 -0.3113 -0.0547
 7734SOL    HW134838   2.369   3.176   4.695  0.6615 -2.1195 -0.9193
 7734SOL    HW234839   2.269   3.125   4.780 -0.0574 -2.7783 -1.3812
 7735SOL     OW34840   2.334   3.868   1.960 -0.4064  0.6421 -0.4078
 7735SOL    HW134841   2.384   3.803   1.910 -0.4437 -0.2085  0.6383
 7735SOL    HW234842   2.396   3.877   2.033 -0.9878 -1.2723  0.3329
 7736SOL     OW34843   1.134   3.625   6.303 -0.1067 -0.4694 -0.2279
 7736SOL    HW134844   1.123   3.559   6.234 -1.0960 -1.1585  0.5920
 7736SOL    HW234845   1.229   3.635   6.297 -0.4518  2.3389 -0.8909
 7737SOL     OW34846   4.565   3.461  16.244 -0.1353 -0.0647  0.2982
 7737SOL    HW134847   4.638   3.463  16.306  0.6326  0.9905 -0.6426
 7737SOL    HW234848   4.548   3.555  16.240  1.0747  0.0710 -1.7478
 7738SOL     OW34849   4.722   4.510   2.333 -0.8700 -0.2687  0.2573
 7738SOL    HW134850   4.695   4.546   2.417  0.5953 -1.0457  1.0580
 7738SOL    HW234851   4.688   4.421   2.334  0.0324 -0.5796  3.1749
 7739SOL     OW34852   0.622   3.399  12.485 -0.2888 -0.2279 -0.2722
 7739SOL    HW134853   0.712   3.397  12.516 -0.9299 -0.9006  1.5625
 7739SOL    HW234854   0.641   3.406  12.392 -1.7693  1.8651 -0.4243
 7740SOL     OW34855   4.174   2.198   5.352  0.7662 -0.1031  0.2079
 7740SOL    HW134856   4.153   2.155   5.269 -0.9990  4.9314 -1.9385
 7740SOL    HW234857   4.141   2.285   5.331  2.3951  0.8441  1.5188
 7741SOL     OW34858   1.561   4.129   3.405 -0.0019 -0.1184 -0.1050
 7741SOL    HW134859   1.509   4.175   3.471  2.1290  0.5361  1.1037
 7741SOL    HW234860   1.498   4.148   3.336 -0.9982  0.6424  1.0100
 7742SOL     OW34861   1.589   0.073   4.054 -0.0328 -0.4839  0.3787
 7742SOL    HW134862   1.519   0.040   4.110 -0.1024  0.9864  1.1506
 7742SOL    HW234863   1.668   0.038   4.095  0.3607 -0.9717 -0.7888
 7743SOL     OW34864   1.307   2.790   8.219  0.0266  0.0106 -0.3768
 7743SOL    HW134865   1.330   2.838   8.298 -0.7900  0.7409 -0.5811
 7743SOL    HW234866   1.392   2.765   8.181 -0.3461 -1.0265 -0.5345
 7744SOL     OW34867   0.617   3.515   4.504 -0.7593 -0.0368  0.6453
 7744SOL    HW134868   0.694   3.476   4.545 -0.8278 -1.0827 -0.2590
 7744SOL    HW234869   0.550   3.465   4.550 -1.7877  1.0116  0.2879
 7745SOL     OW34870   3.338   3.644   8.857 -0.0275  0.4999 -0.0716
 7745SOL    HW134871   3.359   3.724   8.905 -1.4913 -0.1447  1.6701
 7745SOL    HW234872   3.247   3.658   8.829  0.0393  0.9920 -0.0328
 7746SOL     OW34873   0.696   2.457  10.966  0.0841  0.3617 -0.0627
 7746SOL    HW134874   0.620   2.455  11.024  0.3710  1.0035  0.3279
 7746SOL    HW234875   0.773   2.457  11.023  0.9339  1.5276 -1.2041
 7747SOL     OW34876   3.523   4.446  16.582 -0.0498  0.4101 -0.2709
 7747SOL    HW134877   3.453   4.457  16.645 -0.8105  0.6442 -1.1674
 7747SOL    HW234878   3.598   4.411  16.631  1.2067  1.7399 -1.2262
 7748SOL     OW34879   3.333   2.166   4.994  0.4967 -0.1783  0.3090
 7748SOL    HW134880   3.361   2.083   4.955 -0.8009 -0.9945  1.0997
 7748SOL    HW234881   3.404   2.185   5.054  1.7745  0.5813 -1.4529
 7749SOL     OW34882   2.718   2.339   6.184 -0.0605 -0.1972 -0.1442
 7749SOL    HW134883   2.693   2.270   6.244  0.4486 -1.1378 -1.0194
 7749SOL    HW234884   2.809   2.361   6.204 -0.4253  1.5159 -0.2954
 7750SOL     OW34885   3.666   0.969   3.785 -0.0003 -0.3103  0.2055
 7750SOL    HW134886   3.605   0.960   3.712 -1.8395  2.8215  1.3662
 7750SOL    HW234887   3.743   0.931   3.744 -0.6531 -0.2338 -1.0882
 7751SOL     OW34888   0.019   0.606   5.544 -0.4612 -0.0351  0.1821
 7751SOL    HW134889   0.039   0.526   5.495  0.7317 -0.6507  1.6541
 7751SOL    HW234890   0.108   0.627   5.573 -0.6229  0.5211  0.2826
 7752SOL     OW34891   2.717   3.040   2.801 -0.0687 -0.3509 -0.3184
 7752SOL    HW134892   2.624   3.026   2.784  0.0492 -1.3542 -0.1484
 7752SOL    HW234893   2.755   3.020   2.716 -3.7962 -2.4861 -1.4504
 7753SOL     OW34894   3.891   0.617   7.919  0.1997  0.6087  0.0584
 7753SOL    HW134895   3.801   0.651   7.911  0.6641  1.6469 -0.6515
 7753SOL    HW234896   3.945   0.694   7.903 -0.4293  1.0816  0.1925
 7754SOL     OW34897   3.521   2.528   9.050 -0.1647  0.0169 -0.7704
 7754SOL    HW134898   3.517   2.459   8.984  2.7553 -0.6735 -0.2003
 7754SOL    HW234899   3.456   2.492   9.110 -3.0454  1.1860 -3.1731
 7755SOL     OW34900   2.194   3.387   8.339 -0.1819  0.0843  0.6087
 7755SOL    HW134901   2.235   3.463   8.296  1.9615 -1.4992 -0.1576
 7755SOL    HW234902   2.184   3.421   8.428 -0.2130  0.9085  0.2944
 7756SOL     OW34903   0.626   4.448   7.191  0.4891  0.4736 -0.1652
 7756SOL    HW134904   0.564   4.513   7.224 -1.5565 -0.6856 -1.7577
 7756SOL    HW234905   0.703   4.503   7.178  0.7457 -0.0003 -0.6249
 7757SOL     OW34906   3.817   4.543  13.477  0.3185  0.2085  0.0724
 7757SOL    HW134907   3.901   4.495  13.476 -0.5523 -1.3370  0.9369
 7757SOL    HW234908   3.762   4.485  13.425 -1.1931  1.8864 -0.2006
 7758SOL     OW34909   1.773   2.254   4.980 -0.4121 -0.8024 -0.2932
 7758SOL    HW134910   1.828   2.187   5.021  1.0669  0.6194  0.0492
 7758SOL    HW234911   1.731   2.203   4.911 -0.6145 -1.0220 -0.0100
 7759SOL     OW34912   3.268   1.222   4.772  0.4059 -0.0484 -0.4606
 7759SOL    HW134913   3.283   1.128   4.775  1.3149  0.0920 -0.7880
 7759SOL    HW234914   3.329   1.266   4.830 -0.8740  0.9938  0.0826
 7760SOL     OW34915   0.907   0.582   3.034 -0.1393 -0.1561  0.3663
 7760SOL    HW134916   0.860   0.645   3.089 -1.5507 -0.0723 -0.9479
 7760SOL    HW234917   0.842   0.513   3.046 -0.4297  0.0051 -0.2998
 7761SOL     OW34918   2.738   4.154   5.720 -0.3495  0.1581 -0.1843
 7761SOL    HW134919   2.742   4.190   5.808  0.8247  3.3512 -1.5564
 7761SOL    HW234920   2.645   4.141   5.704 -0.4101  0.5082 -0.1243
 7762SOL     OW34921   0.561   2.683  15.426  0.4755 -0.0175 -0.4323
 7762SOL    HW134922   0.631   2.733  15.469  1.2456  0.5744 -2.3716
 7762SOL    HW234923   0.488   2.726  15.470 -1.5137 -1.0285 -2.7268
 7763SOL     OW34924   1.715   1.849   3.531 -0.1510 -0.4123  0.0562
 7763SOL    HW134925   1.740   1.793   3.457  0.3451 -0.9641  0.6474
 7763SOL    HW234926   1.690   1.787   3.599 -1.6805  0.5864  0.4076
 7764SOL     OW34927   3.814   1.667   7.270  0.5147  0.4195 -0.3333
 7764SOL    HW134928   3.858   1.619   7.200 -1.1118  0.0987 -1.1288
 7764SOL    HW234929   3.755   1.601   7.307 -0.3618  0.2981 -1.9729
 7765SOL     OW34930   0.139   2.531  12.320 -0.6908 -0.5261  0.4058
 7765SOL    HW134931   0.200   2.531  12.394  0.5163  0.0978 -0.5957
 7765SOL    HW234932   0.145   2.618  12.281 -1.7390 -1.3747 -1.6412
 7766SOL     OW34933   1.830   3.093   2.000 -0.0863 -0.6039  0.1976
 7766SOL    HW134934   1.742   3.131   2.007  0.8314  1.7073 -0.7447
 7766SOL    HW234935   1.828   3.030   2.072 -0.7006 -0.1026  0.6264
 7767SOL     OW34936   1.709   1.107   7.642 -0.1226 -0.1348  0.1410
 7767SOL    HW134937   1.801   1.114   7.617 -0.4671  1.8245 -0.6105
 7767SOL    HW234938   1.677   1.186   7.598 -0.6591 -0.9014 -0.8401
 7768SOL     OW34939   3.430   1.012   4.167 -0.3027 -0.0110 -0.3626
 7768SOL    HW134940   3.347   1.046   4.200 -0.8598 -1.6649 -0.0666
 7768SOL    HW234941   3.459   1.094   4.127 -1.1601  1.4228  1.9683
 7769SOL     OW34942   2.514   0.696  11.673  0.5463 -0.6131  0.0561
 7769SOL    HW134943   2.488   0.778  11.632 -3.9508 -1.0622  1.9788
 7769SOL    HW234944   2.444   0.638  11.642 -1.3809  0.9550  1.4859
 7770SOL     OW34945   3.843   1.048   0.249  0.2623  0.0897 -0.3798
 7770SOL    HW134946   3.910   1.077   0.311  1.2305 -0.9133 -0.9375
 7770SOL    HW234947   3.765   1.067   0.301  0.0152  0.1318 -0.7599
 7771SOL     OW34948   1.667   4.117   7.351 -0.2734 -0.3271 -0.2074
 7771SOL    HW134949   1.730   4.190   7.350  0.6977 -1.1610  0.3046
 7771SOL    HW234950   1.638   4.105   7.260 -1.3411 -6.0955  0.9048
 7772SOL     OW34951   1.074   2.847   4.353  0.0193 -0.9258 -0.0282
 7772SOL    HW134952   1.044   2.934   4.328 -1.1816 -1.5205 -0.6885
 7772SOL    HW234953   1.158   2.854   4.308  0.2532 -3.3894  0.0109
 7773SOL     OW34954   3.829   2.503   4.468  0.3400 -0.6170  0.0397
 7773SOL    HW134955   3.745   2.529   4.430 -0.1950 -1.7902  0.4119
 7773SOL    HW234956   3.873   2.455   4.398  1.5040  2.0993 -1.1039
 7774SOL     OW34957   4.731   2.234   6.572 -0.4644  0.4943  0.4965
 7774SOL    HW134958   4.703   2.147   6.600 -1.5420  0.6709 -0.0278
 7774SOL    HW234959   4.710   2.303   6.635 -1.1663  1.6741 -1.0396
 7775SOL     OW34960   3.472   1.968   8.452  0.5501 -0.1157  0.3562
 7775SOL    HW134961   3.497   1.947   8.542  0.8006  0.1464  0.3493
 7775SOL    HW234962   3.490   1.886   8.406  1.7502  0.6245 -0.4997
 7776SOL     OW34963   1.468   1.391   2.617 -0.1488 -0.3712 -0.2174
 7776SOL    HW134964   1.386   1.429   2.585  0.7428 -0.6633 -2.8394
 7776SOL    HW234965   1.438   1.330   2.684 -2.9151  0.1389 -0.9469
 7777SOL     OW34966   3.101   0.409   5.569  0.3472  0.2905  0.7380
 7777SOL    HW134967   3.176   0.376   5.520 -2.4638 -1.8981 -2.1046
 7777SOL    HW234968   3.085   0.327   5.615 -0.5407  0.9599  1.6144
 7778SOL     OW34969   2.514   0.885   8.286  0.3222 -0.0367 -0.5663
 7778SOL    HW134970   2.557   0.904   8.369 -2.2201 -0.1319  0.7670
 7778SOL    HW234971   2.469   0.967   8.263  0.1114 -0.0128 -0.0594
 7779SOL     OW34972   4.085   0.355  12.655 -0.5488 -0.2381  0.2616
 7779SOL    HW134973   4.024   0.283  12.640 -1.7367  0.8618 -0.1183
 7779SOL    HW234974   4.169   0.312  12.674 -0.6273 -0.2110  0.6667
 7780SOL     OW34975   4.565   4.409   3.914 -0.0399  0.0402 -0.0087
 7780SOL    HW134976   4.522   4.327   3.888 -0.9021  0.6305 -0.4221
 7780SOL    HW234977   4.638   4.422   3.854 -0.9755 -0.7386 -1.2994
 7781SOL     OW34978   3.597   0.726   1.815 -0.3217  0.0016  0.7400
 7781SOL    HW134979   3.615   0.726   1.909  0.6690 -1.9312  0.5529
 7781SOL    HW234980   3.665   0.673   1.774 -0.6077  0.0621  0.1927
 7782SOL     OW34981   1.223   0.564   2.176  0.2688 -0.4334  0.3239
 7782SOL    HW134982   1.174   0.567   2.094  0.2860  0.8718  0.3589
 7782SOL    HW234983   1.295   0.625   2.160  1.4384 -1.4248  1.8505
 7783SOL     OW34984   1.950   1.404   5.680 -0.2434 -0.1534 -0.1982
 7783SOL    HW134985   2.019   1.379   5.619 -0.4623  0.5441 -0.7306
 7783SOL    HW234986   1.973   1.489   5.717  1.7511 -0.0062 -1.8340
 7784SOL     OW34987   4.290   0.626   3.597 -0.6414 -0.0772 -0.0321
 7784SOL    HW134988   4.340   0.677   3.660  0.5435 -2.0684  0.6241
 7784SOL    HW234989   4.205   0.639   3.639 -0.3162  0.7590  0.3733
 7785SOL     OW34990   1.131   4.243  13.207  0.0244 -0.4846 -0.0928
 7785SOL    HW134991   1.183   4.323  13.209  1.4815 -1.4960  2.0737
 7785SOL    HW234992   1.119   4.238  13.302 -0.3417  2.7472  0.0159
 7786SOL     OW34993   0.228   1.929   6.492 -0.2250  0.0918 -0.1545
 7786SOL    HW134994   0.155   1.961   6.439  0.8322  2.8020  0.0382
 7786SOL    HW234995   0.219   1.982   6.571 -3.4288 -0.2201 -0.3298
 7787SOL     OW34996   0.409   2.401   5.480 -0.1713 -0.2212 -1.0764
 7787SOL    HW134997   0.445   2.390   5.392  0.5088 -0.0497 -0.8273
 7787SOL    HW234998   0.491   2.437   5.513 -1.8539  1.3548  1.3447
 7788SOL     OW34999   2.153   4.151  17.197  0.5878 -0.3387 -0.6069
 7788SOL    HW135000   2.123   4.185  17.282 -0.3577  0.4457 -1.2614
 7788SOL    HW235001   2.097   4.074  17.190  2.1792 -1.5437 -0.1884
 7789SOL     OW35002   2.666   3.863   7.066 -0.4373 -0.3599  0.2470
 7789SOL    HW135003   2.667   3.850   7.161 -2.1377 -0.3718  0.2469
 7789SOL    HW235004   2.695   3.955   7.062 -2.3637  0.2411  0.0495
 7790SOL     OW35005   4.311   3.462   4.480  0.7326  0.1375 -0.0837
 7790SOL    HW135006   4.223   3.432   4.499  0.6987  1.1891  1.4872
 7790SOL    HW235007   4.327   3.396   4.413 -0.6813  0.2398 -0.5205
 7791SOL     OW35008   0.253   0.230   7.247  0.0737  0.3683  0.4765
 7791SOL    HW135009   0.336   0.261   7.283  0.1473  2.6068 -1.6312
 7791SOL    HW235010   0.244   0.279   7.165  0.3795  0.1193  0.2922
 7792SOL     OW35011   2.537   0.765   0.392  0.2494  1.1495  0.5013
 7792SOL    HW135012   2.545   0.801   0.480 -0.6542  3.0371 -0.1838
 7792SOL    HW235013   2.622   0.721   0.377 -0.4968  0.3499 -1.4261
 7793SOL     OW35014   0.859   0.568   8.742 -0.1414 -0.3491  0.0719
 7793SOL    HW135015   0.926   0.506   8.770 -0.1592 -0.8555 -1.0264
 7793SOL    HW235016   0.858   0.623   8.820 -0.6607 -2.7242  1.7395
 7794SOL     OW35017   2.080   3.187   6.743 -0.5325 -0.1033  0.2553
 7794SOL    HW135018   2.036   3.163   6.662 -0.4164 -0.4479  0.2938
 7794SOL    HW235019   2.150   3.122   6.749 -1.5244 -1.2989 -1.0516
 7795SOL     OW35020   1.958   1.162   7.289  0.8762 -0.1017 -0.0642
 7795SOL    HW135021   2.030   1.225   7.282  0.6480 -0.0654 -1.9764
 7795SOL    HW235022   1.951   1.133   7.199  0.5006 -1.8351  0.5303
 7796SOL     OW35023   0.976   3.419  15.598 -0.4288  0.1290  0.8502
 7796SOL    HW135024   1.051   3.370  15.566  0.2503  2.5769 -1.3013
 7796SOL    HW235025   0.980   3.505  15.557 -0.3766 -0.7092 -0.9118
 7797SOL     OW35026   0.772   4.525   0.549 -0.3219  0.1563  0.1913
 7797SOL    HW135027   0.831   4.594   0.579 -1.3578  1.9961 -2.0592
 7797SOL    HW235028   0.706   4.528   0.618 -1.1643  0.5670 -0.6365
 7798SOL     OW35029   1.055   0.011   3.986 -0.0526  0.6054  0.2354
 7798SOL    HW135030   1.021   0.017   4.076 -1.0902 -0.0819 -0.1114
 7798SOL    HW235031   1.109   4.668   3.992 -1.3465 -0.4231 -1.4620
 7799SOL     OW35032   0.810   3.680  12.526  0.1858  0.3926  0.4047
 7799SOL    HW135033   0.895   3.701  12.487  1.3220 -0.9468  2.1938
 7799SOL    HW235034   0.790   3.592  12.495 -1.6954  0.4483  1.4861
 7800SOL     OW35035   3.200   2.107   8.633  0.2134  0.3834 -0.3921
 7800SOL    HW135036   3.196   2.072   8.544 -1.1084 -0.6878  0.0938
 7800SOL    HW235037   3.111   2.097   8.667 -0.5056  0.6090 -2.2014
 7801SOL     OW35038   0.095   2.044   6.283 -0.5382 -0.2143 -0.2022
 7801SOL    HW135039   0.038   2.090   6.221  1.3726  0.8448 -1.1686
 7801SOL    HW235040   0.060   1.957   6.263 -2.6129  0.3830  0.7312
 7802SOL     OW35041   0.930   4.615   6.276 -0.0974  0.0822  0.5282
 7802SOL    HW135042   0.992   4.543   6.267 -0.8227 -0.4855  0.1157
 7802SOL    HW235043   0.864   4.574   6.332  0.1549 -0.1628  0.6434
 7803SOL     OW35044   0.672   3.666  12.773 -0.3506 -0.1184  0.1997
 7803SOL    HW135045   0.714   3.671  12.687 -0.2662  0.0842  0.2533
 7803SOL    HW235046   0.697   3.749  12.813 -2.5434 -0.4602  2.2866
 7804SOL     OW35047   1.764   2.782   4.526 -0.2704  0.0865  0.0708
 7804SOL    HW135048   1.684   2.731   4.511 -2.0159  2.1606  2.1572
 7804SOL    HW235049   1.828   2.718   4.554  0.7304  1.0166 -0.1051
 7805SOL     OW35050   4.556   3.403   5.142  0.3415  0.7285 -0.5470
 7805SOL    HW135051   4.469   3.437   5.163  0.3996 -0.4641  1.6241
 7805SOL    HW235052   4.608   3.483   5.133 -1.0270  1.6627 -0.1101
 7806SOL     OW35053   1.449   1.747   3.347  0.0114 -0.3705  0.1341
 7806SOL    HW135054   1.413   1.823   3.392 -0.6709 -0.9221  0.5052
 7806SOL    HW235055   1.453   1.781   3.257 -3.1145  0.8320  0.4483
 7807SOL     OW35056   2.705   4.532   8.149  0.3344 -0.1019 -0.0517
 7807SOL    HW135057   2.761   4.544   8.072  0.9306 -1.8040  0.1283
 7807SOL    HW235058   2.618   4.504   8.122  0.0284 -0.1537  0.9989
 7808SOL     OW35059   0.361   2.091   7.492 -0.3849  0.4834 -0.2087
 7808SOL    HW135060   0.291   2.061   7.434 -1.8221  0.6055  1.4643
 7808SOL    HW235061   0.379   2.009   7.539 -1.8768 -1.4610 -3.0348
 7809SOL     OW35062   2.348   3.749  11.043  0.2127 -0.0735  0.0872
 7809SOL    HW135063   2.306   3.716  10.963 -3.2443  2.2703  0.9354
 7809SOL    HW235064   2.433   3.768  11.003 -1.3243  1.1761 -2.6514
 7810SOL     OW35065   0.226   2.235   4.396  0.1877 -0.3926 -0.1407
 7810SOL    HW135066   0.185   2.151   4.416 -1.9602  0.7146  0.1613
 7810SOL    HW235067   0.316   2.225   4.428  0.2675  0.3694 -0.1115
 7811SOL     OW35068   4.710   1.675   3.172 -0.4578  0.1794 -0.3351
 7811SOL    HW135069   4.644   1.705   3.233 -0.3092  2.0832 -1.0952
 7811SOL    HW235070   0.050   1.725   3.205 -0.7554  0.6429 -0.3647
 7812SOL     OW35071   3.523   0.909   3.294 -0.4763  0.1644 -0.6087
 7812SOL    HW135072   3.469   0.833   3.315  0.5827 -0.2712  0.5691
 7812SOL    HW235073   3.601   0.854   3.281  0.4490  1.4558 -0.4879
 7813SOL     OW35074   4.635   1.865  16.575 -0.1179 -0.1123 -0.4123
 7813SOL    HW135075   4.711   1.857  16.632 -1.7821 -2.1663  1.4991
 7813SOL    HW235076   4.603   1.955  16.579  1.4628  0.3921  0.9540
 7814SOL     OW35077   0.690   2.209   8.743 -0.1172 -0.2891  0.4481
 7814SOL    HW135078   0.655   2.124   8.715  1.0580 -0.0998 -1.5513
 7814SOL    HW235079   0.623   2.234   8.807 -1.8755 -0.6175 -1.2703
 7815SOL     OW35080   3.185   4.482   7.484 -0.6554  0.3205 -0.0495
 7815SOL    HW135081   3.181   4.394   7.521 -1.4796  0.5291  0.3632
 7815SOL    HW235082   3.103   4.494   7.436 -1.8241 -2.1442  1.3411
 7816SOL     OW35083   1.523   1.119  11.981 -0.0739 -0.0710  0.2895
 7816SOL    HW135084   1.576   1.197  11.966 -1.1464  0.6009 -0.0152
 7816SOL    HW235085   1.593   1.055  11.995  1.1563  1.4891  1.1900
 7817SOL     OW35086   2.672   0.585  13.842 -0.5869  0.0045  0.1044
 7817SOL    HW135087   2.660   0.680  13.835 -1.2141 -0.0903 -0.1405
 7817SOL    HW235088   2.715   0.590  13.928 -0.5308  0.1157  0.0703
 7818SOL     OW35089   3.057   4.659   4.903  0.1283 -0.2946 -0.0127
 7818SOL    HW135090   3.053   4.613   4.819  0.4130 -0.3316 -0.0050
 7818SOL    HW235091   3.039   4.589   4.965 -1.1695 -0.7477 -0.8925
 7819SOL     OW35092   3.754   1.704  12.887  0.2414 -0.4191 -0.4744
 7819SOL    HW135093   3.797   1.744  12.812  1.4070 -1.9087 -0.5996
 7819SOL    HW235094   3.752   1.615  12.851 -1.1163  0.4160 -2.4697
 7820SOL     OW35095   3.994   0.130   0.036 -0.0455  0.2493 -0.2281
 7820SOL    HW135096   4.082   0.154   0.065  0.3263 -2.2337  0.6060
 7820SOL    HW235097   3.990   0.035   0.041 -1.5836  0.3274  0.0512
 7821SOL     OW35098   0.477   3.386   1.756 -0.0669 -0.0577 -0.2819
 7821SOL    HW135099   0.476   3.444   1.680  1.1707  0.0984 -0.1759
 7821SOL    HW235100   0.396   3.337   1.746  0.0263 -0.1433 -0.6097
 7822SOL     OW35101   3.753   1.078   4.433 -0.2431  0.3228  0.6232
 7822SOL    HW135102   3.826   1.038   4.386 -0.4608 -0.2947  0.8136
 7822SOL    HW235103   3.683   1.072   4.369 -0.3909  2.0385  0.6006
 7823SOL     OW35104   1.903   4.258   8.810  0.2099  0.1268  0.3534
 7823SOL    HW135105   1.879   4.341   8.850 -0.5776 -0.4511  1.0773
 7823SOL    HW235106   1.994   4.285   8.797  0.1864  0.2554  0.4574
 7824SOL     OW35107   4.223   0.087   9.047  0.0409 -0.1014 -0.0400
 7824SOL    HW135108   4.167   0.061   8.973 -0.6717 -2.3384  1.3009
 7824SOL    HW235109   4.199   0.177   9.069  1.6298 -0.5081  3.2830
 7825SOL     OW35110   1.481   0.810   0.372 -0.7317  0.2155  0.5336
 7825SOL    HW135111   1.530   0.759   0.438 -0.7821 -0.0190  0.3895
 7825SOL    HW235112   1.468   0.893   0.417  1.3556 -0.3685  2.2249
 7826SOL     OW35113   3.098   2.171   4.524 -0.3156 -0.3004 -0.3075
 7826SOL    HW135114   3.061   2.251   4.487 -1.8642 -1.1903 -0.7181
 7826SOL    HW235115   3.168   2.210   4.576  0.4493  0.8693 -2.2521
 7827SOL     OW35116   2.367   0.083   8.581  0.8198  0.0221 -0.5971
 7827SOL    HW135117   2.280   0.063   8.547  0.5271 -1.4425  1.0505
 7827SOL    HW235118   2.414   0.039   8.511 -0.8343 -1.8310 -0.5183
 7828SOL     OW35119   4.483   3.642   4.622 -0.2557 -0.1471  0.3872
 7828SOL    HW135120   4.538   3.572   4.588  0.5238  0.4520  0.4003
 7828SOL    HW235121   4.402   3.613   4.580  0.0581 -0.2140 -0.1719
 7829SOL     OW35122   0.901   2.111  17.349  0.5604 -0.1212  0.5425
 7829SOL    HW135123   0.860   2.147  17.271  0.7169 -0.0568  0.4892
 7829SOL    HW235124   0.820   2.074  17.383  0.0432 -1.6227 -2.3162
 7830SOL     OW35125   1.514   3.721   4.196 -0.4016 -0.1796  0.2878
 7830SOL    HW135126   1.546   3.693   4.281 -2.2867 -4.0707 -0.3217
 7830SOL    HW235127   1.471   3.805   4.213  3.2825  1.6436  0.5564
 7831SOL     OW35128   3.924   1.500   2.750  0.1335  0.0703 -1.0438
 7831SOL    HW135129   3.992   1.517   2.685  1.2805  0.1649  0.1793
 7831SOL    HW235130   3.933   1.583   2.797  0.8910 -1.2543  1.1594
 7832SOL     OW35131   4.612   3.412   4.552  0.4614  0.2616  0.3291
 7832SOL    HW135132   4.683   3.370   4.600  0.7429  0.5331  0.1579
 7832SOL    HW235133   4.562   3.339   4.516 -0.2892  1.0921 -0.3109
 7833SOL     OW35134   1.752   1.363   6.051  0.0631  0.0788  0.2479
 7833SOL    HW135135   1.668   1.337   6.090 -0.3669 -1.2534 -1.5592
 7833SOL    HW235136   1.765   1.443   6.102  2.1497  1.1783 -2.0236
 7834SOL     OW35137   0.708   0.876  10.863 -0.2473 -0.0643 -0.4200
 7834SOL    HW135138   0.780   0.817  10.839  0.7625  0.7121  0.6915
 7834SOL    HW235139   0.737   0.960  10.829  1.9307  0.1863  1.9825
 7835SOL     OW35140   4.537   2.919   5.064 -0.0122 -0.1083 -0.2328
 7835SOL    HW135141   4.495   2.942   4.981 -0.3212  0.0491 -0.0332
 7835SOL    HW235142   4.601   2.987   5.083 -1.0273  0.5455  0.8886
 7836SOL     OW35143   1.446   4.123   5.224 -0.4647 -0.2156  0.0327
 7836SOL    HW135144   1.378   4.181   5.190  0.0931 -0.1297 -0.9121
 7836SOL    HW235145   1.403   4.077   5.297  1.0445  1.2759  1.8382
 7837SOL     OW35146   2.935   1.764   0.494 -0.4251 -0.4684 -0.3765
 7837SOL    HW135147   2.910   1.817   0.570  0.0276 -0.2633 -0.3677
 7837SOL    HW235148   3.024   1.741   0.520  0.1901  1.4943 -0.7514
 7838SOL     OW35149   4.265   1.776  16.374  0.1995  0.1941 -0.2743
 7838SOL    HW135150   4.180   1.790  16.332 -0.6575 -1.5098  0.8971
 7838SOL    HW235151   4.245   1.755  16.466 -2.9103  0.0728 -0.9816
 7839SOL     OW35152   1.588   2.154   8.309  0.2646 -0.2562  0.6286
 7839SOL    HW135153   1.608   2.080   8.251 -0.5491  0.7687 -0.9679
 7839SOL    HW235154   1.663   2.170   8.366  2.5648  0.4795 -2.5638
 7840SOL     OW35155   2.098   3.622   9.226  0.2233 -0.4030  0.3420
 7840SOL    HW135156   2.148   3.635   9.145 -1.8398 -0.2554 -0.9068
 7840SOL    HW235157   2.082   3.710   9.259 -0.9935 -0.5633  0.1763
 7841SOL     OW35158   1.079   2.735   3.182  0.4258 -0.3698  0.2403
 7841SOL    HW135159   1.018   2.780   3.241 -0.1196  0.7473 -1.1875
 7841SOL    HW235160   1.152   2.795   3.166  1.6862 -1.1314  3.0470
 7842SOL     OW35161   4.514   3.068   0.640  0.1666 -0.0287  0.2595
 7842SOL    HW135162   4.553   3.054   0.554 -0.9921  0.6578 -0.3709
 7842SOL    HW235163   4.458   2.991   0.646 -1.2125  1.0393  1.0538
 7843SOL     OW35164   1.281   0.125  17.646  0.4975  0.4021  0.0030
 7843SOL    HW135165   1.368   0.117  17.607  0.3526  1.0756 -0.4638
 7843SOL    HW235166   1.234   0.172  17.578 -2.1995 -0.2424  1.4494
 7844SOL     OW35167   1.128   1.151  10.974 -0.0388 -0.3831  0.0802
 7844SOL    HW135168   1.108   1.242  10.997 -2.9014 -0.7060 -1.1542
 7844SOL    HW235169   1.219   1.145  11.003  0.4549  1.1535 -1.1384
 7845SOL     OW35170   2.877   0.121  16.359  0.2028 -0.1630 -0.0953
 7845SOL    HW135171   2.784   0.107  16.342  0.8841 -1.9378 -2.3622
 7845SOL    HW235172   2.880   0.089  16.450  2.8915  0.3814  0.0066
 7846SOL     OW35173   3.738   1.283   2.111 -0.0625  0.0336  0.1756
 7846SOL    HW135174   3.819   1.334   2.113  1.4743 -2.3925 -0.6239
 7846SOL    HW235175   3.679   1.350   2.146 -0.1972 -0.1750  0.3519
 7847SOL     OW35176   2.630   2.662   6.253  0.3619 -0.4894 -0.6197
 7847SOL    HW135177   2.676   2.618   6.182  1.1051  0.7257 -0.8903
 7847SOL    HW235178   2.693   2.719   6.297  0.2466 -1.8623  1.3265
 7848SOL     OW35179   2.307   1.260   3.415  0.3599  0.0222 -0.3203
 7848SOL    HW135180   2.291   1.167   3.394  0.7656 -0.5079  1.6912
 7848SOL    HW235181   2.388   1.247   3.464  0.2840  2.0874  0.3392
 7849SOL     OW35182   0.292   1.021   5.154  0.0500  0.1585 -0.1673
 7849SOL    HW135183   0.283   1.111   5.120  0.5435  0.2966  0.0635
 7849SOL    HW235184   0.386   1.010   5.142 -0.4096 -2.5818 -1.2964
 7850SOL     OW35185   3.553   0.246   7.346 -0.4349 -0.1029 -0.1658
 7850SOL    HW135186   3.529   0.197   7.424 -0.2367 -1.1944 -0.7886
 7850SOL    HW235187   3.469   0.274   7.311 -0.8621 -1.3263 -0.0836
 7851SOL     OW35188   1.804   3.979   1.656 -0.0779 -0.6580  0.3459
 7851SOL    HW135189   1.859   3.919   1.706 -0.8239  0.2277  2.2170
 7851SOL    HW235190   1.799   3.928   1.575  1.4599 -1.0280  0.4810
 7852SOL     OW35191   4.143   1.196   6.250 -0.1560 -0.0933 -0.1358
 7852SOL    HW135192   4.058   1.164   6.220 -0.5880  0.2924  0.6764
 7852SOL    HW235193   4.106   1.273   6.292 -1.9967  0.3685 -2.5940
 7853SOL     OW35194   0.676   0.719   3.167 -0.2250  0.0292 -0.5211
 7853SOL    HW135195   0.588   0.744   3.139  0.1470  1.4240 -0.4061
 7853SOL    HW235196   0.672   0.624   3.183 -0.8610  0.4270  1.6642
 7854SOL     OW35197   1.255   2.925   6.605 -0.6588 -0.2599  0.0724
 7854SOL    HW135198   1.329   2.896   6.658  0.5884  0.3952 -1.2883
 7854SOL    HW235199   1.206   2.972   6.673 -0.3114 -0.4869  0.4799
 7855SOL     OW35200   3.349   3.227   2.722 -0.3220  0.0910  0.2496
 7855SOL    HW135201   3.302   3.170   2.662  1.0717  0.1816 -0.9204
 7855SOL    HW235202   3.280   3.261   2.780 -0.3734  0.9025 -0.2822
 7856SOL     OW35203   0.641   0.047  15.624  0.1513 -0.3766  0.0059
 7856SOL    HW135204   0.659   0.015  15.712  0.5608  1.0162  0.4287
 7856SOL    HW235205   0.730   0.051  15.590  0.6350 -0.7678  1.2534
 7857SOL     OW35206   1.465   2.741  12.862 -0.1432 -0.0451  0.4418
 7857SOL    HW135207   1.543   2.740  12.918 -0.1210  0.5768  0.4243
 7857SOL    HW235208   1.478   2.826  12.821 -1.5285 -0.0229  0.0604
 7858SOL     OW35209   0.663   1.861  17.677  0.4327 -0.1818  0.4105
 7858SOL    HW135210   0.711   1.912   0.005  1.0235 -0.2939  0.0654
 7858SOL    HW235211   0.583   1.851  17.729  0.1101 -0.1252 -0.0752
 7859SOL     OW35212   2.910   3.092  15.489 -0.0177 -0.7168  0.3989
 7859SOL    HW135213   2.855   3.044  15.428 -1.5617 -0.8609  1.9124
 7859SOL    HW235214   2.995   3.059  15.459 -0.6881 -1.3913 -0.7334
 7860SOL     OW35215   4.693   2.186   9.602  0.1218 -0.0198 -0.0348
 7860SOL    HW135216   4.715   2.238   9.679  0.0543 -0.7286  0.4616
 7860SOL    HW235217   0.006   2.108   9.632 -0.5063 -0.6882 -0.7837
 7861SOL     OW35218   2.835   0.562  12.016 -0.6959 -0.6116 -0.3486
 7861SOL    HW135219   2.800   0.644  11.981 -1.1654 -0.6741 -0.0199
 7861SOL    HW235220   2.853   0.507  11.939 -0.6203  0.8643 -1.3889
 7862SOL     OW35221   2.509   0.561   9.249 -0.1590 -0.5655  0.0862
 7862SOL    HW135222   2.582   0.508   9.280  1.2830  2.3217  1.5618
 7862SOL    HW235223   2.534   0.566   9.157 -1.6806 -0.7536 -0.3466
 7863SOL     OW35224   0.302   4.206   8.761  0.2569 -0.2783 -0.3338
 7863SOL    HW135225   0.302   4.112   8.744  2.7371  0.2351 -3.2085
 7863SOL    HW235226   0.325   4.211   8.853 -1.7249  0.8893  0.0868
 7864SOL     OW35227   1.878   3.564   9.389 -0.9919  0.5458  0.2952
 7864SOL    HW135228   1.846   3.543   9.301 -0.9292 -0.0827  0.4236
 7864SOL    HW235229   1.972   3.569   9.372 -1.3335 -1.1465 -2.0724
 7865SOL     OW35230   4.320   4.269   2.683 -0.1480  0.6533 -0.1883
 7865SOL    HW135231   4.295   4.182   2.652  0.1395  1.2866 -2.2376
 7865SOL    HW235232   4.261   4.295   2.754  1.1520 -0.7851  1.3997
 7866SOL     OW35233   1.453   2.896   8.421 -0.1318 -0.6015 -0.3868
 7866SOL    HW135234   1.418   2.874   8.507 -1.6545  2.6619 -0.1581
 7866SOL    HW235235   1.535   2.942   8.439  1.4511 -2.2244 -3.5222
 7867SOL     OW35236   1.443   4.667   1.368 -0.2763 -0.3681 -0.5674
 7867SOL    HW135237   1.505   4.642   1.436  0.2909  1.9910 -0.2407
 7867SOL    HW235238   1.371   4.712   1.412 -0.6226 -0.9975 -0.4800
 7868SOL     OW35239   1.849   0.433   1.380  0.0102  0.0088 -0.6642
 7868SOL    HW135240   1.780   0.402   1.322  0.9508 -1.8547 -0.7769
 7868SOL    HW235241   1.903   0.478   1.315 -0.9144  2.6991  0.4171
 7869SOL     OW35242   2.928   0.987   2.727 -0.5081  0.3565 -0.7505
 7869SOL    HW135243   2.941   0.916   2.790 -2.9787 -0.6071 -1.3522
 7869SOL    HW235244   2.856   1.033   2.769 -1.2869 -0.5390 -1.1232
 7870SOL     OW35245   2.838   3.034  11.431 -0.1102  0.3624 -0.4490
 7870SOL    HW135246   2.756   3.001  11.467  0.3582 -0.6287 -0.2934
 7870SOL    HW235247   2.800   3.072  11.351  2.0000  1.0234 -1.1149
 7871SOL     OW35248   2.548   2.550   8.625  0.0654 -0.3735  0.1658
 7871SOL    HW135249   2.485   2.479   8.634 -0.1777  0.0945  2.0695
 7871SOL    HW235250   2.612   2.499   8.576  1.5852  1.6019  0.0776
 7872SOL     OW35251   1.899   4.083   2.344  0.2438 -0.7977 -0.0478
 7872SOL    HW135252   1.963   4.130   2.290  2.4399 -0.9048  2.4468
 7872SOL    HW235253   1.817   4.117   2.308 -0.1208 -2.4613 -0.7985
 7873SOL     OW35254   2.498   0.827  16.073 -0.9970  0.0333  0.0376
 7873SOL    HW135255   2.518   0.744  16.030 -0.6504  1.8205 -3.2466
 7873SOL    HW235256   2.447   0.873  16.005 -1.1236 -1.5059 -0.9063
 7874SOL     OW35257   3.141   0.342   6.387 -0.8366 -0.4708  0.1663
 7874SOL    HW135258   3.155   0.437   6.396  1.0712 -0.6146 -1.3566
 7874SOL    HW235259   3.083   0.316   6.459  1.1506 -0.6873  1.6787
 7875SOL     OW35260   3.668   0.531   8.135  0.3512 -0.6410  0.4298
 7875SOL    HW135261   3.579   0.533   8.101  1.3500  0.3529 -2.1302
 7875SOL    HW235262   3.702   0.466   8.073 -0.1132 -0.1081 -0.3737
 7876SOL     OW35263   1.464   1.587   5.201 -0.2132  0.4479 -0.3821
 7876SOL    HW135264   1.548   1.614   5.165  0.3099 -0.6874  0.0128
 7876SOL    HW235265   1.451   1.499   5.165 -1.5731  1.1580 -1.6399
 7877SOL     OW35266   3.056   3.717   2.390 -0.2189  1.0334  0.1606
 7877SOL    HW135267   3.065   3.807   2.358 -0.5804  1.6909  1.9034
 7877SOL    HW235268   2.962   3.697   2.388 -0.2037  0.8126  2.1236
 7878SOL     OW35269   0.124   1.315   2.313  0.2328  0.0641  0.2194
 7878SOL    HW135270   0.055   1.342   2.373  0.6259 -1.5624  1.4093
 7878SOL    HW235271   0.149   1.401   2.280  2.8663 -0.4985  0.6795
 7879SOL     OW35272   4.102   2.143   6.343 -0.3767  0.1649 -0.0282
 7879SOL    HW135273   4.029   2.122   6.284  1.1262 -3.6611 -0.5146
 7879SOL    HW235274   4.138   2.056   6.359 -0.5170 -0.4846 -3.1227
 7880SOL     OW35275   4.718   1.686   5.521  0.0959 -0.0345 -0.0717
 7880SOL    HW135276   4.700   1.774   5.552  0.4683  0.3105 -0.8383
 7880SOL    HW235277   0.049   1.692   5.452  0.2887 -0.1424  0.1042
 7881SOL     OW35278   4.242   1.525  10.179  0.3363  0.6291  0.1868
 7881SOL    HW135279   4.237   1.440  10.223  2.9254  1.0774  1.3159
 7881SOL    HW235280   4.296   1.513  10.101  0.8314 -2.5690  1.0333
 7882SOL     OW35281   2.010   1.187  16.736 -0.4257  0.2100  0.5842
 7882SOL    HW135282   1.986   1.262  16.790  0.7597  0.6930  0.4557
 7882SOL    HW235283   1.938   1.132  16.767 -0.9252 -0.7263 -2.2669
 7883SOL     OW35284   3.103   4.703   2.137  0.2429 -0.2469  0.6429
 7883SOL    HW135285   3.019   0.011   2.120  1.6762  1.6057 -1.6646
 7883SOL    HW235286   3.121   4.664   2.052 -1.5226 -0.0532  0.1834
 7884SOL     OW35287   0.822   0.619   1.870  0.6922  0.4799  0.1158
 7884SOL    HW135288   0.852   0.679   1.937 -0.4763 -0.4546  1.4664
 7884SOL    HW235289   0.731   0.648   1.863 -0.3424 -2.7959 -0.5392
 7885SOL     OW35290   3.401   4.477  10.668 -0.5510 -0.4823 -0.3545
 7885SOL    HW135291   3.350   4.558  10.664  1.1935  0.6739  0.9156
 7885SOL    HW235292   3.349   4.414  10.619 -1.0291 -1.0108  0.8485
 7886SOL     OW35293   1.993   0.187  16.560 -0.5678 -0.2471  0.3593
 7886SOL    HW135294   1.941   0.110  16.541 -1.2164 -0.5528  3.2433
 7886SOL    HW235295   2.084   0.166  16.540 -0.0544  2.5831 -0.2582
 7887SOL     OW35296   4.582   1.347   9.973 -0.3324 -0.0417  0.4502
 7887SOL    HW135297   4.631   1.289  10.031  1.2456  0.7483 -0.1011
 7887SOL    HW235298   4.588   1.298   9.890 -0.9584 -0.5245  0.6907
 7888SOL     OW35299   2.324   1.612  15.209  0.1808  0.1702  0.2738
 7888SOL    HW135300   2.347   1.633  15.119  0.3914  2.0403  0.7686
 7888SOL    HW235301   2.410   1.597  15.247  0.3461 -0.1115 -0.2204
 7889SOL     OW35302   0.131   1.551   6.711  0.0783  0.3203  0.2075
 7889SOL    HW135303   0.216   1.592   6.726  0.4380 -0.0728 -0.8042
 7889SOL    HW235304   0.131   1.584   6.621 -0.5089 -0.8569 -0.2253
 7890SOL     OW35305   0.733   1.187   8.906 -0.6410  0.4229  0.4841
 7890SOL    HW135306   0.798   1.159   8.971  1.2639  0.6663 -1.2809
 7890SOL    HW235307   0.785   1.181   8.825 -0.4765  1.4838  0.5033
 7891SOL     OW35308   0.542   3.639   5.456  0.3359  0.0999  0.9781
 7891SOL    HW135309   0.546   3.732   5.431  0.1858 -0.2883 -0.4656
 7891SOL    HW235310   0.634   3.613   5.452 -0.3714 -2.2804  0.2471
 7892SOL     OW35311   3.793   0.108   3.071 -0.2233 -0.2791 -0.5223
 7892SOL    HW135312   3.745   0.032   3.036  0.5480 -1.8161  1.8314
 7892SOL    HW235313   3.748   0.127   3.153  0.6853  0.7152 -0.2592
 7893SOL     OW35314   4.679   3.041   8.412  0.6008  0.6221  0.1285
 7893SOL    HW135315   4.674   3.081   8.499  1.4845  2.0307 -0.4732
 7893SOL    HW235316   4.587   3.018   8.405  0.0581  2.2914  1.8409
 7894SOL     OW35317   4.198   4.720  17.105  0.4750 -0.1152 -0.1870
 7894SOL    HW135318   4.122   0.043  17.093 -0.4601 -1.2773  0.0927
 7894SOL    HW235319   4.171   4.634  17.073  0.1384 -0.8140  2.0347
 7895SOL     OW35320   3.739   2.247   2.522  0.0398 -0.0443  0.1709
 7895SOL    HW135321   3.764   2.339   2.526  0.2867 -0.2149  2.2282
 7895SOL    HW235322   3.820   2.199   2.504 -0.0111 -0.7166  1.7443
 7896SOL     OW35323   1.014   1.665   7.447 -0.1289  0.5672 -0.0170
 7896SOL    HW135324   1.029   1.638   7.538 -0.3663  2.9305  0.7354
 7896SOL    HW235325   0.947   1.606   7.414  0.7594 -0.8269  0.6805
 7897SOL     OW35326   3.006   3.721   6.931  0.0980 -0.5378  0.2549
 7897SOL    HW135327   3.005   3.757   7.020 -1.7473 -0.5539  0.2309
 7897SOL    HW235328   3.032   3.631   6.950  2.9687 -0.3190 -2.4386
 7898SOL     OW35329   0.191   1.145   8.635  0.5215 -0.0111  0.4939
 7898SOL    HW135330   0.197   1.052   8.614 -2.1403 -0.3684  1.3902
 7898SOL    HW235331   0.111   1.155   8.687  0.5232 -1.5860  0.7812
 7899SOL     OW35332   4.697   4.162   6.867 -0.0708 -0.0907 -0.4286
 7899SOL    HW135333   4.641   4.167   6.945 -1.4165 -1.5040 -1.2981
 7899SOL    HW235334   4.676   4.249   6.831 -2.4791 -1.2895 -1.9079
 7900SOL     OW35335   1.485   0.147  16.261  0.2071 -0.3025 -0.5120
 7900SOL    HW135336   1.453   0.223  16.212 -1.4275  0.4166  1.6664
 7900SOL    HW235337   1.578   0.172  16.265  0.1367  0.1952 -1.7472
 7901SOL     OW35338   0.342   0.257   3.678 -0.3362  0.1862 -0.0791
 7901SOL    HW135339   0.290   0.261   3.759 -0.1128 -0.1374  0.0778
 7901SOL    HW235340   0.275   0.287   3.616 -1.1769 -0.5515  0.4598
 7902SOL     OW35341   4.563   0.362  11.129 -0.1216 -0.4985  0.2170
 7902SOL    HW135342   4.592   0.285  11.178  0.8092 -0.0996  0.3042
 7902SOL    HW235343   4.590   0.336  11.041 -1.0250  0.5297 -0.3619
 7903SOL     OW35344   3.662   3.437  10.056 -0.1792  0.0771  0.7239
 7903SOL    HW135345   3.588   3.439  10.117  0.3438  0.9262  1.3269
 7903SOL    HW235346   3.671   3.343  10.038 -0.3266  0.2223 -0.1092
 7904SOL     OW35347   3.002   1.468   5.777  0.1762  0.3855  0.3213
 7904SOL    HW135348   2.940   1.538   5.799 -2.2042 -1.0911 -1.6256
 7904SOL    HW235349   2.953   1.402   5.728  0.7731  0.3909 -0.2855
 7905SOL     OW35350   3.743   3.952   7.756  0.2173 -0.3819 -0.4646
 7905SOL    HW135351   3.796   3.924   7.681  0.1067 -0.1602 -0.6257
 7905SOL    HW235352   3.660   3.955   7.708  0.2841 -2.0999 -0.7068
 7906SOL     OW35353   3.373   1.412   6.952  0.7115  0.1110 -0.1797
 7906SOL    HW135354   3.285   1.375   6.959  0.6746  0.1465 -0.4714
 7906SOL    HW235355   3.376   1.431   6.858 -1.8137  0.9863 -0.0881
 7907SOL     OW35356   3.059   3.635   4.610 -0.3534  0.2517  0.6198
 7907SOL    HW135357   3.075   3.722   4.648 -1.3341  0.2035  1.1600
 7907SOL    HW235358   3.047   3.652   4.517  2.8853  0.0568  0.1912
 7908SOL     OW35359   2.668   4.294   9.241  0.0541 -0.2639 -0.1652
 7908SOL    HW135360   2.599   4.356   9.265  1.7976  1.1943  1.0811
 7908SOL    HW235361   2.722   4.350   9.185 -0.5738  0.3538 -0.1476
 7909SOL     OW35362   0.159   2.584   1.623  0.3945  0.4968 -0.3074
 7909SOL    HW135363   0.222   2.512   1.610  1.0058  0.8967  0.4438
 7909SOL    HW235364   0.075   2.541   1.636 -0.6157  2.2248 -1.1303
 7910SOL     OW35365   3.468   0.834   7.531  0.1472 -0.2918  0.2890
 7910SOL    HW135366   3.422   0.889   7.467 -1.4026 -0.0123  1.6453
 7910SOL    HW235367   3.437   0.744   7.519 -2.4348  0.4587  1.4420
 7911SOL     OW35368   4.639   1.254  17.717 -0.2286 -0.2563  0.3026
 7911SOL    HW135369   4.622   1.341  17.681  2.0903  1.0192  2.2364
 7911SOL    HW235370   4.690   1.271   0.059 -0.2802  1.9240 -0.1110
 7912SOL     OW35371   1.131   2.524   1.906  0.6233  0.3551  0.2791
 7912SOL    HW135372   1.066   2.483   1.849 -1.1357  3.8081 -0.2204
 7912SOL    HW235373   1.079   2.544   1.984 -0.1855 -1.6162  0.2572
 7913SOL     OW35374   3.362   0.114  15.799  0.1052  0.3457 -0.1571
 7913SOL    HW135375   3.278   0.121  15.845 -0.2021 -0.2306 -0.6444
 7913SOL    HW235376   3.356   0.196  15.751  3.4372  0.4814 -0.3503
 7914SOL     OW35377   1.920   0.147   7.099  0.3909 -0.8062  0.0816
 7914SOL    HW135378   1.922   0.153   7.004  1.0969  2.8379  0.3083
 7914SOL    HW235379   2.011   0.129   7.123 -0.2552 -1.3319  2.1379
 7915SOL     OW35380   3.613   2.210   5.070 -0.1276  0.4584  0.0323
 7915SOL    HW135381   3.692   2.159   5.054 -0.7156 -1.1069  2.1863
 7915SOL    HW235382   3.565   2.170   5.142  1.0718  1.3116  1.2863
 7916SOL     OW35383   0.075   0.425   5.332  0.0803  0.2600  0.2704
 7916SOL    HW135384   0.064   0.330   5.324  1.3060 -0.0697  2.4604
 7916SOL    HW235385   0.157   0.441   5.284 -0.5915 -1.5108 -1.4501
 7917SOL     OW35386   1.361   0.126   6.957 -0.1362 -0.1735  0.1282
 7917SOL    HW135387   1.377   0.212   6.996  0.2422  0.2341 -0.9161
 7917SOL    HW235388   1.447   0.084   6.969 -0.3860  0.0509  2.7113
 7918SOL     OW35389   4.137   3.551   9.084  0.3176  0.1840 -0.6130
 7918SOL    HW135390   4.202   3.568   9.152 -0.6730 -0.4949  0.4993
 7918SOL    HW235391   4.078   3.498   9.138 -1.7167  1.5236 -1.5343
 7919SOL     OW35392   1.333   1.698   5.410 -0.1385  0.1549 -0.5783
 7919SOL    HW135393   1.379   1.636   5.354  0.6578 -0.8031  1.1189
 7919SOL    HW235394   1.330   1.776   5.355 -0.9128  1.0887  0.7968
 7920SOL     OW35395   0.329   4.148   3.771 -0.0168 -0.2008 -0.1180
 7920SOL    HW135396   0.422   4.170   3.766  0.4344 -2.5008 -1.6877
 7920SOL    HW235397   0.291   4.236   3.768 -0.5179 -0.3787  1.4364
 7921SOL     OW35398   1.045   2.155  12.314 -0.1218 -0.0048  0.2140
 7921SOL    HW135399   0.967   2.114  12.351 -0.0133  0.2836  0.7646
 7921SOL    HW235400   1.060   2.237  12.362 -1.0849  0.0819  0.3535
 7922SOL     OW35401   0.901   3.828   4.546  0.1430 -0.2572 -0.1919
 7922SOL    HW135402   0.899   3.921   4.569 -0.2871 -0.0502 -1.0651
 7922SOL    HW235403   0.977   3.833   4.488 -0.3838 -1.2887 -0.9654
 7923SOL     OW35404   0.556   0.696   1.830 -0.4340  0.4774 -0.1536
 7923SOL    HW135405   0.563   0.773   1.774 -1.8088  1.6735  1.3567
 7923SOL    HW235406   0.481   0.714   1.887 -1.5185 -0.1567 -1.3697
 7924SOL     OW35407   3.786   1.119   5.489  0.2433  0.3001 -0.2743
 7924SOL    HW135408   3.864   1.119   5.433  0.7719 -0.4097  0.4592
 7924SOL    HW235409   3.777   1.024   5.495  2.6280 -0.0687 -2.4784
 7925SOL     OW35410   4.377   2.581   2.979 -0.2004 -0.2778  0.0366
 7925SOL    HW135411   4.439   2.511   2.959 -0.7323 -1.0054  0.9499
 7925SOL    HW235412   4.326   2.546   3.052  2.8564 -1.9984  1.3623
 7926SOL     OW35413   1.516   4.523   5.366 -0.6368  0.0416 -0.3519
 7926SOL    HW135414   1.590   4.495   5.313 -0.0155  2.4174 -0.7425
 7926SOL    HW235415   1.473   4.591   5.313  1.5736  2.3246  0.7721
 7927SOL     OW35416   0.193   4.181  16.508 -0.0549 -0.0964  0.8288
 7927SOL    HW135417   0.218   4.116  16.443  0.7445  0.0306  1.0124
 7927SOL    HW235418   0.281   4.215  16.523 -0.4924  1.5249 -0.3086
 7928SOL     OW35419   2.413   3.387  11.358 -0.0735  0.0397 -0.2425
 7928SOL    HW135420   2.366   3.467  11.338 -0.2239 -0.2401 -0.9914
 7928SOL    HW235421   2.497   3.427  11.381 -0.5867  0.7326  0.4167
 7929SOL     OW35422   2.091   3.089   3.863 -0.4325  0.1260 -0.1997
 7929SOL    HW135423   2.162   3.127   3.811 -2.1202  3.8365  0.2495
 7929SOL    HW235424   2.094   3.140   3.944  0.8189  1.4297 -1.0701
 7930SOL     OW35425   4.401   2.158  17.283 -1.1210  0.0346  0.0338
 7930SOL    HW135426   4.495   2.158  17.265 -1.6811 -3.0262 -2.7663
 7930SOL    HW235427   4.393   2.073  17.326  0.7210 -0.0561  0.2075
 7931SOL     OW35428   3.433   3.984   2.952  0.0560 -0.2786  0.0098
 7931SOL    HW135429   3.474   4.023   3.029  0.8894 -2.8764  0.9078
 7931SOL    HW235430   3.372   3.924   2.995  0.7631 -2.9868 -2.7231
 7932SOL     OW35431   2.622   1.422   1.625  0.0267 -0.2544  0.2676
 7932SOL    HW135432   2.633   1.498   1.682 -1.2450 -0.6811  1.0870
 7932SOL    HW235433   2.692   1.435   1.561 -0.6967  0.8976 -0.3001
 7933SOL     OW35434   0.367   4.651   3.636  0.1575 -0.3781 -0.3571
 7933SOL    HW135435   0.395   4.672   3.547 -0.6582 -1.3547 -0.8578
 7933SOL    HW235436   0.293   4.709   3.650  1.2559  0.6433  1.2199
 7934SOL     OW35437   2.740   1.879   4.379 -0.0270  0.4807  0.1046
 7934SOL    HW135438   2.669   1.925   4.334  0.9155  2.9981  1.1546
 7934SOL    HW235439   2.770   1.826   4.306 -1.1153  0.7680 -0.5553
 7935SOL     OW35440   4.643   0.967   3.048  0.2439 -0.4455  0.1120
 7935SOL    HW135441   4.554   1.001   3.046  0.4049 -0.0921 -0.8983
 7935SOL    HW235442   4.691   1.050   3.053  1.0090 -0.7944 -1.6207
 7936SOL     OW35443   3.903   2.064   6.113  0.7161 -0.0503  0.1402
 7936SOL    HW135444   3.873   2.033   6.199 -1.2564 -0.4104 -0.6949
 7936SOL    HW235445   3.821   2.081   6.067  1.7289  1.5297 -1.1012
 7937SOL     OW35446   1.494   4.294   8.230 -0.1220  0.1461  0.3704
 7937SOL    HW135447   1.569   4.353   8.235  0.1631 -0.2675  0.8303
 7937SOL    HW235448   1.521   4.226   8.291 -0.3933 -0.7609 -0.5060
 7938SOL     OW35449   0.630   0.106   2.374  0.3105  0.2350  0.3837
 7938SOL    HW135450   0.578   0.027   2.365 -0.2894  0.4580  1.8027
 7938SOL    HW235451   0.696   0.069   2.432 -1.7456 -1.4156  1.6794
 7939SOL     OW35452   3.349   4.554  14.652  0.1730  0.6146 -0.3931
 7939SOL    HW135453   3.385   4.553  14.563 -1.4368  2.1614 -1.0819
 7939SOL    HW235454   3.324   4.462  14.660  1.0675  0.5429  1.5591
 7940SOL     OW35455   2.014   0.222   7.425  0.1233  0.1521  0.1273
 7940SOL    HW135456   2.027   0.140   7.473 -1.0472  0.8907  1.6740
 7940SOL    HW235457   1.919   0.220   7.419  0.2932 -1.8623 -2.1847
 7941SOL     OW35458   2.277   0.451   1.325  0.7962  1.0126  0.0311
 7941SOL    HW135459   2.231   0.535   1.321 -0.7042  0.1912 -0.1415
 7941SOL    HW235460   2.332   0.453   1.247  0.9356 -0.1312  0.1026
 7942SOL     OW35461   4.176   2.136   9.701 -0.2855  0.7322 -0.1900
 7942SOL    HW135462   4.181   2.229   9.724 -2.1768  0.8859 -0.3933
 7942SOL    HW235463   4.179   2.138   9.605 -0.3752  1.7621 -0.1773
 7943SOL     OW35464   4.126   3.930   6.191  0.0026 -0.1843  0.1503
 7943SOL    HW135465   4.213   3.926   6.152  0.1434  1.2337  0.3184
 7943SOL    HW235466   4.108   3.837   6.206 -0.4457  0.3782  3.1101
 7944SOL     OW35467   4.598   3.675  14.296 -0.5883 -0.2695  0.1066
 7944SOL    HW135468   4.547   3.704  14.220 -0.8069  0.2559  0.4497
 7944SOL    HW235469   4.571   3.586  14.319  0.4233 -0.4347  0.6360
 7945SOL     OW35470   2.648   2.049   8.749 -0.1939 -0.1012  0.4446
 7945SOL    HW135471   2.680   2.109   8.817 -0.6392 -0.1490  0.6964
 7945SOL    HW235472   2.730   2.001   8.740  0.9518  2.1089 -1.0234
 7946SOL     OW35473   4.096   2.553  12.506  0.0620 -0.3428 -0.3280
 7946SOL    HW135474   4.027   2.561  12.441  1.1863 -0.0612 -1.4833
 7946SOL    HW235475   4.108   2.644  12.532 -0.0893 -0.4192  0.0067
 7947SOL     OW35476   1.595   2.452   2.203 -0.1249  0.2914  0.0517
 7947SOL    HW135477   1.560   2.379   2.152 -1.0089  0.0786  0.9562
 7947SOL    HW235478   1.525   2.511   2.176 -0.5005  0.2394  0.8949
 7948SOL     OW35479   3.812   2.032   5.001 -0.2869 -0.4958  0.2481
 7948SOL    HW135480   3.831   1.946   5.039 -0.6856 -1.3589 -1.4676
 7948SOL    HW235481   3.761   2.002   4.925  0.6153  1.2716 -1.0406
 7949SOL     OW35482   2.887   3.322  15.653 -0.4571  0.3038  0.2563
 7949SOL    HW135483   2.797   3.313  15.686 -0.5971  2.3887  0.4035
 7949SOL    HW235484   2.884   3.252  15.588  0.0154  2.1867 -1.7817
 7950SOL     OW35485   0.276   2.043   2.703 -0.1765 -0.1169  0.4613
 7950SOL    HW135486   0.354   2.099   2.695 -0.3840 -0.2687 -2.7419
 7950SOL    HW235487   0.220   2.097   2.758 -0.3661  1.3374 -1.1868
 7951SOL     OW35488   3.783   4.439   0.070 -0.2416  0.7606  0.2380
 7951SOL    HW135489   3.744   4.433  17.722  0.3919  0.4631 -0.0303
 7951SOL    HW235490   3.741   4.362   0.109  1.7550 -1.7446 -2.5974
 7952SOL     OW35491   1.238   1.377   4.299 -0.2213 -0.0547  0.0374
 7952SOL    HW135492   1.215   1.373   4.206  0.2036 -1.0747 -0.0209
 7952SOL    HW235493   1.319   1.327   4.313 -0.3067 -0.1417  0.2182
 7953SOL     OW35494   1.520   0.963   2.819 -0.2585 -0.4941 -0.3229
 7953SOL    HW135495   1.602   0.913   2.813 -0.7311 -1.0780 -1.8876
 7953SOL    HW235496   1.490   0.935   2.906 -0.5737  2.2431  0.4259
 7954SOL     OW35497   2.072   0.202   0.316 -0.7109  0.0804  0.1643
 7954SOL    HW135498   1.986   0.206   0.275 -0.9854 -1.7333  0.5624
 7954SOL    HW235499   2.089   0.296   0.314 -1.3870  0.2250  1.1460
 7955SOL     OW35500   4.065   2.735   5.527  0.1844  0.4570  0.4774
 7955SOL    HW135501   4.120   2.813   5.516 -0.7160  1.1608  0.9314
 7955SOL    HW235502   4.115   2.679   5.468 -0.3697  0.4423  0.0250
 7956SOL     OW35503   2.267   0.110   0.174 -0.0102 -0.2151  0.2528
 7956SOL    HW135504   2.200   0.157   0.223  0.0498  1.2038 -1.0128
 7956SOL    HW235505   2.259   0.033   0.230  1.8947 -1.4667 -1.1784
 7957SOL     OW35506   3.077   3.862   9.052  0.3517 -0.2329 -0.1007
 7957SOL    HW135507   3.020   3.802   9.003  0.1160  1.6627 -2.1482
 7957SOL    HW235508   3.120   3.795   9.105 -1.5226 -1.3434  0.0160
 7958SOL     OW35509   2.274   2.140  11.753 -0.0174 -0.3041  0.1906
 7958SOL    HW135510   2.226   2.204  11.806  0.2839  0.9680 -1.0872
 7958SOL    HW235511   2.262   2.061  11.805 -2.9647 -0.5577 -0.8496
 7959SOL     OW35512   1.771   2.872   8.243  0.3069 -0.6828  0.1059
 7959SOL    HW135513   1.824   2.856   8.165 -0.3653  3.7259 -1.2516
 7959SOL    HW235514   1.687   2.897   8.204  0.8164  0.9401  0.0280
 7960SOL     OW35515   2.939   3.654   7.973 -0.1971  0.4538  0.4071
 7960SOL    HW135516   2.905   3.671   7.885  2.4082  0.8762 -0.5050
 7960SOL    HW235517   3.030   3.674   7.953  0.3245 -0.5671  1.7767
 7961SOL     OW35518   3.355   2.891   7.991 -0.6668  0.3894 -0.5643
 7961SOL    HW135519   3.422   2.875   8.057  0.3627  0.5472 -1.5597
 7961SOL    HW235520   3.409   2.922   7.918 -0.1418  0.6557 -0.0546
 7962SOL     OW35521   2.021   4.645   2.855 -0.1657 -0.1996 -0.2531
 7962SOL    HW135522   2.044   4.556   2.828  0.2134 -0.1626 -0.0448
 7962SOL    HW235523   1.950   4.632   2.918 -1.1652 -0.6588 -1.4439
 7963SOL     OW35524   3.847   3.908  15.884  0.0632 -0.1034 -0.2712
 7963SOL    HW135525   3.941   3.896  15.893 -0.0892 -1.3539 -0.2273
 7963SOL    HW235526   3.815   3.821  15.859 -0.1832 -0.2084  0.4136
 7964SOL     OW35527   3.988   0.204   2.900  0.3049 -0.1380  0.1986
 7964SOL    HW135528   3.923   0.160   2.954 -1.1465  0.5329 -1.0053
 7964SOL    HW235529   4.002   0.136   2.835  0.6655 -0.3280  0.4721
 7965SOL     OW35530   3.587   1.629   4.032  0.6166 -0.4052  0.5083
 7965SOL    HW135531   3.657   1.606   4.092  0.9718 -0.0507  0.2268
 7965SOL    HW235532   3.553   1.546   3.996  1.2075 -0.1053 -0.7492
 7966SOL     OW35533   2.708   1.512   6.665 -0.4058 -0.3777 -0.3316
 7966SOL    HW135534   2.700   1.601   6.701  1.7488  0.7345 -2.5306
 7966SOL    HW235535   2.787   1.479   6.707 -0.1225  0.7529  0.0432
 7967SOL     OW35536   3.901   1.934   2.162  0.1340  0.1284 -0.1456
 7967SOL    HW135537   3.858   1.878   2.227  1.6822  0.8555  1.5077
 7967SOL    HW235538   3.878   1.897   2.077 -3.3205 -0.3202  0.9598
 7968SOL     OW35539   0.023   0.778   9.215 -0.2170 -0.1187 -0.2107
 7968SOL    HW135540   0.082   0.715   9.256  2.0998  1.3361 -1.2541
 7968SOL    HW235541   0.013   0.735   9.130  1.1446  1.2383 -1.0648
 7969SOL     OW35542   3.943   1.558   6.879  0.0626 -0.1538  0.0034
 7969SOL    HW135543   3.919   1.505   6.955  1.3338  2.1649  2.0351
 7969SOL    HW235544   3.921   1.646   6.908  0.4659 -0.4269  1.1261
 7970SOL     OW35545   3.502   3.775   0.289 -0.0921 -0.3478 -0.4996
 7970SOL    HW135546   3.415   3.807   0.312 -0.6012 -2.0610 -0.0610
 7970SOL    HW235547   3.546   3.783   0.374 -0.9894 -1.4219  0.0622
 7971SOL     OW35548   1.442   3.623   3.518  0.3074 -0.1281 -0.0075
 7971SOL    HW135549   1.537   3.638   3.516  0.4696 -1.2090 -0.2385
 7971SOL    HW235550   1.419   3.636   3.426 -1.3717  0.9267  0.5613
 7972SOL     OW35551   3.194   3.207   7.264  0.4459  0.3959  0.0195
 7972SOL    HW135552   3.123   3.247   7.315 -0.7785 -1.2466 -0.3923
 7972SOL    HW235553   3.150   3.147   7.204  0.1260 -1.5133  2.1804
 7973SOL     OW35554   2.219   3.948   3.169 -0.0117  0.8252  0.0656
 7973SOL    HW135555   2.264   3.974   3.089  1.4775  0.7783  0.8831
 7973SOL    HW235556   2.179   3.864   3.148 -0.2890  0.1694  3.2124
 7974SOL     OW35557   2.663   2.100   6.343  0.5464  0.4892  0.2544
 7974SOL    HW135558   2.733   2.046   6.306 -0.0183  0.3557 -0.6312
 7974SOL    HW235559   2.715   2.145   6.409  3.3627 -2.1731 -0.1591
 7975SOL     OW35560   2.616   3.414   2.200  0.2245  0.1501  0.0029
 7975SOL    HW135561   2.687   3.357   2.170 -0.9826 -0.8665 -0.9105
 7975SOL    HW235562   2.578   3.446   2.118 -0.8152  1.8888  1.1504
 7976SOL     OW35563   1.162   4.003   2.621  0.1408  0.4381 -0.2929
 7976SOL    HW135564   1.199   3.993   2.708 -2.1583 -2.4377  0.3538
 7976SOL    HW235565   1.196   3.921   2.583 -0.2709  0.5257 -0.8491
 7977SOL     OW35566   1.280   2.069   1.668  0.6382  0.5678 -0.4800
 7977SOL    HW135567   1.319   2.047   1.584  1.2480  0.2761 -0.1148
 7977SOL    HW235568   1.189   2.057   1.641  0.8627 -1.9177 -0.0771
 7978SOL     OW35569   2.955   4.514   8.469  0.2733  0.2613  0.3941
 7978SOL    HW135570   3.007   4.592   8.449 -0.1183  1.2363  3.2392
 7978SOL    HW235571   2.952   4.462   8.388  0.8023 -0.5613  0.9134
 7979SOL     OW35572   1.613   1.945   6.363 -0.1174  0.0382 -0.1690
 7979SOL    HW135573   1.584   2.021   6.415  1.6772 -0.8867  2.2092
 7979SOL    HW235574   1.595   1.991   6.281  1.2897  2.5717  0.9119
 7980SOL     OW35575   0.374   4.504  15.104  0.6930 -0.0332 -0.1348
 7980SOL    HW135576   0.446   4.561  15.133  0.2443  0.2634  0.3949
 7980SOL    HW235577   0.327   4.525  15.185  1.3538  0.4471  0.1242
 7981SOL     OW35578   2.018   4.055   6.014  0.0344 -0.3945 -0.2558
 7981SOL    HW135579   2.096   4.073   6.066 -0.3099 -0.3328  0.2472
 7981SOL    HW235580   2.005   4.139   5.970  3.5310  0.5937  0.6060
 7982SOL     OW35581   0.564   0.843   8.299  0.0657 -0.0929  0.3850
 7982SOL    HW135582   0.622   0.894   8.242 -0.0681  0.6980  0.9646
 7982SOL    HW235583   0.594   0.869   8.386 -3.2981  1.9102  0.9075
 7983SOL     OW35584   4.395   0.589   2.648  0.8776 -0.5048  0.0917
 7983SOL    HW135585   4.439   0.668   2.617 -2.0509  1.6805  1.4756
 7983SOL    HW235586   4.428   0.579   2.737 -0.7922  0.6635  0.8310
 7984SOL     OW35587   3.163   2.690   7.987  0.5075 -0.5860  0.0249
 7984SOL    HW135588   3.241   2.746   7.988  0.4867 -0.5570  0.0204
 7984SOL    HW235589   3.194   2.610   8.031  1.1480  0.9322  2.3496
 7985SOL     OW35590   0.106   0.261   4.357  0.1945 -0.1778  0.6786
 7985SOL    HW135591   0.078   0.172   4.380 -0.4009 -0.8480 -2.6452
 7985SOL    HW235592   0.177   0.241   4.296 -1.4181 -1.5378 -0.7696
 7986SOL     OW35593   0.573   3.051   6.694 -0.2845  0.0869 -0.4298
 7986SOL    HW135594   0.606   3.087   6.777  0.5321 -0.5771 -0.4693
 7986SOL    HW235595   0.650   3.055   6.638 -0.1904  1.5508 -0.1932
 7987SOL     OW35596   2.537   1.255  11.363  0.1801 -0.5561 -0.3681
 7987SOL    HW135597   2.628   1.248  11.392  0.4054 -0.3155 -1.0038
 7987SOL    HW235598   2.488   1.194  11.417 -1.1175 -1.4662 -2.5430
 7988SOL     OW35599   0.543   2.089   1.314 -0.0099 -0.5096  0.2227
 7988SOL    HW135600   0.513   2.169   1.270  0.7634  0.0439  0.6996
 7988SOL    HW235601   0.638   2.088   1.300 -0.1107  0.5551 -0.5415
 7989SOL     OW35602   3.186   1.679   8.286 -0.0059 -0.1494 -0.2218
 7989SOL    HW135603   3.186   1.757   8.231 -1.5636  0.3661  0.5176
 7989SOL    HW235604   3.178   1.619   8.212  2.6790  0.0011 -0.6242
 7990SOL     OW35605   4.242   3.658   0.113  0.0492  0.0804 -0.5030
 7990SOL    HW135606   4.162   3.710   0.103 -0.0079 -0.1234 -1.0693
 7990SOL    HW235607   4.260   3.661   0.019  0.0450  1.9412 -0.4421
 7991SOL     OW35608   4.705   2.554   2.426  0.0043  0.1003 -0.3439
 7991SOL    HW135609   0.049   2.597   2.393  0.2530 -1.4571 -1.8445
 7991SOL    HW235610   0.002   2.478   2.475  1.0728  0.9799  0.3215
 7992SOL     OW35611   3.244   0.344  15.680 -0.0834  0.0948 -0.4404
 7992SOL    HW135612   3.152   0.369  15.687  0.3047  0.6920  2.6818
 7992SOL    HW235613   3.268   0.372  15.592  0.5805  1.1915  0.0949
 7993SOL     OW35614   3.896   0.102   6.601 -0.5850 -0.5256 -0.9254
 7993SOL    HW135615   3.977   0.051   6.613 -0.2725  0.9047  2.8275
 7993SOL    HW235616   3.832   0.031   6.597  0.1054 -1.1413 -0.9964
 7994SOL     OW35617   3.347   1.280  11.856 -0.7610 -0.0045 -0.4351
 7994SOL    HW135618   3.344   1.207  11.794  0.2376 -1.1169  0.8235
 7994SOL    HW235619   3.430   1.268  11.902 -0.6413 -0.3982 -0.7528
 7995SOL     OW35620   4.021   1.957   3.733  0.2620 -0.2300  0.5834
 7995SOL    HW135621   4.088   1.946   3.801  2.1364 -0.3435 -1.2759
 7995SOL    HW235622   4.082   1.951   3.660  0.0475 -0.2922  0.4100
 7996SOL     OW35623   0.285   1.723  16.447  0.5544  0.1239  0.2273
 7996SOL    HW135624   0.299   1.711  16.353  0.9672 -1.1261  0.4469
 7996SOL    HW235625   0.327   1.644  16.482 -0.1599 -0.6149 -0.5581
 7997SOL     OW35626   3.027   0.573   6.802 -0.2235 -0.4151  0.1187
 7997SOL    HW135627   3.089   0.643   6.783 -0.0862 -1.1826 -2.2276
 7997SOL    HW235628   3.081   0.494   6.798 -1.2561 -0.9675 -3.0493
 7998SOL     OW35629   4.175   0.973  10.186  0.3259 -0.2457 -0.3233
 7998SOL    HW135630   4.101   0.929  10.145  1.7406 -2.2862 -0.6894
 7998SOL    HW235631   4.199   0.914  10.257  2.5171  1.6553  0.5162
 7999SOL     OW35632   0.493   0.860   2.940 -0.2508 -0.3945 -0.1820
 7999SOL    HW135633   0.567   0.819   2.895  0.8892  1.5438 -0.0800
 7999SOL    HW235634   0.455   0.903   2.863 -1.5761  2.8958  2.2813
 8000SOL     OW35635   2.096   1.133  13.592  0.5132  0.3845 -0.3165
 8000SOL    HW135636   2.067   1.043  13.609  0.7576  0.3650 -0.0052
 8000SOL    HW235637   2.100   1.183  13.673  1.6811 -2.7098  1.5486
 8001SOL     OW35638   3.060   4.005  13.011  0.1457  0.3959 -0.4682
 8001SOL    HW135639   3.127   4.026  13.076  0.3964  2.4501 -1.3734
 8001SOL    HW235640   2.980   4.014  13.063  0.2169  0.2862 -0.3414
 8002SOL     OW35641   4.058   4.226   8.481  0.0486 -0.3966  0.5572
 8002SOL    HW135642   4.028   4.285   8.550 -1.1963 -0.5988  0.1880
 8002SOL    HW235643   4.010   4.146   8.500 -0.8156 -0.0128 -0.0093
 8003SOL     OW35644   0.127   0.916   5.865 -0.0658 -0.0147 -0.6293
 8003SOL    HW135645   0.196   0.858   5.831  1.5492  1.4536  0.1316
 8003SOL    HW235646   0.160   1.006   5.859 -0.8687  0.4488  2.2443
 8004SOL     OW35647   2.268   2.623   7.957 -0.2533 -0.1795  0.0493
 8004SOL    HW135648   2.275   2.684   7.885  1.5040  1.1480  1.3287
 8004SOL    HW235649   2.200   2.567   7.921 -1.4081  1.5960 -0.4654
 8005SOL     OW35650   3.368   3.082   2.440 -0.2707 -0.1660  0.7928
 8005SOL    HW135651   3.275   3.061   2.450 -0.1888 -0.3595  1.1613
 8005SOL    HW235652   3.374   3.104   2.347 -2.6383  2.4516  1.2563
 8006SOL     OW35653   1.429   2.812   8.664  0.2724 -0.5210 -0.1308
 8006SOL    HW135654   1.458   2.721   8.664 -2.2771 -1.3411  1.0558
 8006SOL    HW235655   1.395   2.825   8.753 -0.9089 -2.4187 -0.3079
 8007SOL     OW35656   0.808   0.377   2.259  0.5410  0.3930 -0.3369
 8007SOL    HW135657   0.750   0.453   2.255  1.1952  0.9549  0.9488
 8007SOL    HW235658   0.751   0.306   2.229 -0.1687  0.1146  1.6653
 8008SOL     OW35659   1.484   0.152   7.329 -0.3169  0.6739 -0.9604
 8008SOL    HW135660   1.448   0.218   7.270  0.1587 -0.5130 -2.5889
 8008SOL    HW235661   1.418   0.152   7.398  0.2006 -0.5802 -0.4509
 8009SOL     OW35662   2.400   4.044   8.300 -0.0510 -0.2620  0.4709
 8009SOL    HW135663   2.322   4.092   8.273 -0.6287 -0.5263  1.7011
 8009SOL    HW235664   2.393   4.041   8.396 -2.0511  1.8312  0.3781
 8010SOL     OW35665   3.349   2.217   9.725  0.1592 -0.0074  0.2996
 8010SOL    HW135666   3.362   2.150   9.792 -3.4074 -0.9454  0.0886
 8010SOL    HW235667   3.392   2.292   9.766  0.1402  0.5805 -0.7584
 8011SOL     OW35668   4.722   0.677  11.153  0.2152 -1.0453  0.0883
 8011SOL    HW135669   4.687   0.729  11.081  0.1019 -0.5447  0.5109
 8011SOL    HW235670   0.067   0.729  11.166  0.2593 -1.8479  2.9970
 8012SOL     OW35671   4.172   0.485   4.783 -0.5905 -0.2482  0.0835
 8012SOL    HW135672   4.123   0.563   4.807  0.5967  0.5899 -0.2100
 8012SOL    HW235673   4.102   0.423   4.761  0.1061 -0.7158 -0.8349
 8013SOL     OW35674   0.326   2.332   6.114  0.2687 -0.0261  0.2634
 8013SOL    HW135675   0.299   2.342   6.023  0.5572  0.8289  0.2755
 8013SOL    HW235676   0.261   2.382   6.163  0.1475  0.8741 -0.8303
 8014SOL     OW35677   0.983   2.535   7.004  0.5023 -0.6786 -0.3279
 8014SOL    HW135678   0.936   2.495   7.077 -0.9922  1.3085 -0.2241
 8014SOL    HW235679   0.933   2.506   6.928 -0.4256  1.7733 -0.6340
 8015SOL     OW35680   2.296   1.432   9.096  0.4906 -0.1609 -0.2742
 8015SOL    HW135681   2.237   1.507   9.109 -0.5873 -0.8375 -1.2894
 8015SOL    HW235682   2.293   1.388   9.182  0.8071 -0.1779 -0.2727
 8016SOL     OW35683   2.598   0.127   1.966  0.2056  0.2304  0.3094
 8016SOL    HW135684   2.575   0.197   1.906 -2.6080 -2.6626 -1.9607
 8016SOL    HW235685   2.533   0.057   1.963  0.1914  0.1780  1.4700
 8017SOL     OW35686   3.817   3.950  10.981 -1.5187 -0.4182 -0.1441
 8017SOL    HW135687   3.787   3.915  11.065  0.7624  0.7357  1.1568
 8017SOL    HW235688   3.792   4.042  10.991 -1.8153 -0.5346  0.1910
 8018SOL     OW35689   1.894   3.933   7.354  0.0999 -0.3928  0.4900
 8018SOL    HW135690   1.813   3.980   7.373  0.9885  1.4369 -0.2463
 8018SOL    HW235691   1.962   4.000   7.348 -1.2977  1.1364  1.8702
 8019SOL     OW35692   2.006   3.694   4.429  0.1941 -0.3225 -0.3542
 8019SOL    HW135693   1.930   3.677   4.372 -0.3893  0.1085  0.3076
 8019SOL    HW235694   2.011   3.789   4.421  1.9458 -0.2628  1.6190
 8020SOL     OW35695   1.682   0.461   6.671 -0.7908  0.6752 -0.5630
 8020SOL    HW135696   1.773   0.436   6.658 -1.3152 -2.1015  1.0109
 8020SOL    HW235697   1.645   0.410   6.599  1.3498 -1.0793 -0.4048
 8021SOL     OW35698   1.264   3.582   3.966  0.1723  0.2013 -0.2011
 8021SOL    HW135699   1.262   3.644   3.894 -0.0496 -0.8025 -1.0634
 8021SOL    HW235700   1.329   3.518   3.935 -0.9409  0.6783 -3.4346
 8022SOL     OW35701   0.985   0.722   6.715  0.0780 -0.3995  0.2084
 8022SOL    HW135702   0.892   0.729   6.738  0.5032  1.9321  1.2147
 8022SOL    HW235703   1.027   0.690   6.795  1.3839 -1.5345 -0.9308
 8023SOL     OW35704   1.491   3.929   9.472 -0.1924 -0.0925  0.3602
 8023SOL    HW135705   1.550   3.853   9.469 -0.1655 -0.0011 -1.1468
 8023SOL    HW235706   1.426   3.890   9.531 -0.6691 -0.3136 -0.3042
 8024SOL     OW35707   0.367   1.876  11.287  0.1801 -0.9077 -0.2394
 8024SOL    HW135708   0.449   1.852  11.244  0.4764 -0.9371  0.3512
 8024SOL    HW235709   0.386   1.965  11.314  0.1408 -1.0464  0.2443
 8025SOL     OW35710   2.828   3.319   2.718  0.5673 -0.0556  0.4613
 8025SOL    HW135711   2.734   3.308   2.730  0.3075  2.0274  0.2436
 8025SOL    HW235712   2.841   3.410   2.744  1.6362  0.4255 -1.7569
 8026SOL     OW35713   3.560   4.009   3.607  0.2276 -0.4910  0.0426
 8026SOL    HW135714   3.599   3.938   3.659  1.5867  1.8512  2.2083
 8026SOL    HW235715   3.642   4.028   3.562 -0.7541  0.7603 -1.2044
 8027SOL     OW35716   4.501   3.354   1.308 -0.1734  0.2188 -0.3315
 8027SOL    HW135717   4.486   3.374   1.215  1.2965  0.5979 -0.4919
 8027SOL    HW235718   4.522   3.261   1.299 -0.0971  0.1989  0.0547
 8028SOL     OW35719   3.150   4.257   6.061 -0.1282 -0.3262  0.6415
 8028SOL    HW135720   3.128   4.333   6.007 -0.7991  0.1491  1.5745
 8028SOL    HW235721   3.205   4.211   5.999 -0.3089  0.4299 -0.0784
 8029SOL     OW35722   4.193   0.375   5.890 -0.3483  0.1438  0.2170
 8029SOL    HW135723   4.135   0.300   5.879  0.3732 -0.1832 -1.2708
 8029SOL    HW235724   4.223   0.375   5.981 -1.3219 -1.5258  0.5460
 8030SOL     OW35725   0.676   0.177   9.476  0.4197  0.0709 -0.7411
 8030SOL    HW135726   0.746   0.222   9.524 -1.3972 -0.8759  2.8195
 8030SOL    HW235727   0.708   0.089   9.456  1.3698  0.2512 -0.0378
 8031SOL     OW35728   1.775   1.872   9.176 -0.1676  0.1417  0.1182
 8031SOL    HW135729   1.852   1.910   9.218  0.2730  0.9509 -1.4152
 8031SOL    HW235730   1.810   1.811   9.110 -1.9076  0.0390 -0.7133
 8032SOL     OW35731   1.093   3.987   1.879 -0.1035 -0.3340  0.1205
 8032SOL    HW135732   1.104   4.079   1.903  0.8181 -0.4156 -0.0099
 8032SOL    HW235733   1.184   3.965   1.863 -0.0702 -0.1832  0.0961
 8033SOL     OW35734   2.343   1.078   2.915  0.2868 -0.1553  0.3442
 8033SOL    HW135735   2.419   1.067   2.972  0.5213  0.0084  0.0593
 8033SOL    HW235736   2.280   1.117   2.976  0.3178 -0.4274  0.5516
 8034SOL     OW35737   1.582   0.845   8.462 -0.0151  0.0178  0.1374
 8034SOL    HW135738   1.491   0.816   8.458  0.2218 -0.7134  0.1719
 8034SOL    HW235739   1.625   0.768   8.497  1.9174  0.9906 -0.1024
 8035SOL     OW35740   4.662   0.899   1.251  0.0140  0.8131 -0.1987
 8035SOL    HW135741   4.590   0.841   1.277 -1.4607  2.1281 -1.4217
 8035SOL    HW235742   4.637   0.971   1.308  3.8553  0.8350  1.4693
 8036SOL     OW35743   3.257   2.670  12.635  0.4843 -0.3428  0.5721
 8036SOL    HW135744   3.246   2.752  12.683  0.8692  0.5713 -0.8979
 8036SOL    HW235745   3.255   2.603  12.702  0.1734 -0.6684  0.2405
 8037SOL     OW35746   1.087   3.665  15.503 -0.2552  0.2485  0.0271
 8037SOL    HW135747   1.051   3.753  15.502  0.7550  0.6696  0.5548
 8037SOL    HW235748   1.178   3.685  15.526 -0.0530  2.4088 -2.7838
 8038SOL     OW35749   1.026   2.477  17.215  0.4925  0.3680  0.0974
 8038SOL    HW135750   0.963   2.538  17.176 -0.2944 -0.8855 -0.5584
 8038SOL    HW235751   1.006   2.491  17.308 -0.4220 -1.8507  0.2265
 8039SOL     OW35752   1.977   2.606   7.916  0.0407  0.2589 -0.2051
 8039SOL    HW135753   1.996   2.525   7.868 -1.2530 -0.1718  0.0091
 8039SOL    HW235754   1.912   2.562   7.972 -2.1369  2.5824 -0.9046
 8040SOL     OW35755   2.511   3.765   3.774  0.1686 -0.0837  0.0990
 8040SOL    HW135756   2.580   3.719   3.822  0.0818  1.0885  1.3310
 8040SOL    HW235757   2.435   3.713   3.800  0.9883 -1.0460  0.5653
 8041SOL     OW35758   0.055   2.483   8.033 -0.6123 -0.1270 -0.5501
 8041SOL    HW135759   0.031   2.549   7.968 -0.9743 -1.3864 -1.6690
 8041SOL    HW235760   0.079   2.536   8.110 -1.6088 -0.5182  0.0331
 8042SOL     OW35761   0.404   0.903   7.614  0.1554 -0.8732  0.5225
 8042SOL    HW135762   0.422   0.847   7.689  4.2124 -2.9264 -2.0045
 8042SOL    HW235763   0.411   0.991   7.652  0.1590 -0.2464 -0.9247
 8043SOL     OW35764   2.709   4.480  15.808  0.4767  0.1246  0.3749
 8043SOL    HW135765   2.632   4.457  15.860 -0.8105 -1.1723 -2.1250
 8043SOL    HW235766   2.784   4.435  15.847 -0.8538 -0.9699  1.6626
 8044SOL     OW35767   3.730   1.482  16.744  0.0856  0.3965  0.2440
 8044SOL    HW135768   3.766   1.554  16.692  2.4199 -0.3049  0.8869
 8044SOL    HW235769   3.817   1.455  16.775 -0.0246  0.8705  0.9579
 8045SOL     OW35770   0.324   2.375   7.985  0.2024 -0.1319 -0.1239
 8045SOL    HW135771   0.383   2.448   8.005  0.0467  0.2784 -1.1590
 8045SOL    HW235772   0.243   2.422   7.969  0.4408 -0.3859 -2.1391
 8046SOL     OW35773   4.081   0.418   1.535  0.0920  0.4811 -0.4475
 8046SOL    HW135774   4.037   0.341   1.572  1.0046  0.6801  1.0395
 8046SOL    HW235775   4.170   0.386   1.518  0.4159  2.0619 -1.7317
 8047SOL     OW35776   0.364   4.701   7.224  0.0134  0.2354 -0.1439
 8047SOL    HW135777   0.379   0.000   7.313 -2.0963 -1.1342  0.7336
 8047SOL    HW235778   0.295   0.029   7.202  1.6741  1.8333 -0.8191
 8048SOL     OW35779   1.143   1.930   4.796 -0.5294  0.4639 -0.4442
 8048SOL    HW135780   1.154   1.951   4.889 -0.3496  1.5728 -0.7193
 8048SOL    HW235781   1.059   1.971   4.776 -1.0563 -0.4233 -0.0390
 8049SOL     OW35782   2.539   4.204   3.368 -0.6946 -0.2616 -0.2535
 8049SOL    HW135783   2.511   4.237   3.282 -1.3825  2.0335  0.8512
 8049SOL    HW235784   2.528   4.111   3.350  2.8325 -0.6945 -0.1691
 8050SOL     OW35785   0.209   0.563  11.391 -0.2261 -0.4409 -0.1682
 8050SOL    HW135786   0.240   0.498  11.454  1.5063  0.1927 -0.3708
 8050SOL    HW235787   0.118   0.568  11.419  0.7394 -1.8451  3.2005
 8051SOL     OW35788   0.574   3.112   3.280 -0.0169 -0.1727  0.3773
 8051SOL    HW135789   0.631   3.055   3.332  1.6440 -1.4086 -2.7718
 8051SOL    HW235790   0.612   3.100   3.192 -3.7870  0.1514 -1.2850
 8052SOL     OW35791   2.245   3.713   2.743  0.6063  0.4666  0.0256
 8052SOL    HW135792   2.324   3.767   2.736 -0.1244  1.4388 -0.6810
 8052SOL    HW235793   2.185   3.785   2.760  1.6883  1.6961 -1.2871
 8053SOL     OW35794   1.107   2.508  15.599 -0.1908  0.8526 -0.2558
 8053SOL    HW135795   1.088   2.523  15.506 -0.5520  0.0907 -0.3047
 8053SOL    HW235796   1.188   2.458  15.604 -0.3149  0.8126  1.1073
 8054SOL     OW35797   3.174   0.992   5.239  0.9113  0.1258  0.3966
 8054SOL    HW135798   3.141   1.059   5.180 -2.4717 -1.8424  0.0495
 8054SOL    HW235799   3.251   1.040   5.270 -0.1959  1.4382  1.1212
 8055SOL     OW35800   2.816   3.819   5.792 -0.4894  0.1906 -0.1057
 8055SOL    HW135801   2.767   3.785   5.717  0.4711 -0.2079 -0.5611
 8055SOL    HW235802   2.870   3.886   5.750  1.2433 -1.8530 -1.1898
 8056SOL     OW35803   3.919   2.044  16.505 -0.0195  0.2163  0.0880
 8056SOL    HW135804   3.905   2.101  16.429  1.3636  1.1886  0.5543
 8056SOL    HW235805   3.955   2.111  16.563 -1.2539  1.1135 -0.1736
 8057SOL     OW35806   0.162   1.567   1.997  0.1274  0.0429  0.2550
 8057SOL    HW135807   0.238   1.602   2.043 -0.5810  2.0179 -0.0791
 8057SOL    HW235808   0.158   1.633   1.927  0.7309  0.8957  1.0253
 8058SOL     OW35809   2.903   2.281   3.216  0.1086 -0.3868  0.8474
 8058SOL    HW135810   2.904   2.301   3.123  2.4760  1.2387  1.2200
 8058SOL    HW235811   2.996   2.270   3.236  0.5087  2.1210  0.2858
 8059SOL     OW35812   3.865   3.693   8.387 -0.0185 -0.3234 -0.3254
 8059SOL    HW135813   3.884   3.718   8.477 -1.3788 -0.1734 -0.0811
 8059SOL    HW235814   3.898   3.771   8.342 -4.3877  0.5023 -2.0409
 8060SOL     OW35815   1.277   1.468   6.882 -0.6836  0.0335  0.2526
 8060SOL    HW135816   1.361   1.475   6.928 -0.2747 -1.4300 -0.2535
 8060SOL    HW235817   1.300   1.430   6.797  0.9014 -0.2563  0.8001
 8061SOL     OW35818   0.684   1.372   4.159 -0.1432 -0.0681 -0.1454
 8061SOL    HW135819   0.735   1.355   4.238  1.6263  0.1279 -1.2402
 8061SOL    HW235820   0.663   1.284   4.128  1.2075 -0.2695 -0.4767
 8062SOL     OW35821   1.341   1.615   9.966 -0.8364 -0.4288 -0.4579
 8062SOL    HW135822   1.330   1.520   9.961  0.1283 -0.4910 -1.3340
 8062SOL    HW235823   1.256   1.649   9.937 -0.2978 -0.2483 -1.8261
 8063SOL     OW35824   0.366   1.261   9.045  0.3904 -0.2479  0.0472
 8063SOL    HW135825   0.363   1.253   8.950 -1.7100  0.0952  0.0855
 8063SOL    HW235826   0.454   1.225   9.058  0.6112 -0.2749 -1.5297
 8064SOL     OW35827   1.189   2.106  16.119 -0.2233  0.0912  0.1773
 8064SOL    HW135828   1.210   2.198  16.130  0.4025 -0.2069  1.4781
 8064SOL    HW235829   1.267   2.052  16.134 -0.8635 -0.9936 -0.3411
 8065SOL     OW35830   2.279   3.222  17.079 -0.3389  1.1054  1.0664
 8065SOL    HW135831   2.188   3.198  17.095 -0.0152  2.3231  4.6804
 8065SOL    HW235832   2.291   3.181  16.993 -3.5154  1.6107  0.3836
 8066SOL     OW35833   1.483   4.217   7.900  0.6211 -1.0818  0.1072
 8066SOL    HW135834   1.524   4.214   7.813  0.7431  0.1708  0.1140
 8066SOL    HW235835   1.395   4.256   7.896  0.7803 -0.5516  1.8345
 8067SOL     OW35836   1.203   2.211   3.171 -0.2103  0.3242 -0.1057
 8067SOL    HW135837   1.154   2.292   3.158 -0.4956  0.2714  0.6917
 8067SOL    HW235838   1.170   2.182   3.256  1.5967  1.2688  0.9189
 8068SOL     OW35839   0.278   2.615   8.502 -0.2930 -0.1681  0.3054
 8068SOL    HW135840   0.313   2.527   8.489 -0.2857 -0.1424  0.1500
 8068SOL    HW235841   0.270   2.602   8.596  0.1063 -3.2005 -0.0775
 8069SOL     OW35842   2.727   0.679   3.226 -0.5007  0.1162  0.1704
 8069SOL    HW135843   2.772   0.618   3.284 -0.8764  0.4593  0.8247
 8069SOL    HW235844   2.721   0.620   3.151  2.3189  0.7717 -0.5724
 8070SOL     OW35845   3.663   0.642   6.763  0.4847  0.6992 -0.2775
 8070SOL    HW135846   3.629   0.582   6.829 -0.5001  1.1877 -0.3465
 8070SOL    HW235847   3.695   0.591   6.688  0.8894  0.8169 -0.1854
 8071SOL     OW35848   3.631   1.460   1.743 -0.2068 -0.4222  0.1207
 8071SOL    HW135849   3.670   1.390   1.690  0.2614 -1.5618  1.9673
 8071SOL    HW235850   3.660   1.540   1.700 -0.7422  0.0405  0.6199
 8072SOL     OW35851   0.656   3.025   5.515 -0.5103 -0.3378  0.0852
 8072SOL    HW135852   0.615   2.957   5.569 -0.6986  0.7841  1.3616
 8072SOL    HW235853   0.674   3.090   5.583  0.2740  0.9571 -1.3731
 8073SOL     OW35854   3.053   0.250  16.857 -0.8210  0.5091 -0.2356
 8073SOL    HW135855   3.049   0.213  16.946  0.7014 -2.1467 -1.2497
 8073SOL    HW235856   3.134   0.299  16.875 -0.8338  0.2466  0.5736
 8074SOL     OW35857   0.980   1.675   5.970 -0.7541 -0.0802  0.1043
 8074SOL    HW135858   0.908   1.612   5.968 -0.3144 -0.5763 -0.0867
 8074SOL    HW235859   1.021   1.667   5.885 -0.3914 -3.2402  0.6005
 8075SOL     OW35860   0.665   4.135   7.507 -0.1217  0.7458  0.9499
 8075SOL    HW135861   0.589   4.149   7.451  0.2936  2.4967  0.8233
 8075SOL    HW235862   0.720   4.209   7.480  1.6842 -1.3114 -1.0525
 8076SOL     OW35863   0.888   4.068   2.823 -0.0007  0.0152 -0.1674
 8076SOL    HW135864   0.889   4.146   2.879  2.1790 -0.1478  0.0096
 8076SOL    HW235865   0.932   4.003   2.878  1.5791  0.3299 -1.0807
 8077SOL     OW35866   1.320   4.069   8.214 -0.3867  0.4629 -0.5376
 8077SOL    HW135867   1.388   4.025   8.163  0.3150  1.0241 -0.0866
 8077SOL    HW235868   1.338   4.161   8.194  0.2356  0.3692 -0.4280
 8078SOL     OW35869   3.128   4.302   0.823  0.8793  0.2197 -0.0207
 8078SOL    HW135870   3.104   4.395   0.814  2.1301  0.3818 -1.6700
 8078SOL    HW235871   3.075   4.277   0.899  0.0120  1.1929 -0.2958
 8079SOL     OW35872   1.975   0.013   5.189 -0.3862 -0.2573 -0.3904
 8079SOL    HW135873   2.014   4.704   5.114  0.0466 -1.8627  0.7858
 8079SOL    HW235874   1.955   4.670   5.242  2.7516 -0.3897  0.6052
 8080SOL     OW35875   2.310   3.050  14.876  0.1555  0.6762  0.2468
 8080SOL    HW135876   2.351   2.965  14.863 -1.9957  0.3244 -4.2463
 8080SOL    HW235877   2.381   3.108  14.849 -1.3131  2.1362 -0.4584
 8081SOL     OW35878   2.854   3.841   2.778  0.3464  0.2912  0.7994
 8081SOL    HW135879   2.900   3.925   2.775 -0.9642  0.9865 -0.1107
 8081SOL    HW235880   2.810   3.856   2.862 -1.5473  2.5470 -0.6028
 8082SOL     OW35881   4.578   2.022   8.313 -0.2212  0.6668  0.3684
 8082SOL    HW135882   4.656   1.978   8.345 -1.8429 -0.7402  2.3497
 8082SOL    HW235883   4.599   2.014   8.220 -0.8869  1.2323  0.1659
 8083SOL     OW35884   1.434   4.621   3.840 -0.1165 -0.4811  0.3205
 8083SOL    HW135885   1.496   4.681   3.881  3.0966 -3.2458 -0.5722
 8083SOL    HW235886   1.486   4.586   3.768 -0.2631 -0.1711  0.0665
 8084SOL     OW35887   4.397   1.008   3.582 -0.5406 -0.0978  0.3355
 8084SOL    HW135888   4.389   1.060   3.502 -0.4456  1.4459  1.3531
 8084SOL    HW235889   4.464   1.061   3.624 -0.1511 -1.4100  1.3592
 8085SOL     OW35890   1.653   1.054   3.243  0.1040 -0.5120  0.5151
 8085SOL    HW135891   1.671   1.003   3.322  1.1809 -0.3485  0.3712
 8085SOL    HW235892   1.638   1.141   3.280  1.8840  0.3236 -0.7106
 8086SOL     OW35893   0.305   3.380   4.340  0.1408  0.0374  0.6293
 8086SOL    HW135894   0.325   3.410   4.251 -1.4590  1.5470  0.7783
 8086SOL    HW235895   0.325   3.459   4.390  1.6647  1.0382 -1.5690
 8087SOL     OW35896   3.341   1.728   4.830 -0.4602 -0.5235 -0.4484
 8087SOL    HW135897   3.279   1.798   4.811 -1.5124 -1.7032 -1.4137
 8087SOL    HW235898   3.284   1.656   4.804  0.5648 -2.0150  1.4385
 8088SOL     OW35899   2.150   0.488   6.166  0.1956  0.1757  0.3880
 8088SOL    HW135900   2.104   0.562   6.126 -1.8224 -1.1968  0.1188
 8088SOL    HW235901   2.134   0.418   6.101 -1.0253  0.9961 -0.1982
 8089SOL     OW35902   4.709   1.787   9.265 -0.0436 -0.3188  0.2434
 8089SOL    HW135903   4.692   1.771   9.172 -1.4051 -1.8434  0.7593
 8089SOL    HW235904   0.068   1.804   9.257 -0.2083  0.9086  0.8827
 8090SOL     OW35905   3.353   4.617   0.406 -0.3452  0.0132  0.1811
 8090SOL    HW135906   3.260   4.598   0.419 -0.7971  2.0341 -0.0329
 8090SOL    HW235907   3.354   4.713   0.406 -0.0718  0.0152  2.2490
 8091SOL     OW35908   1.583   0.223   0.101  0.2856  0.1039  0.4978
 8091SOL    HW135909   1.515   0.290   0.112  0.7312  0.6308  0.0223
 8091SOL    HW235910   1.611   0.240   0.012  2.6214  0.2632  1.2768
 8092SOL     OW35911   1.161   4.283   0.394  0.7631 -0.1367 -0.1203
 8092SOL    HW135912   1.065   4.289   0.387  0.9065  1.1692 -0.8970
 8092SOL    HW235913   1.167   4.354   0.457  1.2537  0.5413 -0.9434
 8093SOL     OW35914   1.941   0.445  17.656 -0.2780 -0.2458 -0.0116
 8093SOL    HW135915   2.005   0.374  17.664 -0.1282 -0.1317 -0.1866
 8093SOL    HW235916   1.984   0.497  17.588 -0.4038 -1.9630 -1.3937
 8094SOL     OW35917   0.748   2.499   4.068  0.6118  0.0354  0.3006
 8094SOL    HW135918   0.690   2.523   3.995  2.0800  1.1334 -0.5061
 8094SOL    HW235919   0.774   2.576   4.118 -0.2484 -0.1029  0.9500
 8095SOL     OW35920   0.546   3.832   0.276 -0.1721  0.2752 -0.0860
 8095SOL    HW135921   0.580   3.745   0.257 -4.0395 -0.8229 -2.0405
 8095SOL    HW235922   0.455   3.810   0.259  0.0359 -0.6139 -0.0575
 8096SOL     OW35923   4.077   1.337   7.333 -0.8472 -0.0264  0.3338
 8096SOL    HW135924   4.027   1.327   7.414  1.1479 -0.9711  1.4664
 8096SOL    HW235925   4.148   1.394   7.363 -0.9792  0.0211  0.5547
 8097SOL     OW35926   0.796   0.083   6.973 -0.3689  0.2271  0.2974
 8097SOL    HW135927   0.865   0.071   6.907  1.0902  0.2279  1.8329
 8097SOL    HW235928   0.791   0.178   6.985 -1.0481  0.2238  0.0043
 8098SOL     OW35929   1.827   2.696  14.738  0.6457 -0.6918  0.0307
 8098SOL    HW135930   1.821   2.790  14.724  1.5497 -0.7192 -0.5084
 8098SOL    HW235931   1.738   2.687  14.773  0.6936  1.4291  0.6772
 8099SOL     OW35932   3.677   2.279   6.544 -0.2060 -0.5212 -0.4868
 8099SOL    HW135933   3.664   2.233   6.627 -1.6926 -1.7606 -1.4141
 8099SOL    HW235934   3.615   2.352   6.553  0.5210  0.2380 -1.6027
 8100SOL     OW35935   3.909   3.224  17.516 -0.3096  0.0505 -0.3242
 8100SOL    HW135936   3.975   3.293  17.518 -0.7460  0.4683 -0.1536
 8100SOL    HW235937   3.850   3.258  17.449 -0.5668  0.5527  0.1523
 8101SOL     OW35938   3.059   3.910   7.165  0.5409  0.3985  0.0565
 8101SOL    HW135939   3.100   3.894   7.250 -0.5325  2.0701  0.8756
 8101SOL    HW235940   3.039   4.003   7.157  2.4248  0.8410  0.4946
 8102SOL     OW35941   4.581   2.070  15.047  0.7552 -0.3938  0.0873
 8102SOL    HW135942   4.552   2.097  14.960 -1.4385  2.8182  1.8337
 8102SOL    HW235943   4.523   1.998  15.073  0.2234 -0.6409 -1.7999
 8103SOL     OW35944   0.893   1.018  15.215 -0.3281  0.2771  0.2999
 8103SOL    HW135945   0.882   1.088  15.280 -0.4236  1.1938 -0.7177
 8103SOL    HW235946   0.826   0.961  15.254  0.5909  1.1353  3.1964
 8104SOL     OW35947   2.888   1.915   7.737 -0.4167 -0.5021  0.1065
 8104SOL    HW135948   2.982   1.898   7.746  0.0743  1.3108 -1.3845
 8104SOL    HW235949   2.868   1.896   7.828  0.4775  0.1680  0.4433
 8105SOL     OW35950   2.188   4.032   6.787 -0.1298 -0.7768  0.0103
 8105SOL    HW135951   2.200   4.101   6.852 -3.5324 -0.0474 -0.0947
 8105SOL    HW235952   2.122   3.982   6.835 -1.8768  1.7720  0.2991
 8106SOL     OW35953   2.292   2.261  13.930  0.0887 -0.1054  0.4719
 8106SOL    HW135954   2.233   2.200  13.886  0.4460  0.0280 -0.1851
 8106SOL    HW235955   2.381   2.252  13.897 -0.3039  1.2544 -0.9862
 8107SOL     OW35956   2.005   4.257   0.221 -0.3160  0.2053  0.6504
 8107SOL    HW135957   2.058   4.178   0.208 -1.7145 -0.6019 -0.1311
 8107SOL    HW235958   2.065   4.299   0.282  1.5535 -0.7355 -0.5363
 8108SOL     OW35959   0.931   2.418   2.123  0.6719  0.9217  0.2660
 8108SOL    HW135960   0.886   2.333   2.118 -1.7356  2.2736 -1.1732
 8108SOL    HW235961   0.997   2.399   2.190  1.0744 -0.4081 -0.5028
 8109SOL     OW35962   0.910   0.757   3.442  0.2100  0.1580  0.5954
 8109SOL    HW135963   0.967   0.778   3.368  0.3138 -3.9303 -0.5007
 8109SOL    HW235964   0.962   0.790   3.515  3.2631 -2.0047 -0.6246
 8110SOL     OW35965   2.066   0.560  14.829  0.6034  0.2023  0.2014
 8110SOL    HW135966   2.017   0.506  14.891 -1.2134 -2.2233 -3.3698
 8110SOL    HW235967   2.051   0.646  14.867  0.9876 -0.2347  1.3644
 8111SOL     OW35968   4.295   3.684   9.271 -0.6133  0.0897 -0.9777
 8111SOL    HW135969   4.223   3.708   9.330  0.2702 -0.2350  0.2286
 8111SOL    HW235970   4.365   3.713   9.330 -2.1368  3.2600 -0.7231
 8112SOL     OW35971   0.802   2.972   1.982 -0.5453 -0.2130  0.5262
 8112SOL    HW135972   0.877   2.915   2.001  0.1045  0.2502 -0.6401
 8112SOL    HW235973   0.851   3.051   2.006 -0.1284 -0.5358  0.7378
 8113SOL     OW35974   2.564   4.377  17.584  0.5174  0.3983  0.2491
 8113SOL    HW135975   2.562   4.403  17.492 -1.2005 -1.1369 -0.1476
 8113SOL    HW235976   2.635   4.313  17.585 -0.5482 -0.8213 -1.9321
 8114SOL     OW35977   0.197   2.832   7.994  0.2816  0.5447  0.5111
 8114SOL    HW135978   0.167   2.846   8.084 -0.1386 -1.6164  0.7054
 8114SOL    HW235979   0.144   2.895   7.945  0.9802  0.3694 -0.4786
 8115SOL     OW35980   4.557   3.858  15.024  0.0987  0.1310 -0.1829
 8115SOL    HW135981   4.520   3.864  14.936  1.4870  1.9062 -0.6672
 8115SOL    HW235982   4.480   3.815  15.060  0.8473 -0.9894  0.0586
 8116SOL     OW35983   3.030   3.485  11.474  0.4077 -0.5028  0.1390
 8116SOL    HW135984   3.043   3.575  11.446 -3.3596  0.4433  1.3395
 8116SOL    HW235985   3.121   3.457  11.474  0.7087  0.4614 -2.7158
 8117SOL     OW35986   2.538   0.960   6.806 -0.0546  0.3889 -0.1916
 8117SOL    HW135987   2.615   0.921   6.764  0.5132 -0.5452  1.7028
 8117SOL    HW235988   2.540   1.043   6.759  1.6881 -0.3889 -1.4986
 8118SOL     OW35989   0.517   2.804  12.852  0.4310 -0.5978 -0.2377
 8118SOL    HW135990   0.584   2.744  12.884  0.3590 -0.6632 -0.2083
 8118SOL    HW235991   0.435   2.758  12.868  0.2514 -0.0381  0.4701
 8119SOL     OW35992   2.743   0.437   9.291 -0.6879  0.0383 -0.8003
 8119SOL    HW135993   2.789   0.434   9.375 -0.0091  0.4677 -1.1627
 8119SOL    HW235994   2.728   0.344   9.272  1.3515  0.2274 -3.3142
 8120SOL     OW35995   1.781   2.599   3.085 -0.2233  0.1939  0.3027
 8120SOL    HW135996   1.816   2.659   3.019  0.2565 -2.0704 -1.5042
 8120SOL    HW235997   1.861   2.549   3.104 -1.1852 -1.5290 -0.1952
 8121SOL     OW35998   3.692   0.674   3.555  0.0143  0.3727  0.1448
 8121SOL    HW135999   3.764   0.658   3.616 -0.7946 -0.7936  0.7817
 8121SOL    HW236000   3.732   0.685   3.468 -0.1961  0.9119  0.1185
 8122SOL     OW36001   4.431   2.602   4.438 -0.4256 -0.3575 -0.0360
 8122SOL    HW136002   4.424   2.641   4.351  3.1129 -0.5823 -0.4501
 8122SOL    HW236003   4.362   2.645   4.488 -0.5878 -1.7077  0.9109
 8123SOL     OW36004   0.993   0.070   6.468  0.1082 -0.2558  0.2934
 8123SOL    HW136005   0.904   0.104   6.476 -0.4069 -1.4692 -0.3026
 8123SOL    HW236006   0.983   0.020   6.387  3.3440 -0.3241 -0.0662
 8124SOL     OW36007   3.501   0.895   5.556  0.2789 -0.4468  0.0810
 8124SOL    HW136008   3.588   0.890   5.594 -0.6821 -1.7314  2.1187
 8124SOL    HW236009   3.461   0.812   5.584 -1.4351  0.6823  0.9628
 8125SOL     OW36010   1.431   0.981   0.593  0.4430 -0.3621  0.1347
 8125SOL    HW136011   1.397   0.891   0.595  0.9599 -0.5190  2.0563
 8125SOL    HW236012   1.400   1.024   0.673  1.1765  0.3028  0.0479
 8126SOL     OW36013   2.269   2.087   2.057 -0.1142  0.0265 -0.3424
 8126SOL    HW136014   2.245   2.138   1.980  1.7743  1.1946 -0.1628
 8126SOL    HW236015   2.248   2.000   2.024 -1.4093 -0.3875  1.5604
 8127SOL     OW36016   0.574   1.316  16.496  0.3174 -0.4084  0.2550
 8127SOL    HW136017   0.536   1.361  16.572  0.8144 -1.0782  0.8999
 8127SOL    HW236018   0.519   1.343  16.423  2.8387 -0.1174 -1.5336
 8128SOL     OW36019   2.299   1.552  14.601  0.3940 -0.5996 -0.1308
 8128SOL    HW136020   2.326   1.505  14.521 -2.5447 -3.2907  0.4390
 8128SOL    HW236021   2.383   1.585  14.632  1.3397 -1.0871 -2.1719
 8129SOL     OW36022   4.725   4.331   7.627  0.5556  0.1813  0.1853
 8129SOL    HW136023   4.646   4.317   7.680 -0.1533  1.4952 -0.5135
 8129SOL    HW236024   4.702   4.409   7.577  0.2247  0.0621  0.1544
 8130SOL     OW36025   0.653   4.466   8.456 -0.3704  0.3411 -0.0676
 8130SOL    HW136026   0.727   4.527   8.450  1.5267 -1.9070  0.4207
 8130SOL    HW236027   0.599   4.503   8.387 -1.1354 -2.3117 -0.8776
 8131SOL     OW36028   2.506   4.606  16.665  0.5916 -0.7683  0.0450
 8131SOL    HW136029   2.510   4.580  16.757 -1.0464  2.5640  1.0526
 8131SOL    HW236030   2.574   4.548  16.631  0.5932 -0.9133  0.2981
 8132SOL     OW36031   1.651   2.625  11.497 -0.4568  0.4082 -0.0578
 8132SOL    HW136032   1.626   2.677  11.420 -1.0731  0.3643  0.1067
 8132SOL    HW236033   1.740   2.602  11.473 -1.7998 -2.4866 -2.3397
 8133SOL     OW36034   2.246   2.059   6.939 -0.4013 -0.0466  0.1541
 8133SOL    HW136035   2.221   1.974   6.905  0.8525 -0.3480 -0.0033
 8133SOL    HW236036   2.314   2.092   6.880 -1.4521 -0.1757 -1.1152
 8134SOL     OW36037   0.541   3.404   6.039 -0.5739 -0.2866 -0.4440
 8134SOL    HW136038   0.456   3.363   6.024 -0.5407 -0.4429 -0.1875
 8134SOL    HW236039   0.524   3.488   6.082 -0.2706 -0.1275 -0.6314
 8135SOL     OW36040   0.558   3.913   9.303 -0.2403 -0.5165 -0.2213
 8135SOL    HW136041   0.610   3.908   9.223  0.2010  1.6743 -0.0702
 8135SOL    HW236042   0.598   3.993   9.338  1.8738 -3.2174  3.4826
 8136SOL     OW36043   4.181   3.507   5.610 -0.2957  0.4074  0.3342
 8136SOL    HW136044   4.244   3.541   5.547  1.2365 -0.2145  1.5191
 8136SOL    HW236045   4.100   3.528   5.565  0.5268 -0.6258 -1.6196
 8137SOL     OW36046   0.074   4.729   4.439  0.3049  0.3324 -0.5577
 8137SOL    HW136047   4.714   4.732   4.426  0.4019  4.0440 -0.3648
 8137SOL    HW236048   0.079   4.723   4.534  0.5853  2.5985 -0.4459
 8138SOL     OW36049   2.725   0.694   6.115 -0.3281  0.3526  0.1155
 8138SOL    HW136050   2.642   0.741   6.104 -1.3738 -1.6276 -0.4503
 8138SOL    HW236051   2.787   0.765   6.095 -0.2333  0.2250 -0.0451
 8139SOL     OW36052   3.406   4.554   6.542 -0.4612 -0.0940 -0.6276
 8139SOL    HW136053   3.409   4.567   6.447  1.2624  3.4750 -0.1226
 8139SOL    HW236054   3.321   4.589   6.568 -0.2273 -0.3760  0.5222
 8140SOL     OW36055   0.867   0.672   4.803 -0.6705  0.2764  0.3217
 8140SOL    HW136056   0.847   0.698   4.893 -0.9131 -2.2387  1.0016
 8140SOL    HW236057   0.889   0.758   4.766 -1.9430  0.0630 -0.9425
 8141SOL     OW36058   0.791   1.136  15.433  0.2791 -0.6107  0.0952
 8141SOL    HW136059   0.723   1.076  15.401  0.2179 -2.1645  3.2120
 8141SOL    HW236060   0.748   1.186  15.502 -0.2231 -1.2330  0.2332
 8142SOL     OW36061   2.909   4.196   7.297  0.2284 -0.0135 -1.1319
 8142SOL    HW136062   2.903   4.276   7.348 -0.4318 -0.2933 -0.7611
 8142SOL    HW236063   3.001   4.202   7.271  0.3796 -1.4313 -0.9330
 8143SOL     OW36064   0.365   0.732   5.505 -0.5730  0.3126 -0.2051
 8143SOL    HW136065   0.446   0.777   5.481 -0.6250  0.7759  0.5017
 8143SOL    HW236066   0.331   0.714   5.417 -2.8281  0.3682  0.6669
 8144SOL     OW36067   3.749   4.221   3.308 -0.1246 -0.4696  0.4302
 8144SOL    HW136068   3.824   4.174   3.271  0.3786  2.5597 -2.3191
 8144SOL    HW236069   3.787   4.248   3.391 -2.2170  1.1007  0.8878
 8145SOL     OW36070   3.169   2.890   6.490  0.2984  0.5611  0.2862
 8145SOL    HW136071   3.220   2.953   6.441  2.4961 -1.9261 -0.6459
 8145SOL    HW236072   3.088   2.939   6.504 -0.5071 -1.1396  1.6109
 8146SOL     OW36073   2.846   2.285   9.763 -0.1244  0.5989 -0.0074
 8146SOL    HW136074   2.806   2.364   9.798 -0.8926 -0.3811  1.3498
 8146SOL    HW236075   2.815   2.273   9.673  0.3073 -2.2149  0.2104
 8147SOL     OW36076   0.334   4.066   0.320 -0.3793  0.2415 -0.9356
 8147SOL    HW136077   0.287   4.058   0.403  1.5980 -0.4044  0.1225
 8147SOL    HW236078   0.293   3.994   0.272 -0.6947  0.0816 -0.4261
 8148SOL     OW36079   3.835   1.767   5.908 -0.0684  0.4003  0.0091
 8148SOL    HW136080   3.895   1.769   5.983 -0.2682  2.3675  0.1212
 8148SOL    HW236081   3.800   1.678   5.908  2.9548 -0.8155  3.5960
 8149SOL     OW36082   4.195   0.721   7.158  0.1177  0.0139  0.4111
 8149SOL    HW136083   4.144   0.698   7.081  0.6463  1.0031 -0.2365
 8149SOL    HW236084   4.147   0.680   7.230  2.6176  2.9183  3.7322
 8150SOL     OW36085   1.617   3.259   1.966 -0.4131 -0.0431 -0.5420
 8150SOL    HW136086   1.527   3.266   1.936 -0.8216  1.7876  1.0813
 8150SOL    HW236087   1.615   3.338   2.020  1.8609  0.1055 -0.6767
 8151SOL     OW36088   0.543   1.437   6.278 -0.1174 -0.5247  0.2061
 8151SOL    HW136089   0.477   1.394   6.223 -0.1215  1.1263 -1.0761
 8151SOL    HW236090   0.631   1.416   6.249 -0.0731  0.5014 -0.3940
 8152SOL     OW36091   3.828   2.917   2.573 -0.3619 -0.4456  0.3366
 8152SOL    HW136092   3.853   2.830   2.604 -0.9860 -0.1264  1.7165
 8152SOL    HW236093   3.736   2.924   2.598 -0.5804 -1.7469 -0.1192
 8153SOL     OW36094   4.467   2.539   7.828  0.4119 -0.4501  0.3433
 8153SOL    HW136095   4.421   2.474   7.775 -0.6792  0.6828 -0.0815
 8153SOL    HW236096   4.453   2.618   7.777  0.4284 -1.0297 -0.5494
 8154SOL     OW36097   0.184   3.375   7.202 -0.0755 -0.0459 -0.3585
 8154SOL    HW136098   0.128   3.367   7.280  0.0851  0.9227 -0.1453
 8154SOL    HW236099   0.249   3.305   7.207  2.0319  1.7371 -2.6107
 8155SOL     OW36100   2.551   4.167   5.415  0.1636 -0.2508 -0.0439
 8155SOL    HW136101   2.552   4.108   5.491 -2.0045 -1.6506 -1.0929
 8155SOL    HW236102   2.463   4.156   5.380  0.4054 -0.1595 -0.6738
 8156SOL     OW36103   4.152   1.630   3.468  0.5896  0.0791  0.6615
 8156SOL    HW136104   4.079   1.615   3.527  0.5709 -1.5730  0.2136
 8156SOL    HW236105   4.169   1.720   3.495  1.4668  0.6502 -1.8221
 8157SOL     OW36106   1.568   1.777   9.927 -0.3413 -0.1430  0.5685
 8157SOL    HW136107   1.499   1.716   9.953 -1.3946  0.6696 -0.2916
 8157SOL    HW236108   1.629   1.761   9.999  0.7581 -1.0387 -0.5619
 8158SOL     OW36109   1.689   0.849   6.672  0.2865 -0.1534 -0.2985
 8158SOL    HW136110   1.686   0.754   6.672 -1.6258 -0.0875 -0.5079
 8158SOL    HW236111   1.734   0.865   6.755  0.2749 -2.0778  0.0684
 8159SOL     OW36112   0.289   2.303   9.936  0.2559  0.2063 -0.2023
 8159SOL    HW136113   0.275   2.392   9.903  0.0223 -0.6170 -2.3500
 8159SOL    HW236114   0.382   2.297   9.958  0.4233 -1.0132 -1.1989
 8160SOL     OW36115   4.368   2.979   4.377 -0.0174 -0.0303  0.2795
 8160SOL    HW136116   4.313   2.922   4.431  0.6694 -1.1249 -0.1782
 8160SOL    HW236117   4.413   2.920   4.316  2.7160  2.9582 -0.5628
 8161SOL     OW36118   2.062   2.585   4.091  0.1042 -0.4625 -0.3343
 8161SOL    HW136119   2.133   2.559   4.032  3.1699 -0.0631  3.1672
 8161SOL    HW236120   2.062   2.680   4.078 -2.0508 -0.4001  0.2183
 8162SOL     OW36121   3.399   0.575   7.492  0.7927 -0.4959  0.3316
 8162SOL    HW136122   3.404   0.501   7.553  1.7508 -0.7848 -0.0901
 8162SOL    HW236123   3.489   0.569   7.461  0.1749 -0.6497 -1.4374
 8163SOL     OW36124   0.513   4.140   0.674  0.1154  0.2192  0.4586
 8163SOL    HW136125   0.549   4.099   0.595  0.0111 -0.3086  0.6806
 8163SOL    HW236126   0.558   4.090   0.742  0.9901 -3.1604 -2.5853
 8164SOL     OW36127   3.484   4.680  13.982  0.1190  0.2471  0.2483
 8164SOL    HW136128   3.548   4.685  14.053 -1.2551 -0.8944  1.5533
 8164SOL    HW236129   3.501   0.022  13.926 -0.8613 -0.9544 -1.7053
 8165SOL     OW36130   2.773   2.047   3.235  0.4942  0.2221 -0.3300
 8165SOL    HW136131   2.805   2.137   3.242 -1.6333  0.9284  0.2320
 8165SOL    HW236132   2.842   2.013   3.178  2.2688  1.3172  1.1271
 8166SOL     OW36133   4.368   3.617  13.710 -0.4809  0.0246  0.1155
 8166SOL    HW136134   4.442   3.676  13.696  0.2051 -0.6458  0.9338
 8166SOL    HW236135   4.304   3.661  13.654 -1.3638  2.3950  2.9967
 8167SOL     OW36136   3.581   2.505  11.339 -0.0494 -0.1364 -0.4674
 8167SOL    HW136137   3.638   2.572  11.302  0.4532 -1.4131 -2.0210
 8167SOL    HW236138   3.638   2.493  11.416 -2.4687 -1.0615  1.1951
 8168SOL     OW36139   0.974   1.840   1.926 -0.1562 -0.0938 -0.5830
 8168SOL    HW136140   0.926   1.879   1.853  0.8977  0.7275 -0.8402
 8168SOL    HW236141   0.905   1.800   1.980 -0.1935  1.7424  0.7644
 8169SOL     OW36142   3.557   0.135  17.158  0.0971 -0.5326  0.1438
 8169SOL    HW136143   3.550   0.196  17.231 -0.7083  0.5283 -0.8310
 8169SOL    HW236144   3.600   0.190  17.092 -2.7414  0.0549 -1.1959
 8170SOL     OW36145   2.963   2.025   4.886 -0.0935 -0.0798  0.0384
 8170SOL    HW136146   2.869   2.036   4.872 -0.0312 -0.1528 -0.4406
 8170SOL    HW236147   2.975   2.056   4.976 -2.3588 -1.4703  0.8165
 8171SOL     OW36148   0.960   3.453   2.033 -0.1674 -0.4767  0.1385
 8171SOL    HW136149   0.990   3.410   1.953 -0.4905  0.5131 -0.5229
 8171SOL    HW236150   1.005   3.537   2.025 -0.8820 -0.0610  0.5010
 8172SOL     OW36151   0.834   2.935  11.394 -0.0440 -0.1019  0.8511
 8172SOL    HW136152   0.922   2.954  11.425  1.5624 -2.2191 -2.3700
 8172SOL    HW236153   0.778   2.951  11.470 -0.9165  0.5716  0.0731
 8173SOL     OW36154   3.774   3.101   5.807  0.3642  0.3554  0.2729
 8173SOL    HW136155   3.731   3.044   5.743 -0.4138  1.6825 -0.3906
 8173SOL    HW236156   3.856   3.126   5.764  0.4743  0.1778  0.3797
 8174SOL     OW36157   4.269   4.064  10.084 -0.0121  0.0368 -0.1313
 8174SOL    HW136158   4.270   3.970  10.102 -2.4837 -0.3178 -1.9156
 8174SOL    HW236159   4.349   4.079  10.135 -0.4855 -0.5993  0.7797
 8175SOL     OW36160   2.284   1.347  14.789  0.1849  0.0534  0.1923
 8175SOL    HW136161   2.195   1.354  14.824  0.6925  0.3590  1.4129
 8175SOL    HW236162   2.281   1.421  14.729  0.2845  1.5995  2.0871
 8176SOL     OW36163   1.651   1.644   2.206 -0.2214 -0.2119  0.9757
 8176SOL    HW136164   1.591   1.661   2.279 -2.0357 -2.7879  0.0717
 8176SOL    HW236165   1.604   1.681   2.131 -0.0227 -0.0290  0.9408
 8177SOL     OW36166   3.948   3.915  12.265  0.2984 -0.2141  0.2503
 8177SOL    HW136167   3.902   3.990  12.227  1.9444 -1.1128 -3.4569
 8177SOL    HW236168   3.877   3.864  12.304  0.2409  0.3198  0.8404
 8178SOL     OW36169   1.859   1.840   6.013 -0.1909 -0.6170 -0.1901
 8178SOL    HW136170   1.940   1.890   6.014 -0.5062 -0.0897 -1.8954
 8178SOL    HW236171   1.795   1.910   5.997  1.7031  0.5140 -2.7385
 8179SOL     OW36172   0.571   1.789   6.062  0.5852  0.1919 -0.6282
 8179SOL    HW136173   0.563   1.778   6.157  2.4474 -1.1964 -0.6233
 8179SOL    HW236174   0.480   1.767   6.042  0.3967  1.0638 -0.7013
 8180SOL     OW36175   0.303   0.120   1.431 -0.3322  0.4594  0.0269
 8180SOL    HW136176   0.264   0.063   1.497 -1.2112  0.2926 -0.6326
 8180SOL    HW236177   0.396   0.102   1.443  0.1480  2.3180 -1.0013
 8181SOL     OW36178   2.306   3.877   5.979 -0.0818  0.1851  0.4189
 8181SOL    HW136179   2.276   3.964   5.951  0.7438  0.3180 -0.0474
 8181SOL    HW236180   2.401   3.884   5.975 -0.1881 -1.0822 -4.4555
 8182SOL     OW36181   4.463   0.618  14.134 -0.4386 -0.1694  0.0506
 8182SOL    HW136182   4.472   0.678  14.209 -1.0562 -3.9044  3.0888
 8182SOL    HW236183   4.476   0.677  14.059 -1.8517  0.1188  0.0381
 8183SOL     OW36184   0.676   3.403   7.209 -0.1287  0.1483  0.0460
 8183SOL    HW136185   0.721   3.322   7.186 -0.0666  0.7157 -1.8325
 8183SOL    HW236186   0.647   3.430   7.122 -0.3190  0.1445  0.1087
 8184SOL     OW36187   4.030   2.236  16.688 -0.1789 -1.0120  0.1041
 8184SOL    HW136188   4.002   2.320  16.724  2.1281  0.5123 -1.6025
 8184SOL    HW236189   4.030   2.180  16.765  1.5304 -0.6873  0.3304
 8185SOL     OW36190   1.213   4.164   4.925 -0.0535 -0.3379  1.0080
 8185SOL    HW136191   1.268   4.222   4.872  1.6104 -1.1811  1.8135
 8185SOL    HW236192   1.169   4.232   4.976 -0.3504 -0.3474  0.7687
 8186SOL     OW36193   3.926   3.318   3.727  0.1077  0.4152 -0.0680
 8186SOL    HW136194   3.981   3.275   3.661  1.2056  0.3745  0.8849
 8186SOL    HW236195   3.857   3.339   3.664  0.0832  1.0000  0.1631
 8187SOL     OW36196   2.586   4.353   1.490  0.0804 -0.4683 -0.1020
 8187SOL    HW136197   2.613   4.444   1.508 -0.6659 -0.4310  0.8664
 8187SOL    HW236198   2.669   4.315   1.463  2.1509  2.7570  1.6305
 8188SOL     OW36199   0.784   0.745   3.939  0.4248 -0.0059 -0.1594
 8188SOL    HW136200   0.693   0.767   3.924  0.3580  0.2131  0.5807
 8188SOL    HW236201   0.777   0.673   4.003 -0.8721 -2.3850 -2.9826
 8189SOL     OW36202   4.455   3.629   8.829 -0.1438 -0.5167  0.3603
 8189SOL    HW136203   4.477   3.709   8.877 -0.7799 -0.3898  0.4391
 8189SOL    HW236204   4.361   3.620   8.844 -0.0129  1.5196  2.3754
 8190SOL     OW36205   4.544   4.181   0.890  0.1373 -0.3268 -0.1220
 8190SOL    HW136206   4.567   4.254   0.947  2.1515  0.3212 -1.7611
 8190SOL    HW236207   4.490   4.126   0.947 -0.4238  0.6960  0.3268
 8191SOL     OW36208   0.891   0.850  14.577 -0.7587  0.3232  0.3068
 8191SOL    HW136209   0.860   0.937  14.602  2.1899  1.1526  1.1869
 8191SOL    HW236210   0.978   0.869  14.541 -0.5017 -0.2582  0.6230
 8192SOL     OW36211   2.086   2.799   3.856  0.3376  0.4660 -0.1950
 8192SOL    HW136212   2.175   2.810   3.822  0.5574  0.6187  0.4137
 8192SOL    HW236213   2.072   2.892   3.875  1.5314  0.2474  1.8417
 8193SOL     OW36214   1.027   4.608   5.156 -0.1954  0.0251  0.0506
 8193SOL    HW136215   1.030   4.610   5.060  1.1882 -1.1315  0.0729
 8193SOL    HW236216   1.016   4.699   5.181 -0.2375  0.0559 -0.0785
 8194SOL     OW36217   2.795   1.513   4.973  0.4507 -0.4064 -0.2825
 8194SOL    HW136218   2.711   1.554   4.952  0.2085 -1.3805 -1.2132
 8194SOL    HW236219   2.769   1.423   4.952 -1.4016 -0.1010  0.6393
 8195SOL     OW36220   4.335   4.231   0.463  0.2613  0.1372 -0.1697
 8195SOL    HW136221   4.331   4.327   0.464 -0.3300  0.1124 -0.0607
 8195SOL    HW236222   4.329   4.210   0.556 -1.7481 -1.2627 -0.6293
 8196SOL     OW36223   1.397   0.809   6.318  0.5420  0.3367 -0.0473
 8196SOL    HW136224   1.342   0.739   6.282 -1.4965  1.0551  1.6710
 8196SOL    HW236225   1.371   0.885   6.265 -2.7594 -0.0850  0.9878
 8197SOL     OW36226   0.500   1.703  15.429 -0.2094 -0.3441  0.3793
 8197SOL    HW136227   0.444   1.774  15.460  0.2417 -0.3961  1.3130
 8197SOL    HW236228   0.490   1.638  15.498 -1.7666 -0.6869 -0.1536
 8198SOL     OW36229   1.407   1.897  16.180 -0.3644 -0.1617  0.1373
 8198SOL    HW136230   1.446   1.848  16.108  1.2732  1.6448 -0.2241
 8198SOL    HW236231   1.368   1.829  16.235 -1.1854  1.6781  1.8479
 8199SOL     OW36232   2.146   2.212   8.755  0.1380  0.4668 -0.3806
 8199SOL    HW136233   2.070   2.270   8.755 -0.2923 -0.1035  0.7031
 8199SOL    HW236234   2.221   2.261   8.789  0.4249 -1.0954  1.2224
 8200SOL     OW36235   1.764   0.753   4.892  0.2712 -0.3948 -0.5440
 8200SOL    HW136236   1.841   0.729   4.841 -0.2341 -1.1851 -0.9208
 8200SOL    HW236237   1.724   0.814   4.830  1.0038  1.5285  0.8835
 8201SOL     OW36238   0.277   1.904   8.808 -0.6678 -0.2821 -0.6127
 8201SOL    HW136239   0.316   1.990   8.825  2.0750 -1.6880  0.2823
 8201SOL    HW236240   0.327   1.875   8.732 -1.6160  0.1109 -1.3868
 8202SOL     OW36241   2.891   3.684   7.706 -0.2621  0.3738 -0.3070
 8202SOL    HW136242   2.851   3.613   7.656  0.5037 -1.3487  1.5378
 8202SOL    HW236243   2.824   3.748   7.681 -2.0241 -0.3343  2.6537
 8203SOL     OW36244   3.760   4.003   5.351  0.0764 -0.0640 -0.4923
 8203SOL    HW136245   3.719   3.957   5.424 -1.9608  0.2578 -1.4469
 8203SOL    HW236246   3.831   3.942   5.331 -0.6475 -1.3545  0.8461
 8204SOL     OW36247   4.053   2.655   4.512 -0.1196 -0.4355  0.0396
 8204SOL    HW136248   3.971   2.607   4.509  0.1219 -0.8531  0.0402
 8204SOL    HW236249   4.101   2.595   4.570  2.2904 -0.1708 -1.6682
 8205SOL     OW36250   1.425   0.871   3.331  0.1038  0.2869  0.3333
 8205SOL    HW136251   1.375   0.817   3.392 -1.4424 -0.5068 -1.6672
 8205SOL    HW236252   1.510   0.884   3.373 -0.3119 -0.7281  1.4777
 8206SOL     OW36253   2.865   1.282   5.334 -0.1071 -0.2064 -0.2338
 8206SOL    HW136254   2.883   1.369   5.298  1.4052 -0.8370 -0.9974
 8206SOL    HW236255   2.935   1.285   5.399 -2.9804 -0.4832  2.8725
 8207SOL     OW36256   2.111   1.574   9.226 -0.1949  0.2359 -0.3264
 8207SOL    HW136257   2.048   1.563   9.298  0.1046  1.9720  0.1827
 8207SOL    HW236258   2.183   1.623   9.264  2.6950 -2.5790 -2.1082
 8208SOL     OW36259   2.652   0.732   4.748  0.3357  0.6059  0.1996
 8208SOL    HW136260   2.697   0.678   4.813 -1.8387  0.0914  1.2721
 8208SOL    HW236261   2.731   0.767   4.707  1.3102  0.7183  2.1815
 8209SOL     OW36262   3.059   4.539   1.464  0.0801 -0.3696 -0.3459
 8209SOL    HW136263   2.992   4.606   1.459  0.6351  0.1068 -1.3460
 8209SOL    HW236264   3.073   4.540   1.559  1.9226  2.8840 -0.6471
 8210SOL     OW36265   0.972   3.540   8.395  0.0995  0.3749  0.0215
 8210SOL    HW136266   0.918   3.473   8.437 -0.4794 -0.4802 -2.0856
 8210SOL    HW236267   0.982   3.504   8.307  1.1362  1.8183 -0.4520
 8211SOL     OW36268   4.419   2.107   5.894 -0.6044  0.2515  0.4097
 8211SOL    HW136269   4.381   2.177   5.947 -0.7458 -0.0683  0.7289
 8211SOL    HW236270   4.341   2.082   5.844 -0.0713 -0.8710  0.1434
 8212SOL     OW36271   4.724   2.901   8.741  0.1022 -0.7546 -0.5306
 8212SOL    HW136272   4.673   2.858   8.810 -1.0761 -0.2445 -1.0664
 8212SOL    HW236273   4.674   2.982   8.729  0.3524 -0.3733  0.9125
 8213SOL     OW36274   0.604   1.358   7.853 -0.2454 -0.1442  0.1668
 8213SOL    HW136275   0.511   1.338   7.840 -0.6762  0.2561  2.6426
 8213SOL    HW236276   0.627   1.350   7.761 -2.0152 -3.1646 -0.0348
 8214SOL     OW36277   3.395   1.863   9.050 -0.3990 -0.5214 -0.1636
 8214SOL    HW136278   3.383   1.911   8.969 -1.0164 -1.3305 -0.5522
 8214SOL    HW236279   3.422   1.773   9.030 -0.7760 -0.4845 -0.8285
 8215SOL     OW36280   2.594   0.735   8.754 -0.5867 -0.3189  0.3399
 8215SOL    HW136281   2.568   0.678   8.681 -0.7611 -0.3212  0.4045
 8215SOL    HW236282   2.635   0.810   8.712 -0.6392  0.1816  1.1864
 8216SOL     OW36283   3.757   1.369   2.602  0.6692 -0.0181  0.0805
 8216SOL    HW136284   3.813   1.422   2.659 -1.4523  0.7634  1.4750
 8216SOL    HW236285   3.793   1.281   2.590 -1.0455 -0.7901  0.6008
 8217SOL     OW36286   4.710   3.297  16.477 -0.0808 -0.2424 -0.1572
 8217SOL    HW136287   0.051   3.352  16.494  0.0169 -0.6620  0.7963
 8217SOL    HW236288   0.025   3.215  16.467 -1.7957 -1.4572  1.1326
 8218SOL     OW36289   2.307   3.396  15.721  0.1614 -0.1057  0.7687
 8218SOL    HW136290   2.377   3.355  15.669 -1.0251  0.4148 -1.2304
 8218SOL    HW236291   2.239   3.329  15.718  1.1725 -1.1305  0.7625
 8219SOL     OW36292   2.354   1.492   1.769 -0.1907  0.0091  0.3477
 8219SOL    HW136293   2.390   1.404   1.777 -2.2822 -0.8457  0.4030
 8219SOL    HW236294   2.268   1.464   1.736  0.2066 -1.8546  0.8762
 8220SOL     OW36295   2.208   2.623   7.284  0.1049  0.0815  0.8707
 8220SOL    HW136296   2.197   2.714   7.312  2.1720  0.6991 -0.3617
 8220SOL    HW236297   2.259   2.580   7.352  0.3534  0.9405  1.2251
 8221SOL     OW36298   3.231   3.632   3.341 -0.1340  0.0903 -0.3167
 8221SOL    HW136299   3.157   3.631   3.402  1.2992 -1.7657  1.4041
 8221SOL    HW236300   3.250   3.539   3.328 -1.7352 -0.3132  0.2223
 8222SOL     OW36301   2.816   3.691   0.644  0.2394  1.0761 -0.5859
 8222SOL    HW136302   2.771   3.608   0.660  1.0037  0.7263 -0.2474
 8222SOL    HW236303   2.889   3.696   0.706  1.3041  0.0390 -1.7692
 8223SOL     OW36304   3.268   2.358   3.711 -0.2747 -0.2607 -0.1518
 8223SOL    HW136305   3.238   2.439   3.751 -0.6889 -0.8421  0.7304
 8223SOL    HW236306   3.351   2.382   3.671 -1.3093  1.7826 -1.0763
 8224SOL     OW36307   2.754   2.521   5.281 -0.2733  0.5897 -0.1472
 8224SOL    HW136308   2.727   2.467   5.355  1.6129  0.1727  0.2452
 8224SOL    HW236309   2.682   2.582   5.264  0.6510  1.7800  0.2126
 8225SOL     OW36310   4.009   3.153   8.938  0.4480  0.3408  0.1671
 8225SOL    HW136311   3.977   3.161   9.028 -0.4122  0.9126 -0.1826
 8225SOL    HW236312   4.100   3.180   8.934  1.3313 -2.9106 -1.1500
 8226SOL     OW36313   1.854   0.136   0.180  0.0640 -0.5892  0.3470
 8226SOL    HW136314   1.878   0.096   0.096  1.5356 -3.6322  2.2102
 8226SOL    HW236315   1.773   0.181   0.153  0.6975 -0.4587 -1.3343
 8227SOL     OW36316   2.636   2.065   6.934 -0.0365 -0.0702 -0.2408
 8227SOL    HW136317   2.728   2.088   6.934  0.5205 -2.3458 -3.0848
 8227SOL    HW236318   2.602   2.126   7.000 -1.5219  1.0129 -2.0050
 8228SOL     OW36319   3.890   1.803   5.108  0.0629  0.5299 -0.1616
 8228SOL    HW136320   3.982   1.818   5.128 -0.9033  0.9850  3.8273
 8228SOL    HW236321   3.888   1.707   5.106 -0.8323  0.5780 -1.4816
 8229SOL     OW36322   4.356   3.187   3.335  0.4447  0.2420  0.0997
 8229SOL    HW136323   4.398   3.239   3.266  1.2190 -1.2816 -0.5846
 8229SOL    HW236324   4.343   3.255   3.400 -2.4974 -0.1056 -0.1198
 8230SOL     OW36325   0.908   0.660   5.556  0.3511 -0.0220  0.3985
 8230SOL    HW136326   0.954   0.699   5.631 -0.7307 -2.2878  2.2529
 8230SOL    HW236327   0.969   0.592   5.529  0.1838  0.5059 -1.2679
 8231SOL     OW36328   0.045   1.633  10.572  0.3876 -0.2068 -0.2151
 8231SOL    HW136329   4.705   1.645  10.513 -1.7624 -1.9958  2.1632
 8231SOL    HW236330   0.016   1.657  10.660 -1.0427 -1.3929 -0.3587
 8232SOL     OW36331   4.390   4.248   9.006  0.3651  0.4427  0.2446
 8232SOL    HW136332   4.383   4.343   8.993  1.3170  0.4827  0.0050
 8232SOL    HW236333   4.297   4.229   9.017  0.6585  0.3639  2.5507
 8233SOL     OW36334   4.313   2.026   1.009 -0.6542 -0.4984 -0.3076
 8233SOL    HW136335   4.283   2.113   0.982 -2.2972 -0.8414  0.4000
 8233SOL    HW236336   4.283   1.970   0.937  0.3327  0.6416 -1.6127
 8234SOL     OW36337   0.462   4.122   3.262  0.7316  0.1592  0.0163
 8234SOL    HW136338   0.449   4.052   3.198  2.3232 -0.9451  0.9032
 8234SOL    HW236339   0.473   4.069   3.341 -0.3180  0.6207  0.4671
 8235SOL     OW36340   1.192   1.119   3.060  0.1816  0.0867 -0.1174
 8235SOL    HW136341   1.250   1.195   3.058  1.2898 -0.7535  0.1023
 8235SOL    HW236342   1.111   1.152   3.020  0.3117 -0.9600 -1.2241
 8236SOL     OW36343   4.433   0.054   3.139 -0.3974  0.2939  0.4967
 8236SOL    HW136344   4.343   0.088   3.139 -0.5966 -0.2655 -0.9904
 8236SOL    HW236345   4.485   0.130   3.114 -1.9703  1.0667 -0.4272
 8237SOL     OW36346   0.013   1.478   8.717  0.3654 -0.1708  0.8963
 8237SOL    HW136347   4.712   1.459   8.803  0.8807 -0.3632  1.0658
 8237SOL    HW236348   0.041   1.569   8.723 -1.1241  0.3496 -0.1035
 8238SOL     OW36349   3.846   4.028   1.668 -0.3760  0.3039 -0.1619
 8238SOL    HW136350   3.771   4.045   1.725  0.4448  1.8441  0.4671
 8238SOL    HW236351   3.871   3.943   1.703  0.0330  0.3644 -0.2999
 8239SOL     OW36352   3.525   3.548   4.075  0.3057  0.0559 -0.3283
 8239SOL    HW136353   3.581   3.473   4.096  0.8876  0.4647 -0.4100
 8239SOL    HW236354   3.586   3.615   4.044  0.0767  1.2766  1.8497
 8240SOL     OW36355   2.173   0.929   8.517  0.6137 -0.2112  0.3144
 8240SOL    HW136356   2.206   0.851   8.562  2.3975  0.3669  0.0063
 8240SOL    HW236357   2.188   0.894   8.429  2.2161  1.3015 -0.0066
 8241SOL     OW36358   1.149   4.104   3.472  0.0768  0.0391  0.2978
 8241SOL    HW136359   1.115   4.071   3.556  1.8506  0.0136  0.9910
 8241SOL    HW236360   1.076   4.067   3.422  0.2383 -1.4478  1.1733
 8242SOL     OW36361   0.286   0.749   9.610 -0.0433 -0.2144 -0.5848
 8242SOL    HW136362   0.303   0.672   9.555  0.3312 -0.2300 -0.4443
 8242SOL    HW236363   0.267   0.812   9.540  1.8800  0.1429 -0.7914
 8243SOL     OW36364   3.724   2.564   2.986 -0.1504 -0.2498  0.3229
 8243SOL    HW136365   3.787   2.527   3.048 -1.1054 -1.9705  0.2810
 8243SOL    HW236366   3.681   2.484   2.954 -0.6741  0.4953 -0.8741
 8244SOL     OW36367   1.097   1.533  13.330 -0.3166  0.2839 -0.0126
 8244SOL    HW136368   1.138   1.552  13.415 -0.9111  0.4360  0.2399
 8244SOL    HW236369   1.145   1.454  13.306 -0.4813 -0.5016  2.1649
 8245SOL     OW36370   2.114   4.159   4.690 -0.0416  0.3239  0.1655
 8245SOL    HW136371   2.065   4.116   4.760  0.3362 -1.3114 -0.5935
 8245SOL    HW236372   2.196   4.110   4.685  0.7791  1.7254 -0.1379
 8246SOL     OW36373   1.990   3.155  10.505 -0.3948  0.0453 -0.0920
 8246SOL    HW136374   1.945   3.225  10.552  0.1206  0.7068 -0.5923
 8246SOL    HW236375   1.999   3.199  10.421  2.0042 -0.3833 -0.0593
 8247SOL     OW36376   2.062   2.045  15.835 -0.1326  0.0028  0.0561
 8247SOL    HW136377   2.064   2.127  15.786 -0.2657 -0.8584 -1.4065
 8247SOL    HW236378   2.088   2.067  15.924  0.1157 -0.7264  0.1604
 8248SOL     OW36379   2.321   2.273   3.253 -0.0810 -0.0664 -0.0630
 8248SOL    HW136380   2.358   2.223   3.326  0.8169 -4.0690 -3.2141
 8248SOL    HW236381   2.388   2.337   3.231  0.7245  0.1873  3.1548
 8249SOL     OW36382   1.017   2.239   4.874 -0.5440  0.2087  0.4018
 8249SOL    HW136383   0.959   2.315   4.870 -0.1278  0.6376  2.3911
 8249SOL    HW236384   0.967   2.174   4.824  1.5057 -0.6117 -0.5501
 8250SOL     OW36385   1.636   1.178   8.164  0.6507 -0.0247  0.3875
 8250SOL    HW136386   1.705   1.139   8.110 -0.7794 -2.3974  0.2709
 8250SOL    HW236387   1.563   1.122   8.135  0.0645  0.6910  0.4702
 8251SOL     OW36388   2.295   2.007   8.997  0.5310  0.4730  0.4563
 8251SOL    HW136389   2.279   1.914   8.986 -0.6965  0.6297  0.8496
 8251SOL    HW236390   2.203   2.034   8.991  0.8154  0.9117 -2.1484
 8252SOL     OW36391   1.719   3.700   3.240  0.1035 -0.5768  0.5577
 8252SOL    HW136392   1.686   3.687   3.329 -0.9199  0.5084  0.3373
 8252SOL    HW236393   1.700   3.616   3.199  3.4211 -1.1120  0.0955
 8253SOL     OW36394   4.205   2.120  12.350 -0.0546 -0.1155 -0.1629
 8253SOL    HW136395   4.215   2.063  12.274  0.0352 -2.7150  1.7891
 8253SOL    HW236396   4.281   2.082  12.394 -0.5068 -1.0648 -0.1949
 8254SOL     OW36397   0.349   0.192   0.577 -0.2804  0.2565  0.4736
 8254SOL    HW136398   0.371   0.108   0.536  0.0448  0.5564  0.0435
 8254SOL    HW236399   0.349   0.247   0.499  0.2956 -0.2741  0.1028
 8255SOL     OW36400   0.058   4.015  12.192 -0.0948 -0.0116 -0.5546
 8255SOL    HW136401   0.113   4.034  12.269 -1.6392  1.0960  0.2668
 8255SOL    HW236402   4.732   4.089  12.199  0.2127  0.2614 -0.7354
 8256SOL     OW36403   3.208   0.852   3.494  0.1485  0.1259 -1.0445
 8256SOL    HW136404   3.220   0.898   3.411  0.1421 -0.5685 -1.4357
 8256SOL    HW236405   3.295   0.815   3.505  0.0583 -0.0754 -0.9998
 8257SOL     OW36406   1.799   0.821  16.100  0.1847 -0.1363  0.1087
 8257SOL    HW136407   1.799   0.880  16.175  1.9166  0.4952 -0.3829
 8257SOL    HW236408   1.801   0.735  16.142  1.8312 -0.2252 -0.1638
 8258SOL     OW36409   1.406   1.074  17.180  0.4556 -0.3759 -0.6012
 8258SOL    HW136410   1.328   1.021  17.195 -0.0479  0.1338 -1.3930
 8258SOL    HW236411   1.367   1.157  17.152  1.6008  1.1336  2.2706
 8259SOL     OW36412   4.496   2.691   2.547  0.1219  0.4027 -0.3071
 8259SOL    HW136413   4.555   2.632   2.500 -0.2495  1.4738 -2.1048
 8259SOL    HW236414   4.521   2.774   2.507 -1.1507  0.1714 -1.5810
 8260SOL     OW36415   2.306   1.226   2.344  0.3725  1.0236  0.1891
 8260SOL    HW136416   2.285   1.319   2.340 -0.5891  0.7740 -0.5940
 8260SOL    HW236417   2.365   1.234   2.418  0.5011  2.2033 -0.0504
 8261SOL     OW36418   0.809   2.467  11.544  0.8294  0.1874  0.3216
 8261SOL    HW136419   0.732   2.516  11.570 -0.9140 -2.0626 -0.6219
 8261SOL    HW236420   0.789   2.377  11.570 -0.1715  0.1104 -0.7592
 8262SOL     OW36421   3.760   3.091   6.316 -0.6488 -0.1115 -0.0312
 8262SOL    HW136422   3.780   3.178   6.348 -1.2219 -0.1074  0.3110
 8262SOL    HW236423   3.785   3.042   6.394  0.5610 -1.5431 -1.3102
 8263SOL     OW36424   2.985   0.592   5.168 -0.0471  0.6229  0.3975
 8263SOL    HW136425   3.038   0.528   5.120 -0.3607  2.1094 -1.9262
 8263SOL    HW236426   3.009   0.582   5.260  3.7376  1.7741 -0.4652
 8264SOL     OW36427   1.241   0.947   8.938  0.5513  0.2681  0.2398
 8264SOL    HW136428   1.191   0.873   8.972 -1.4218  0.3065 -2.6662
 8264SOL    HW236429   1.255   0.999   9.018  2.8070  3.1729 -2.0443
 8265SOL     OW36430   0.827   3.308   2.446 -0.0348  0.0474 -0.4651
 8265SOL    HW136431   0.849   3.386   2.395 -0.7872  1.8114  1.8959
 8265SOL    HW236432   0.912   3.266   2.457 -1.3310 -1.4221  3.8671
 8266SOL     OW36433   3.046   1.557  14.318 -0.2712 -0.0439 -0.1790
 8266SOL    HW136434   3.006   1.563  14.405  1.0617 -0.1475  0.4434
 8266SOL    HW236435   2.975   1.586  14.262 -0.8732 -0.8740  0.1620
 8267SOL     OW36436   1.078   4.143   7.073  0.5129  0.0497  0.2476
 8267SOL    HW136437   1.045   4.198   7.002 -0.0265  2.7830  2.5995
 8267SOL    HW236438   1.145   4.093   7.028 -0.4802  0.1908 -1.3694
 8268SOL     OW36439   1.079   4.716   3.232 -0.8338  0.1094 -0.1889
 8268SOL    HW136440   1.039   4.674   3.156  0.1754  0.4506 -0.9133
 8268SOL    HW236441   1.164   4.678   3.210  0.3363  1.7821  1.4343
 8269SOL     OW36442   1.135   4.451   4.652  0.8544  0.2736 -0.5091
 8269SOL    HW136443   1.048   4.432   4.686  0.3578  0.5538 -1.6441
 8269SOL    HW236444   1.179   4.475   4.733 -2.3707  2.0776  0.7112
 8270SOL     OW36445   2.001   4.731   5.611 -0.5348  0.4525  0.0289
 8270SOL    HW136446   1.939   4.715   5.683  0.2647  2.2277  1.0963
 8270SOL    HW236447   2.063   0.058   5.649 -0.6041  0.7668 -0.3734
 8271SOL     OW36448   0.216   1.258  15.445  0.3672  0.8743 -0.1297
 8271SOL    HW136449   0.164   1.219  15.515  0.7079  0.2318 -0.2375
 8271SOL    HW236450   0.171   1.342  15.444  1.9602  1.7123 -0.4903
 8272SOL     OW36451   4.097   1.021   4.422 -0.1826 -0.3886  0.0578
 8272SOL    HW136452   4.132   0.945   4.375  1.3761 -0.4595  1.3534
 8272SOL    HW236453   4.028   1.044   4.360 -0.7664 -2.7405 -0.1916
 8273SOL     OW36454   3.659   0.776   4.568  0.0337 -0.5195 -0.3776
 8273SOL    HW136455   3.738   0.818   4.535 -0.3537 -0.1626 -0.8603
 8273SOL    HW236456   3.594   0.818   4.512 -1.5010  1.1205  2.5898
 8274SOL     OW36457   2.904   1.900   8.032  0.2037 -0.1205 -0.0697
 8274SOL    HW136458   2.835   1.899   8.098  0.5401  2.4028  0.3248
 8274SOL    HW236459   2.896   1.807   8.010 -0.3973 -0.4036  1.3398
 8275SOL     OW36460   4.375   4.108   9.756  0.1123 -0.6265 -0.1223
 8275SOL    HW136461   4.395   4.034   9.699 -0.0817 -1.8765  1.4501
 8275SOL    HW236462   4.329   4.171   9.701  2.3662  1.3449  0.2147
 8276SOL     OW36463   0.937   4.473   7.903 -0.0433  0.3177  0.3703
 8276SOL    HW136464   0.970   4.459   7.814  1.1447 -0.0746  0.8741
 8276SOL    HW236465   1.011   4.525   7.935  0.4520  1.3021 -2.3758
 8277SOL     OW36466   2.846   4.451   7.887  0.4515 -0.1720 -0.1404
 8277SOL    HW136467   2.903   4.524   7.866 -0.4328  1.1999  2.2081
 8277SOL    HW236468   2.893   4.389   7.942 -0.2371 -0.9617 -0.4282
 8278SOL     OW36469   4.073   0.813  16.082  0.2972 -0.1038  0.3061
 8278SOL    HW136470   4.018   0.737  16.102  1.9495 -1.3772  0.0501
 8278SOL    HW236471   4.011   0.885  16.072  1.8961  1.0842 -1.1144
 8279SOL     OW36472   0.895   0.947   1.511 -0.1738 -0.9032  0.2295
 8279SOL    HW136473   0.918   0.878   1.573  0.2624 -1.4138 -0.4970
 8279SOL    HW236474   0.896   1.025   1.567 -0.7958  0.2296 -1.3388
 8280SOL     OW36475   0.954   0.393  12.818 -0.7264  0.0634 -0.0170
 8280SOL    HW136476   0.924   0.320  12.873  1.8021  0.1994  1.5386
 8280SOL    HW236477   0.963   0.352  12.732  0.0409 -0.0877  0.1385
 8281SOL     OW36478   2.950   0.383   9.136  0.2594  0.1937  0.7026
 8281SOL    HW136479   2.902   0.419   9.210 -2.1636  2.4291 -1.9614
 8281SOL    HW236480   3.014   0.322   9.173  0.8754 -1.6162 -3.3647
 8282SOL     OW36481   4.709   2.065   3.906  0.0563  0.2544 -0.0939
 8282SOL    HW136482   0.054   2.058   3.960  0.0119 -2.1318 -0.3780
 8282SOL    HW236483   4.658   2.129   3.956  0.5368  0.5739 -0.0047
 8283SOL     OW36484   4.442   2.165   7.220  0.0066 -0.5516  0.3534
 8283SOL    HW136485   4.448   2.076   7.255  0.7576 -0.4949  0.3729
 8283SOL    HW236486   4.484   2.211   7.293  2.3037 -1.9639 -0.0717
 8284SOL     OW36487   1.282   0.916  15.613  0.2840 -0.3799 -0.3366
 8284SOL    HW136488   1.205   0.972  15.603  1.2642  1.1202  0.5065
 8284SOL    HW236489   1.316   0.913  15.524  0.5717 -0.6268 -0.2181
 8285SOL     OW36490   2.754   0.610   0.351 -0.1300  0.1168  0.0289
 8285SOL    HW136491   2.846   0.637   0.355  1.0924 -3.8249 -0.7616
 8285SOL    HW236492   2.735   0.582   0.440  4.3221  1.9389  1.5223
 8286SOL     OW36493   0.057   3.703  10.959 -0.5022  0.2300 -0.3509
 8286SOL    HW136494   0.018   3.651  10.889 -0.8459 -0.8366  0.6405
 8286SOL    HW236495   4.717   3.711  11.018  1.5148  0.9558  2.0816
 8287SOL     OW36496   4.017   0.218   2.344 -0.2870  1.0119  0.5533
 8287SOL    HW136497   4.002   0.124   2.334  0.0197  1.0115  0.1278
 8287SOL    HW236498   3.934   0.243   2.385 -1.3303 -0.7794 -0.4621
 8288SOL     OW36499   1.814   2.157  13.516 -0.3290  0.4441 -0.2926
 8288SOL    HW136500   1.827   2.063  13.529 -1.4778  0.6763  2.4791
 8288SOL    HW236501   1.723   2.161  13.485 -1.5118 -0.5336  2.9967
 8289SOL     OW36502   0.314   0.197   2.484  0.4868 -0.0015 -0.2011
 8289SOL    HW136503   0.351   0.285   2.486 -0.0123  0.2083 -0.0323
 8289SOL    HW236504   0.380   0.156   2.427 -0.4930 -1.2794 -0.4369
 8290SOL     OW36505   2.136   2.206  11.536 -0.5553  0.5588 -0.4053
 8290SOL    HW136506   2.084   2.129  11.559  0.9560 -0.0614  0.9633
 8290SOL    HW236507   2.203   2.201  11.604 -0.2735  0.6371 -0.6812
 8291SOL     OW36508   2.249   2.183  10.274  0.5341  0.5831  0.2887
 8291SOL    HW136509   2.202   2.215  10.351  2.0941 -2.4254  2.4977
 8291SOL    HW236510   2.337   2.213  10.297 -0.5573  2.2818  2.3131
 8292SOL     OW36511   2.964   1.329  17.388 -0.2392  0.0337 -0.0272
 8292SOL    HW136512   3.026   1.288  17.449 -0.7226  2.1260  1.8524
 8292SOL    HW236513   2.966   1.422  17.410 -1.1287  0.2555 -0.9116
 8293SOL     OW36514   0.677   2.321  10.704 -0.0686  0.6257 -0.0518
 8293SOL    HW136515   0.683   2.386  10.774 -2.0411  0.6964  0.0716
 8293SOL    HW236516   0.770   2.302  10.702 -0.4763 -1.5795  1.8161
 8294SOL     OW36517   1.875   3.674   2.508  0.4841  0.2049  0.2792
 8294SOL    HW136518   1.943   3.620   2.547 -0.1874  0.9128  2.4692
 8294SOL    HW236519   1.910   3.763   2.512 -1.4402  1.0393 -1.0976
 8295SOL     OW36520   1.982   3.829   9.347 -0.0669  0.5725 -0.4206
 8295SOL    HW136521   2.021   3.839   9.434  4.3644  1.4080 -2.5020
 8295SOL    HW236522   2.038   3.894   9.305 -0.1331 -0.0756 -1.5103
 8296SOL     OW36523   2.143   1.016  15.028  0.4160  0.0930  0.0311
 8296SOL    HW136524   2.083   1.053  14.964 -1.0056 -1.0524  0.6885
 8296SOL    HW236525   2.206   1.088  15.031 -1.2365  1.5070  0.8056
 8297SOL     OW36526   3.132   2.300  13.528  0.4255  0.2834  0.3183
 8297SOL    HW136527   3.190   2.348  13.469  0.9201 -1.1229 -0.3338
 8297SOL    HW236528   3.187   2.292  13.606  0.4489  0.2292  0.2969
 8298SOL     OW36529   1.858   2.711   1.472 -0.0052 -0.4028  0.1154
 8298SOL    HW136530   1.945   2.675   1.490  0.7619  0.1814 -2.4488
 8298SOL    HW236531   1.827   2.751   1.554 -0.5972  0.6363 -0.6134
 8299SOL     OW36532   0.660   2.646   5.168 -0.0547  0.2932 -0.5144
 8299SOL    HW136533   0.604   2.608   5.100 -0.3719  0.0575 -0.1165
 8299SOL    HW236534   0.647   2.739   5.148  0.3792  0.3904 -0.3528
 8300SOL     OW36535   2.095   0.968   2.807 -0.0118  0.6891 -0.4241
 8300SOL    HW136536   2.143   0.964   2.890  1.1111  0.0129 -1.0998
 8300SOL    HW236537   2.136   0.892   2.764 -1.6839 -0.0576 -0.6926
 8301SOL     OW36538   2.594   4.599  11.100  0.5535 -0.1889  0.0211
 8301SOL    HW136539   2.630   4.510  11.102  1.7358  0.2302 -2.7498
 8301SOL    HW236540   2.603   4.629  11.010  0.0565  1.0940  0.3893
 8302SOL     OW36541   2.006   2.858  16.168 -0.2077 -0.1838  0.0502
 8302SOL    HW136542   1.960   2.871  16.251  0.7109  0.1296  0.5150
 8302SOL    HW236543   2.094   2.855  16.205  0.3519 -0.0164 -1.2966
 8303SOL     OW36544   1.009   0.936  10.826 -0.1956  0.4613 -0.4300
 8303SOL    HW136545   1.000   0.863  10.887  0.8727 -0.3042 -1.1817
 8303SOL    HW236546   1.051   0.997  10.886 -0.2109  0.6712 -0.6306
 8304SOL     OW36547   3.994   4.635   7.426  0.1716 -0.2672  0.0646
 8304SOL    HW136548   3.999   4.549   7.384  0.9918 -1.0391  1.7071
 8304SOL    HW236549   3.905   4.660   7.402  0.9381 -0.1952 -2.6212
 8305SOL     OW36550   1.629   3.851   5.878 -0.3113 -0.3506 -0.0687
 8305SOL    HW136551   1.564   3.911   5.840 -2.2715 -0.8795  2.4801
 8305SOL    HW236552   1.668   3.813   5.799  0.5290 -0.4034  0.3765
 8306SOL     OW36553   1.860   1.995  10.385 -0.1839  0.3029 -0.1028
 8306SOL    HW136554   1.866   2.003  10.289  0.2823 -1.7713 -0.2417
 8306SOL    HW236555   1.921   1.921  10.392 -2.2598 -1.4689 -0.7743
 8307SOL     OW36556   0.588   1.262   7.452 -0.1289 -0.7128  0.0991
 8307SOL    HW136557   0.590   1.168   7.436  2.2985 -0.4190 -1.2781
 8307SOL    HW236558   0.513   1.279   7.394  1.6140  0.1627 -1.8740
 8308SOL     OW36559   4.154   1.548   8.022 -0.1035  0.1201  0.0486
 8308SOL    HW136560   4.200   1.466   8.007 -0.1919 -0.0001  0.4419
 8308SOL    HW236561   4.091   1.518   8.088 -0.3787 -1.1752 -0.8165
 8309SOL     OW36562   3.263   0.768   2.123  0.3417  0.2227 -0.2508
 8309SOL    HW136563   3.257   0.675   2.143 -0.2970  0.5727  1.1179
 8309SOL    HW236564   3.354   0.773   2.093  1.7552 -0.6041  3.9316
 8310SOL     OW36565   0.468   0.355  15.754  0.2310 -0.0433  0.0427
 8310SOL    HW136566   0.388   0.340  15.704  0.5727 -0.5228 -0.3527
 8310SOL    HW236567   0.533   0.317  15.695  0.3998  1.3017 -0.6563
 8311SOL     OW36568   2.714   4.636   2.844 -0.2069  0.4533 -0.1891
 8311SOL    HW136569   2.661   4.716   2.847  1.1044  1.3006  1.0085
 8311SOL    HW236570   2.643   4.574   2.860  0.4134 -0.9119 -2.7761
 8312SOL     OW36571   0.688   1.943   8.665  0.1681  0.8445 -0.4144
 8312SOL    HW136572   0.713   1.858   8.703 -0.6824 -0.7932 -3.5196
 8312SOL    HW236573   0.651   1.903   8.586  1.1638 -0.3648 -0.2792
 8313SOL     OW36574   2.540   4.580   5.743 -0.2833  0.2383 -0.1149
 8313SOL    HW136575   2.463   4.629   5.714  1.6018  2.8437 -0.7211
 8313SOL    HW236576   2.575   4.570   5.655 -1.7853  1.0430 -0.8061
 8314SOL     OW36577   1.731   1.184  17.080  0.3272 -0.4039  0.0274
 8314SOL    HW136578   1.804   1.232  17.120  1.5602 -1.0662 -1.4128
 8314SOL    HW236579   1.649   1.220  17.114  1.1388  1.1209  0.3617
 8315SOL     OW36580   2.282   3.602   5.386 -0.3141  0.1767 -0.2349
 8315SOL    HW136581   2.247   3.533   5.329  1.0744 -1.4623  0.9058
 8315SOL    HW236582   2.204   3.615   5.441  0.8797 -1.8916  1.9588
 8316SOL     OW36583   2.603   0.980   5.322 -0.4896 -0.3165 -0.1422
 8316SOL    HW136584   2.562   0.913   5.268 -1.3860  1.2448 -1.4043
 8316SOL    HW236585   2.691   0.985   5.285  0.3797 -0.4806  1.8933
 8317SOL     OW36586   3.964   4.059   2.774 -0.1926  0.0559 -0.4827
 8317SOL    HW136587   3.897   4.007   2.818  0.3478  0.5230  0.8914
 8317SOL    HW236588   4.040   4.001   2.775 -1.2025 -1.2580  0.6050
 8318SOL     OW36589   3.494   2.900   1.789  0.0017  0.2524 -0.4538
 8318SOL    HW136590   3.564   2.936   1.734  2.1389 -1.9809  0.7878
 8318SOL    HW236591   3.499   2.969   1.855  0.0870  0.3747 -0.5860
 8319SOL     OW36592   0.398   3.587   3.379 -0.0507 -0.0167  0.5590
 8319SOL    HW136593   0.361   3.537   3.452  2.8665 -0.8971  1.4388
 8319SOL    HW236594   0.480   3.540   3.363 -0.6862 -0.8850 -0.1907
 8320SOL     OW36595   3.666   0.734  17.436 -0.2946 -0.4144  0.3281
 8320SOL    HW136596   3.743   0.764  17.484 -1.6603  2.4120  0.7704
 8320SOL    HW236597   3.621   0.682  17.504 -0.6499 -1.1134 -0.4321
 8321SOL     OW36598   4.723   4.434   7.892  0.5509 -0.2601 -0.7283
 8321SOL    HW136599   0.041   4.360   7.923  0.4942  0.0892  0.2033
 8321SOL    HW236600   4.640   4.385   7.895  0.0701  0.6307  0.5932
 8322SOL     OW36601   0.284   1.517   4.668 -0.2247 -0.2573  0.1352
 8322SOL    HW136602   0.216   1.452   4.684 -1.9736  1.5369 -0.0619
 8322SOL    HW236603   0.357   1.485   4.721  0.6111  0.2390 -0.7144
 8323SOL     OW36604   0.396   3.381   2.876 -0.1684  0.3176  0.3931
 8323SOL    HW136605   0.477   3.423   2.904  1.0552 -0.9436 -1.2138
 8323SOL    HW236606   0.377   3.329   2.954 -0.8500 -0.8634 -0.5666
 8324SOL     OW36607   4.405   1.783   0.537 -0.8987 -0.3534  0.0468
 8324SOL    HW136608   4.480   1.741   0.497 -2.3773 -2.4227 -0.5050
 8324SOL    HW236609   4.351   1.775   0.459  1.9894 -1.8808 -1.7668
 8325SOL     OW36610   2.284   0.193   7.480  0.2754 -0.6065 -0.4319
 8325SOL    HW136611   2.297   0.177   7.574  1.6563 -2.1554 -0.9138
 8325SOL    HW236612   2.204   0.246   7.481  0.6552 -0.0317 -0.6312
 8326SOL     OW36613   4.599   1.437   6.335 -1.0889  0.3979  0.5935
 8326SOL    HW136614   4.625   1.425   6.244  0.3215 -0.3941  1.0869
 8326SOL    HW236615   4.509   1.470   6.334 -1.1998  0.0641 -0.1680
 8327SOL     OW36616   4.233   0.158  15.718 -0.2715 -0.4485 -0.0228
 8327SOL    HW136617   4.239   0.110  15.635 -1.6471 -1.1629  0.3051
 8327SOL    HW236618   4.171   0.227  15.695 -0.3229 -0.6236 -0.4063
 8328SOL     OW36619   3.346   0.546   1.372  0.2687  0.0933 -0.4218
 8328SOL    HW136620   3.355   0.617   1.436  0.3110 -0.4631  0.1955
 8328SOL    HW236621   3.424   0.556   1.318  1.4299  0.8851  1.3944
 8329SOL     OW36622   4.352   4.191  11.268 -0.3323  0.0927 -0.5282
 8329SOL    HW136623   4.337   4.282  11.293  2.0070 -0.3826  2.5494
 8329SOL    HW236624   4.322   4.152  11.350  0.5002  0.5537 -0.0133
 8330SOL     OW36625   3.108   3.186  15.072  0.1891 -0.4616 -0.0988
 8330SOL    HW136626   3.156   3.115  15.115 -0.2574 -0.5816  0.1991
 8330SOL    HW236627   3.177   3.243  15.037 -1.0635  0.7962 -0.5063
 8331SOL     OW36628   3.617   3.228  15.463  0.4473 -0.0771  0.4357
 8331SOL    HW136629   3.548   3.163  15.472  0.9642 -0.7120 -0.1593
 8331SOL    HW236630   3.592   3.303  15.517  0.3817  0.5110 -0.4049
 8332SOL     OW36631   3.587   0.155   8.667  0.2473  0.7194  0.3120
 8332SOL    HW136632   3.547   0.071   8.645 -0.2877  1.0634 -0.0230
 8332SOL    HW236633   3.527   0.218   8.627 -1.3479 -0.3559  1.0269
 8333SOL     OW36634   3.698   2.985   3.093 -0.5047  0.1252 -0.0123
 8333SOL    HW136635   3.672   3.011   3.005  1.4551 -1.4476 -1.0588
 8333SOL    HW236636   3.784   2.945   3.082  0.6398  2.1866  1.6450
 8334SOL     OW36637   0.113   2.516   5.855 -0.0958 -0.0705 -0.3964
 8334SOL    HW136638   0.154   2.591   5.898 -0.8709  0.2247 -0.1674
 8334SOL    HW236639   0.185   2.477   5.806 -0.0633  0.1740 -0.5481
 8335SOL     OW36640   3.076   3.303   3.894  0.3380  0.3526  0.0999
 8335SOL    HW136641   3.099   3.287   3.802 -2.4844 -0.8479 -0.3975
 8335SOL    HW236642   3.163   3.319   3.931  1.2835 -1.7419 -1.2255
 8336SOL     OW36643   1.443   3.824  11.999 -0.1438  0.4335 -0.0796
 8336SOL    HW136644   1.535   3.796  12.005 -0.1957  0.7575  2.2109
 8336SOL    HW236645   1.424   3.852  12.088 -0.3076  0.5388 -0.1482
 8337SOL     OW36646   2.269   3.368  16.665  0.1776  0.1965  0.3992
 8337SOL    HW136647   2.354   3.361  16.708 -0.2887  0.7606  1.4224
 8337SOL    HW236648   2.248   3.275  16.659  0.4662  0.1034  0.8322
 8338SOL     OW36649   0.960   3.090  15.254  0.3136  0.1482  0.2471
 8338SOL    HW136650   0.918   3.026  15.311  0.1474  0.5565  0.5844
 8338SOL    HW236651   1.017   3.139  15.314 -0.6790  2.7492 -0.9307
 8339SOL     OW36652   0.683   0.770   2.519 -0.1371  0.4169 -0.5902
 8339SOL    HW136653   0.615   0.827   2.555  0.7933  0.8316  0.5142
 8339SOL    HW236654   0.703   0.723   2.600 -1.2602  1.4139  0.2779
 8340SOL     OW36655   4.534   3.444  11.130 -0.0729  0.3459 -0.1854
 8340SOL    HW136656   4.475   3.420  11.201  3.6013 -1.0179  2.4021
 8340SOL    HW236657   4.544   3.539  11.138  2.4654 -0.0371  0.9130
 8341SOL     OW36658   4.580   3.405   0.556 -0.6621  0.2986 -0.2241
 8341SOL    HW136659   4.561   3.497   0.577 -0.4982 -0.0371  1.3768
 8341SOL    HW236660   4.495   3.362   0.561 -1.7252  2.6599  2.0771
 8342SOL     OW36661   3.922   1.140   4.768 -0.1814 -0.3927  0.3563
 8342SOL    HW136662   3.993   1.094   4.723  1.3222  0.5446  1.7336
 8342SOL    HW236663   3.952   1.111   4.854 -0.9778 -0.6881  0.5364
 8343SOL     OW36664   2.635   3.203  11.772 -0.3718 -0.5592  0.0132
 8343SOL    HW136665   2.700   3.230  11.708  0.5722 -2.0569  0.3443
 8343SOL    HW236666   2.601   3.131  11.721  1.2282 -1.3983  0.1297
 8344SOL     OW36667   4.517   1.101   5.633  0.5077  0.7308  0.0633
 8344SOL    HW136668   4.430   1.126   5.662  0.3751 -1.1997  1.3351
 8344SOL    HW236669   4.491   1.011   5.613 -2.5130  2.0974 -2.1036
 8345SOL     OW36670   3.469   3.503   7.587 -0.5241  0.3808  0.2393
 8345SOL    HW136671   3.396   3.441   7.593 -1.1090  0.9560 -0.9633
 8345SOL    HW236672   3.496   3.506   7.679  1.5183  0.8099 -0.3894
 8346SOL     OW36673   0.007   0.160   6.059 -0.1419 -0.1118  0.6435
 8346SOL    HW136674   4.723   0.191   6.148 -2.2791  0.6749 -0.0731
 8346SOL    HW236675   0.005   0.248   6.021  1.4952  0.5065  1.9630
 8347SOL     OW36676   3.910   4.412   8.628  0.5516 -0.7634  0.0224
 8347SOL    HW136677   3.996   4.437   8.661 -0.6503  2.4044  0.8073
 8347SOL    HW236678   3.865   4.410   8.712  0.7698 -1.8752  0.1075
 8348SOL     OW36679   4.082   2.523   6.771  0.7947 -0.3604  0.1545
 8348SOL    HW136680   4.032   2.459   6.720 -0.3009 -1.1418  2.2036
 8348SOL    HW236681   4.016   2.552   6.834  0.0789  1.7082 -1.5475
 8349SOL     OW36682   4.479   2.323   1.840 -0.6786  0.3465  0.2546
 8349SOL    HW136683   4.413   2.275   1.791 -1.2754  1.5187 -0.0841
 8349SOL    HW236684   4.469   2.294   1.931  1.1835 -1.5018 -0.1155
 8350SOL     OW36685   1.175   2.359   4.496 -0.3944 -0.5485 -0.5792
 8350SOL    HW136686   1.130   2.379   4.414  0.2346 -0.2002 -0.8346
 8350SOL    HW236687   1.148   2.267   4.502 -1.1895 -0.3207 -0.7251
 8351SOL     OW36688   0.172   1.529   3.498  0.3251 -0.2474 -0.5546
 8351SOL    HW136689   0.235   1.475   3.546 -1.0948 -0.4072  1.1550
 8351SOL    HW236690   0.154   1.462   3.432  2.2626  1.5942 -2.9340
 8352SOL     OW36691   3.172   0.721   7.519 -1.1770 -0.1139  0.2753
 8352SOL    HW136692   3.103   0.681   7.466 -0.1343 -0.4918 -0.7940
 8352SOL    HW236693   3.249   0.666   7.502 -1.5724 -0.7051  0.3965
 8353SOL     OW36694   0.429   1.616   7.553 -0.0496 -0.4046  0.2426
 8353SOL    HW136695   0.393   1.690   7.602  0.9715  0.3367 -0.1338
 8353SOL    HW236696   0.523   1.634   7.557  0.0865 -0.7057 -1.7258
 8354SOL     OW36697   0.916   3.012   7.335  0.6026 -0.1081  0.2732
 8354SOL    HW136698   0.956   2.960   7.405  1.6442  2.5764  1.6913
 8354SOL    HW236699   0.862   2.948   7.288  0.3901  0.5365 -0.3505
 8355SOL     OW36700   3.009   4.706   5.367  0.0300 -0.3380 -0.4375
 8355SOL    HW136701   2.985   4.643   5.300 -0.7429 -1.3977  0.8304
 8355SOL    HW236702   3.104   4.701   5.356 -0.0687 -2.6673 -0.2305
 8356SOL     OW36703   1.796   1.818   3.828 -0.2291 -0.4721  0.8775
 8356SOL    HW136704   1.853   1.741   3.833  1.2582  0.5190 -0.7593
 8356SOL    HW236705   1.820   1.877   3.756  3.4919 -0.0035  2.4859
 8357SOL     OW36706   0.191   3.249   6.831  0.3900  0.3895 -0.2696
 8357SOL    HW136707   0.287   3.249   6.836  0.3187 -1.5759  1.2392
 8357SOL    HW236708   0.184   3.154   6.817 -0.7390  0.3684  0.4641
 8358SOL     OW36709   1.879   4.702   8.166 -0.0394  0.7381 -0.4206
 8358SOL    HW136710   1.907   0.011   8.246 -1.6766 -2.8591  2.1451
 8358SOL    HW236711   1.959   4.660   8.134  0.2534  0.9269  0.0696
 8359SOL     OW36712   4.153   2.999   5.776 -0.3198 -0.1565 -0.0777
 8359SOL    HW136713   4.150   2.924   5.836 -0.7014 -0.4591 -0.4790
 8359SOL    HW236714   4.165   2.961   5.689 -2.0313 -1.2182  0.1476
 8360SOL     OW36715   2.476   0.874  16.550  0.0123 -0.2044  0.2334
 8360SOL    HW136716   2.543   0.888  16.483 -2.1626  1.1888 -1.6397
 8360SOL    HW236717   2.529   0.832  16.618  0.6702  2.6710  1.5046
 8361SOL     OW36718   1.039   1.001   7.257 -0.0435  0.6086  0.0102
 8361SOL    HW136719   0.963   0.959   7.297 -1.2732  2.6144 -0.2646
 8361SOL    HW236720   1.102   0.952   7.310 -0.5575 -0.8271 -0.7166
 8362SOL     OW36721   2.397   1.194   6.199  0.3973 -0.3592  0.4624
 8362SOL    HW136722   2.485   1.192   6.235  0.7959  0.5877 -0.4865
 8362SOL    HW236723   2.358   1.108   6.216 -0.7051 -0.0291 -0.4014
 8363SOL     OW36724   2.923   2.423  13.743 -0.1724 -0.3599  0.4143
 8363SOL    HW136725   2.936   2.375  13.661 -1.5254  0.5283 -0.3184
 8363SOL    HW236726   2.846   2.471  13.713  0.4000 -0.3282 -1.0302
 8364SOL     OW36727   0.166   3.040   3.999  0.3096  0.4141 -0.0961
 8364SOL    HW136728   0.071   3.048   4.009  0.3622 -0.0278  0.7005
 8364SOL    HW236729   0.173   2.993   3.916  2.7821  1.8788 -0.7167
 8365SOL     OW36730   3.292   1.641   6.117  0.0165 -0.3587 -0.6428
 8365SOL    HW136731   3.276   1.587   6.194 -0.0847 -0.4229 -0.7082
 8365SOL    HW236732   3.205   1.678   6.104  0.7427  1.1800 -1.0671
 8366SOL     OW36733   1.830   3.659   7.640  0.0902  0.5294 -0.5749
 8366SOL    HW136734   1.891   3.659   7.566 -0.7576 -1.3231 -1.2909
 8366SOL    HW236735   1.769   3.593   7.606  1.3609 -0.5162 -0.8244
 8367SOL     OW36736   1.483   3.334   3.321  0.1342 -0.0869  0.0425
 8367SOL    HW136737   1.551   3.267   3.313  0.3405  0.0513  0.6373
 8367SOL    HW236738   1.546   3.399   3.290 -0.0588 -0.8171 -1.8940
 8368SOL     OW36739   4.257   3.251  11.694 -0.2618  0.0068 -0.0510
 8368SOL    HW136740   4.180   3.304  11.677 -0.9602 -0.1554  2.7062
 8368SOL    HW236741   4.269   3.263  11.788  0.3892  1.3542 -0.3031
 8369SOL     OW36742   2.163   2.380  14.118  0.4824  0.1127 -0.6457
 8369SOL    HW136743   2.106   2.311  14.151  0.0747  0.0727 -1.4331
 8369SOL    HW236744   2.211   2.329  14.053 -0.2617 -1.5180  0.0814
 8370SOL     OW36745   2.718   2.098   9.191  0.5689  0.6073 -0.2048
 8370SOL    HW136746   2.630   2.133   9.201 -0.4746 -1.7925 -1.2264
 8370SOL    HW236747   2.739   2.068   9.279 -0.5456 -0.2308 -0.2374
 8371SOL     OW36748   4.709   4.250   3.215 -0.3954 -0.0045 -0.0689
 8371SOL    HW136749   0.016   4.252   3.301  0.2497 -0.1943 -0.3845
 8371SOL    HW236750   4.718   4.339   3.181 -3.5682  0.3413 -0.0380
 8372SOL     OW36751   0.094   4.317  15.282  1.1809 -0.8730  0.5312
 8372SOL    HW136752   0.072   4.272  15.363 -1.1130 -0.4143  0.1747
 8372SOL    HW236753   0.139   4.392  15.321  0.4676  0.1705 -0.6419
 8373SOL     OW36754   0.970   0.740   1.665 -0.1612  0.2136  0.0440
 8373SOL    HW136755   0.912   0.708   1.733 -1.2248  0.1740 -0.8941
 8373SOL    HW236756   1.047   0.697   1.701 -0.8970 -0.9913  0.1497
 8374SOL     OW36757   0.271   1.597  10.433  0.1491  0.7365  0.0317
 8374SOL    HW136758   0.202   1.629  10.491  0.0015  0.3249  0.0854
 8374SOL    HW236759   0.217   1.560  10.363 -0.1883  0.7928  0.2640
 8375SOL     OW36760   3.317   1.476   6.661  0.1032  0.0752  1.0173
 8375SOL    HW136761   3.251   1.416   6.627  1.5805 -0.8713 -0.1763
 8375SOL    HW236762   3.392   1.448   6.609  0.0690 -1.1125  1.6039
 8376SOL     OW36763   3.948   0.416   5.052  0.3160  0.0523 -0.5547
 8376SOL    HW136764   3.975   0.358   5.123 -1.0482 -1.0724 -0.9566
 8376SOL    HW236765   3.924   0.352   4.984  0.1131 -1.2396  0.7234
 8377SOL     OW36766   0.837   1.960   6.087 -0.1255 -0.1065 -0.1770
 8377SOL    HW136767   0.751   1.963   6.127 -0.4131 -1.1589 -0.7313
 8377SOL    HW236768   0.816   1.923   6.002 -2.6282  0.7669  0.0652
 8378SOL     OW36769   2.048   2.433   7.203  0.0885 -0.3103 -0.5556
 8378SOL    HW136770   2.104   2.504   7.233  0.6806  0.2506 -3.0386
 8378SOL    HW236771   2.111   2.363   7.185  0.9111  0.0965  0.7840
 8379SOL     OW36772   3.018   3.347   9.035  0.0078 -0.5238  0.2606
 8379SOL    HW136773   3.021   3.262   9.078 -1.3706 -1.9807 -2.5534
 8379SOL    HW236774   3.016   3.319   8.944  1.2252 -0.7761  0.3188
 8380SOL     OW36775   3.282   3.282   4.196 -0.1850  0.1261  0.1025
 8380SOL    HW136776   3.305   3.319   4.111  0.3329  0.5384  0.4251
 8380SOL    HW236777   3.352   3.220   4.216  0.9964  0.6795 -2.3876
 8381SOL     OW36778   0.279   0.088   5.963 -0.4758  0.2420 -0.3335
 8381SOL    HW136779   0.347   0.149   5.989 -2.5313  3.4463 -2.4237
 8381SOL    HW236780   0.204   0.144   5.981 -0.2950  0.5085 -0.4197
 8382SOL     OW36781   2.636   3.140   7.961  0.4916  0.0281 -0.5053
 8382SOL    HW136782   2.604   3.214   8.013  2.6041  1.9991 -1.9865
 8382SOL    HW236783   2.692   3.082   8.011 -0.6947 -1.2395 -0.6559
 8383SOL     OW36784   1.833   3.995   5.481 -0.5316  0.0336  0.2299
 8383SOL    HW136785   1.871   4.071   5.526 -1.7769  0.7399  0.0669
 8383SOL    HW236786   1.757   4.036   5.441  0.0623 -0.1112 -1.0562
 8384SOL     OW36787   1.201   4.270   0.864  0.1972  0.4547 -0.1915
 8384SOL    HW136788   1.142   4.330   0.910 -0.1522  0.8954 -1.2347
 8384SOL    HW236789   1.185   4.301   0.775 -0.9527  1.4334  0.3504
 8385SOL     OW36790   2.940   2.324   4.798 -0.2614 -0.7202 -0.1435
 8385SOL    HW136791   2.966   2.233   4.806  0.5038 -0.4766  0.1597
 8385SOL    HW236792   2.883   2.329   4.875  0.2992 -0.0771  0.2310
 8386SOL     OW36793   1.955   0.930   6.024 -0.2028 -0.0534 -0.6710
 8386SOL    HW136794   1.933   0.984   6.100 -0.6512 -1.2308  0.0296
 8386SOL    HW236795   1.876   0.878   6.009  0.7555 -1.1192 -2.0775
 8387SOL     OW36796   0.358   2.269   9.115 -0.8511  0.6422 -0.2437
 8387SOL    HW136797   0.282   2.211   9.110  0.4594 -1.0774 -0.0685
 8387SOL    HW236798   0.326   2.347   9.162 -0.6514 -0.2422  1.3652
 8388SOL     OW36799   1.272   4.253   7.416 -0.6010 -0.3499 -0.0632
 8388SOL    HW136800   1.308   4.299   7.492  0.4121  2.6166 -2.3526
 8388SOL    HW236801   1.334   4.263   7.343 -0.3476  0.7247  0.2960
 8389SOL     OW36802   0.830   3.906   0.062  0.2549 -0.2660  0.6406
 8389SOL    HW136803   0.918   3.867   0.068 -0.2928 -1.6868 -0.4945
 8389SOL    HW236804   0.836   3.977   0.126 -2.2886  1.2990 -0.8900
 8390SOL     OW36805   0.843   2.301   7.212 -0.0521  0.3711 -0.1569
 8390SOL    HW136806   0.929   2.299   7.255 -0.5640  1.4850  0.9051
 8390SOL    HW236807   0.786   2.243   7.262 -0.8021  0.5961 -0.7513
 8391SOL     OW36808   3.974   3.096   6.120  0.2980  0.3244 -0.2862
 8391SOL    HW136809   3.907   3.106   6.188  0.9255 -1.0099  0.5363
 8391SOL    HW236810   3.939   3.035   6.055 -2.5624  1.4116  0.2640
 8392SOL     OW36811   1.309   2.691   7.381  0.0651 -0.3636 -0.4823
 8392SOL    HW136812   1.220   2.667   7.407 -0.7725  2.1201 -1.0461
 8392SOL    HW236813   1.302   2.757   7.311  1.0813 -0.8839 -1.0708
 8393SOL     OW36814   3.348   2.747   3.214  0.7756  0.4507  0.1277
 8393SOL    HW136815   3.402   2.683   3.260  2.6761  0.1683 -2.4663
 8393SOL    HW236816   3.397   2.743   3.132 -0.7182  0.4857 -0.7764
 8394SOL     OW36817   2.228   0.937  16.654  0.0142  0.2407  0.1144
 8394SOL    HW136818   2.219   0.845  16.681 -0.3117  0.4419  0.6843
 8394SOL    HW236819   2.316   0.936  16.615  0.1727  0.4678  0.4691
 8395SOL     OW36820   4.141   4.062   5.579  0.1202 -0.0386  0.2280
 8395SOL    HW136821   4.136   3.999   5.506 -0.3551  0.2311  0.0306
 8395SOL    HW236822   4.054   4.079   5.614  0.8093  0.4050  1.7322
 8396SOL     OW36823   2.734   0.068  15.328 -0.2856 -0.1840 -0.4389
 8396SOL    HW136824   2.766   4.721  15.291  1.3903  1.5522 -2.7808
 8396SOL    HW236825   2.652   0.078  15.279 -1.3944  0.5705  1.5602
 8397SOL     OW36826   0.581   3.497   6.985  0.3653 -0.4188 -0.4445
 8397SOL    HW136827   0.551   3.539   6.904 -1.5158 -0.7078  0.1067
 8397SOL    HW236828   0.674   3.516   6.978  0.2227  0.1335 -0.9597
 8398SOL     OW36829   2.203   4.203   5.566 -0.6031  0.1610 -0.3084
 8398SOL    HW136830   2.218   4.171   5.477  0.7435 -1.3244  0.4465
 8398SOL    HW236831   2.135   4.266   5.543  0.2636  1.7051  1.4491
 8399SOL     OW36832   3.627   2.572   5.582 -0.5016  0.0370  0.8675
 8399SOL    HW136833   3.626   2.660   5.619  0.3083 -0.4057  1.9710
 8399SOL    HW236834   3.599   2.532   5.664  1.7893 -3.4930 -0.0707
 8400SOL     OW36835   1.712   3.547   8.025  1.2569 -0.3109 -0.0179
 8400SOL    HW136836   1.681   3.460   8.052  3.3636 -1.0921 -0.1070
 8400SOL    HW236837   1.722   3.584   8.112 -0.4054  0.6718 -0.2369
 8401SOL     OW36838   3.795   4.297   6.092 -0.1972  0.2703 -0.2584
 8401SOL    HW136839   3.863   4.274   6.028 -0.9562 -0.0533 -0.9561
 8401SOL    HW236840   3.767   4.206   6.105  1.7997 -0.2667  0.2848
 8402SOL     OW36841   2.994   0.210  12.279 -0.3063  0.2493  0.1432
 8402SOL    HW136842   3.041   0.128  12.269 -0.5137  0.0961  0.4291
 8402SOL    HW236843   3.050   0.277  12.320  1.1616  0.1323 -1.7078
 8403SOL     OW36844   1.653   1.665  14.815 -0.0013  0.1618  0.1951
 8403SOL    HW136845   1.563   1.647  14.785 -0.7487  2.5177  0.9973
 8403SOL    HW236846   1.696   1.656  14.730  1.8151 -1.5441  1.3170
 8404SOL     OW36847   2.059   3.893  14.439  0.3452  0.2285  0.2293
 8404SOL    HW136848   2.067   3.904  14.344 -1.5165 -0.5250 -0.0262
 8404SOL    HW236849   2.117   3.820  14.459  0.3043  0.4496  1.1611
 8405SOL     OW36850   1.516   3.483   4.673 -0.0097  0.0854 -0.1329
 8405SOL    HW136851   1.488   3.541   4.744 -0.2132  0.0059 -0.1473
 8405SOL    HW236852   1.430   3.452   4.643 -0.7572  2.9875 -1.0885
 8406SOL     OW36853   1.705   3.849   1.444 -0.3734  0.0042  0.0383
 8406SOL    HW136854   1.671   3.936   1.425 -1.6337 -0.4472  0.2311
 8406SOL    HW236855   1.680   3.796   1.369 -0.5724 -0.9823  0.7976
 8407SOL     OW36856   3.063   3.092   9.159 -0.1555  0.3815 -0.4595
 8407SOL    HW136857   3.157   3.076   9.171 -0.1381  1.9652  1.4328
 8407SOL    HW236858   3.030   3.023   9.216 -2.4200  1.5800 -0.3561
 8408SOL     OW36859   0.754   1.324   2.723 -0.1404  0.2428  0.0266
 8408SOL    HW136860   0.842   1.294   2.701 -0.3504  1.0341 -1.8463
 8408SOL    HW236861   0.767   1.330   2.818 -0.8570 -0.2890  0.1575
 8409SOL     OW36862   3.513   3.357   3.430  0.0744 -0.1515  0.2062
 8409SOL    HW136863   3.490   3.347   3.338  0.6725  2.8242 -0.2693
 8409SOL    HW236864   3.446   3.413   3.469  0.2195  0.0547  0.1611
 8410SOL     OW36865   3.895   3.150  14.565 -0.1672 -0.5818 -0.1207
 8410SOL    HW136866   3.972   3.204  14.545 -1.5065  1.7962  1.2404
 8410SOL    HW236867   3.891   3.145  14.661 -0.5453 -2.5695 -0.2370
 8411SOL     OW36868   3.679   4.663   6.894 -0.5369 -0.4731 -0.3984
 8411SOL    HW136869   3.685   4.734   6.958 -1.4411  0.1522 -1.0074
 8411SOL    HW236870   3.688   4.709   6.810  0.4875 -0.3394 -0.2124
 8412SOL     OW36871   2.059   3.956   7.960  0.1285  0.1022  0.2213
 8412SOL    HW136872   1.989   3.984   8.019 -0.9272 -0.9367 -0.5431
 8412SOL    HW236873   2.058   3.864   7.983 -0.7258  0.3749  1.2576
 8413SOL     OW36874   3.131   3.692   6.387  0.1213  0.3457 -0.4684
 8413SOL    HW136875   3.190   3.767   6.377  0.8606  0.1301  2.2773
 8413SOL    HW236876   3.167   3.648   6.464  1.7441  1.5537 -0.5270
 8414SOL     OW36877   2.829   3.423   5.361  0.2436 -0.4287  0.1548
 8414SOL    HW136878   2.747   3.455   5.325  0.0380 -0.5767  0.4915
 8414SOL    HW236879   2.799   3.369   5.434  2.5590  1.2070  2.3340
 8415SOL     OW36880   1.745   3.878   6.747 -0.5446 -0.0180 -0.1789
 8415SOL    HW136881   1.760   3.921   6.831  2.9308  0.1041 -0.8506
 8415SOL    HW236882   1.747   3.953   6.687 -0.6559 -0.8917 -1.2796
 8416SOL     OW36883   2.947   2.093   3.799  0.6552 -0.0342  0.1489
 8416SOL    HW136884   2.868   2.125   3.756  0.3953 -3.0404 -1.5394
 8416SOL    HW236885   3.012   2.142   3.749  0.0325 -0.4280 -1.0336
 8417SOL     OW36886   1.108   3.167   3.344  0.4334  0.3625 -0.0416
 8417SOL    HW136887   1.165   3.170   3.267 -0.1815  0.4514 -0.4933
 8417SOL    HW236888   1.163   3.213   3.408  1.8860  1.4858 -2.1118
 8418SOL     OW36889   3.985   2.212  10.097 -0.0029  0.0657  0.4613
 8418SOL    HW136890   3.930   2.275  10.144 -1.4424 -0.7604 -0.1159
 8418SOL    HW236891   3.973   2.242  10.007 -0.4085 -2.0065 -0.1676
 8419SOL     OW36892   4.513   3.703   1.736  0.3678 -0.2123 -0.8427
 8419SOL    HW136893   4.562   3.646   1.794  0.6573  0.5778 -0.3039
 8419SOL    HW236894   4.516   3.651   1.656 -0.9750 -2.2054  0.4014
 8420SOL     OW36895   1.025   4.342   4.045 -0.5276 -0.4297 -0.2118
 8420SOL    HW136896   1.101   4.383   4.085  0.8300 -1.4891 -1.6879
 8420SOL    HW236897   0.977   4.414   4.004  3.1675  1.6039 -0.9654
 8421SOL     OW36898   3.300   3.692   5.808  0.3238  0.1915 -0.4694
 8421SOL    HW136899   3.308   3.675   5.902 -2.4916  2.0178  0.1226
 8421SOL    HW236900   3.229   3.631   5.790  0.0063  0.0645  1.2079
 8422SOL     OW36901   3.913   0.127  15.565 -0.3799 -0.2073 -0.0967
 8422SOL    HW136902   3.886   0.200  15.621  0.2237  0.0737 -0.1657
 8422SOL    HW236903   3.862   0.049  15.587  0.4872 -0.3488  1.4236
 8423SOL     OW36904   3.180   4.677  10.670 -0.0725  0.1767 -0.0899
 8423SOL    HW136905   3.101   4.638  10.631 -1.0496  1.7268  0.3761
 8423SOL    HW236906   3.189   0.030  10.632  0.3832 -0.7837 -2.2641
 8424SOL     OW36907   1.444   4.078  14.592  0.0175 -0.4629  0.3853
 8424SOL    HW136908   1.365   4.038  14.556  1.4612 -3.2668  0.3297
 8424SOL    HW236909   1.419   4.167  14.567 -2.4417 -0.1991  3.7029
 8425SOL     OW36910   3.384   1.312   9.009 -0.1770 -0.3739  0.4601
 8425SOL    HW136911   3.468   1.313   9.055 -0.8887  0.5048  1.7370
 8425SOL    HW236912   3.353   1.222   9.013 -0.4894 -0.3463 -1.2649
 8426SOL     OW36913   0.966   0.356   0.579 -0.2681  0.0903 -0.4837
 8426SOL    HW136914   0.968   0.303   0.658  1.1393  3.3219  1.6648
 8426SOL    HW236915   0.972   0.291   0.509  0.7601 -1.3383  0.9437
 8427SOL     OW36916   2.077   0.143   0.603 -0.1594  0.0234  0.1552
 8427SOL    HW136917   2.145   0.173   0.663  0.3288  2.5931 -1.6780
 8427SOL    HW236918   2.121   0.157   0.520 -0.1143 -0.0865  0.1613
 8428SOL     OW36919   2.639   1.405   8.669  0.0463  0.6230  0.1645
 8428SOL    HW136920   2.577   1.356   8.724 -0.5156  1.0171 -0.1272
 8428SOL    HW236921   2.713   1.395   8.729  0.1827 -2.0850 -0.4489
 8429SOL     OW36922   2.020   1.144   4.881 -0.3976  0.4542 -0.0740
 8429SOL    HW136923   2.115   1.142   4.889 -0.4086  0.0385 -0.0494
 8429SOL    HW236924   1.995   1.099   4.961  0.0717  1.0110  0.3856
 8430SOL     OW36925   0.402   4.719   0.784  0.1032 -0.3286 -0.4427
 8430SOL    HW136926   0.412   4.651   0.716  0.7902 -1.1926  0.5218
 8430SOL    HW236927   0.358   0.052   0.734  0.8944  0.8837  0.5150
 8431SOL     OW36928   4.180   1.123   1.686 -0.0892 -0.6749  0.6151
 8431SOL    HW136929   4.189   1.166   1.771  1.9359 -1.0412  0.5946
 8431SOL    HW236930   4.242   1.051   1.696  2.3389  1.5673  1.8245
 8432SOL     OW36931   0.981   2.136   8.799 -0.0753 -0.5102 -0.0783
 8432SOL    HW136932   1.026   2.196   8.740  1.6735 -0.8712  0.9130
 8432SOL    HW236933   0.901   2.132   8.747 -0.4952  2.6674  0.3187
 8433SOL     OW36934   1.839   2.435  13.523 -0.0627 -0.1938 -0.0416
 8433SOL    HW136935   1.762   2.433  13.466 -2.0871 -1.9242  2.7353
 8433SOL    HW236936   1.850   2.342  13.542  0.6558  0.0490  0.6871
 8434SOL     OW36937   0.353   4.198   4.057  0.1827  0.4376  1.1218
 8434SOL    HW136938   0.308   4.135   4.001  1.7230  1.8948 -1.7780
 8434SOL    HW236939   0.430   4.147   4.081 -0.3038 -1.7510 -2.0376
 8435SOL     OW36940   1.087   0.773   9.080 -0.3483 -0.8019 -0.5379
 8435SOL    HW136941   1.158   0.766   9.143 -0.7177 -1.2909 -0.1747
 8435SOL    HW236942   1.015   0.742   9.135 -0.6499 -0.1764 -0.5764
 8436SOL     OW36943   3.021   0.277  16.143 -0.0106 -0.5645 -0.6262
 8436SOL    HW136944   2.930   0.306  16.141 -0.1664 -0.9989  0.1567
 8436SOL    HW236945   3.014   0.193  16.189 -0.2488  0.2859  0.9056
 8437SOL     OW36946   2.103   4.580   8.073 -0.2063  0.0264 -0.1999
 8437SOL    HW136947   2.193   4.611   8.083 -0.9916  2.4413 -0.7552
 8437SOL    HW236948   2.099   4.531   7.991  1.7310 -0.4673 -0.0063
 8438SOL     OW36949   4.592   1.772   9.964  0.3144  0.1990  0.0370
 8438SOL    HW136950   4.629   1.858   9.942  3.2436 -1.3062 -0.9842
 8438SOL    HW236951   4.502   1.802   9.973  0.8807  2.4991 -1.5757
 8439SOL     OW36952   2.131   2.141   3.549 -0.9848  0.0618 -0.8634
 8439SOL    HW136953   2.106   2.232   3.568  0.2894 -0.1203  1.7259
 8439SOL    HW236954   2.051   2.106   3.510  0.2657 -1.2889 -2.1668
 8440SOL     OW36955   3.727   3.444   5.110  0.1746  0.1741  0.2466
 8440SOL    HW136956   3.715   3.538   5.098  2.5119  0.0986 -2.5383
 8440SOL    HW236957   3.686   3.411   5.030  0.2712 -1.5189  0.8926
 8441SOL     OW36958   2.330   3.242   4.517 -0.2105  0.2102 -0.1871
 8441SOL    HW136959   2.268   3.315   4.519  0.5404  0.8324  0.2532
 8441SOL    HW236960   2.395   3.277   4.456  0.3762  0.1825  0.4345
 8442SOL     OW36961   0.088   3.923   3.957 -0.4619 -0.3025  0.4194
 8442SOL    HW136962   0.089   3.864   4.033  0.8683 -0.6555  0.1345
 8442SOL    HW236963   0.073   4.005   4.003  1.9487 -0.7308  1.9888
 8443SOL     OW36964   2.775   0.975  12.072  0.1889  0.1647 -0.1685
 8443SOL    HW136965   2.832   0.931  12.135 -0.4470  0.0795  0.3539
 8443SOL    HW236966   2.751   0.910  12.006 -1.6274 -1.5449  2.1840
 8444SOL     OW36967   3.036   4.178   5.470 -0.5127 -0.6121  0.4906
 8444SOL    HW136968   3.054   4.091   5.505  0.7226 -0.0772  1.1464
 8444SOL    HW236969   2.946   4.167   5.440  0.3639  0.0725 -2.3711
 8445SOL     OW36970   1.591   2.493   5.241 -0.0448 -0.1100 -0.2139
 8445SOL    HW136971   1.679   2.524   5.261  0.3569 -1.1092 -0.4626
 8445SOL    HW236972   1.548   2.571   5.279  0.0512  0.9128 -2.2003
 8446SOL     OW36973   1.602   4.080   1.320  0.0301 -0.1318 -0.2086
 8446SOL    HW136974   1.523   4.122   1.286  0.6757  0.3807 -1.0783
 8446SOL    HW236975   1.661   4.099   1.247  0.5674  0.0672  0.2772
 8447SOL     OW36976   4.424   2.654  10.696 -0.0778 -0.2087 -0.2020
 8447SOL    HW136977   4.373   2.733  10.683 -1.6450 -1.0790  0.6153
 8447SOL    HW236978   4.419   2.657  10.792  0.3914  0.9665 -0.2249
 8448SOL     OW36979   0.490   0.915   6.299 -0.0663  0.1646 -0.0849
 8448SOL    HW136980   0.465   0.873   6.381  0.3327  0.9806  0.4603
 8448SOL    HW236981   0.425   0.982   6.276 -2.3935 -1.3337  2.1347
 8449SOL     OW36982   2.627   4.181  15.366  0.3606 -0.5369 -0.2413
 8449SOL    HW136983   2.606   4.088  15.368 -0.0827 -0.4832 -2.9358
 8449SOL    HW236984   2.671   4.198  15.449 -1.1704  1.9809  0.0671
 8450SOL     OW36985   3.904   0.710  14.897  0.6642 -0.9467 -0.2160
 8450SOL    HW136986   3.987   0.731  14.855  0.6495 -1.0249 -0.2852
 8450SOL    HW236987   3.841   0.703  14.825  0.7963 -2.4091 -0.1861
 8451SOL     OW36988   3.839   0.305   3.942 -0.4165 -0.0855  0.1993
 8451SOL    HW136989   3.747   0.330   3.927 -0.9318 -2.1414  0.0275
 8451SOL    HW236990   3.872   0.311   3.852 -1.2292  4.2234  0.1693
 8452SOL     OW36991   0.524   0.682   6.131  0.3597  1.2429 -0.0438
 8452SOL    HW136992   0.530   0.750   6.198  2.1239  1.5605 -0.5250
 8452SOL    HW236993   0.600   0.631   6.159 -0.5002 -0.3042 -0.5167
 8453SOL     OW36994   1.191   3.896   8.382 -0.2373  0.6494 -0.3277
 8453SOL    HW136995   1.263   3.948   8.345  0.7574 -1.9982 -2.0990
 8453SOL    HW236996   1.119   3.923   8.325 -0.0955 -1.3836 -1.4439
 8454SOL     OW36997   0.281   3.698   7.933 -0.2707  0.2733 -0.0768
 8454SOL    HW136998   0.333   3.701   7.852 -0.6040  0.6752 -0.2763
 8454SOL    HW236999   0.333   3.634   7.982 -0.1933  1.8520  1.8637
 8455SOL     OW37000   0.610   3.904   5.365  0.5492 -0.1074 -0.0680
 8455SOL    HW137001   0.702   3.926   5.351  0.5243  0.5431  0.8218
 8455SOL    HW237002   0.565   3.952   5.295  0.3654 -1.4347 -0.8741
 8456SOL     OW37003   2.206   0.363   2.274 -0.7076 -0.8475 -0.4479
 8456SOL    HW137004   2.206   0.452   2.310  0.3249 -1.0757  0.1215
 8456SOL    HW237005   2.190   0.311   2.353  0.7600 -0.3343  0.2045
 8457SOL     OW37006   3.408   0.615   3.296  0.2396 -0.6320  0.2147
 8457SOL    HW137007   3.347   0.543   3.279 -1.2085  0.3879  1.0839
 8457SOL    HW237008   3.421   0.595   3.388 -1.2988  2.2615  1.0498
 8458SOL     OW37009   3.699   1.867   4.761  0.3292 -0.6603  0.7358
 8458SOL    HW137010   3.654   1.839   4.681 -0.6396  0.2211  0.9672
 8458SOL    HW237011   3.770   1.804   4.776  1.8510  0.6410 -0.8947
 8459SOL     OW37012   2.222   0.284   0.991  0.1699 -0.3857 -0.3257
 8459SOL    HW137013   2.234   0.201   1.038  0.7860  1.1083  2.2016
 8459SOL    HW237014   2.131   0.297   1.017  0.1686  2.1780 -1.7135
 8460SOL     OW37015   0.006   4.150   6.429  0.4191  0.0640  0.1256
 8460SOL    HW137016   0.068   4.197   6.372 -0.5646  2.0147  0.6653
 8460SOL    HW237017   0.060   4.132   6.506  0.2686  2.3285  0.7663
 8461SOL     OW37018   3.686   0.312   8.938  0.6696 -0.5386 -0.0535
 8461SOL    HW137019   3.626   0.241   8.915 -1.6739  0.8927  1.6183
 8461SOL    HW237020   3.628   0.388   8.942  1.8325  0.1960  2.8760
 8462SOL     OW37021   0.316   0.157   4.912  0.9139 -0.3234 -0.3585
 8462SOL    HW137022   0.256   0.164   4.838 -2.0100 -2.1317  1.8897
 8462SOL    HW237023   0.396   0.170   4.859  1.5675 -0.8042  0.5145
 8463SOL     OW37024   3.486   1.058   3.589 -0.0646 -0.3342 -0.5298
 8463SOL    HW137025   3.556   1.101   3.540  0.0518  1.6175  1.3022
 8463SOL    HW237026   3.465   0.991   3.525  0.2211 -0.2130 -0.7515
 8464SOL     OW37027   0.752   3.948   3.111  0.0590 -0.0766  0.3737
 8464SOL    HW137028   0.683   3.882   3.121 -0.8152  1.1264  2.1323
 8464SOL    HW237029   0.706   4.022   3.071  1.2994  2.0145  2.8704
 8465SOL     OW37030   1.425   3.242   9.827 -0.2065  0.0864  0.4812
 8465SOL    HW137031   1.440   3.328   9.788  0.1280 -0.2149 -0.0575
 8465SOL    HW237032   1.481   3.238   9.905 -0.1230  0.5508  0.4463
 8466SOL     OW37033   3.959   1.803  14.629 -1.0145 -0.0996 -0.9682
 8466SOL    HW137034   3.892   1.811  14.562 -0.8364 -0.6236 -1.2040
 8466SOL    HW237035   4.040   1.813  14.579 -0.2127  1.2234  0.5897
 8467SOL     OW37036   0.451   4.577   2.659  0.4671 -0.2730 -0.2294
 8467SOL    HW137037   0.437   4.591   2.565  0.7167 -0.6570 -0.3206
 8467SOL    HW237038   0.419   4.658   2.700  1.0529  0.1138 -0.5451
 8468SOL     OW37039   4.113   0.978   3.886  0.1101 -0.0250 -0.2322
 8468SOL    HW137040   4.151   0.892   3.901 -0.6130 -0.1986  0.6365
 8468SOL    HW237041   4.019   0.970   3.902 -0.4031  1.9248 -2.1960
 8469SOL     OW37042   0.584   2.132   9.156  0.5032 -0.1654  0.3951
 8469SOL    HW137043   0.504   2.182   9.138  0.5310 -1.4890 -3.3578
 8469SOL    HW237044   0.586   2.072   9.082  1.0236  1.3418 -0.8152
 8470SOL     OW37045   4.397   1.868   7.266 -0.2150  0.2921  0.3632
 8470SOL    HW137046   4.336   1.877   7.193  0.2214  1.7479  0.1688
 8470SOL    HW237047   4.432   1.782   7.245  0.6872  0.7979 -0.2092
 8471SOL     OW37048   0.635   0.245   7.740  0.5127  0.0874 -0.0617
 8471SOL    HW137049   0.615   0.152   7.733  0.2953  0.1952 -0.9739
 8471SOL    HW237050   0.671   0.247   7.829 -0.4919  0.4062  0.3367
 8472SOL     OW37051   3.615   3.091  10.538  0.4985  0.1259  0.2290
 8472SOL    HW137052   3.576   3.170  10.501  0.4739  0.6443  1.3420
 8472SOL    HW237053   3.538   3.035  10.555  1.0763 -0.3380  1.3532
 8473SOL     OW37054   3.256   4.606   1.931  0.0055 -0.9014 -0.1045
 8473SOL    HW137055   3.317   4.680   1.923 -0.6959 -0.5657 -2.1614
 8473SOL    HW237056   3.305   4.538   1.978  1.0721 -0.8960 -1.2019
 8474SOL     OW37057   0.762   3.279  15.228 -0.1764  0.5365 -0.0580
 8474SOL    HW137058   0.742   3.275  15.321 -1.6110  0.7446 -0.3580
 8474SOL    HW237059   0.845   3.232  15.223 -1.6182 -1.6799 -2.8914
 8475SOL     OW37060   2.373   2.201  13.612  0.7006  0.2827 -0.2775
 8475SOL    HW137061   2.358   2.179  13.520  0.2810  0.1922 -0.1875
 8475SOL    HW237062   2.285   2.234  13.629  0.3192 -0.9741  0.1796
 8476SOL     OW37063   3.955   2.836   4.054  0.2984 -0.2093 -0.6614
 8476SOL    HW137064   3.913   2.907   4.006  0.2076 -1.9114 -3.0918
 8476SOL    HW237065   3.880   2.810   4.107  0.9510 -0.4317  0.1662
 8477SOL     OW37066   4.082   4.171   6.303  0.3274  0.1266  0.4385
 8477SOL    HW137067   4.100   4.091   6.253 -0.1056  0.7350 -0.6856
 8477SOL    HW237068   4.093   4.236   6.234  1.6379  1.7937  2.1969
 8478SOL     OW37069   0.928   3.994  16.595 -0.2960 -0.0783  0.4001
 8478SOL    HW137070   0.881   3.911  16.588 -1.9899  1.0754 -1.6431
 8478SOL    HW237071   0.866   4.055  16.636  0.5399  0.4172  0.9318
 8479SOL     OW37072   3.997   4.247   3.462 -0.1437  0.4577 -0.0110
 8479SOL    HW137073   4.009   4.170   3.406 -1.0453  1.2168 -1.2470
 8479SOL    HW237074   3.977   4.214   3.550  2.0153  0.6674  0.5667
 8480SOL     OW37075   4.023   1.756   2.390 -0.0555  0.1092 -0.2491
 8480SOL    HW137076   4.046   1.756   2.297  0.0527  1.6613 -0.2172
 8480SOL    HW237077   3.930   1.736   2.383  0.0563  0.2180 -2.0482
 8481SOL     OW37078   2.877   1.921   9.059  1.0871 -0.2661  0.2140
 8481SOL    HW137079   2.971   1.935   9.050  0.5368  2.8016 -1.0457
 8481SOL    HW237080   2.844   1.983   9.125 -1.8041 -1.9126  0.3391
 8482SOL     OW37081   1.117   4.679   8.534  0.2109 -0.1691 -0.2946
 8482SOL    HW137082   1.154   0.026   8.568 -2.7040 -0.1766  2.9741
 8482SOL    HW237083   1.149   4.678   8.444 -1.5168  0.2380 -0.9179
 8483SOL     OW37084   2.619   1.017   6.054 -0.1831 -0.1120  0.6960
 8483SOL    HW137085   2.662   1.095   6.091  0.9057  0.3503 -1.5533
 8483SOL    HW237086   2.671   1.018   5.974 -2.3933  4.2136 -0.6943
 8484SOL     OW37087   0.088   2.067   4.959 -0.0810  0.3408  0.0310
 8484SOL    HW137088   0.049   2.151   4.935 -1.0190 -0.1977 -0.3318
 8484SOL    HW237089   0.130   2.083   5.044 -0.1293  2.5541 -0.3750
 8485SOL     OW37090   3.252   1.077   4.404 -0.3440  0.5054 -0.1905
 8485SOL    HW137091   3.201   1.156   4.423  0.7176  0.9766  0.7135
 8485SOL    HW237092   3.190   1.025   4.353 -0.8494 -0.5976  1.5291
 8486SOL     OW37093   3.417   3.967   4.239 -0.1652 -0.1063  0.2903
 8486SOL    HW137094   3.364   4.010   4.172  0.2308 -0.6734 -0.3812
 8486SOL    HW237095   3.372   3.883   4.241 -1.1984  0.4427 -0.5040
 8487SOL     OW37096   0.714   0.753   7.240 -0.4448  0.0739  0.2873
 8487SOL    HW137097   0.742   0.802   7.163  0.9582 -0.1555  0.6578
 8487SOL    HW237098   0.796   0.711   7.267  0.0031  0.7647 -0.0167
 8488SOL     OW37099   3.251   3.371   3.285  0.2969 -0.3935  0.0509
 8488SOL    HW137100   3.233   3.288   3.331 -0.2765 -0.2875  0.0161
 8488SOL    HW237101   3.295   3.336   3.207 -2.2376 -1.9324 -0.7060
 8489SOL     OW37102   1.973   2.728  12.227  0.4379  0.3015 -0.4985
 8489SOL    HW137103   2.042   2.686  12.279 -1.4512 -2.0517  0.0728
 8489SOL    HW237104   1.898   2.684  12.266  1.5341 -0.2472  1.0029
 8490SOL     OW37105   3.958   0.773   5.292 -0.0201 -0.2731 -0.6025
 8490SOL    HW137106   3.883   0.714   5.301  1.1438 -1.7989 -0.8445
 8490SOL    HW237107   3.988   0.739   5.208  1.6552  1.1227 -0.5667
 8491SOL     OW37108   2.004   4.597   1.930 -0.3744 -0.2421 -0.3630
 8491SOL    HW137109   1.954   4.518   1.907  0.9289 -1.0108 -0.5454
 8491SOL    HW237110   1.934   4.662   1.924  0.1454  0.5011  1.6156
 8492SOL     OW37111   1.044   1.672   5.699 -0.0997 -0.0956  0.0936
 8492SOL    HW137112   1.060   1.619   5.620  1.3239 -0.3430  0.5477
 8492SOL    HW237113   1.121   1.729   5.692  0.4171 -0.5234  2.3246
 8493SOL     OW37114   3.097   3.041   3.073  0.5919  0.3066  0.0068
 8493SOL    HW137115   3.076   3.115   3.015 -0.5241  0.2777  0.3799
 8493SOL    HW237116   3.191   3.039   3.056  0.5202 -1.3540 -0.1027
 8494SOL     OW37117   2.619   4.610  12.358  0.7166 -0.2667 -0.2664
 8494SOL    HW137118   2.648   4.557  12.433 -0.8268 -0.3066  0.2888
 8494SOL    HW237119   2.636   4.693  12.403 -2.5898  0.2232  0.0697
 8495SOL     OW37120   0.504   2.504  12.370  0.2356  0.3469 -0.4942
 8495SOL    HW137121   0.590   2.533  12.400  0.1716  0.2095 -0.1780
 8495SOL    HW237122   0.442   2.532  12.438 -2.1552  0.8744 -2.9046
 8496SOL     OW37123   1.254   1.599   2.482  0.0112 -0.3411 -0.2427
 8496SOL    HW137124   1.282   1.627   2.395  0.3680  0.3680  0.1024
 8496SOL    HW237125   1.244   1.679   2.533  2.0107  1.3973 -2.5671
 8497SOL     OW37126   2.673   2.835   4.095  0.0863 -0.8745 -1.0643
 8497SOL    HW137127   2.684   2.803   4.184 -3.3761 -1.7186 -0.9335
 8497SOL    HW237128   2.650   2.927   4.110  1.9270 -0.4076 -1.1592
 8498SOL     OW37129   0.434   0.960   2.693 -0.1663  0.7421 -0.3895
 8498SOL    HW137130   0.428   1.051   2.664 -0.1890  0.9102  0.1551
 8498SOL    HW237131   0.386   0.930   2.615  0.5671  1.9282 -1.2930
 8499SOL     OW37132   3.873   1.850   7.466 -0.8912  0.7275  0.1061
 8499SOL    HW137133   3.867   1.937   7.427  0.8459  1.0768  0.5894
 8499SOL    HW237134   3.862   1.796   7.388 -0.5958 -1.0407  1.2879
 8500SOL     OW37135   0.992   2.421  16.937 -0.0705 -0.1345  0.1260
 8500SOL    HW137136   0.897   2.431  16.942  0.0205  1.2421 -0.6266
 8500SOL    HW237137   1.018   2.462  17.019 -1.6321  0.5040  0.3041
 8501SOL     OW37138   2.777   2.926   5.170  0.1028 -0.2453  0.7612
 8501SOL    HW137139   2.770   2.839   5.130 -1.4147 -0.6565  1.8986
 8501SOL    HW237140   2.694   2.959   5.136 -0.6958 -1.2069  1.7601
 8502SOL     OW37141   2.702   0.881  14.203  0.0629 -0.0495  0.6225
 8502SOL    HW137142   2.727   0.879  14.110  1.3503  0.6295  0.9578
 8502SOL    HW237143   2.638   0.952  14.197 -0.9724 -0.9441  0.8842
 8503SOL     OW37144   0.295   2.614  12.527  0.3016 -0.0349  0.2492
 8503SOL    HW137145   0.260   2.606  12.616 -0.4648  1.5144  0.0734
 8503SOL    HW237146   0.266   2.702  12.505 -0.2520  0.0369  1.2642
 8504SOL     OW37147   4.275   0.406   8.716 -0.2416  0.6437  0.1297
 8504SOL    HW137148   4.249   0.483   8.664  0.9316  0.6396 -0.4600
 8504SOL    HW237149   4.235   0.337   8.663 -1.0667  1.2791 -0.0846
 8505SOL     OW37150   1.050   1.557   7.695  0.1316 -0.0159 -0.0536
 8505SOL    HW137151   1.107   1.528   7.766  0.1949  0.7658  0.2241
 8505SOL    HW237152   0.981   1.611   7.735  0.6317  2.4005 -2.3915
 8506SOL     OW37153   3.547   3.210   2.103 -0.5030 -0.2661  0.4755
 8506SOL    HW137154   3.608   3.146   2.065 -0.6950 -1.1451  1.6361
 8506SOL    HW237155   3.555   3.283   2.042  0.7231 -0.6221  0.2043
 8507SOL     OW37156   2.595   1.932   7.961 -0.3136 -0.5827  0.3392
 8507SOL    HW137157   2.617   1.872   8.033 -0.9039 -0.5076  0.5855
 8507SOL    HW237158   2.554   2.008   8.003  0.3605  0.2078 -0.4195
 8508SOL     OW37159   4.601   4.417   1.018 -0.1804 -0.8070 -0.2804
 8508SOL    HW137160   4.668   4.482   1.040  0.8030 -1.4588 -1.3417
 8508SOL    HW237161   4.527   4.477   1.007  2.1768  1.9847 -0.8523
 8509SOL     OW37162   1.283   2.487  16.510 -0.4029  0.3005  0.9596
 8509SOL    HW137163   1.252   2.558  16.454  2.6088  1.2103  0.4035
 8509SOL    HW237164   1.277   2.521  16.599  2.4756  1.6065  0.6699
 8510SOL     OW37165   0.040   2.596  14.673  0.2366 -0.2857  0.3832
 8510SOL    HW137166   0.021   2.621  14.583 -0.1274  1.0176  0.8291
 8510SOL    HW237167   0.134   2.615  14.668  0.3215 -1.0943 -1.0387
 8511SOL     OW37168   3.940   4.303   5.370 -0.1780  0.3173  0.1333
 8511SOL    HW137169   3.849   4.292   5.341 -0.2071 -2.9724  1.5033
 8511SOL    HW237170   3.953   4.231   5.430 -0.9766 -0.1096 -0.2066
 8512SOL     OW37171   0.436   0.081   5.145 -0.1884  0.5254 -0.1040
 8512SOL    HW137172   0.496   0.008   5.129 -0.9699 -0.4425  1.3094
 8512SOL    HW237173   0.400   0.101   5.059  0.9425 -1.5019 -1.0363
 8513SOL     OW37174   3.165   2.015   9.089 -0.2179  0.2490 -0.3200
 8513SOL    HW137175   3.189   2.038   9.179 -1.9132  0.2616  0.1241
 8513SOL    HW237176   3.229   1.944   9.085 -0.0297  0.4450 -0.7156
 8514SOL     OW37177   1.760   1.842   7.571 -0.0519 -0.4179  0.0526
 8514SOL    HW137178   1.772   1.936   7.576 -0.7137 -0.2079 -2.5751
 8514SOL    HW237179   1.666   1.831   7.563 -0.0274 -0.1746 -0.5571
 8515SOL     OW37180   0.866   3.662   5.783 -0.3397 -0.2350 -0.3373
 8515SOL    HW137181   0.892   3.627   5.869  1.6175  1.4127 -0.2501
 8515SOL    HW237182   0.897   3.589   5.729 -2.6736 -0.1344 -1.8401
 8516SOL     OW37183   3.937   1.163   6.879  0.8205 -0.2049 -0.0176
 8516SOL    HW137184   3.964   1.161   6.971 -0.4119 -0.3975  0.3353
 8516SOL    HW237185   4.022   1.185   6.841  0.5693  0.7858 -0.0274
 8517SOL     OW37186   1.655   3.142   1.349 -0.0538  0.0896  0.7320
 8517SOL    HW137187   1.638   3.142   1.443 -1.0007  0.8258  0.5534
 8517SOL    HW237188   1.574   3.177   1.312 -0.2269 -1.2995 -0.1754
 8518SOL     OW37189   4.470   3.352   3.115  0.6778  0.1174 -0.2867
 8518SOL    HW137190   4.496   3.443   3.105  1.0530 -0.0084 -0.4528
 8518SOL    HW237191   4.385   3.348   3.071 -0.3514  3.0948  1.4191
 8519SOL     OW37192   1.558   3.965   8.822 -0.2135  0.3864 -0.9136
 8519SOL    HW137193   1.530   4.049   8.858  1.1140  0.3590  0.1985
 8519SOL    HW237194   1.652   3.968   8.843 -0.4017 -1.1487  0.2183
 8520SOL     OW37195   0.639   1.902   1.988  0.7253  0.1602  0.1932
 8520SOL    HW137196   0.622   1.840   1.916  2.0428  0.2981 -0.2534
 8520SOL    HW237197   0.596   1.866   2.065 -0.1639  0.4165 -0.1863
 8521SOL     OW37198   1.681   2.429  12.859  0.3878  0.1450 -0.1986
 8521SOL    HW137199   1.690   2.486  12.783 -1.4941  1.7199  0.7703
 8521SOL    HW237200   1.642   2.347  12.828 -2.1636  1.2032  0.2274
 8522SOL     OW37201   4.732   4.525  11.820  0.0962 -0.1088 -0.4096
 8522SOL    HW137202   0.090   4.535  11.801  0.2971  0.0408  0.6373
 8522SOL    HW237203   4.727   4.533  11.915 -1.1566 -0.5950 -0.4357
 8523SOL     OW37204   2.145   0.657   3.824  0.1133  0.4309 -0.2580
 8523SOL    HW137205   2.132   0.751   3.838  2.5383  1.0850 -2.3406
 8523SOL    HW237206   2.057   0.620   3.831  0.9985 -1.4069  1.1063
 8524SOL     OW37207   1.384   2.027   1.418  0.4956 -0.1968 -0.3666
 8524SOL    HW137208   1.463   1.993   1.462 -0.3039  0.9348  1.9393
 8524SOL    HW237209   1.362   1.956   1.358 -2.1082  0.4262 -0.1458
 8525SOL     OW37210   3.187   2.520   4.738  0.4145  0.0640 -0.3877
 8525SOL    HW137211   3.218   2.480   4.820 -0.4553  1.4029  0.5914
 8525SOL    HW237212   3.112   2.465   4.719  0.2429 -0.2696  1.2000
 8526SOL     OW37213   2.289   2.340  10.046 -0.0737 -0.0568 -0.1676
 8526SOL    HW137214   2.219   2.290  10.087 -1.2252  2.0060  0.3667
 8526SOL    HW237215   2.355   2.334  10.115  1.3352 -2.0824 -1.6938
 8527SOL     OW37216   0.190   1.722   2.412 -0.3170 -0.4652  0.2352
 8527SOL    HW137217   0.239   1.721   2.494  1.0163 -0.6353 -0.5677
 8527SOL    HW237218   0.099   1.710   2.439  0.5289 -0.4021  3.0770
 8528SOL     OW37219   4.513   0.810   5.348  0.0113  0.1517 -0.2853
 8528SOL    HW137220   4.548   0.738   5.295  0.8981  1.7558 -1.8548
 8528SOL    HW237221   4.590   0.866   5.357  0.8362 -0.7341 -1.7656
 8529SOL     OW37222   0.488   3.403   1.141 -0.3271  0.9304 -0.2946
 8529SOL    HW137223   0.499   3.325   1.088  0.0597  1.4923 -1.0295
 8529SOL    HW237224   0.543   3.389   1.218 -2.2075  1.7965  1.2175
 8530SOL     OW37225   3.272   0.705  12.461 -0.0825 -0.1520  0.4900
 8530SOL    HW137226   3.234   0.791  12.480 -0.3055 -0.4793  1.5089
 8530SOL    HW237227   3.366   0.722  12.458  0.1462 -1.4548  0.5627
 8531SOL     OW37228   2.670   1.109   5.546  0.3849  0.3947  0.3598
 8531SOL    HW137229   2.661   1.052   5.470  3.7495  0.3063  0.0494
 8531SOL    HW237230   2.614   1.179   5.513 -0.5036 -0.9739 -1.0138
 8532SOL     OW37231   1.304   0.367   3.136  0.4374 -0.5902 -0.2131
 8532SOL    HW137232   1.309   0.338   3.045 -0.8075  1.0378 -0.8107
 8532SOL    HW237233   1.308   0.281   3.177  0.3525  0.4929  2.0677
 8533SOL     OW37234   2.950   0.352  14.602  0.1793  0.0356  0.2102
 8533SOL    HW137235   2.975   0.436  14.641 -0.0668  2.5013 -4.9762
 8533SOL    HW237236   2.947   0.288  14.672  0.3461 -0.9022 -0.6448
 8534SOL     OW37237   0.201   4.396   7.083  0.3462  0.2269 -0.6839
 8534SOL    HW137238   0.212   4.485   7.048 -0.8771  0.4476 -0.4921
 8534SOL    HW237239   0.229   4.416   7.172  1.1839 -0.7041 -0.7428
 8535SOL     OW37240   1.353   4.489   5.722  0.1724  0.1660 -0.4311
 8535SOL    HW137241   1.344   4.582   5.742 -2.6687  0.0023 -1.0291
 8535SOL    HW237242   1.380   4.446   5.803 -0.0966 -2.5949 -1.7935
 8536SOL     OW37243   3.588   3.954   4.730 -0.0274  0.1420 -0.5597
 8536SOL    HW137244   3.563   3.930   4.641 -1.0881 -1.2347  0.1105
 8536SOL    HW237245   3.601   4.049   4.721  0.5951  0.2243  1.0747
 8537SOL     OW37246   2.235   3.601  17.617  0.0651 -0.1624 -0.1384
 8537SOL    HW137247   2.179   3.551  17.676 -0.9040 -0.0925 -0.9995
 8537SOL    HW237248   2.184   3.679  17.595  0.9405  0.8837  1.5271
 8538SOL     OW37249   1.018   2.432   2.390 -0.0291  0.7514  0.0829
 8538SOL    HW137250   0.981   2.521   2.387 -1.9670 -0.0746 -0.2459
 8538SOL    HW237251   0.959   2.390   2.453  0.8239  0.3264  0.5878
 8539SOL     OW37252   0.515   0.883   1.629  0.3410 -0.2709 -0.3407
 8539SOL    HW137253   0.572   0.812   1.599  0.5747 -0.6385  0.9482
 8539SOL    HW237254   0.500   0.932   1.548 -1.0324 -0.2862 -0.0997
 8540SOL     OW37255   2.580   2.887   9.338  0.1679  0.0406 -0.1418
 8540SOL    HW137256   2.612   2.830   9.268  1.8452 -1.6013  1.9797
 8540SOL    HW237257   2.539   2.825   9.398 -0.3869 -0.2211 -0.7858
 8541SOL     OW37258   0.818   2.326   1.498  0.1141 -0.3107  0.0024
 8541SOL    HW137259   0.897   2.312   1.446 -1.2706 -1.6490 -1.7664
 8541SOL    HW237260   0.763   2.366   1.431 -0.7445  0.1521  0.9828
 8542SOL     OW37261   0.622   1.645   9.439  0.4129 -0.1505  0.2788
 8542SOL    HW137262   0.545   1.652   9.495 -0.8460 -0.3586 -1.4566
 8542SOL    HW237263   0.617   1.725   9.386  1.8761 -0.6527 -0.6347
 8543SOL     OW37264   2.154   0.211   5.206 -0.4367  0.1470 -0.5757
 8543SOL    HW137265   2.189   0.199   5.118 -1.3561 -0.0654 -0.9155
 8543SOL    HW237266   2.070   0.165   5.203 -0.4420 -0.0278  1.9929
 8544SOL     OW37267   4.215   0.736  12.396  0.2516  0.7346 -0.3151
 8544SOL    HW137268   4.287   0.702  12.343 -0.2576  1.3050 -1.3776
 8544SOL    HW237269   4.143   0.687  12.355  0.0016  1.8187 -1.1628
 8545SOL     OW37270   2.916   2.999  13.477 -0.5055 -0.0587  0.0460
 8545SOL    HW137271   2.855   3.049  13.423 -0.3546 -1.0859 -1.0754
 8545SOL    HW237272   2.859   2.934  13.519 -1.1510  2.6832  3.3952
 8546SOL     OW37273   2.666   2.845   4.359  0.1480  0.0834  0.0507
 8546SOL    HW137274   2.706   2.781   4.420  0.3662  0.4832  0.3301
 8546SOL    HW237275   2.591   2.884   4.404  1.1960  2.8473 -0.6267
 8547SOL     OW37276   2.594   1.874   2.081  0.1985 -0.4368  0.2662
 8547SOL    HW137277   2.593   1.934   2.006 -0.7481  0.2656  0.8280
 8547SOL    HW237278   2.636   1.793   2.055  1.8558  1.3540 -2.6513
 8548SOL     OW37279   4.107   4.402   1.209  0.1147 -0.7829  0.7933
 8548SOL    HW137280   4.014   4.400   1.231 -0.3386  1.4046 -0.9218
 8548SOL    HW237281   4.135   4.406   1.301 -2.6010 -0.1325  1.5922
 8549SOL     OW37282   3.559   0.542   7.012  0.0511 -0.7535 -0.1352
 8549SOL    HW137283   3.513   0.561   7.094 -0.3732 -0.0095 -0.5398
 8549SOL    HW237284   3.537   0.451   6.990 -2.6085  0.0396 -0.7818
 8550SOL     OW37285   4.218   0.852   8.236  0.3200  0.6423  0.0023
 8550SOL    HW137286   4.146   0.841   8.297 -0.3258 -2.6808 -1.3721
 8550SOL    HW237287   4.289   0.812   8.286 -2.1505 -2.1813  1.2758
 8551SOL     OW37288   4.502   3.597   0.222 -1.0455  0.0487  0.0168
 8551SOL    HW137289   4.417   3.622   0.187 -1.2027 -1.1312 -0.4678
 8551SOL    HW237290   4.537   3.674   0.266  1.2046 -0.7565 -0.3379
 8552SOL     OW37291   3.597   1.303   7.774  0.2153  0.6222 -0.4186
 8552SOL    HW137292   3.681   1.320   7.817 -0.4886  1.5211  0.5897
 8552SOL    HW237293   3.618   1.303   7.680 -1.7472 -1.1762 -0.8297
 8553SOL     OW37294   1.022   2.648  15.363 -0.0074 -0.0696 -0.0079
 8553SOL    HW137295   0.982   2.683  15.284 -2.7413 -1.5255  0.7319
 8553SOL    HW237296   1.023   2.730  15.413 -0.6732  0.9620 -1.6796
 8554SOL     OW37297   4.389   1.036   9.101  0.0316  0.3969 -0.3550
 8554SOL    HW137298   4.473   1.039   9.055  0.2568  0.2991  0.0508
 8554SOL    HW237299   4.407   0.970   9.168 -3.0791  0.3141  0.3596
 8555SOL     OW37300   4.399   0.010   6.837  0.2950 -0.0543 -0.3884
 8555SOL    HW137301   4.307   0.031   6.855  0.4733 -0.2183  0.6814
 8555SOL    HW237302   4.387   4.652   6.816 -0.0758 -0.5321  1.9358
 8556SOL     OW37303   4.218   3.415   6.133  0.0805 -0.2791  0.4302
 8556SOL    HW137304   4.132   3.401   6.095 -1.2862 -0.0611  3.4180
 8556SOL    HW237305   4.258   3.333   6.105 -0.6353 -0.2339 -0.7307
 8557SOL     OW37306   0.095   1.573   4.115 -0.3729  0.3302 -0.4121
 8557SOL    HW137307   0.122   1.481   4.119  2.0152  1.0805  0.2822
 8557SOL    HW237308   0.134   1.604   4.196 -1.4432 -0.3877  0.3786
 8558SOL     OW37309   3.192   4.505   3.723  0.1082 -0.4641 -0.2776
 8558SOL    HW137310   3.107   4.512   3.680 -1.0492 -1.8101  1.8176
 8558SOL    HW237311   3.232   4.428   3.683  1.9839  0.5986 -0.4791
 8559SOL     OW37312   0.050   0.412   8.686 -0.0380 -0.2804 -0.4528
 8559SOL    HW137313   0.019   0.355   8.615  0.7125 -2.8664  1.2947
 8559SOL    HW237314   4.703   0.445   8.725  0.2428 -0.7358  0.5165
 8560SOL     OW37315   0.443   4.238  11.964 -0.0296 -0.0561 -0.4079
 8560SOL    HW137316   0.402   4.237  12.051  0.4581 -2.1693 -0.1854
 8560SOL    HW237317   0.378   4.249  11.895 -2.2727 -1.3764  1.5146
 8561SOL     OW37318   0.550   0.152   4.040  0.3283  0.2090  0.0474
 8561SOL    HW137319   0.604   0.170   4.117  2.3474  0.0957 -1.3553
 8561SOL    HW237320   0.613   0.138   3.969 -0.3587  0.2191 -0.5606
 8562SOL     OW37321   1.177   1.255   5.529 -0.1941 -0.1011 -0.1177
 8562SOL    HW137322   1.244   1.221   5.470 -1.0175 -0.1998 -0.9796
 8562SOL    HW237323   1.204   1.214   5.611 -1.5118  0.0331  0.3804
 8563SOL     OW37324   1.369   0.067   0.266 -0.2978  0.0927  0.2069
 8563SOL    HW137325   1.455   0.082   0.225 -0.5681  0.2812 -0.2907
 8563SOL    HW237326   1.347   0.159   0.283 -0.7214 -0.0105  0.2144
 8564SOL     OW37327   1.906   4.004   8.540 -0.3874  0.6203 -0.0329
 8564SOL    HW137328   1.837   3.941   8.559 -0.4773  0.0132 -2.4232
 8564SOL    HW237329   1.869   4.085   8.576  2.2502  1.8084 -0.0095
 8565SOL     OW37330   1.876   3.647   5.876 -0.1156 -0.3428 -0.3409
 8565SOL    HW137331   1.960   3.678   5.909 -0.0728 -0.6414 -0.1621
 8565SOL    HW237332   1.872   3.694   5.793  0.2086 -0.3716 -0.3712
 8566SOL     OW37333   4.060   0.851   1.127 -0.1976 -0.5254 -0.3522
 8566SOL    HW137334   4.114   0.907   1.182 -0.2958 -0.5645 -0.2176
 8566SOL    HW237335   4.099   0.767   1.150 -1.9572 -1.3601 -0.4481
 8567SOL     OW37336   0.697   3.685  15.960 -0.1704  0.0502  0.2397
 8567SOL    HW137337   0.714   3.728  15.876  0.3974  1.0604  0.8636
 8567SOL    HW237338   0.652   3.607  15.928 -0.1326  0.3616 -0.5635
 8568SOL     OW37339   3.496   2.322  11.163 -0.2277 -0.1149 -0.3379
 8568SOL    HW137340   3.446   2.399  11.134 -0.9972  0.1261  1.5894
 8568SOL    HW237341   3.535   2.369  11.236  2.5839 -3.6622  0.3903
 8569SOL     OW37342   3.160   0.076  15.547 -0.5038 -0.1727  0.1276
 8569SOL    HW137343   3.189   4.723  15.575 -4.2851 -0.7921  2.1503
 8569SOL    HW237344   3.236   0.132  15.563 -0.1917  0.2291 -2.7999
 8570SOL     OW37345   2.762   1.079   5.831 -0.3517 -0.2315  0.6841
 8570SOL    HW137346   2.744   1.082   5.737  0.7134  1.2930  0.5273
 8570SOL    HW237347   2.850   1.042   5.838  0.1600  1.2493  2.0623
 8571SOL     OW37348   1.177   3.620   6.773 -0.2185 -0.0096 -0.4651
 8571SOL    HW137349   1.252   3.622   6.714 -0.4929  0.5997 -0.7941
 8571SOL    HW237350   1.111   3.584   6.713  0.3080  1.4769 -1.9355
 8572SOL     OW37351   2.656   3.889  15.391  0.7438  0.4889  0.0296
 8572SOL    HW137352   2.601   3.816  15.420  0.2600  1.2748  1.0815
 8572SOL    HW237353   2.693   3.859  15.308 -1.6879 -0.3166 -0.7681
 8573SOL     OW37354   1.288   1.632  12.788 -0.0684  0.1842 -0.0083
 8573SOL    HW137355   1.277   1.658  12.696  1.1188  0.2351 -0.1358
 8573SOL    HW237356   1.354   1.563  12.794  0.7230  1.0877  1.5583
 8574SOL     OW37357   1.072   3.738  12.904 -0.2075  0.1123  0.2298
 8574SOL    HW137358   1.058   3.651  12.865 -0.3636  0.1343  0.2380
 8574SOL    HW237359   0.998   3.745  12.965 -0.4867  0.2663 -0.1275
 8575SOL     OW37360   2.993   4.120  13.785 -0.3853  0.1226  0.4237
 8575SOL    HW137361   2.937   4.069  13.844  1.4132 -1.4193  0.7611
 8575SOL    HW237362   3.033   4.191  13.835  1.1142 -0.7103  0.3838
 8576SOL     OW37363   4.088   2.762  16.986  0.1835  0.0980  0.1391
 8576SOL    HW137364   4.110   2.850  17.018  3.1069 -1.2599  1.9742
 8576SOL    HW237365   4.001   2.775  16.951 -0.2375 -1.3929  0.6125
 8577SOL     OW37366   4.726   4.256   7.241  1.1550 -0.3509 -0.0375
 8577SOL    HW137367   0.032   4.331   7.198 -1.1101  0.0105 -1.5783
 8577SOL    HW237368   4.649   4.231   7.189  1.2102  0.0181 -0.2974
 8578SOL     OW37369   2.457   3.457  13.497  0.0413 -0.8774 -0.2566
 8578SOL    HW137370   2.510   3.536  13.499 -1.0875 -0.1307  0.0384
 8578SOL    HW237371   2.383   3.482  13.441 -1.1869  1.3357  2.3505
 8579SOL     OW37372   2.935   1.968   8.653 -1.2892  0.1376  0.2611
 8579SOL    HW137373   2.936   1.939   8.562 -0.2704  0.1672  0.2629
 8579SOL    HW237374   2.942   1.884   8.699  0.0778  1.0833  1.8147
 8580SOL     OW37375   3.646   1.251   9.160 -0.6814 -0.3258 -0.4996
 8580SOL    HW137376   3.692   1.328   9.192 -3.0491  2.2500 -3.2584
 8580SOL    HW237377   3.624   1.213   9.245 -0.8358  1.3479  0.1943
 8581SOL     OW37378   0.551   1.863   2.657  0.2116  0.3664  0.0724
 8581SOL    HW137379   0.624   1.850   2.716 -0.9628 -2.2048  0.9387
 8581SOL    HW237380   0.562   1.958   2.652  1.5558  0.2201  0.3059
 8582SOL     OW37381   4.286   3.604   2.300 -0.5472 -0.3655  0.3410
 8582SOL    HW137382   4.204   3.557   2.319 -1.1116  0.1212 -0.8824
 8582SOL    HW237383   4.323   3.561   2.223  0.1927 -0.0812  0.5432
 8583SOL     OW37384   4.620   2.174   7.450  0.4184 -0.4261  0.0865
 8583SOL    HW137385   4.659   2.157   7.536 -0.1205 -0.1133  0.3940
 8583SOL    HW237386   4.541   2.217   7.484  0.0819 -1.6624  0.8391
 8584SOL     OW37387   3.135   3.965   3.106 -0.1031 -0.5098 -1.1513
 8584SOL    HW137388   3.187   3.889   3.079 -0.3153 -0.7027 -1.0130
 8584SOL    HW237389   3.082   3.960   3.026 -2.0445  0.6726  0.0805
 8585SOL     OW37390   0.566   2.133   5.356  0.5168  0.3742 -0.0719
 8585SOL    HW137391   0.652   2.109   5.322 -0.2879 -1.7885 -0.5713
 8585SOL    HW237392   0.570   2.229   5.353 -0.8366  0.5067  2.4100
 8586SOL     OW37393   3.453   2.151   2.218 -0.2090  0.7509  0.5538
 8586SOL    HW137394   3.396   2.217   2.178 -1.8615 -1.1067 -0.1625
 8586SOL    HW237395   3.459   2.187   2.307 -0.8044 -0.7478  1.2041
 8587SOL     OW37396   2.520   3.683   1.876 -0.0707 -0.0798 -0.0274
 8587SOL    HW137397   2.570   3.685   1.794  0.5386 -0.9769  0.3275
 8587SOL    HW237398   2.548   3.595   1.900  1.6134  0.7478  1.0208
 8588SOL     OW37399   2.851   3.357  17.043  0.5382 -0.4760 -0.1240
 8588SOL    HW137400   2.791   3.282  17.049 -0.5814  0.4091 -0.3732
 8588SOL    HW237401   2.809   3.426  17.094 -0.0898 -0.3547 -0.7984
 8589SOL     OW37402   1.202   4.731   2.790  0.4422 -0.1190 -0.5994
 8589SOL    HW137403   1.209   0.085   2.754  1.3769 -0.7585 -1.9834
 8589SOL    HW237404   1.145   4.682   2.731 -0.7643 -0.3082  0.7072
 8590SOL     OW37405   4.218   0.808  13.193 -0.5515  0.7502 -0.0643
 8590SOL    HW137406   4.203   0.896  13.228  0.2320  0.5760  0.7088
 8590SOL    HW237407   4.126   0.780  13.189 -0.4064  0.1793  0.5294
 8591SOL     OW37408   2.592   4.670  10.150 -0.1845  0.0217  0.1911
 8591SOL    HW137409   2.527   0.002  10.172  0.9709  0.9768  0.6840
 8591SOL    HW237410   2.552   4.589  10.182 -0.5892 -1.1951 -3.4451
 8592SOL     OW37411   3.465   2.998   1.315  0.5605  0.7211 -0.3354
 8592SOL    HW137412   3.519   2.927   1.350 -0.5247  0.0914  0.0606
 8592SOL    HW237413   3.393   2.988   1.377  1.1969  0.1026  0.3167
 8593SOL     OW37414   3.724   0.283   7.954  0.2061 -0.1051 -0.8151
 8593SOL    HW137415   3.798   0.231   7.984  1.7021  2.8091  0.5098
 8593SOL    HW237416   3.654   0.218   7.960  0.4284 -0.2206  0.3775
 8594SOL     OW37417   4.470   1.297   2.849 -0.1780  0.1737 -0.4299
 8594SOL    HW137418   4.437   1.302   2.939  1.6623  1.6199  0.1666
 8594SOL    HW237419   4.541   1.361   2.858 -1.6646  2.0255 -1.8597
 8595SOL     OW37420   3.310   3.188   8.296 -0.7220 -0.0180 -0.2873
 8595SOL    HW137421   3.311   3.182   8.200  1.5434  2.3687 -0.3980
 8595SOL    HW237422   3.223   3.159   8.324 -1.4959 -0.0672 -2.7109
 8596SOL     OW37423   2.914   3.081   6.257  0.2413  0.2644 -0.6745
 8596SOL    HW137424   2.834   3.132   6.266 -0.6861 -1.4970  0.9053
 8596SOL    HW237425   2.961   3.123   6.184 -0.6119  1.6114 -0.4542
 8597SOL     OW37426   0.476   2.641   6.257  0.3544  0.6842 -0.6147
 8597SOL    HW137427   0.454   2.671   6.169 -2.3901 -1.4557 -0.6666
 8597SOL    HW237428   0.499   2.721   6.305  0.5968  0.6483 -0.6731
 8598SOL     OW37429   4.128   3.309  14.599  0.9717 -0.4239 -0.9098
 8598SOL    HW137430   4.159   3.395  14.568 -1.6435 -0.4743 -3.6691
 8598SOL    HW237431   4.206   3.257  14.582  0.7748 -0.8521 -0.4964
 8599SOL     OW37432   4.654   2.392  15.591 -1.1116 -0.6337  0.4831
 8599SOL    HW137433   4.643   2.335  15.515  1.1693 -0.7852  0.2374
 8599SOL    HW237434   4.694   2.331  15.653 -0.7724  0.8278  1.6896
 8600SOL     OW37435   3.399   0.261   1.593  0.0902 -0.0104 -0.2181
 8600SOL    HW137436   3.469   0.273   1.529  0.2378  2.5747  0.4260
 8600SOL    HW237437   3.403   0.344   1.641 -1.7488  0.6858 -1.2656
 8601SOL     OW37438   3.585   1.489   7.373  0.0677  0.0679 -0.9874
 8601SOL    HW137439   3.562   1.579   7.353  1.3489  0.8447  0.9999
 8601SOL    HW237440   3.532   1.433   7.316  1.3009 -0.1233 -1.9286
 8602SOL     OW37441   4.412   4.093   5.156 -0.1129  0.0368  0.3251
 8602SOL    HW137442   4.325   4.133   5.152  1.7020  3.9880  0.1519
 8602SOL    HW237443   4.427   4.106   5.250 -0.2370 -1.3400  0.5327
 8603SOL     OW37444   2.441   4.727  11.890  0.4627 -0.1597  0.2054
 8603SOL    HW137445   2.474   0.002  11.801  1.3981 -1.5497  0.3988
 8603SOL    HW237446   2.503   0.046  11.938 -0.1437 -0.7364  1.6334
 8604SOL     OW37447   3.158   3.843   9.363  0.2480 -0.4870 -0.6120
 8604SOL    HW137448   3.243   3.886   9.364  0.5147 -1.0369 -0.1822
 8604SOL    HW237449   3.180   3.750   9.358  0.0066 -0.5792  0.1666
 8605SOL     OW37450   4.277   2.458   2.231  0.0574 -0.1869 -0.0552
 8605SOL    HW137451   4.273   2.551   2.250  0.8134 -0.2135  0.2486
 8605SOL    HW237452   4.220   2.444   2.155  0.2135 -0.8892 -0.0465
 8606SOL     OW37453   0.288   1.605   8.017 -0.1499 -0.5164 -0.4313
 8606SOL    HW137454   0.266   1.555   7.938 -0.7901 -0.7919 -0.0732
 8606SOL    HW237455   0.223   1.674   8.003  0.8418  0.5924  0.4252
 8607SOL     OW37456   3.512   1.399   5.556  0.0551  0.0974 -0.1538
 8607SOL    HW137457   3.421   1.386   5.581  1.1098 -2.2821  2.4136
 8607SOL    HW237458   3.500   1.417   5.462 -0.3206  2.7366  0.4026
 8608SOL     OW37459   0.735   2.459   7.478 -0.5375  0.4917  0.5579
 8608SOL    HW137460   0.677   2.513   7.530 -0.2529  0.5583  0.8055
 8608SOL    HW237461   0.687   2.379   7.458  2.2047 -1.1915  0.7310
 8609SOL     OW37462   2.289   4.086   5.335  0.1146 -0.7610 -0.3749
 8609SOL    HW137463   2.280   4.102   5.241  0.4304  0.7804 -0.1411
 8609SOL    HW237464   2.224   4.018   5.353  1.1067 -1.7818 -0.6402
 8610SOL     OW37465   2.706   3.187   4.580 -0.2129  0.1642 -0.0690
 8610SOL    HW137466   2.635   3.127   4.558 -1.9099  2.2170 -0.2525
 8610SOL    HW237467   2.683   3.253   4.514  0.0855 -0.5411 -0.8833
 8611SOL     OW37468   1.993   3.640   6.481  0.0102 -0.8332 -0.5505
 8611SOL    HW137469   1.951   3.682   6.556 -1.3999 -1.2113 -1.1331
 8611SOL    HW237470   2.087   3.636   6.498 -0.4907 -0.1876  2.3133
 8612SOL     OW37471   1.317   1.909   3.624  0.5623 -0.1854  0.6511
 8612SOL    HW137472   1.284   1.934   3.710 -0.9418  0.0163  0.0118
 8612SOL    HW237473   1.234   1.901   3.578  2.1961 -0.9208 -2.1626
 8613SOL     OW37474   4.002   2.016   7.778 -0.0021 -0.5778  0.2319
 8613SOL    HW137475   4.058   2.031   7.702  0.1036 -0.2296  0.3808
 8613SOL    HW237476   4.055   1.956   7.831 -0.0879 -0.7585  0.1155
 8614SOL     OW37477   2.275   2.477   3.889  0.7755 -0.2279 -0.2393
 8614SOL    HW137478   2.331   2.405   3.919  2.6020  0.8373 -1.0848
 8614SOL    HW237479   2.328   2.522   3.823  0.7833  0.3898  0.1824
 8615SOL     OW37480   2.150   3.117   8.671  0.4056  0.4536  0.6297
 8615SOL    HW137481   2.226   3.154   8.626 -1.3345  2.1177 -0.9002
 8615SOL    HW237482   2.197   3.061   8.734 -0.9597 -1.5932 -0.1764
 8616SOL     OW37483   3.262   2.601   5.760 -0.2191 -0.4433  0.3727
 8616SOL    HW137484   3.243   2.507   5.761  0.2060 -0.5275  0.6626
 8616SOL    HW237485   3.206   2.632   5.689  0.1622  0.8475  0.6490
 8617SOL     OW37486   4.261   4.449   3.143  0.2446 -0.2271 -0.1202
 8617SOL    HW137487   4.353   4.477   3.140  0.2044  0.0150  0.9932
 8617SOL    HW237488   4.246   4.437   3.237  1.2287 -0.3377  0.0341
 8618SOL     OW37489   2.437   3.149  11.225  0.2590  0.1541  0.3304
 8618SOL    HW137490   2.360   3.094  11.210  0.9077  0.0908 -2.6896
 8618SOL    HW237491   2.399   3.220  11.277  0.6059  0.0331  0.7536
 8619SOL     OW37492   3.204   0.126  12.035  0.1038 -0.2763  0.3272
 8619SOL    HW137493   3.175   0.192  11.971  0.2147  2.3167  2.9381
 8619SOL    HW237494   3.197   0.051  11.976  1.6312  0.9387 -1.3968
 8620SOL     OW37495   2.964   0.337  15.674  0.4434  0.2609 -0.5209
 8620SOL    HW137496   2.919   0.254  15.656 -0.0174  0.1177  1.2340
 8620SOL    HW237497   2.912   0.400  15.625  0.5954  1.0715  0.3564
 8621SOL     OW37498   3.922   1.489   2.095 -0.4467  0.0650  0.3820
 8621SOL    HW137499   3.870   1.562   2.061 -0.1463  0.0720 -0.0614
 8621SOL    HW237500   3.996   1.494   2.035  0.0259 -1.8883  0.8236
 8622SOL     OW37501   1.771   1.374   2.134 -0.6094  0.2642  0.4043
 8622SOL    HW137502   1.714   1.450   2.149 -0.5687  0.1844  0.9717
 8622SOL    HW237503   1.843   1.419   2.090 -1.4733  2.0537  0.8299
 8623SOL     OW37504   2.363   3.662  12.163 -0.2475  0.3426 -0.2930
 8623SOL    HW137505   2.317   3.723  12.221  0.3644  0.2478  0.2971
 8623SOL    HW237506   2.317   3.684  12.082  0.7239  0.3784 -0.8313
 8624SOL     OW37507   1.247   3.890  12.758  0.3479  0.4437 -0.0898
 8624SOL    HW137508   1.167   3.844  12.785  1.0947 -0.7101  0.1498
 8624SOL    HW237509   1.312   3.822  12.742 -1.6843 -1.6086  0.3151
 8625SOL     OW37510   2.960   3.274   8.018 -0.6497 -0.4054  0.0865
 8625SOL    HW137511   2.925   3.207   8.077  4.1575 -0.8162  2.4215
 8625SOL    HW237512   2.928   3.352   8.064  2.0838  0.7681 -0.0395
 8626SOL     OW37513   3.448   3.477   9.787 -0.4215 -0.6537  0.5196
 8626SOL    HW137514   3.428   3.531   9.863  0.5400 -1.2939  1.2338
 8626SOL    HW237515   3.456   3.399   9.842  1.3419  0.1454  1.4019
 8627SOL     OW37516   2.408   2.917   8.354 -0.0521  0.2069  0.1279
 8627SOL    HW137517   2.356   2.848   8.314 -0.0512  1.6065 -2.3286
 8627SOL    HW237518   2.480   2.858   8.378 -1.5184 -1.2179  0.9752
 8628SOL     OW37519   1.780   0.200   0.472  0.4620  0.5338 -0.4999
 8628SOL    HW137520   1.814   0.139   0.406  0.2500 -0.5422  0.3896
 8628SOL    HW237521   1.695   0.164   0.498  0.2860  1.9261  0.8613
 8629SOL     OW37522   2.320   1.739  13.663 -0.0802 -0.4336  0.5919
 8629SOL    HW137523   2.257   1.669  13.680 -1.9034  1.0770  0.0504
 8629SOL    HW237524   2.298   1.764  13.574 -3.5466  1.6122  2.0238
 8630SOL     OW37525   0.244   2.755   4.272  0.1776  0.4631 -0.2472
 8630SOL    HW137526   0.309   2.719   4.213 -0.4837 -2.5315  0.8386
 8630SOL    HW237527   0.296   2.781   4.349  0.1727 -1.3509  0.3531
 8631SOL     OW37528   2.466   0.299  15.827  0.0038  0.2274  0.6199
 8631SOL    HW137529   2.420   0.282  15.909 -1.9938 -1.0697 -0.7496
 8631SOL    HW237530   2.476   0.209  15.794  1.1156 -0.0073  1.5870
 8632SOL     OW37531   0.579   2.561  14.781  0.8610 -0.8893 -0.1948
 8632SOL    HW137532   0.550   2.639  14.829  0.3310 -2.3368  1.8528
 8632SOL    HW237533   0.547   2.573  14.692 -2.5463 -0.3379  1.1198
 8633SOL     OW37534   4.328   3.171   7.977  0.1611 -0.0890 -0.2416
 8633SOL    HW137535   4.324   3.169   7.882  0.3797  0.8694 -0.2670
 8633SOL    HW237536   4.376   3.090   7.992  2.4837  0.9521 -1.9891
 8634SOL     OW37537   4.607   4.628   5.969 -0.0466 -0.3195  0.1898
 8634SOL    HW137538   4.648   4.709   5.939 -2.2167  0.1685 -1.4309
 8634SOL    HW237539   4.580   4.646   6.059  1.6259  0.6797  0.4956
 8635SOL     OW37540   0.958   1.772   6.671 -0.2982  0.4707 -0.1937
 8635SOL    HW137541   0.911   1.799   6.592 -0.6953  2.0594  0.5790
 8635SOL    HW237542   1.049   1.788   6.649 -0.2892  1.0989  0.3105
 8636SOL     OW37543   1.138   0.711  10.105  0.4209  0.4826 -0.3408
 8636SOL    HW137544   1.231   0.692  10.116 -0.0067 -0.9408  0.8755
 8636SOL    HW237545   1.120   0.695  10.198  1.4746 -0.4689 -0.3020
 8637SOL     OW37546   4.144   2.621  17.690 -0.5408 -0.2913 -0.4750
 8637SOL    HW137547   4.155   2.714  17.671 -1.3330 -0.1794 -0.3950
 8637SOL    HW237548   4.051   2.610  17.667 -0.1501 -1.5901 -1.4464
 8638SOL     OW37549   4.727   4.537   3.730  0.7733 -0.2609 -0.0980
 8638SOL    HW137550   4.653   4.527   3.670 -1.6014  0.2541  2.7227
 8638SOL    HW237551   0.030   4.620   3.701 -1.6238  0.6008 -0.7788
 8639SOL     OW37552   4.699   0.559   2.110 -0.3431 -0.0723  0.0126
 8639SOL    HW137553   4.633   0.565   2.040  0.3878  0.8935 -0.5943
 8639SOL    HW237554   0.019   0.500   2.058  0.1922  2.0939 -1.8891
 8640SOL     OW37555   2.028   0.860   2.097  0.1785 -0.2144  0.1884
 8640SOL    HW137556   1.968   0.928   2.127  1.4003  1.0302 -0.2016
 8640SOL    HW237557   2.099   0.912   2.058  0.3889 -2.3833 -2.3372
 8641SOL     OW37558   3.240   3.017   3.701  0.2577  0.0298 -0.1332
 8641SOL    HW137559   3.263   2.940   3.754 -2.4130  1.9690  3.8930
 8641SOL    HW237560   3.330   3.043   3.682  0.5327 -1.3558 -0.7504
 8642SOL     OW37561   1.013   2.775   7.131 -0.2923 -0.0384  0.3423
 8642SOL    HW137562   0.994   2.717   7.057  2.1954 -0.1925 -0.1657
 8642SOL    HW237563   0.970   2.735   7.207 -0.5882  0.9311  0.6766
 8643SOL     OW37564   1.608   0.620   9.653 -0.3234 -0.5151 -0.2618
 8643SOL    HW137565   1.590   0.595   9.562  2.5064  0.3038 -1.0626
 8643SOL    HW237566   1.694   0.579   9.660  0.1556  1.0248  2.8796
 8644SOL     OW37567   1.928   1.813   4.083  0.1649 -0.0257 -0.3166
 8644SOL    HW137568   1.948   1.747   4.016  0.5384 -0.5781  0.3400
 8644SOL    HW237569   1.955   1.894   4.039  0.9167  0.6837  1.4672
 8645SOL     OW37570   2.359   2.951   7.459  0.4332  0.1790 -0.0964
 8645SOL    HW137571   2.450   2.927   7.475  0.3083 -0.1608  0.0923
 8645SOL    HW237572   2.363   3.017   7.389  1.2349  0.3952  0.1529
 8646SOL     OW37573   1.757   3.403  17.078  0.3337 -0.0029 -0.4244
 8646SOL    HW137574   1.766   3.476  17.139  0.1748 -0.4689  0.1625
 8646SOL    HW237575   1.784   3.441  16.994  1.7131  1.9457  0.9148
 8647SOL     OW37576   0.986   0.301   2.462  0.4968 -0.7204 -0.6962
 8647SOL    HW137577   0.923   0.325   2.394  0.8229  2.7544  0.2128
 8647SOL    HW237578   0.989   0.376   2.521  1.4479  0.3472 -2.0763
 8648SOL     OW37579   1.489   2.209   7.980 -0.5472  0.3255  0.2512
 8648SOL    HW137580   1.483   2.118   7.951  0.0761  0.9689 -1.9034
 8648SOL    HW237581   1.585   2.215   7.981 -0.5472  0.3512  0.0474
 8649SOL     OW37582   0.158   1.949  14.132  0.6505 -0.6513 -0.1048
 8649SOL    HW137583   0.067   1.964  14.105  1.1801  1.0369 -0.9929
 8649SOL    HW237584   0.154   1.942  14.227  0.1093  0.8479 -0.0096
 8650SOL     OW37585   4.358   1.389   9.595 -0.1728 -0.2562  0.1007
 8650SOL    HW137586   4.323   1.306   9.628 -2.0889  0.1972 -0.7657
 8650SOL    HW237587   4.368   1.360   9.504  1.3432 -2.2503  0.9016
 8651SOL     OW37588   2.914   1.713   9.288  0.5505 -0.4623  0.3080
 8651SOL    HW137589   2.997   1.680   9.255  1.2343  1.4281  0.1420
 8651SOL    HW237590   2.857   1.721   9.211 -0.2198 -2.6353  0.6599
 8652SOL     OW37591   2.473   4.093   6.055 -0.9696  0.1511 -0.5948
 8652SOL    HW137592   2.465   4.047   6.139 -0.8283 -2.5256 -2.0795
 8652SOL    HW237593   2.533   4.039   6.004  0.8870  1.2716  0.3969
 8653SOL     OW37594   4.023   4.662   3.227  0.4096  0.2361  0.4619
 8653SOL    HW137595   4.068   4.699   3.302 -0.2550  0.6355  0.6591
 8653SOL    HW237596   3.945   4.628   3.271  0.7824 -1.6761 -0.3265
 8654SOL     OW37597   1.525   2.257   7.463 -0.7631  0.2587  0.1266
 8654SOL    HW137598   1.491   2.310   7.390  1.0346  0.0126 -0.9031
 8654SOL    HW237599   1.459   2.188   7.464 -0.6994  0.1658 -1.0682
 8655SOL     OW37600   1.163   2.839   3.953  0.0513  0.1708  0.3033
 8655SOL    HW137601   1.163   2.790   3.871  2.6972  3.3252 -1.5926
 8655SOL    HW237602   1.244   2.807   3.993  0.6765  1.3746  0.0055
 8656SOL     OW37603   0.644   3.988  12.593 -0.4752 -0.1549 -0.4186
 8656SOL    HW137604   0.728   3.971  12.552 -0.2628 -0.9301  0.3540
 8656SOL    HW237605   0.659   3.948  12.679  2.7769  0.7752 -0.5730
 8657SOL     OW37606   4.534   0.698   2.302 -0.0950 -0.3621 -0.2581
 8657SOL    HW137607   4.590   0.668   2.230 -0.1981 -0.2323 -0.3944
 8657SOL    HW237608   4.530   0.793   2.292  0.7138 -0.4290 -1.2196
 8658SOL     OW37609   2.744   3.773   5.138 -0.1645 -0.2495 -0.1674
 8658SOL    HW137610   2.718   3.684   5.159  0.2387  0.3186  2.8362
 8658SOL    HW237611   2.656   3.812   5.134  0.2477  0.4435 -2.0293
 8659SOL     OW37612   4.134   2.581   0.442 -0.4121 -0.0978  0.2113
 8659SOL    HW137613   4.106   2.607   0.530  0.9521 -2.4540  1.3660
 8659SOL    HW237614   4.190   2.505   0.462  1.6234  1.8856  2.0942
 8660SOL     OW37615   4.366   0.038   2.593  0.1305  0.2815  0.2494
 8660SOL    HW137616   4.299   0.104   2.572 -2.6167 -2.3518  0.6969
 8660SOL    HW237617   4.353   4.702   2.530  1.7989  0.5640 -0.4131
 8661SOL     OW37618   4.138   0.330   9.108 -0.3078  0.0103  0.6506
 8661SOL    HW137619   4.078   0.328   9.034  1.3230 -1.3657 -0.6367
 8661SOL    HW237620   4.113   0.409   9.156 -0.3437 -0.5767  1.5965
 8662SOL     OW37621   3.890   3.934   3.904  0.5889  0.0193  0.3732
 8662SOL    HW137622   3.856   3.862   3.851  1.0620  0.9877 -1.2707
 8662SOL    HW237623   3.803   3.954   3.940  0.5168  2.4431 -1.1083
 8663SOL     OW37624   4.153   2.663   3.987 -0.2009 -0.5908  0.0443
 8663SOL    HW137625   4.094   2.725   3.945 -0.9871 -1.5187 -0.2131
 8663SOL    HW237626   4.138   2.689   4.078 -1.7808 -2.2415  0.2419
 8664SOL     OW37627   0.235   1.984   5.816 -0.6837  0.2872 -0.0845
 8664SOL    HW137628   0.282   1.986   5.900 -1.0306 -0.4328  0.1238
 8664SOL    HW237629   0.282   2.054   5.772 -1.6428  1.4960  0.8163
 8665SOL     OW37630   1.656   3.992  16.189  0.3797 -0.5452  0.1207
 8665SOL    HW137631   1.681   4.084  16.190 -1.5402 -0.0063 -1.0495
 8665SOL    HW237632   1.719   3.954  16.251 -0.5777 -0.4714  1.1391
 8666SOL     OW37633   3.539   0.531  17.176  0.3189  0.8135 -0.4586
 8666SOL    HW137634   3.506   0.460  17.232  0.7308  0.0935 -1.1344
 8666SOL    HW237635   3.467   0.591  17.161  0.1694  0.6265 -0.4927
 8667SOL     OW37636   2.281   0.488   5.408  0.3241  0.4713 -0.0709
 8667SOL    HW137637   2.303   0.580   5.417  0.9311  0.0482  2.6147
 8667SOL    HW237638   2.199   0.486   5.457  0.5735 -0.2515  0.3141
 8668SOL     OW37639   4.627   3.107   5.442  0.2560  0.1795  0.2132
 8668SOL    HW137640   4.556   3.143   5.494  1.8989  0.5381  2.1851
 8668SOL    HW237641   4.708   3.144   5.477  1.1670 -1.6936  0.1116
 8669SOL     OW37642   0.196   2.806  13.072  0.3739  0.2403 -0.2123
 8669SOL    HW137643   0.240   2.891  13.064 -0.7213  0.6208 -2.2090
 8669SOL    HW237644   0.192   2.790  13.166 -2.6916  0.8902 -0.2318
 8670SOL     OW37645   3.739   1.723   2.348 -0.1666  0.6388 -0.0875
 8670SOL    HW137646   3.699   1.636   2.342  1.1267  0.0213  0.2882
 8670SOL    HW237647   3.661   1.777   2.336 -0.7964  0.0048  1.1005
 8671SOL     OW37648   3.728   1.746  11.335 -0.4631  0.3207 -0.1837
 8671SOL    HW137649   3.683   1.796  11.403  1.4541  2.3348 -0.3953
 8671SOL    HW237650   3.704   1.658  11.363 -0.7257  1.0296  1.8237
 8672SOL     OW37651   2.605   4.470   5.382  0.0054 -0.1982  0.2275
 8672SOL    HW137652   2.559   4.397   5.340  1.2355 -0.4325 -0.6776
 8672SOL    HW237653   2.652   4.416   5.446  0.8324  2.6317  2.0416
 8673SOL     OW37654   3.525   2.935   4.312 -0.1849  0.5258  0.5713
 8673SOL    HW137655   3.453   2.878   4.339  1.5044 -1.9745 -0.2755
 8673SOL    HW237656   3.551   2.890   4.232 -2.9910  0.0268 -0.0892
 8674SOL     OW37657   4.647   0.302   7.782 -0.0606  0.1171  0.0118
 8674SOL    HW137658   4.594   0.381   7.794 -0.3114 -0.2078  1.0433
 8674SOL    HW237659   4.722   0.328   7.836  0.2101  1.7556 -1.1686
 8675SOL     OW37660   3.726   1.243   4.649  0.0292 -0.1295  0.0094
 8675SOL    HW137661   3.721   1.187   4.571 -1.6102 -0.1063  0.0988
 8675SOL    HW237662   3.782   1.194   4.708 -2.0898 -0.7807  1.4648
 8676SOL     OW37663   3.610   0.977   2.183 -0.2089 -0.0287 -0.1011
 8676SOL    HW137664   3.559   1.034   2.242 -0.0551  0.2972 -0.2843
 8676SOL    HW237665   3.691   1.023   2.160  0.8227 -1.9677 -0.3633
 8677SOL     OW37666   3.482   2.706   2.975 -0.6670 -0.0371 -0.2478
 8677SOL    HW137667   3.440   2.649   2.910 -0.2530 -1.6957  0.9514
 8677SOL    HW237668   3.571   2.670   2.978  0.1612  2.1300  0.7303
 8678SOL     OW37669   2.108   3.799   2.175  0.0358  0.1425  0.0629
 8678SOL    HW137670   2.157   3.872   2.213 -2.9295  2.3844 -0.5323
 8678SOL    HW237671   2.082   3.828   2.088  1.4070  1.4586  0.0834
 8679SOL     OW37672   0.752   0.186   0.797 -0.2511  0.7387 -0.0926
 8679SOL    HW137673   0.720   0.210   0.884 -0.0770 -0.0703  0.1975
 8679SOL    HW237674   0.848   0.184   0.801 -0.3663 -2.8577  1.4300
 8680SOL     OW37675   2.592   0.271   1.119 -0.4031 -0.5327  0.0130
 8680SOL    HW137676   2.620   0.181   1.104  1.4186  0.0597 -0.0717
 8680SOL    HW237677   2.669   0.316   1.154 -0.0282 -0.8249 -0.4525
 8681SOL     OW37678   0.733   3.275   5.665  0.8904 -0.8108  0.1729
 8681SOL    HW137679   0.796   3.313   5.605 -1.2689 -0.5974 -1.9654
 8681SOL    HW237680   0.749   3.319   5.748  2.2973 -0.5138 -0.2716
 8682SOL     OW37681   1.584   0.776  14.645  0.2665  0.0751  0.2913
 8682SOL    HW137682   1.541   0.814  14.721  2.2901  0.4099  1.2598
 8682SOL    HW237683   1.614   0.693  14.681  3.0403  0.5716 -0.9136
 8683SOL     OW37684   3.316   4.141   2.768 -0.5221 -0.5458 -0.4950
 8683SOL    HW137685   3.306   4.069   2.707 -0.1386 -0.5599 -0.5440
 8683SOL    HW237686   3.340   4.100   2.852 -0.0666  0.6856 -0.0231
 8684SOL     OW37687   0.682   1.949   7.288  0.2206 -0.0683  0.1392
 8684SOL    HW137688   0.707   1.881   7.226  0.8364  0.8599 -0.6274
 8684SOL    HW237689   0.737   1.923   7.362  0.3173  0.2174  0.1683
 8685SOL     OW37690   3.730   3.387   9.767 -0.4562 -0.3019  0.6375
 8685SOL    HW137691   3.731   3.416   9.859 -0.3336  0.5736  0.3654
 8685SOL    HW237692   3.649   3.429   9.739 -0.7488 -0.8830  0.6344
 8686SOL     OW37693   0.392   0.487  13.208 -0.4268 -0.5486  0.0196
 8686SOL    HW137694   0.429   0.450  13.288 -0.9835  1.1530  1.0583
 8686SOL    HW237695   0.473   0.511  13.162  1.3133 -0.8363  2.8894
 8687SOL     OW37696   2.728   1.562  16.049 -0.7098 -0.1713  0.6050
 8687SOL    HW137697   2.734   1.642  16.101 -0.4535 -0.9479  1.7550
 8687SOL    HW237698   2.684   1.602  15.973  2.4363 -2.1534 -2.2237
 8688SOL     OW37699   4.598   1.935   4.236  0.4628 -0.1783  0.7233
 8688SOL    HW137700   4.639   1.860   4.192  1.2309  1.2375 -0.9698
 8688SOL    HW237701   4.511   1.949   4.200  1.2334  0.5938 -0.8365
 8689SOL     OW37702   0.479   3.388   7.525  0.6756  0.1268  0.2011
 8689SOL    HW137703   0.397   3.367   7.571  0.4296  2.5025  0.8183
 8689SOL    HW237704   0.537   3.354   7.594 -0.2136 -1.5732  0.1205
 8690SOL     OW37705   0.629   1.484  15.311  0.4917  0.3635  0.6306
 8690SOL    HW137706   0.561   1.425  15.341 -0.8862 -0.1944 -3.4964
 8690SOL    HW237707   0.608   1.565  15.356  0.2405  0.1904  0.8228
 8691SOL     OW37708   2.660   1.213   6.661 -0.1768  0.1219  0.6199
 8691SOL    HW137709   2.617   1.221   6.746 -2.0055  0.3296 -0.3296
 8691SOL    HW237710   2.679   1.306   6.644  1.9122 -0.2270  0.9524
 8692SOL     OW37711   4.390   2.251   2.137  0.0367  0.5488 -0.1528
 8692SOL    HW137712   4.343   2.322   2.180 -1.4177  0.6440 -1.8627
 8692SOL    HW237713   4.478   2.283   2.155 -1.0054  2.2471  1.9876
 8693SOL     OW37714   1.875   4.721   3.786  0.2762 -0.0410 -0.0254
 8693SOL    HW137715   1.901   4.724   3.693 -1.5783  0.3696 -0.5335
 8693SOL    HW237716   1.800   4.662   3.781 -2.0103  2.7161  1.7244
 8694SOL     OW37717   2.734   1.380   5.912  0.4396  0.0488 -0.1553
 8694SOL    HW137718   2.736   1.357   6.005  3.1087  1.9169  0.2694
 8694SOL    HW237719   2.715   1.293   5.879  1.4924 -0.5434  0.7901
 8695SOL     OW37720   0.457   3.596   7.353  0.0421  0.2102 -0.2654
 8695SOL    HW137721   0.538   3.580   7.305  0.6409 -2.2390  1.5603
 8695SOL    HW237722   0.465   3.531   7.423 -0.8356  1.4708  1.0217
 8696SOL     OW37723   4.017   1.037   8.694  0.9392 -0.0608  0.1391
 8696SOL    HW137724   4.025   1.042   8.789  0.0370 -1.5890  0.2989
 8696SOL    HW237725   4.101   1.005   8.661  1.5328 -0.5461  2.1186
 8697SOL     OW37726   4.255   3.511  10.654 -0.1338  0.4489  0.4731
 8697SOL    HW137727   4.296   3.527  10.739 -0.5019 -0.7626  0.8803
 8697SOL    HW237728   4.188   3.444  10.670 -2.3050  2.4053 -0.2959
 8698SOL     OW37729   4.290   4.705  15.507 -0.3496  0.2755 -0.0682
 8698SOL    HW137730   4.330   4.634  15.457 -0.6633  1.3464 -1.8033
 8698SOL    HW237731   4.363   4.718  15.568 -1.0309 -0.1821  0.8584
 8699SOL     OW37732   3.611   3.682  13.424 -0.2843  0.0246  0.8064
 8699SOL    HW137733   3.637   3.692  13.516  3.9349 -2.0941 -0.1495
 8699SOL    HW237734   3.636   3.590  13.417 -1.7321 -0.3393  0.5481
 8700SOL     OW37735   4.544   4.161   3.456  0.5060 -0.8815 -0.0446
 8700SOL    HW137736   4.636   4.188   3.453  0.6587 -1.2504  1.3488
 8700SOL    HW237737   4.505   4.199   3.377  0.5408 -0.7683 -0.0080
 8701SOL     OW37738   3.452   0.623   4.279 -0.3334 -0.3177  0.1636
 8701SOL    HW137739   3.381   0.683   4.299 -0.7144 -1.2513  1.5717
 8701SOL    HW237740   3.428   0.554   4.341  1.3893 -0.2680  0.8798
 8702SOL     OW37741   4.522   1.719   8.177 -0.4982 -0.3399 -0.4478
 8702SOL    HW137742   4.584   1.733   8.248  0.6410 -1.9834 -1.0947
 8702SOL    HW237743   4.468   1.650   8.216 -0.5736 -0.5510 -0.9215
 8703SOL     OW37744   4.326   1.670  11.699 -0.2910 -0.5662 -0.2227
 8703SOL    HW137745   4.411   1.711  11.684 -1.3243  1.2495 -1.0813
 8703SOL    HW237746   4.293   1.650  11.612  0.7009 -0.0739 -0.7041
 8704SOL     OW37747   1.108   3.422   3.050  0.6752 -0.2004 -0.6599
 8704SOL    HW137748   1.095   3.479   3.126 -0.4578 -0.0043 -1.0029
 8704SOL    HW237749   1.154   3.345   3.084  1.3674  0.3759 -0.3122
 8705SOL     OW37750   4.488   1.417   7.950 -0.0185  0.1659 -0.2215
 8705SOL    HW137751   4.408   1.365   7.943  0.4172 -0.0698 -3.5196
 8705SOL    HW237752   4.549   1.346   7.970 -1.2017  0.0448  3.0783
 8706SOL     OW37753   0.184   4.100   6.019  0.7525  0.0579 -0.0132
 8706SOL    HW137754   0.095   4.133   6.017  0.2907 -1.1412  0.4371
 8706SOL    HW237755   0.160   4.007   6.028 -0.5116  0.5763  1.9032
 8707SOL     OW37756   0.796   1.261  11.076 -0.1911 -0.5476  0.3247
 8707SOL    HW137757   0.784   1.179  11.124 -0.3889 -0.6306  0.1312
 8707SOL    HW237758   0.789   1.225  10.988 -0.5053 -0.4358  0.3058
 8708SOL     OW37759   3.516   1.852  13.280 -0.1211 -0.3667  0.0571
 8708SOL    HW137760   3.456   1.923  13.259  0.8181 -0.5132 -3.1289
 8708SOL    HW237761   3.485   1.819  13.364 -1.3761 -0.8075 -0.5846
 8709SOL     OW37762   3.626   2.641  14.821 -0.2088  0.3267 -0.0236
 8709SOL    HW137763   3.659   2.650  14.910  0.6332 -1.6947 -0.1399
 8709SOL    HW237764   3.693   2.695  14.780  1.4882 -0.8451  1.2561
 8710SOL     OW37765   0.536   4.491   8.181 -0.1033  0.2387 -0.1692
 8710SOL    HW137766   0.597   4.560   8.153  2.4349 -1.4109  1.3169
 8710SOL    HW237767   0.536   4.428   8.110  0.2986 -0.2888  0.3013
 8711SOL     OW37768   3.134   0.178   4.141  0.2974  0.2617  0.7444
 8711SOL    HW137769   3.227   0.169   4.116 -0.3490 -0.2423 -1.5113
 8711SOL    HW237770   3.098   0.099   4.101  0.7102 -0.1615  1.2089
 8712SOL     OW37771   0.081   2.157   3.142  0.2098 -1.0703  0.0008
 8712SOL    HW137772   0.035   2.088   3.095  0.1008  0.0770 -1.5642
 8712SOL    HW237773   0.071   2.136   3.235  0.1107  0.0725  0.2522
 8713SOL     OW37774   1.768   2.488   7.739  0.3898  0.1764  0.0520
 8713SOL    HW137775   1.822   2.501   7.661  2.9908 -3.3537  1.2813
 8713SOL    HW237776   1.783   2.574   7.778  1.4572  0.3643 -0.7868
 8714SOL     OW37777   1.764   4.369   2.514  0.1693  0.4023 -0.0915
 8714SOL    HW137778   1.707   4.298   2.544  0.5717  0.8291  1.6992
 8714SOL    HW237779   1.750   4.427   2.589  2.1005 -0.2903  0.8145
 8715SOL     OW37780   4.690   1.936   3.017  0.2819 -0.1465 -0.5997
 8715SOL    HW137781   4.708   1.974   2.930  1.1898  0.5687 -0.1073
 8715SOL    HW237782   4.722   1.846   3.017  0.4917 -0.0717 -0.4582
 8716SOL     OW37783   4.484   2.530  17.556 -0.6029  0.0143 -0.7432
 8716SOL    HW137784   4.453   2.619  17.573 -0.0340 -0.0821  0.8448
 8716SOL    HW237785   4.460   2.480  17.635 -1.3948 -1.3457 -1.8432
 8717SOL     OW37786   3.547   0.036   9.062 -0.7546 -0.4885 -0.1553
 8717SOL    HW137787   3.532   4.707   8.992 -0.3737  1.9419 -2.4345
 8717SOL    HW237788   3.481   0.004   9.123  0.9432  2.6241  3.3533
 8718SOL     OW37789   3.637   1.280   7.086  0.0572 -0.8605  0.1458
 8718SOL    HW137790   3.592   1.241   7.012 -1.3807 -0.2404  0.6948
 8718SOL    HW237791   3.622   1.214   7.153  0.8968 -2.5819 -1.3874
 8719SOL     OW37792   0.427   0.666   6.951 -0.5362  0.1311 -0.2386
 8719SOL    HW137793   0.422   0.607   7.026 -1.4594 -0.4173 -0.7428
 8719SOL    HW237794   0.367   0.732   6.988  1.1947  1.0093  1.0171
 8720SOL     OW37795   0.723   3.173   4.299  0.5470 -0.0494  0.0518
 8720SOL    HW137796   0.638   3.157   4.338 -0.0677  0.6049 -1.0110
 8720SOL    HW237797   0.699   3.219   4.219  0.4119 -1.8331 -0.9412
 8721SOL     OW37798   2.485   1.444  14.952 -0.4353 -0.1353  0.1349
 8721SOL    HW137799   2.429   1.401  14.886 -1.0541 -0.8549  1.1360
 8721SOL    HW237800   2.479   1.539  14.942  1.4074 -0.3244 -2.7966
 8722SOL     OW37801   3.279   1.744   6.444  0.6841 -0.8042 -0.1071
 8722SOL    HW137802   3.290   1.814   6.509 -2.8797 -0.4150  0.1040
 8722SOL    HW237803   3.229   1.673   6.484 -0.5928  0.4740  0.5822
 8723SOL     OW37804   3.329   0.952   6.331  1.0548  0.6222 -0.3924
 8723SOL    HW137805   3.381   1.013   6.384  0.5264  1.2491 -0.5836
 8723SOL    HW237806   3.303   1.012   6.261  1.8210  0.3869 -0.8795
 8724SOL     OW37807   2.767   0.129  15.632 -0.7051  0.4534 -0.6058
 8724SOL    HW137808   2.713   0.171  15.566 -2.5825 -1.5090 -0.3155
 8724SOL    HW237809   2.695   0.074  15.662  0.1718 -0.3906 -0.0590
 8725SOL     OW37810   1.243   1.988  17.155 -0.2756 -0.2687  0.0841
 8725SOL    HW137811   1.315   2.026  17.104  0.2237 -2.1504 -0.5977
 8725SOL    HW237812   1.200   2.067  17.188  0.9428  0.2940  0.3076
 8726SOL     OW37813   2.511   4.359  15.950 -0.6601 -0.6619  0.0555
 8726SOL    HW137814   2.561   4.278  15.957  1.6529  0.3996 -3.5739
 8726SOL    HW237815   2.427   4.331  15.986 -0.5097 -0.9029  0.2165
 8727SOL     OW37816   3.710   2.270   5.709 -0.3220  0.0230  0.1371
 8727SOL    HW137817   3.798   2.248   5.678  0.2518  1.2984  0.8500
 8727SOL    HW237818   3.680   2.324   5.637 -0.3406 -1.0969 -0.6931
 8728SOL     OW37819   0.856   2.971   9.693  0.1161  0.2196 -0.0689
 8728SOL    HW137820   0.804   3.047   9.718 -0.4116  0.0718 -0.7278
 8728SOL    HW237821   0.844   2.955   9.600 -0.9993 -0.1364  0.1440
 8729SOL     OW37822   4.618   3.437   3.471 -0.0208 -0.4559 -0.1620
 8729SOL    HW137823   4.668   3.490   3.532  0.4008 -0.7893 -0.2199
 8729SOL    HW237824   4.546   3.500   3.458 -0.2725 -0.7155 -0.0234
 8730SOL     OW37825   0.565   4.097   2.471 -0.0002  0.1357 -0.2688
 8730SOL    HW137826   0.634   4.061   2.527  0.2022  0.4854 -0.2886
 8730SOL    HW237827   0.487   4.101   2.526  0.6817  0.2655  0.6823
 8731SOL     OW37828   2.809   3.699   0.021  0.2859  0.2563 -0.0057
 8731SOL    HW137829   2.839   3.608   0.024 -1.6438 -0.3807 -0.0408
 8731SOL    HW237830   2.716   3.682   0.008  0.4803 -0.0730 -0.9687
 8732SOL     OW37831   3.718   1.467  12.746 -0.3550 -0.2768  0.3738
 8732SOL    HW137832   3.696   1.499  12.659  0.9669 -0.4095 -0.0038
 8732SOL    HW237833   3.719   1.373  12.731 -0.7036 -0.1004 -0.7290
 8733SOL     OW37834   1.766   1.656   3.343  0.2733 -0.0541  0.3250
 8733SOL    HW137835   1.834   1.659   3.276 -0.3620  2.2305 -0.1990
 8733SOL    HW237836   1.700   1.613   3.289  2.6496 -2.3045 -0.7630
 8734SOL     OW37837   0.132   4.702   5.723  0.0415  0.6452 -0.0341
 8734SOL    HW137838   0.141   0.055   5.686  1.1413 -0.3874 -2.2247
 8734SOL    HW237839   0.193   4.714   5.796  0.4050  0.7009 -0.3448
 8735SOL     OW37840   0.445   2.860   8.555 -0.7068  0.0756 -0.0297
 8735SOL    HW137841   0.384   2.829   8.488  1.5276 -0.3843 -1.8640
 8735SOL    HW237842   0.528   2.816   8.539 -0.4641  0.4410  0.2079
 8736SOL     OW37843   0.605   3.758   6.056  0.5863  0.2300 -0.1678
 8736SOL    HW137844   0.633   3.849   6.061 -2.0769  1.0112  0.1009
 8736SOL    HW237845   0.684   3.711   6.084  0.7071 -0.9006 -2.3572
 8737SOL     OW37846   4.415   3.560  14.004  0.1455  0.1411 -0.5244
 8737SOL    HW137847   4.358   3.578  13.929 -1.6766 -3.3713  0.0226
 8737SOL    HW237848   4.419   3.640  14.055 -0.1272  0.6361 -1.2796
 8738SOL     OW37849   1.245   0.066   1.483  0.4698  0.0490 -0.7700
 8738SOL    HW137850   1.217   0.016   1.560  1.8518 -1.5865 -1.3179
 8738SOL    HW237851   1.213   0.156   1.487 -1.8200 -0.8117  0.3627
 8739SOL     OW37852   1.786   0.241   3.823 -0.2100 -0.1201  0.3545
 8739SOL    HW137853   1.825   0.158   3.849 -0.5004 -0.7087 -1.0594
 8739SOL    HW237854   1.843   0.270   3.751 -1.4068  0.5542 -0.3200
 8740SOL     OW37855   1.680   2.765   7.223  0.4567  0.1414  0.0690
 8740SOL    HW137856   1.682   2.814   7.305 -0.5019  1.6160 -0.7843
 8740SOL    HW237857   1.729   2.828   7.171 -1.3810  0.5470 -1.1986
 8741SOL     OW37858   0.321   2.541   8.923 -0.6360 -0.3398 -0.2627
 8741SOL    HW137859   0.251   2.586   8.878 -1.6689  0.0822  1.7513
 8741SOL    HW237860   0.279   2.526   9.008 -2.1670 -1.0447 -1.1703
 8742SOL     OW37861   4.553   0.047   4.476  0.3140  0.0070 -0.3910
 8742SOL    HW137862   4.536   4.730   4.554 -1.9563 -0.7269 -1.3756
 8742SOL    HW237863   4.463   0.052   4.441  0.0216  0.4134  0.4200
 8743SOL     OW37864   3.794   2.848   9.146  0.2162 -0.0302 -0.2331
 8743SOL    HW137865   3.768   2.870   9.057  1.3377 -0.3410 -0.6410
 8743SOL    HW237866   3.708   2.812   9.170 -1.0881  1.8697 -2.0848
 8744SOL     OW37867   3.505   3.822   7.139  0.2349  0.2951 -0.1341
 8744SOL    HW137868   3.507   3.819   7.235 -1.2899  1.4379 -0.0656
 8744SOL    HW237869   3.468   3.736   7.119 -1.5579  0.9810  0.1653
 8745SOL     OW37870   3.140   2.300   6.972 -0.1618 -0.3028  0.3030
 8745SOL    HW137871   3.216   2.243   6.981  0.0995  0.1586  0.9679
 8745SOL    HW237872   3.114   2.321   7.061  1.1541  0.4630  0.5010
 8746SOL     OW37873   1.350   3.698   2.319 -0.6167 -0.0102 -0.1191
 8746SOL    HW137874   1.370   3.704   2.226 -3.1718  1.4960 -0.5519
 8746SOL    HW237875   1.261   3.733   2.320 -0.6251 -0.0491  1.3266
 8747SOL     OW37876   0.820   0.668  13.133  0.2711  0.2473  0.2709
 8747SOL    HW137877   0.889   0.722  13.094 -0.3080 -1.2633 -2.8452
 8747SOL    HW237878   0.872   0.596  13.169 -1.3284 -1.0588 -0.0797
 8748SOL     OW37879   4.252   2.868   3.550 -0.1140  0.3174  0.1073
 8748SOL    HW137880   4.237   2.927   3.624 -0.7228 -1.6474  1.5650
 8748SOL    HW237881   4.340   2.902   3.535 -0.0158  0.8773  1.9244
 8749SOL     OW37882   2.792   0.304   8.483  0.1088  0.0174  0.2390
 8749SOL    HW137883   2.744   0.334   8.561  0.7851 -3.2470  1.9375
 8749SOL    HW237884   2.863   0.259   8.528  0.1168  0.2511  0.4626
 8750SOL     OW37885   3.891   0.158   5.319 -0.2342 -0.2500  0.1482
 8750SOL    HW137886   3.974   0.181   5.277  0.3315 -1.1660  0.7609
 8750SOL    HW237887   3.899   0.064   5.306 -0.5150 -0.4488  1.3988
 8751SOL     OW37888   0.403   4.119   4.822  0.4118 -0.0474  0.0421
 8751SOL    HW137889   0.381   4.207   4.791  3.7135  1.4322  1.9124
 8751SOL    HW237890   0.375   4.066   4.747  1.2094 -1.5113  0.7967
 8752SOL     OW37891   1.745   0.381   6.936 -0.4409 -0.1370 -0.0164
 8752SOL    HW137892   1.800   0.317   6.892 -1.0203  0.1873 -1.2219
 8752SOL    HW237893   1.681   0.398   6.867 -0.4567 -1.0545 -0.2216
 8753SOL     OW37894   0.810   1.733  17.357  0.4673 -0.4324  0.8302
 8753SOL    HW137895   0.866   1.704  17.429  3.8607 -1.4190 -2.2316
 8753SOL    HW237896   0.882   1.735  17.294 -0.7840  0.0302 -0.5736
 8754SOL     OW37897   2.009   1.775   8.093 -0.3713  0.0183 -0.2094
 8754SOL    HW137898   2.024   1.803   8.183 -2.6130 -0.8253  0.4385
 8754SOL    HW237899   2.099   1.784   8.061  0.5192 -0.5902  2.1582
 8755SOL     OW37900   0.632   1.102   9.575 -0.5291 -0.9040 -0.2395
 8755SOL    HW137901   0.717   1.058   9.565 -0.2119  0.1191 -2.1406
 8755SOL    HW237902   0.614   1.088   9.667  1.7555  0.1513  0.3757
 8756SOL     OW37903   1.379   4.571   0.795  0.1502  0.3376  0.0343
 8756SOL    HW137904   1.326   4.566   0.874 -2.4003 -2.5934 -1.8412
 8756SOL    HW237905   1.450   4.627   0.824  1.6616 -1.9637  0.7418
 8757SOL     OW37906   2.169   1.876   2.402 -0.2101  0.0341 -0.2030
 8757SOL    HW137907   2.242   1.883   2.341 -0.2953 -0.9145 -0.4222
 8757SOL    HW237908   2.199   1.823   2.476  0.3308 -1.8327 -1.7743
 8758SOL     OW37909   2.775   3.534   7.159 -0.1193 -0.2899  0.0063
 8758SOL    HW137910   2.843   3.585   7.203 -0.1637  1.2754 -1.7191
 8758SOL    HW237911   2.734   3.594   7.097  1.6742  0.2443 -0.6620
 8759SOL     OW37912   1.481   1.654   4.481 -0.3111 -0.5322 -1.1290
 8759SOL    HW137913   1.484   1.729   4.540  0.1103 -1.6234  0.2589
 8759SOL    HW237914   1.573   1.629   4.468 -0.7344 -2.2534 -0.8650
 8760SOL     OW37915   3.188   0.529   9.038 -0.2287  0.2245 -0.4037
 8760SOL    HW137916   3.240   0.514   9.118  0.7449  1.4121 -0.8079
 8760SOL    HW237917   3.113   0.474   9.059 -0.9327  1.2373 -0.2734
 8761SOL     OW37918   3.579   4.707   1.190  0.2963 -0.0110 -0.8404
 8761SOL    HW137919   3.554   4.729   1.280  0.1109  1.8399 -1.3304
 8761SOL    HW237920   3.544   4.618   1.188 -1.3804  0.6609 -1.1971
 8762SOL     OW37921   0.962   4.586   2.731  0.0038  0.3110 -0.0464
 8762SOL    HW137922   0.872   4.553   2.728 -0.2595  1.1834 -1.9928
 8762SOL    HW237923   1.016   4.518   2.690  0.2474  1.6741 -1.9998
 8763SOL     OW37924   2.490   2.013   4.427 -0.4458  0.3373 -0.3188
 8763SOL    HW137925   2.491   2.095   4.378  1.5243  0.9411  0.7312
 8763SOL    HW237926   2.432   2.034   4.500 -0.6749 -1.2156 -0.0598
 8764SOL     OW37927   3.525   3.497   4.668 -0.3939 -0.4537 -0.4523
 8764SOL    HW137928   3.517   3.558   4.595  3.0630  0.8241  0.2561
 8764SOL    HW237929   3.432   3.479   4.686 -0.3695  1.2331  1.3735
 8765SOL     OW37930   2.902   0.196   1.438  0.3695 -0.1088  0.1807
 8765SOL    HW137931   2.976   0.256   1.433 -0.6274  1.0857 -0.3820
 8765SOL    HW237932   2.827   0.256   1.442  0.8530  0.3573  2.2144
 8766SOL     OW37933   2.582   1.590   8.937 -0.1101  0.1064  0.5613
 8766SOL    HW137934   2.560   1.499   8.917  0.9089  0.0405 -0.2538
 8766SOL    HW237935   2.501   1.626   8.900 -0.4738  0.6859  1.9030
 8767SOL     OW37936   4.275   2.529  11.824  0.2128  0.3637 -0.1470
 8767SOL    HW137937   4.197   2.506  11.773  0.2496  1.4130 -0.6880
 8767SOL    HW237938   4.238   2.556  11.908  0.4713 -1.6377  0.5902
 8768SOL     OW37939   4.708   0.794   3.828 -0.0896  0.1170  0.1994
 8768SOL    HW137940   0.032   0.723   3.803 -0.4152 -0.0430 -0.1086
 8768SOL    HW237941   0.009   0.865   3.775  0.2975  1.2577  1.9896
 8769SOL     OW37942   1.918   0.990   8.356 -0.5211  0.1846 -0.1114
 8769SOL    HW137943   1.938   1.015   8.446 -0.4692 -0.2404 -0.0068
 8769SOL    HW237944   1.987   0.928   8.334 -0.8316 -0.1129 -0.2413
 8770SOL     OW37945   2.831   1.411   8.905 -0.3145 -0.0783  0.3904
 8770SOL    HW137946   2.921   1.402   8.875 -0.1516 -0.4468  0.9816
 8770SOL    HW237947   2.836   1.499   8.941 -1.6480  0.2219 -0.1478
 8771SOL     OW37948   4.314   2.691   7.241 -0.2801 -0.1812  0.0609
 8771SOL    HW137949   4.277   2.775   7.266  0.6417  0.5217 -0.9379
 8771SOL    HW237950   4.361   2.721   7.163 -0.5078 -0.3085 -0.1240
 8772SOL     OW37951   2.935   2.559   8.887  0.3443 -0.0552 -0.0638
 8772SOL    HW137952   2.996   2.511   8.943  0.8836 -0.0339 -0.6323
 8772SOL    HW237953   2.922   2.644   8.929 -1.8909 -1.5374  2.2363
 8773SOL     OW37954   3.124   1.406   4.392 -0.4807 -0.0242 -0.2817
 8773SOL    HW137955   3.199   1.422   4.449 -1.5126  2.1847  0.4522
 8773SOL    HW237956   3.165   1.399   4.306  0.9876  1.1211  0.3227
 8774SOL     OW37957   3.221   3.754   3.670 -0.4258 -0.1108 -0.1828
 8774SOL    HW137958   3.159   3.718   3.607  0.2109 -2.2952  0.4621
 8774SOL    HW237959   3.159   3.791   3.733  1.2217 -0.0869  1.4293
 8775SOL     OW37960   2.531   0.584   7.649  1.1529 -0.5986  0.2940
 8775SOL    HW137961   2.447   0.577   7.694  1.6534 -1.0703  1.1483
 8775SOL    HW237962   2.546   0.678   7.657 -0.1065 -0.2987 -0.7590
 8776SOL     OW37963   1.140   1.342   3.331  0.0343 -0.9909 -0.0013
 8776SOL    HW137964   1.086   1.264   3.322  0.2142 -0.9785 -1.3281
 8776SOL    HW237965   1.232   1.315   3.324  0.3970  0.0160  0.8959
 8777SOL     OW37966   4.134   0.328   9.599 -0.2254  0.5263  0.3819
 8777SOL    HW137967   4.182   0.408   9.576  0.5257 -0.7740 -2.6624
 8777SOL    HW237968   4.177   0.267   9.539  0.7532 -1.0736  2.7261
 8778SOL     OW37969   3.945   3.630   6.728 -0.8224  0.1783 -0.0659
 8778SOL    HW137970   4.008   3.683   6.679 -0.8322 -0.6866 -1.0305
 8778SOL    HW237971   4.009   3.568   6.762  0.6727  1.0742 -1.2772
 8779SOL     OW37972   0.822   1.363   4.420  0.3469 -0.3303  0.2486
 8779SOL    HW137973   0.861   1.449   4.406 -1.8774  0.8964  1.5293
 8779SOL    HW237974   0.779   1.386   4.502  0.6910 -0.0253  0.3411
 8780SOL     OW37975   4.399   0.394   3.807  0.0182 -0.2161  0.0001
 8780SOL    HW137976   4.351   0.315   3.830  1.8463 -1.0167  1.0310
 8780SOL    HW237977   4.391   0.381   3.712  0.2986 -0.1077 -0.0380
 8781SOL     OW37978   4.261   1.306   8.013 -0.5354  0.0624  0.2325
 8781SOL    HW137979   4.309   1.250   8.074 -0.9397 -0.1092  0.3914
 8781SOL    HW237980   4.204   1.239   7.977  0.2961 -0.5174 -0.0023
 8782SOL     OW37981   1.597   2.122  12.894 -0.4245  0.0791 -0.0100
 8782SOL    HW137982   1.507   2.150  12.911 -0.9676 -1.3385 -0.5527
 8782SOL    HW237983   1.573   2.067  12.820 -1.9482  0.6537  0.0523
 8783SOL     OW37984   1.427   1.979   2.229 -0.0331  0.3692  0.2208
 8783SOL    HW137985   1.343   1.933   2.231 -0.2302  0.6965 -0.6810
 8783SOL    HW237986   1.449   1.967   2.322 -3.2731 -1.1745  0.7842
 8784SOL     OW37987   4.598   4.214   2.772  0.6158  0.1208  0.2560
 8784SOL    HW137988   4.527   4.246   2.716 -0.1854 -2.1979 -0.0584
 8784SOL    HW237989   4.668   4.273   2.743  0.7799 -0.5195 -0.6711
 8785SOL     OW37990   2.672   3.254   2.962 -0.1152 -0.7536  0.4351
 8785SOL    HW137991   2.729   3.196   2.910 -0.7826  0.9965 -2.2365
 8785SOL    HW237992   2.691   3.217   3.048 -0.8931  0.8678  1.2966
 8786SOL     OW37993   1.904   0.543   3.746 -0.5422  0.4105 -0.3490
 8786SOL    HW137994   1.811   0.564   3.751 -0.5089  0.2562  0.9672
 8786SOL    HW237995   1.899   0.449   3.725 -0.4874  0.1915  0.6523
 8787SOL     OW37996   4.519   3.451   2.149  0.2344 -0.4111  0.0305
 8787SOL    HW137997   4.518   3.544   2.124 -0.9803  0.2401  2.4923
 8787SOL    HW237998   4.496   3.413   2.064 -1.0876 -0.0243  0.2058
 8788SOL     OW37999   2.013   4.466   2.226  0.6867 -0.3141 -0.1819
 8788SOL    HW138000   2.001   4.372   2.218  0.4453 -0.2695 -0.3192
 8788SOL    HW238001   2.027   4.487   2.134 -1.5762  0.4237 -0.3692
 8789SOL     OW38002   2.958   0.024  16.607 -0.0909  0.1771  0.2680
 8789SOL    HW138003   3.038   4.730  16.563  0.5172  1.1403  0.7367
 8789SOL    HW238004   2.989   0.100  16.655 -1.2922  1.7553 -1.4383
 8790SOL     OW38005   0.417   1.778   7.320 -0.0108 -0.1134 -0.3505
 8790SOL    HW138006   0.508   1.797   7.296  0.4434 -1.0924  0.6067
 8790SOL    HW238007   0.429   1.726   7.399  0.0748 -0.0201 -0.3022
 8791SOL     OW38008   0.833   2.094   6.394  0.2383 -0.1815 -0.0732
 8791SOL    HW138009   0.897   2.023   6.397 -0.6012 -1.0332 -2.0486
 8791SOL    HW238010   0.880   2.170   6.426 -0.0667 -0.0366  0.0300
 8792SOL     OW38011   1.319   1.055   6.184  0.3550  0.3598 -0.1722
 8792SOL    HW138012   1.227   1.059   6.209  0.6026  0.4514  0.7163
 8792SOL    HW238013   1.339   1.142   6.216  1.3539 -0.7633  2.2383
 8793SOL     OW38014   1.572   2.372  11.454 -0.1616  0.3575 -0.0279
 8793SOL    HW138015   1.574   2.464  11.480  1.5799 -0.2223  1.8835
 8793SOL    HW238016   1.632   2.364  11.379 -0.2331  0.0554 -0.0528
 8794SOL     OW38017   0.758   0.703  16.873 -0.3939  0.1614 -0.0234
 8794SOL    HW138018   0.694   0.769  16.846  0.6041  0.8549 -0.6688
 8794SOL    HW238019   0.744   0.638  16.804  0.3551 -0.4434  0.3955
 8795SOL     OW38020   3.804   1.663  17.210 -0.1876 -0.4819  0.4060
 8795SOL    HW138021   3.852   1.632  17.133 -0.6310 -0.4887  0.1331
 8795SOL    HW238022   3.723   1.691  17.168  0.5901  1.2669  0.1029
 8796SOL     OW38023   3.240   1.448   9.517  0.2618 -0.3084  0.2701
 8796SOL    HW138024   3.267   1.508   9.448 -2.5073 -0.1738 -0.6862
 8796SOL    HW238025   3.181   1.504   9.568 -0.6927 -1.7597  0.7613
 8797SOL     OW38026   4.156   3.939   5.310 -0.2942  0.3126 -0.3873
 8797SOL    HW138027   4.076   3.887   5.305 -2.0266  2.9313  0.1302
 8797SOL    HW238028   4.156   3.978   5.223  1.1624 -0.0632 -0.5563
 8798SOL     OW38029   1.136   3.169  12.234  0.8468  0.3968 -0.4205
 8798SOL    HW138030   1.180   3.100  12.185  2.6049  1.1628  0.0977
 8798SOL    HW238031   1.061   3.185  12.177 -1.1414 -2.1049  1.4729
 8799SOL     OW38032   4.334   2.057   9.241  0.2393 -0.1027 -0.0775
 8799SOL    HW138033   4.419   2.079   9.278  0.3413 -1.3537  0.4532
 8799SOL    HW238034   4.360   2.073   9.150  1.0058  0.5292  0.2587
 8800SOL     OW38035   2.657   1.667   5.863  0.0863 -0.0699  0.0374
 8800SOL    HW138036   2.716   1.671   5.788 -0.3577  0.9270 -0.2527
 8800SOL    HW238037   2.674   1.578   5.894 -0.6646 -0.3220 -0.2677
 8801SOL     OW38038   0.379   1.388  16.317 -0.3781 -0.4982  0.0978
 8801SOL    HW138039   0.384   1.471  16.269  2.2350 -0.6731  0.0309
 8801SOL    HW238040   0.291   1.390  16.353  0.4095  1.8571  1.9050
 8802SOL     OW38041   3.971   0.189   3.566  0.3023  0.9490  1.1857
 8802SOL    HW138042   4.057   0.148   3.572 -0.0128  0.0811 -0.0999
 8802SOL    HW238043   3.978   0.240   3.485 -3.0120 -1.0232 -0.3630
 8803SOL     OW38044   0.106   2.856  16.235  0.8889 -0.5361  0.5591
 8803SOL    HW138045   0.192   2.859  16.276  0.8172  0.9035  0.5937
 8803SOL    HW238046   0.064   2.922  16.289  2.1257  1.8836 -1.4604
 8804SOL     OW38047   2.389   1.972   2.263 -0.6062 -0.2501  0.8198
 8804SOL    HW138048   2.473   1.961   2.219 -1.6464  2.1594 -1.7773
 8804SOL    HW238049   2.329   2.006   2.196 -1.6535 -0.7094  1.5359
 8805SOL     OW38050   4.243   2.955   8.734  0.3308 -0.0985 -0.3047
 8805SOL    HW138051   4.238   2.925   8.643 -1.4450 -1.2405  0.1686
 8805SOL    HW238052   4.287   2.879   8.771  2.5979 -0.2533 -3.2824
 8806SOL     OW38053   4.570   2.745   1.193 -0.5310 -0.2860  0.4978
 8806SOL    HW138054   4.552   2.705   1.109 -3.2217 -0.9695  1.4058
 8806SOL    HW238055   4.545   2.837   1.181 -2.0257 -0.5598  1.5341
 8807SOL     OW38056   4.055   3.053   8.206 -0.3753  0.0109  0.7009
 8807SOL    HW138057   3.984   3.036   8.268  0.0413 -1.7683  0.6919
 8807SOL    HW238058   4.078   3.142   8.232  3.4669 -0.4185 -1.2351
 8808SOL     OW38059   2.694   1.510   7.950  0.0199 -0.5384  0.1724
 8808SOL    HW138060   2.774   1.563   7.949 -0.4939  0.2994  2.4395
 8808SOL    HW238061   2.668   1.536   7.862  0.5424  0.2791  0.2633
 8809SOL     OW38062   0.484   0.415   4.507 -0.0049 -0.1758 -0.3211
 8809SOL    HW138063   0.494   0.477   4.435 -0.8590 -0.4902 -0.7044
 8809SOL    HW238064   0.574   0.414   4.540 -0.6584  0.4579  1.4959
 8810SOL     OW38065   1.795   1.075  16.831 -0.5202  0.0151 -0.7333
 8810SOL    HW138066   1.784   1.125  16.912 -1.5436  1.4688 -1.7583
 8810SOL    HW238067   1.717   1.100  16.782 -1.6750  1.0213  1.6170
 8811SOL     OW38068   2.451   2.945   1.600  0.1417 -0.0771 -0.1089
 8811SOL    HW138069   2.476   2.975   1.513  0.2501  0.1509  0.0014
 8811SOL    HW238070   2.391   3.009   1.639 -1.3722 -1.3940 -0.2581
 8812SOL     OW38071   2.209   1.183   8.942  0.0956 -0.2650 -0.0454
 8812SOL    HW138072   2.179   1.097   8.912 -0.7969  0.1751 -0.4197
 8812SOL    HW238073   2.201   1.177   9.038  0.1067  0.8151  0.0194
 8813SOL     OW38074   3.158   1.371   8.872 -0.3147  0.2691 -0.1770
 8813SOL    HW138075   3.183   1.308   8.804  0.9924  2.8744 -2.0910
 8813SOL    HW238076   3.222   1.349   8.940 -0.5139  2.8513  0.8431
 8814SOL     OW38077   4.454   2.909   8.319  0.9017 -0.1485 -0.6967
 8814SOL    HW138078   4.468   2.815   8.315 -0.7626 -0.4949  2.1406
 8814SOL    HW238079   4.371   2.917   8.365  0.7748  2.5138 -1.3507
 8815SOL     OW38080   3.772   3.058  15.074 -0.2637  0.0698  0.0502
 8815SOL    HW138081   3.685   3.020  15.084  0.2192 -1.2319 -0.6877
 8815SOL    HW238082   3.770   3.134  15.133 -0.2433  0.8600 -0.9616
 8816SOL     OW38083   1.909   0.626   6.906 -0.3741  0.1575 -0.1073
 8816SOL    HW138084   1.836   0.579   6.947  0.1360 -0.2876  0.3092
 8816SOL    HW238085   1.961   0.657   6.981 -1.3274 -1.3808  1.1975
 8817SOL     OW38086   0.207   4.110   7.007 -0.3319 -0.0021 -0.2744
 8817SOL    HW138087   0.228   4.198   7.039  0.1049  0.0122 -0.6093
 8817SOL    HW238088   0.122   4.121   6.965 -0.5698 -0.1830  0.1577
 8818SOL     OW38089   3.753   0.376  17.465 -0.3181  0.3497  0.1693
 8818SOL    HW138090   3.734   0.469  17.473 -2.7125 -0.1635  0.2176
 8818SOL    HW238091   3.793   0.359  17.550  0.3664 -1.7926 -0.5662
 8819SOL     OW38092   3.937   4.125   4.134  0.0182  0.7523  0.0766
 8819SOL    HW138093   3.887   4.171   4.066  1.8025  1.8987 -0.4914
 8819SOL    HW238094   3.860   4.098   4.182  0.3330  0.4115  0.3845
 8820SOL     OW38095   1.409   2.375   4.343  0.4665  0.3240 -0.4461
 8820SOL    HW138096   1.326   2.346   4.307  0.0256  0.1741  0.7099
 8820SOL    HW238097   1.368   2.383   4.429  1.2997  2.2458 -0.2121
 8821SOL     OW38098   3.917   1.074   1.704 -0.1716  0.0099 -0.3906
 8821SOL    HW138099   3.926   0.986   1.742  0.3375 -0.2834 -1.1970
 8821SOL    HW238100   4.006   1.105   1.720  0.6104 -0.0310 -4.6658
 8822SOL     OW38101   2.481   2.423  15.536  0.2859 -0.6316  0.3574
 8822SOL    HW138102   2.497   2.347  15.479  0.6006 -1.0247  0.9672
 8822SOL    HW238103   2.561   2.473  15.521 -0.5771  0.6035 -0.0902
 8823SOL     OW38104   3.209   2.739   9.040 -0.1628  0.6446 -0.3111
 8823SOL    HW138105   3.163   2.786   8.971  1.1913  1.7290 -0.4707
 8823SOL    HW238106   3.255   2.813   9.080  0.7629  0.0030 -0.1638
 8824SOL     OW38107   4.018   0.883   0.699 -0.0762 -0.1723 -0.3103
 8824SOL    HW138108   3.949   0.921   0.644 -0.6281 -0.7948 -0.0453
 8824SOL    HW238109   3.991   0.929   0.779  2.1396  0.8353 -0.1253
 8825SOL     OW38110   1.110   1.021   5.972 -0.2475 -0.0812  0.1377
 8825SOL    HW138111   1.016   1.004   5.974 -0.9652  3.5947 -0.8638
 8825SOL    HW238112   1.137   0.931   5.987 -1.0880 -0.6555 -1.7341
 8826SOL     OW38113   2.342   3.762   7.378 -0.4881  0.7564 -0.1586
 8826SOL    HW138114   2.296   3.789   7.299  3.2005 -2.1645 -3.3416
 8826SOL    HW238115   2.323   3.839   7.431  2.2824  2.4342 -1.6038
 8827SOL     OW38116   0.445   3.886   7.316  0.2973 -0.6771  0.0288
 8827SOL    HW138117   0.496   3.891   7.234 -0.2097 -0.6588 -0.2857
 8827SOL    HW238118   0.447   3.791   7.329  2.7577 -0.2997  2.3800
 8828SOL     OW38119   0.193   3.510   2.139  0.1572  0.1140  0.5356
 8828SOL    HW138120   0.126   3.549   2.196  1.2077  0.3869  1.5964
 8828SOL    HW238121   0.208   3.586   2.084  0.4819  0.5852  1.2738
 8829SOL     OW38122   0.118   0.762   4.881  0.2829 -0.5384  0.1869
 8829SOL    HW138123   0.195   0.819   4.886 -0.0566 -0.0910  0.2906
 8829SOL    HW238124   0.150   0.687   4.931  0.1377 -1.0293 -0.4512
 8830SOL     OW38125   0.547   0.297  10.962  0.3275 -0.1719 -0.1634
 8830SOL    HW138126   0.568   0.361  10.893 -0.2676  0.3916  0.1776
 8830SOL    HW238127   0.486   0.351  11.012 -1.3695  0.3470 -2.7540
 8831SOL     OW38128   3.779   2.492   3.386 -0.0508 -0.3075 -0.1058
 8831SOL    HW138129   3.817   2.439   3.316 -0.3390  0.3692 -0.7701
 8831SOL    HW238130   3.805   2.440   3.462  0.3333  1.0614  0.7009
 8832SOL     OW38131   4.298   0.121   3.594 -0.2465  0.2726  0.1815
 8832SOL    HW138132   4.274   0.203   3.551 -1.2944 -0.5866 -0.9022
 8832SOL    HW238133   4.390   0.115   3.568  0.3533 -1.0609  2.6267
 8833SOL     OW38134   3.867   4.237   9.269  0.0697  0.2904  0.4270
 8833SOL    HW138135   3.939   4.178   9.291  0.0707  0.8083  1.8072
 8833SOL    HW238136   3.896   4.274   9.186  1.0199 -0.2106  0.5283
 8834SOL     OW38137   0.308   1.615  13.808 -0.4720 -0.6673  0.7560
 8834SOL    HW138138   0.359   1.692  13.831  0.4970 -1.3254  0.8284
 8834SOL    HW238139   0.255   1.644  13.733 -0.3371  1.0490  1.3470
 8835SOL     OW38140   2.982   3.594   6.693 -0.4444  0.6828  0.5303
 8835SOL    HW138141   2.985   3.647   6.773  0.2218  1.2359  0.1412
 8835SOL    HW238142   3.076   3.579   6.679 -0.8323  1.0586 -2.3762
 8836SOL     OW38143   2.590   4.227  11.832  0.2134 -0.1027 -0.2617
 8836SOL    HW138144   2.572   4.146  11.784  0.3780  0.6938 -1.6604
 8836SOL    HW238145   2.617   4.198  11.919  1.2563 -0.0419 -0.5664
 8837SOL     OW38146   4.306   1.685   2.409 -0.5448 -0.1909  0.4896
 8837SOL    HW138147   4.310   1.768   2.455 -1.0887 -0.1710  0.4914
 8837SOL    HW238148   4.247   1.704   2.336  1.0296 -0.6694 -0.9233
 8838SOL     OW38149   2.036   4.079  12.326 -1.5640 -0.7740  0.6616
 8838SOL    HW138150   1.978   4.005  12.310  0.1130 -2.0748  0.4981
 8838SOL    HW238151   2.044   4.073  12.421  0.2110  0.8995  0.6192
 8839SOL     OW38152   1.263   1.665   6.496 -0.1170 -0.0020 -0.3051
 8839SOL    HW138153   1.342   1.646   6.445  0.1214  0.4371 -0.1033
 8839SOL    HW238154   1.252   1.753   6.460  1.2977  0.4521  0.3772
 8840SOL     OW38155   3.320   3.002   5.644  0.3122  0.8593 -0.3133
 8840SOL    HW138156   3.384   2.945   5.602  0.4666  0.4358  0.4904
 8840SOL    HW238157   3.318   3.081   5.590  0.1958  0.7667 -0.4446
 8841SOL     OW38158   2.001   3.515   8.881  0.1291 -0.1485  0.3147
 8841SOL    HW138159   2.044   3.600   8.867  3.5073 -2.0393 -0.8675
 8841SOL    HW238160   1.925   3.517   8.823 -1.0045 -0.0337  1.8130
 8842SOL     OW38161   0.356   0.560   9.437 -0.2821  0.4461 -0.6489
 8842SOL    HW138162   0.367   0.624   9.366  2.5507 -0.8335 -1.3881
 8842SOL    HW238163   0.277   0.520   9.402 -1.0424  1.6568 -0.2867
 8843SOL     OW38164   0.537   2.642  16.992 -0.9714 -0.6695  0.2945
 8843SOL    HW138165   0.557   2.644  16.899 -1.3356  1.4382  0.2587
 8843SOL    HW238166   0.625   2.628  17.029 -1.0264 -1.0159  0.2925
 8844SOL     OW38167   2.814   3.288   7.255 -0.0845 -0.5556 -0.1071
 8844SOL    HW138168   2.870   3.239   7.194 -1.0819 -1.4753 -0.2774
 8844SOL    HW238169   2.796   3.368   7.206 -0.0058 -0.2818  0.3140
 8845SOL     OW38170   0.898   1.137  14.559  0.2033 -0.2165 -0.4351
 8845SOL    HW138171   0.993   1.135  14.551  0.3231  0.2542  0.8162
 8845SOL    HW238172   0.896   1.209  14.622  0.3272 -1.1161  0.5976
 8846SOL     OW38173   1.933   2.326   7.515 -0.1447  0.0330  0.2880
 8846SOL    HW138174   2.005   2.279   7.472 -0.8793 -1.8284  1.1031
 8846SOL    HW238175   1.932   2.412   7.474 -0.7982  1.1176  2.5645
 8847SOL     OW38176   3.374   2.616  14.621  0.2670 -0.4300  0.2872
 8847SOL    HW138177   3.344   2.651  14.705 -2.6245  0.2458 -1.0427
 8847SOL    HW238178   3.422   2.692  14.587  1.0269 -0.7842  0.5564
 8848SOL     OW38179   1.479   2.143   6.496  0.2451 -0.2232 -0.2043
 8848SOL    HW138180   1.442   2.105   6.575  0.6810 -0.4465 -0.1071
 8848SOL    HW238181   1.431   2.218   6.461  0.9963  1.4317  2.3270
 8849SOL     OW38182   1.193   3.570   7.044 -0.2774  0.3854  0.1431
 8849SOL    HW138183   1.223   3.602   6.959 -0.1201  1.0577  0.4490
 8849SOL    HW238184   1.107   3.614   7.043 -0.7504 -0.5539 -1.0109
 8850SOL     OW38185   2.161   0.204   5.713 -0.4979  0.3092 -0.4910
 8850SOL    HW138186   2.088   0.263   5.732 -1.9518 -0.6700 -3.0990
 8850SOL    HW238187   2.224   0.252   5.660 -0.4553 -0.3122 -1.0004
 8851SOL     OW38188   2.825   0.794   5.319 -0.4563  0.1477 -0.1696
 8851SOL    HW138189   2.852   0.883   5.294  1.6725 -0.6448 -0.7492
 8851SOL    HW238190   2.912   0.755   5.326 -0.4710 -0.0072 -0.8887
 8852SOL     OW38191   3.070   4.041   5.184 -0.3503 -0.2571 -0.4095
 8852SOL    HW138192   2.987   4.066   5.225  0.3926  1.6469 -0.0807
 8852SOL    HW238193   3.040   3.999   5.104 -0.5446  1.5206 -1.2590
 8853SOL     OW38194   0.527   4.189   6.591  0.4501 -0.5645 -0.3909
 8853SOL    HW138195   0.499   4.164   6.679 -1.0129  0.7548 -0.4802
 8853SOL    HW238196   0.475   4.127   6.538 -0.5251 -0.4216  0.4132
 8854SOL     OW38197   2.965   0.530   9.737 -0.4370  0.0316  0.2333
 8854SOL    HW138198   2.958   0.493   9.648  0.1487 -2.2940  1.1403
 8854SOL    HW238199   2.917   0.462   9.785  0.0401  2.1366  3.6934
 8855SOL     OW38200   1.557   4.260   6.254 -0.1239 -0.6540  0.3734
 8855SOL    HW138201   1.500   4.292   6.323 -1.2490  2.5284 -2.0352
 8855SOL    HW238202   1.613   4.335   6.234 -1.0718 -0.1860 -0.5232
 8856SOL     OW38203   2.173   0.305   4.371  0.1772 -0.4827  0.7061
 8856SOL    HW138204   2.119   0.262   4.438 -0.8531  0.9356  0.7774
 8856SOL    HW238205   2.129   0.294   4.287 -0.7705  1.1727  0.9980
 8857SOL     OW38206   2.967   2.942   3.329 -0.3301 -0.2412  0.0771
 8857SOL    HW138207   2.994   2.857   3.296 -1.5154 -0.9304  0.8777
 8857SOL    HW238208   3.038   2.999   3.299  0.3515 -1.9551 -1.5403
 8858SOL     OW38209   4.661   1.804   8.509 -0.1810 -0.0395  0.1512
 8858SOL    HW138210   4.706   1.872   8.559 -1.9930  2.5594 -1.7830
 8858SOL    HW238211   4.603   1.777   8.581 -2.8314  1.0716 -1.5532
 8859SOL     OW38212   1.798   0.079   1.196 -0.4649  0.0683  0.6432
 8859SOL    HW138213   1.803   0.073   1.291 -1.1907  2.6493  0.8320
 8859SOL    HW238214   1.740   0.004   1.183  0.7084 -0.9573  1.3482
 8860SOL     OW38215   3.683   2.835   3.793  0.2589  0.0217 -0.0732
 8860SOL    HW138216   3.684   2.875   3.706  0.9633 -0.4498 -0.2802
 8860SOL    HW238217   3.610   2.778   3.770 -1.6047  2.5390 -0.4216
 8861SOL     OW38218   2.029   1.903   9.270  0.1820  0.5928 -0.1470
 8861SOL    HW138219   2.074   1.986   9.285 -0.9515  1.5191 -1.8352
 8861SOL    HW238220   2.087   1.833   9.300 -0.6377 -0.8232 -1.8454
 8862SOL     OW38221   0.311   4.626   7.764 -0.9037 -0.6133 -0.0447
 8862SOL    HW138222   0.273   4.600   7.847 -1.8093  2.6318  0.5322
 8862SOL    HW238223   0.267   4.707   7.740  0.8413 -0.2614 -2.0827
 8863SOL     OW38224   2.194   2.357   1.435 -0.3022  0.0319 -0.2465
 8863SOL    HW138225   2.245   2.284   1.470 -0.0862  1.2094  1.8737
 8863SOL    HW238226   2.244   2.381   1.358  1.1372 -0.8243  0.4246
 8864SOL     OW38227   3.431   0.109   2.043 -0.2465 -0.1906  0.2151
 8864SOL    HW138228   3.367   0.125   2.112  0.0626 -0.5485  0.5873
 8864SOL    HW238229   3.486   0.037   2.074 -1.5190 -2.1106 -2.0023
 8865SOL     OW38230   4.350   3.140   6.672 -0.0231 -0.4862 -0.4507
 8865SOL    HW138231   4.286   3.131   6.601 -0.1113  1.4987 -0.6242
 8865SOL    HW238232   4.326   3.060   6.719  1.0415  1.4630  3.3929
 8866SOL     OW38233   4.673   4.702   7.246 -0.1626 -0.3684 -0.0121
 8866SOL    HW138234   4.729   0.008   7.180 -1.5546  1.0791 -0.3099
 8866SOL    HW238235   4.659   0.042   7.303 -0.6179  0.9124 -1.7768
 8867SOL     OW38236   2.254   0.223   8.129  0.3782  0.1166  0.6130
 8867SOL    HW138237   2.315   0.271   8.073  1.0358  1.6565  2.6491
 8867SOL    HW238238   2.173   0.272   8.111 -0.4854 -1.6000 -0.1567
 8868SOL     OW38239   3.504   0.848   6.647  0.0897  0.3129 -0.6339
 8868SOL    HW138240   3.562   0.786   6.691 -1.6007 -1.7687 -1.3356
 8868SOL    HW238241   3.537   0.847   6.557  2.3688  0.9043  0.2010
 8869SOL     OW38242   1.144   0.382   6.925  0.4619 -0.3961  0.4140
 8869SOL    HW138243   1.228   0.425   6.941  0.5126  0.0578 -0.9860
 8869SOL    HW238244   1.087   0.438   6.978  2.5459 -0.6017  2.8396
 8870SOL     OW38245   4.587   1.778   9.035 -1.0072 -0.2485  0.1577
 8870SOL    HW138246   4.496   1.749   9.040 -1.6074  1.7364  0.5550
 8870SOL    HW238247   4.580   1.873   9.045  0.4213 -0.1635  0.3188
 8871SOL     OW38248   1.427   3.479   5.392  0.5216 -0.3271 -0.4255
 8871SOL    HW138249   1.373   3.401   5.407  1.1581 -0.5048  0.9786
 8871SOL    HW238250   1.443   3.515   5.480  1.6530  0.7222 -1.0607
 8872SOL     OW38251   3.609   0.595   4.032 -0.6972  0.4918 -0.5071
 8872SOL    HW138252   3.547   0.655   3.991 -0.0796  1.3850 -0.1254
 8872SOL    HW238253   3.562   0.596   4.116 -1.2789  0.1881 -0.8238
 8873SOL     OW38254   3.945   4.192  16.515 -0.1970  0.0301 -0.7610
 8873SOL    HW138255   4.002   4.158  16.447  1.9162  2.2008 -0.0785
 8873SOL    HW238256   3.884   4.237  16.456  1.2123  0.5322 -1.8423
 8874SOL     OW38257   2.342   2.692   6.885  0.0551 -0.1840  0.3844
 8874SOL    HW138258   2.384   2.619   6.931  2.3181 -1.3685 -3.5309
 8874SOL    HW238259   2.272   2.721   6.944 -0.4307 -1.2965  0.3598
 8875SOL     OW38260   0.285   3.779   0.239 -0.3116  0.1260  0.3671
 8875SOL    HW138261   0.305   3.746   0.151 -0.7902  2.4927 -0.6106
 8875SOL    HW238262   0.200   3.741   0.262  1.4672 -2.5258  2.5794
 8876SOL     OW38263   1.324   3.281   5.704 -0.1962 -0.0001  0.1775
 8876SOL    HW138264   1.351   3.372   5.713 -0.2827 -0.0203  0.6615
 8876SOL    HW238265   1.373   3.247   5.630  0.7944 -1.8361  1.6848
 8877SOL     OW38266   2.747   3.905   5.373  0.6304 -0.6433 -0.7908
 8877SOL    HW138267   2.675   3.862   5.420  1.1677  0.3828  0.9762
 8877SOL    HW238268   2.767   3.846   5.300  1.9944  1.2377 -1.9429
 8878SOL     OW38269   1.715   3.078   4.564  0.7679  0.8370 -0.2989
 8878SOL    HW138270   1.736   2.984   4.565  0.2567  0.7165 -0.8843
 8878SOL    HW238271   1.634   3.090   4.614 -0.6463 -2.4888 -1.8011
 8879SOL     OW38272   2.026   2.479   9.844 -0.4337  0.5025 -0.3989
 8879SOL    HW138273   1.969   2.517   9.777 -1.4410  2.4179  1.5635
 8879SOL    HW238274   2.084   2.433   9.784 -0.0192  1.2686 -0.5884
 8880SOL     OW38275   2.486   3.787   2.645  0.1356 -0.4633  0.0822
 8880SOL    HW138276   2.529   3.850   2.587  0.0004 -0.6552 -0.2287
 8880SOL    HW238277   2.543   3.713   2.623  2.1875  1.0760  0.2479
 8881SOL     OW38278   0.313   3.194   3.424 -0.2138 -0.1009  0.0085
 8881SOL    HW138279   0.399   3.185   3.382 -0.4782  1.1052 -0.7828
 8881SOL    HW238280   0.334   3.179   3.516  1.2090  0.7619 -0.1576
 8882SOL     OW38281   1.531   1.366   6.413  0.4167 -0.4014  0.0440
 8882SOL    HW138282   1.622   1.367   6.444  0.5775  0.0021 -0.4469
 8882SOL    HW238283   1.496   1.382   6.500 -0.9768 -1.1261 -0.3853
 8883SOL     OW38284   1.194   3.176  10.130  0.1552 -0.1850  0.2192
 8883SOL    HW138285   1.132   3.157  10.200  1.9033 -2.5127  1.1383
 8883SOL    HW238286   1.189   3.272  10.135  1.0714 -0.0538 -1.3379
 8884SOL     OW38287   1.399   0.068   4.276 -0.8772  0.0407 -0.0400
 8884SOL    HW138288   1.333   0.117   4.324  1.4536 -0.1357  3.3030
 8884SOL    HW238289   1.464   0.074   4.346  1.0323 -2.3713 -1.6425
 8885SOL     OW38290   0.907   2.002   2.503 -0.3890  0.5468 -0.4641
 8885SOL    HW138291   0.931   1.973   2.591  1.8379 -0.2066 -1.3104
 8885SOL    HW238292   0.995   2.027   2.474 -0.6039  1.1356 -0.6185
 8886SOL     OW38293   3.520   3.093   9.023  0.0946  0.2270 -0.0639
 8886SOL    HW138294   3.562   3.143   9.093 -0.4199 -0.4582  0.7365
 8886SOL    HW238295   3.463   3.036   9.075 -0.6985  0.4158 -0.7425
 8887SOL     OW38296   1.588   4.108   8.391  0.2424  0.2237 -0.1247
 8887SOL    HW138297   1.649   4.104   8.464  0.1712  0.1810 -0.0674
 8887SOL    HW238298   1.601   4.028   8.339 -1.2424 -0.0503 -0.0901
 8888SOL     OW38299   2.268   4.456  17.339  0.2451 -0.6918  0.1274
 8888SOL    HW138300   2.180   4.478  17.309  0.9084 -0.4344 -1.6297
 8888SOL    HW238301   2.318   4.445  17.258  1.9144  3.1001  0.6550
 8889SOL     OW38302   3.152   2.719   2.207  0.0040  0.0774 -0.3669
 8889SOL    HW138303   3.226   2.775   2.187  0.6116  0.0531  1.8021
 8889SOL    HW238304   3.091   2.734   2.135  0.5644  2.3262 -0.3612
 8890SOL     OW38305   3.739   0.749  16.056  0.2580  0.1320  0.5293
 8890SOL    HW138306   3.817   0.696  16.044  0.3152  0.8100 -2.1443
 8890SOL    HW238307   3.731   0.750  16.152  0.4257  1.3510  0.5335
 8891SOL     OW38308   0.630   1.480  11.081  0.3212 -0.0509  0.0809
 8891SOL    HW138309   0.599   1.463  11.170 -1.1397 -0.6187 -0.5211
 8891SOL    HW238310   0.703   1.418  11.077  0.3145 -0.1518  1.7860
 8892SOL     OW38311   0.831   1.511  10.259 -0.0656 -0.7805 -1.3322
 8892SOL    HW138312   0.764   1.445  10.241 -1.7797  1.0923 -1.7830
 8892SOL    HW238313   0.785   1.588  10.293  2.2456 -0.5017  1.2000
 8893SOL     OW38314   1.879   3.562   1.458 -0.2553  0.2635  0.0183
 8893SOL    HW138315   1.846   3.647   1.429  0.7808  0.2139 -1.3219
 8893SOL    HW238316   1.971   3.561   1.431 -0.2756 -1.2715 -0.0120
 8894SOL     OW38317   4.475   3.347   8.752  0.6293  0.3028 -0.0742
 8894SOL    HW138318   4.437   3.421   8.799  0.3678  1.4195 -2.0567
 8894SOL    HW238319   4.439   3.378   8.669 -3.3033 -0.3766  1.3964
 8895SOL     OW38320   0.341   4.368   5.537 -0.2603 -0.4748 -0.1578
 8895SOL    HW138321   0.309   4.302   5.597  1.1559 -1.0389 -0.0217
 8895SOL    HW238322   0.333   4.445   5.594  1.3944 -0.4966  0.1234
 8896SOL     OW38323   3.682   1.388   3.255  0.0284 -0.5883 -0.4105
 8896SOL    HW138324   3.661   1.307   3.207 -1.7356  0.1963 -0.9603
 8896SOL    HW238325   3.643   1.454   3.198  1.9001  0.7443 -0.1358
 8897SOL     OW38326   0.313   4.693   8.332  0.3891 -0.1802  0.0417
 8897SOL    HW138327   0.383   0.023   8.329 -0.2891  0.5193 -0.9590
 8897SOL    HW238328   0.356   4.612   8.304 -1.1201 -0.7075 -0.7742
 8898SOL     OW38329   0.884   3.066   7.649 -0.3033 -0.3220 -0.4229
 8898SOL    HW138330   0.903   3.157   7.668 -1.8002  0.1846 -1.3441
 8898SOL    HW238331   0.968   3.024   7.667  1.3226  1.7435 -3.1686
 8899SOL     OW38332   1.768   1.864   8.791 -0.1572  0.3511 -0.1050
 8899SOL    HW138333   1.768   1.958   8.773 -1.7128  0.3985  0.1557
 8899SOL    HW238334   1.753   1.830   8.703 -0.1927 -0.1193  0.0804
 8900SOL     OW38335   2.375   1.755  10.158 -0.8915 -0.0610  0.3139
 8900SOL    HW138336   2.363   1.672  10.112 -0.6899  0.1231 -0.0628
 8900SOL    HW238337   2.331   1.820  10.103 -2.0221 -0.1700  1.0805
 8901SOL     OW38338   0.236   2.112   2.091  0.2441 -0.0735  0.7583
 8901SOL    HW138339   0.300   2.183   2.082  0.8067 -0.9800 -2.6892
 8901SOL    HW238340   0.252   2.091   2.183 -0.2005 -0.8879  0.6492
 8902SOL     OW38341   3.908   1.254  13.093 -0.7505  0.0580  0.4250
 8902SOL    HW138342   3.915   1.348  13.079  0.5253  0.0410  0.9567
 8902SOL    HW238343   4.000   1.230  13.107 -0.4333  1.6254  0.9951
 8903SOL     OW38344   4.018   1.878  11.371 -0.0553  0.3386  1.2008
 8903SOL    HW138345   4.107   1.899  11.400 -0.1274  0.2420  1.4997
 8903SOL    HW238346   3.966   1.938  11.425 -2.6473 -0.2790 -0.6251
 8904SOL     OW38347   3.548   1.934  17.011 -0.7523 -0.4663 -0.4029
 8904SOL    HW138348   3.551   1.846  17.049 -0.0249  1.4185  4.0147
 8904SOL    HW238349   3.482   1.975  17.068 -0.3919 -1.8313  0.9949
 8905SOL     OW38350   1.347   3.752   2.626 -0.0407 -0.0179 -0.5314
 8905SOL    HW138351   1.370   3.723   2.538  0.3146 -1.2613 -0.0276
 8905SOL    HW238352   1.328   3.677   2.682 -0.9051  0.1024 -0.6732
 8906SOL     OW38353   1.503   1.006   5.982  0.2663 -0.2793  0.1537
 8906SOL    HW138354   1.525   1.098   5.994  0.3785  0.1079 -3.2676
 8906SOL    HW238355   1.429   0.996   6.042  0.9139  0.3448  1.0611
 8907SOL     OW38356   2.463   3.479  15.274  0.4325  0.1166 -0.0035
 8907SOL    HW138357   2.391   3.420  15.250 -0.3799  0.8258  0.6989
 8907SOL    HW238358   2.481   3.530  15.195  0.8536  1.6166  1.0582
 8908SOL     OW38359   0.233   0.613   0.002  0.2597 -0.2401 -0.7099
 8908SOL    HW138360   0.151   0.647  17.704  1.4427  2.4748 -0.8317
 8908SOL    HW238361   0.231   0.524  17.704 -0.3264 -0.8479  0.8100
 8909SOL     OW38362   1.978   2.719  11.940 -0.0090  0.1251  0.1729
 8909SOL    HW138363   1.950   2.629  11.960  1.6935 -0.0306  1.9262
 8909SOL    HW238364   1.964   2.762  12.025 -0.2869 -1.4862  0.9457
 8910SOL     OW38365   1.043   0.741   2.571  0.6899 -0.0269  0.4929
 8910SOL    HW138366   0.995   0.774   2.648  0.9874  0.1978  0.5830
 8910SOL    HW238367   1.008   0.654   2.555 -1.0173  0.3155  2.4371
 8911SOL     OW38368   0.827   2.087   1.360 -0.3463  0.0092 -0.1996
 8911SOL    HW138369   0.900   2.148   1.350  0.0851 -0.2503  1.2487
 8911SOL    HW238370   0.867   2.009   1.322 -2.9962 -1.3181 -0.3192
 8912SOL     OW38371   4.395   0.742   8.404  0.0067 -0.0590  0.0374
 8912SOL    HW138372   4.461   0.731   8.473  1.6534  0.0609 -1.5368
 8912SOL    HW238373   4.364   0.652   8.393  0.0704  0.0913 -1.3496
 8913SOL     OW38374   2.545   4.729  15.705 -0.2658 -0.0134  0.3961
 8913SOL    HW138375   2.520   4.671  15.633 -0.7979 -0.0907  0.6433
 8913SOL    HW238376   2.564   4.663  15.771  1.2125 -0.8347 -0.8484
 8914SOL     OW38377   4.283   0.209   2.352  0.2393 -0.0760 -0.6695
 8914SOL    HW138378   4.328   0.291   2.373  0.7291 -0.3916 -0.5019
 8914SOL    HW238379   4.191   0.235   2.341 -0.0588 -0.0677  1.7846
 8915SOL     OW38380   2.721   3.054  15.905  0.0943 -0.3907  0.5687
 8915SOL    HW138381   2.685   2.979  15.857  0.6068  0.7244 -1.5366
 8915SOL    HW238382   2.811   3.031  15.930  0.5128  1.4166  0.7125
 8916SOL     OW38383   0.425   0.781   6.539  0.1761  0.1020 -0.4304
 8916SOL    HW138384   0.425   0.695   6.581 -2.3146  0.5762  0.5677
 8916SOL    HW238385   0.346   0.815   6.581 -0.8452 -1.6062 -0.9534
 8917SOL     OW38386   4.642   1.331  16.820  0.3736 -0.6624 -0.3399
 8917SOL    HW138387   4.596   1.313  16.738 -1.0544  2.8334 -0.3258
 8917SOL    HW238388   4.649   1.427  16.814  1.1528 -0.7876 -1.4428
 8918SOL     OW38389   4.277   1.308   4.492 -0.2655 -0.6841  0.2464
 8918SOL    HW138390   4.217   1.324   4.419  0.9529 -1.6122 -0.9758
 8918SOL    HW238391   4.332   1.244   4.448 -1.2115 -1.4977  0.2559
 8919SOL     OW38392   1.536   4.016   6.155  0.0584 -0.0396  0.2019
 8919SOL    HW138393   1.545   4.100   6.200 -1.3418  1.1245 -1.6798
 8919SOL    HW238394   1.472   4.035   6.086  0.5091 -1.8096 -0.7092
 8920SOL     OW38395   3.922   2.058   7.105  0.3386 -0.0281 -0.1922
 8920SOL    HW138396   3.901   2.087   7.193 -2.6021 -0.8656 -0.6322
 8920SOL    HW238397   3.972   2.132   7.070 -0.9910 -0.9455 -4.0917
 8921SOL     OW38398   2.802   4.246   1.359 -0.2291 -0.2359 -0.0608
 8921SOL    HW138399   2.827   4.155   1.347 -2.1420 -0.9938  1.6362
 8921SOL    HW238400   2.881   4.282   1.401  0.5919 -1.1061 -0.8855
 8922SOL     OW38401   0.660   1.518   5.591  0.5371 -0.0430  0.2756
 8922SOL    HW138402   0.621   1.487   5.673 -0.8886  0.1891 -0.3058
 8922SOL    HW238403   0.753   1.518   5.610  0.2887  0.9774  1.5034
 8923SOL     OW38404   1.721   3.414   1.661  0.0346  0.7222 -0.3229
 8923SOL    HW138405   1.753   3.439   1.747  1.9504 -2.4305 -0.1130
 8923SOL    HW238406   1.778   3.460   1.599  1.5743 -0.3465  0.2948
 8924SOL     OW38407   2.471   3.583   8.284  0.3584 -0.5336 -0.1047
 8924SOL    HW138408   2.484   3.648   8.215 -2.9299 -1.5409 -1.6883
 8924SOL    HW238409   2.395   3.621   8.328 -0.5332 -3.7521  1.1297
 8925SOL     OW38410   3.069   0.341   4.645  0.1380  0.0615 -0.1707
 8925SOL    HW138411   3.038   0.327   4.556  0.4017 -0.2622 -0.2139
 8925SOL    HW238412   3.130   0.267   4.647  0.4415  0.3717  2.2721
 8926SOL     OW38413   1.736   3.832   4.593  0.0574  1.0285 -0.3663
 8926SOL    HW138414   1.733   3.815   4.687  1.6152 -2.1226 -0.8692
 8926SOL    HW238415   1.776   3.919   4.587 -0.1735  1.1491 -0.1314
 8927SOL     OW38416   4.236   1.328   5.255  0.3241  0.3804 -0.2466
 8927SOL    HW138417   4.227   1.257   5.191 -1.1763  0.4945 -0.1547
 8927SOL    HW238418   4.329   1.332   5.277  0.6440 -3.6803 -0.9053
 8928SOL     OW38419   4.558   1.296  12.765 -0.2177  0.1328  0.0684
 8928SOL    HW138420   4.543   1.390  12.752 -2.6900 -0.1323  1.1160
 8928SOL    HW238421   4.466   1.279  12.783  0.5084 -0.9364  2.7185
 8929SOL     OW38422   1.883   3.866  12.307 -0.1965 -0.4367 -0.0430
 8929SOL    HW138423   1.943   3.794  12.328 -1.5225 -2.0143 -1.6259
 8929SOL    HW238424   1.798   3.828  12.327 -1.6294  2.2689 -1.1116
 8930SOL     OW38425   3.202   0.694   9.671  0.4900 -0.0397  0.4204
 8930SOL    HW138426   3.189   0.671   9.579  0.8066 -1.7918  0.8044
 8930SOL    HW238427   3.159   0.614   9.702  1.5920 -0.5162  0.7045
 8931SOL     OW38428   4.434   0.707  11.678 -0.3737  0.5079  0.1346
 8931SOL    HW138429   4.428   0.713  11.774  2.2540  0.4203  0.2984
 8931SOL    HW238430   4.485   0.626  11.681  0.0421  0.7487 -0.6665
 8932SOL     OW38431   0.162   3.047   2.632  0.6328 -0.4399 -0.4406
 8932SOL    HW138432   0.110   3.063   2.710  0.9762  0.0294 -0.3118
 8932SOL    HW238433   0.242   3.094   2.653  2.1735 -2.1976 -2.3311
 8933SOL     OW38434   1.107   0.723   2.970  0.2630  0.7029  0.7554
 8933SOL    HW138435   1.034   0.664   2.986  0.2566  1.0000  1.7721
 8933SOL    HW238436   1.131   0.694   2.881 -0.5923  1.5068  0.2690
 8934SOL     OW38437   3.260   2.844  16.113  0.0409  0.1545  0.1134
 8934SOL    HW138438   3.303   2.850  16.028 -0.3232 -1.7857 -0.2136
 8934SOL    HW238439   3.235   2.935  16.125 -0.0235  0.1629 -0.0811
 8935SOL     OW38440   1.056   2.942   3.616  0.1811 -0.0161  0.1490
 8935SOL    HW138441   1.152   2.944   3.622  0.2464  0.5327 -1.0689
 8935SOL    HW238442   1.041   2.851   3.641  0.1185  0.0700  0.4331
 8936SOL     OW38443   3.557   2.849   0.276 -0.1531  0.1841 -0.5105
 8936SOL    HW138444   3.600   2.876   0.195  0.5862 -1.7796 -0.7785
 8936SOL    HW238445   3.467   2.872   0.254 -0.3092  1.3298  1.3204
 8937SOL     OW38446   0.064   2.196   1.520 -0.1412 -0.9777  0.2793
 8937SOL    HW138447   4.731   2.256   1.489  0.2451 -0.6088  0.1560
 8937SOL    HW238448   0.056   2.131   1.449 -2.1213 -0.8082  0.3321
 8938SOL     OW38449   3.347   0.991  15.009  0.4212  0.3106 -0.6536
 8938SOL    HW138450   3.356   1.075  15.054  0.4813  0.3636 -0.7661
 8938SOL    HW238451   3.262   1.018  14.974 -0.6429  0.8240  2.2815
 8939SOL     OW38452   2.512   0.251   2.238 -0.5356 -0.1616  0.0785
 8939SOL    HW138453   2.521   0.206   2.154  1.6726 -3.5653  2.1449
 8939SOL    HW238454   2.456   0.325   2.214  0.3914  0.9769  1.4243
 8940SOL     OW38455   2.130   2.065  13.518 -0.0598 -0.2737 -0.6731
 8940SOL    HW138456   2.108   2.115  13.440 -2.1981 -2.6889 -1.6297
 8940SOL    HW238457   2.189   1.993  13.496  1.0345  0.9376 -1.6841
 8941SOL     OW38458   1.453   3.244   5.167 -0.3793  0.1811  0.1470
 8941SOL    HW138459   1.472   3.235   5.074  2.7420  2.2853  0.5618
 8941SOL    HW238460   1.372   3.293   5.181  0.3801  0.7703  2.5776
 8942SOL     OW38461   4.722   4.147   0.683 -0.2546  0.3422  0.0917
 8942SOL    HW138462   4.668   4.215   0.642 -1.8327 -0.5633  0.6591
 8942SOL    HW238463   4.669   4.136   0.762 -0.3974 -0.3524 -0.1050
 8943SOL     OW38464   1.027   1.394   3.031  0.0863 -0.7715 -0.4416
 8943SOL    HW138465   0.981   1.310   3.035 -0.4440 -0.3897  1.3785
 8943SOL    HW238466   1.073   1.388   3.114 -0.0034 -2.6920 -0.5304
 8944SOL     OW38467   2.471   0.789   6.081  0.3715 -0.1140 -0.0917
 8944SOL    HW138468   2.405   0.825   6.140  1.0030 -0.2342  0.6986
 8944SOL    HW238469   2.534   0.861   6.077  0.0036  0.3136  1.8255
 8945SOL     OW38470   4.433   3.858   2.969 -0.3561 -0.0672 -0.4395
 8945SOL    HW138471   4.473   3.942   2.990 -2.1955  0.6187  0.3757
 8945SOL    HW238472   4.442   3.815   3.054 -1.5018  0.7612  0.1023
 8946SOL     OW38473   2.320   2.126   1.572  0.0077  0.0710 -0.4802
 8946SOL    HW138474   2.286   2.037   1.580  0.4895 -0.0102  0.7256
 8946SOL    HW238475   2.302   2.168   1.656 -2.8209  0.2769 -1.1790
 8947SOL     OW38476   3.038   3.984   3.391 -0.2807  0.6223  0.2266
 8947SOL    HW138477   3.062   3.982   3.299  2.0519 -2.0872  0.9156
 8947SOL    HW238478   3.123   3.977   3.434 -0.7401 -0.1336  1.0166
 8948SOL     OW38479   2.490   1.872   5.918 -0.4704  0.0157  0.1884
 8948SOL    HW138480   2.544   1.811   5.868 -0.4386 -0.5607  0.9258
 8948SOL    HW238481   2.480   1.812   5.992 -1.6058 -0.1409 -0.0982
 8949SOL     OW38482   4.662   1.451   2.944 -0.7859 -0.2347  0.3709
 8949SOL    HW138483   4.671   1.537   2.985 -2.5267  0.0473  0.1478
 8949SOL    HW238484   4.711   1.468   2.863  0.0841  0.7730  1.0973
 8950SOL     OW38485   3.396   1.591   5.057  0.4038  0.0143 -0.1180
 8950SOL    HW138486   3.382   1.642   4.977 -1.9005 -2.0867 -1.0692
 8950SOL    HW238487   3.440   1.661   5.106  0.0491  0.0860  0.1034
 8951SOL     OW38488   2.522   0.345   9.702  0.0145 -0.1595 -0.0597
 8951SOL    HW138489   2.612   0.311   9.711  0.2759  1.1241  2.4258
 8951SOL    HW238490   2.545   0.437   9.694  0.3435 -0.0736  1.8723
 8952SOL     OW38491   4.023   2.420   1.634  0.1713  0.4208  0.1439
 8952SOL    HW138492   4.003   2.400   1.543 -1.4721 -0.4450  0.6897
 8952SOL    HW238493   3.942   2.410   1.685  1.4370  0.9210  2.2765
 8953SOL     OW38494   3.107   2.990   7.893 -0.1337 -0.5240  0.0735
 8953SOL    HW138495   3.163   2.927   7.938  1.3477  0.2068 -0.7397
 8953SOL    HW238496   3.162   3.013   7.817 -1.3239 -1.0568 -0.9511
 8954SOL     OW38497   1.547   1.823   9.669 -0.1087  0.1118 -0.6824
 8954SOL    HW138498   1.562   1.778   9.753  0.5113  0.8951 -0.3764
 8954SOL    HW238499   1.456   1.846   9.686  0.3946  0.6571  1.2692
 8955SOL     OW38500   2.319   3.470   2.833 -0.0505 -0.2371 -0.1342
 8955SOL    HW138501   2.292   3.554   2.795 -0.5923 -1.3448 -2.2085
 8955SOL    HW238502   2.249   3.462   2.897  1.0145  2.9587  1.4227
 8956SOL     OW38503   3.022   1.521  13.156 -0.6031 -0.1760 -0.5438
 8956SOL    HW138504   3.023   1.436  13.202  2.0558  0.4825  0.6080
 8956SOL    HW238505   3.036   1.490  13.067  1.3629  1.1051 -0.6584
 8957SOL     OW38506   4.647   2.372   2.197 -0.4508  0.0251 -0.1517
 8957SOL    HW138507   4.654   2.450   2.252 -1.1542  0.6704 -0.9703
 8957SOL    HW238508   4.728   2.363   2.148  0.1784 -0.5402  0.9924
 8958SOL     OW38509   0.656   0.626   2.753  0.5681 -0.2856 -0.1088
 8958SOL    HW138510   0.677   0.551   2.807  0.4744 -0.7090 -0.6631
 8958SOL    HW238511   0.570   0.607   2.715  0.8362 -1.3831 -0.1491
 8959SOL     OW38512   1.752   0.368  11.174 -0.8593  0.0870 -0.1860
 8959SOL    HW138513   1.816   0.297  11.179  1.4931  2.3383  1.2170
 8959SOL    HW238514   1.726   0.383  11.265 -0.2727  1.4379 -0.2498
 8960SOL     OW38515   1.843   3.207   1.156  0.1819  0.2614 -0.5674
 8960SOL    HW138516   1.811   3.195   1.246 -3.2882 -3.9392 -2.3617
 8960SOL    HW238517   1.767   3.174   1.108  0.6016  0.5553 -1.4172
 8961SOL     OW38518   2.474   3.616   4.178  0.8347  0.2035 -0.1007
 8961SOL    HW138519   2.443   3.623   4.268 -2.0509 -0.2098 -1.0650
 8961SOL    HW238520   2.512   3.703   4.165 -1.8544  1.2305 -0.8743
 8962SOL     OW38521   1.420   0.728   2.133  0.0409  0.1923 -0.0807
 8962SOL    HW138522   1.447   0.810   2.174  1.0378 -0.4133  0.4571
 8962SOL    HW238523   1.436   0.749   2.040  0.5458  1.5338  0.3099
 8963SOL     OW38524   1.666   3.241   7.513 -0.5650 -0.0256  0.1572
 8963SOL    HW138525   1.717   3.312   7.474  0.9051 -1.3926 -0.3830
 8963SOL    HW238526   1.580   3.282   7.503 -0.0795  1.0783  0.5400
 8964SOL     OW38527   2.598   2.611  16.982  0.1459  0.3894 -0.3385
 8964SOL    HW138528   2.624   2.571  16.899 -2.6729 -1.7682 -0.2021
 8964SOL    HW238529   2.503   2.619  16.975  0.0355  0.4325  1.2579
 8965SOL     OW38530   4.614   3.145   8.649 -0.8661 -0.0845  0.3535
 8965SOL    HW138531   4.541   3.205   8.663 -1.0244 -0.4301  1.0456
 8965SOL    HW238532   4.674   3.216   8.672  0.2666 -0.0512 -2.6830
 8966SOL     OW38533   2.105   3.692   5.575 -0.1375 -0.2296  0.8677
 8966SOL    HW138534   2.062   3.610   5.599 -1.1001 -0.1991 -0.7200
 8966SOL    HW238535   2.049   3.753   5.622 -2.0124 -1.0184 -0.3627
 8967SOL     OW38536   4.643   1.652   7.528  0.2518 -0.1931 -0.2659
 8967SOL    HW138537   4.607   1.565   7.513  0.3748 -0.0290 -1.5205
 8967SOL    HW238538   4.707   1.644   7.458  0.1631  1.8297 -0.5779
 8968SOL     OW38539   2.217   2.238   1.782  0.0370 -0.1404 -0.2916
 8968SOL    HW138540   2.236   2.332   1.774  0.0088 -0.1270 -0.1921
 8968SOL    HW238541   2.131   2.238   1.823  0.7487  2.4960  1.2217
 8969SOL     OW38542   0.432   2.419   2.988  0.7226  0.2099  0.4188
 8969SOL    HW138543   0.511   2.413   2.934  1.1081 -0.0903  1.0205
 8969SOL    HW238544   0.422   2.511   3.011 -0.6136  0.0103  0.6130
 8970SOL     OW38545   4.189   3.865   9.066  0.7629  0.1944  0.4051
 8970SOL    HW138546   4.226   3.868   8.978 -0.4360 -0.2735 -0.1140
 8970SOL    HW238547   4.219   3.780   9.099  0.8190 -0.7302 -2.0488
 8971SOL     OW38548   2.815   1.597  12.416 -0.2884 -0.4730  0.1954
 8971SOL    HW138549   2.805   1.534  12.345 -1.5045 -0.0026 -0.0511
 8971SOL    HW238550   2.729   1.574  12.451 -0.7949  1.4829  0.2594
 8972SOL     OW38551   0.169   0.666   2.721 -0.0375  0.0448  0.0421
 8972SOL    HW138552   0.144   0.659   2.629 -2.2640  0.9064  0.5745
 8972SOL    HW238553   0.155   0.760   2.734 -1.9081 -0.3423  0.7633
 8973SOL     OW38554   1.556   2.055  12.424  0.5501  0.3680 -0.4868
 8973SOL    HW138555   1.621   2.121  12.399  0.7232 -0.0712 -1.2114
 8973SOL    HW238556   1.473   2.103  12.420 -1.0528 -2.3982 -0.0955
 8974SOL     OW38557   4.135   4.514   5.908  0.4948 -0.7988 -0.4929
 8974SOL    HW138558   4.182   4.488   5.828 -0.1994 -0.6795 -0.9381
 8974SOL    HW238559   4.184   4.593   5.932  1.5616 -1.7954  0.6152
 8975SOL     OW38560   3.223   3.884   0.331 -0.5827  0.4439 -0.1198
 8975SOL    HW138561   3.133   3.865   0.355 -0.4750  0.7586  0.5172
 8975SOL    HW238562   3.211   3.946   0.259  1.0640 -0.5365 -1.2493
 8976SOL     OW38563   4.141   2.337  10.495 -0.1819  0.0195 -0.4290
 8976SOL    HW138564   4.156   2.277  10.422 -1.3525  0.2544 -0.8552
 8976SOL    HW238565   4.222   2.387  10.491 -0.1712  0.1758  1.5588
 8977SOL     OW38566   2.011   2.097  16.142  0.0108 -0.9262 -0.7511
 8977SOL    HW138567   1.977   2.176  16.183  0.9150  0.2561 -2.2965
 8977SOL    HW238568   1.941   2.033  16.155  0.2168 -0.8208  0.8034
 8978SOL     OW38569   2.978   2.644   2.411  0.6078 -0.6343 -0.2112
 8978SOL    HW138570   2.984   2.554   2.380 -3.4224 -0.7611 -0.6904
 8978SOL    HW238571   3.048   2.688   2.363 -0.6704  1.1711 -0.4275
 8979SOL     OW38572   0.373   0.183   4.556 -0.3957  0.1178 -0.3197
 8979SOL    HW138573   0.398   0.269   4.523 -0.3990  1.0583  2.0931
 8979SOL    HW238574   0.331   0.150   4.477  1.0263  1.2631 -1.5349
 8980SOL     OW38575   0.175   0.151   2.102  0.5919  0.3335 -0.0778
 8980SOL    HW138576   0.161   0.108   2.187  1.3159  0.7634  0.2541
 8980SOL    HW238577   0.149   0.083   2.040 -1.8961 -0.2393  1.5748
 8981SOL     OW38578   2.109   1.879   8.347  0.4334 -0.5518 -0.1376
 8981SOL    HW138579   2.194   1.835   8.351  0.1564 -1.2831 -2.4193
 8981SOL    HW238580   2.132   1.943   8.414  1.6559 -0.1969 -0.8971
 8982SOL     OW38581   0.137   0.096   7.766 -0.3258  0.2270  0.6122
 8982SOL    HW138582   0.088   0.022   7.730 -2.0390  1.1512  1.0015
 8982SOL    HW238583   0.074   0.168   7.761  0.5292  0.8813 -0.5366
 8983SOL     OW38584   0.657   2.027  12.170  0.1131 -0.4087  0.5061
 8983SOL    HW138585   0.714   2.044  12.245 -1.4494  1.4365  1.2684
 8983SOL    HW238586   0.593   2.091  12.202  0.4399  0.8409 -1.3159
 8984SOL     OW38587   0.625   3.102   8.225  0.4245 -0.0641  0.1792
 8984SOL    HW138588   0.617   3.192   8.256  0.5766 -0.1493  0.4708
 8984SOL    HW238589   0.710   3.078   8.263  0.5219 -1.7644 -1.0791
 8985SOL     OW38590   2.832   2.510  11.551  0.6408  0.6536 -0.2621
 8985SOL    HW138591   2.852   2.418  11.538  0.1831  0.4395  0.5242
 8985SOL    HW238592   2.845   2.552  11.465 -0.0860  0.9117 -0.2516
 8986SOL     OW38593   1.967   3.437   8.179 -0.5210 -0.3502 -0.8078
 8986SOL    HW138594   1.961   3.382   8.101  0.3658 -0.9824 -0.4367
 8986SOL    HW238595   2.041   3.394   8.222 -1.7007 -1.2277  0.3586
 8987SOL     OW38596   4.646   0.807   4.318  0.4858 -0.1271  0.0564
 8987SOL    HW138597   4.573   0.750   4.295 -0.6489  0.1991  2.8787
 8987SOL    HW238598   4.598   0.861   4.381  1.2041  0.3512  0.2003
 8988SOL     OW38599   2.295   3.957   7.784  0.9866 -0.0412  0.2496
 8988SOL    HW138600   2.359   3.992   7.846  0.0941  1.1115  0.5215
 8988SOL    HW238601   2.213   3.967   7.832  1.2288  0.1820  0.6177
 8989SOL     OW38602   2.610   1.029   7.104 -0.2100 -0.2828 -0.4028
 8989SOL    HW138603   2.578   1.060   7.019  0.2423 -1.7810 -1.1207
 8989SOL    HW238604   2.530   0.998   7.145  0.8219 -2.1741  0.1912
 8990SOL     OW38605   2.634   1.748   4.965  0.7386 -0.5615 -0.0138
 8990SOL    HW138606   2.570   1.756   4.895  2.0504  1.8940 -0.9528
 8990SOL    HW238607   2.685   1.827   4.945 -0.1107  0.2718  1.1324
 8991SOL     OW38608   4.606   0.600   5.208 -0.4917 -0.6306 -0.0406
 8991SOL    HW138609   4.664   0.545   5.262 -1.3601 -1.8459 -0.3648
 8991SOL    HW238610   4.592   0.545   5.132 -1.2595 -0.0227 -0.3435
 8992SOL     OW38611   0.760   3.795  13.596 -0.0963 -0.2334  0.6635
 8992SOL    HW138612   0.759   3.888  13.618  0.1585  0.1140 -0.7930
 8992SOL    HW238613   0.792   3.809  13.507 -0.2032 -0.5307  0.5777
 8993SOL     OW38614   0.606   3.391   3.336 -0.0537 -0.1603 -0.2249
 8993SOL    HW138615   0.695   3.370   3.364 -0.0517  0.0328 -0.0845
 8993SOL    HW238616   0.572   3.304   3.316 -0.1941 -0.4233  1.1770
 8994SOL     OW38617   3.371   3.509  14.675  0.3736 -0.1560  0.7354
 8994SOL    HW138618   3.332   3.546  14.595 -1.5755 -1.8767  0.8921
 8994SOL    HW238619   3.436   3.575  14.698 -1.2660  0.9358  2.2021
 8995SOL     OW38620   3.880   3.117   9.177 -0.5457 -0.4485  0.2016
 8995SOL    HW138621   3.871   3.022   9.168  0.1616 -0.3195 -1.9352
 8995SOL    HW238622   3.788   3.142   9.188  0.0682  1.0221  1.9469
 8996SOL     OW38623   3.116   2.417   9.599  0.1916  0.1370 -0.5121
 8996SOL    HW138624   3.208   2.393   9.594  0.5878  1.3343  0.8589
 8996SOL    HW238625   3.071   2.345   9.555  0.0246  0.3714 -0.7240
 8997SOL     OW38626   4.335   3.365   4.747 -0.0475  0.0778 -0.1228
 8997SOL    HW138627   4.342   3.421   4.670 -0.7478 -0.7802 -0.8091
 8997SOL    HW238628   4.424   3.331   4.758  0.0831  0.6511  0.6016
 8998SOL     OW38629   3.521   1.623   6.412  0.6106  0.1785  0.0222
 8998SOL    HW138630   3.441   1.675   6.417  1.1433  0.9367  0.5901
 8998SOL    HW238631   3.488   1.544   6.369  0.1987  1.5403 -2.1149
 8999SOL     OW38632   3.127   3.949   0.757 -0.2360 -0.0854  0.1481
 8999SOL    HW138633   3.189   3.949   0.830 -1.0115  1.2803  0.8023
 8999SOL    HW238634   3.178   3.979   0.682 -1.4911 -1.4041 -1.2118
 9000SOL     OW38635   2.592   3.952   1.535 -0.4041 -0.0236 -0.4410
 9000SOL    HW138636   2.570   3.862   1.559 -1.3840  0.4687  0.4882
 9000SOL    HW238637   2.685   3.944   1.559  0.0541  0.7906 -1.8773
 9001SOL     OW38638   3.931   0.067   8.042  0.4553  0.2211 -0.3020
 9001SOL    HW138639   4.013   0.116   8.032 -0.3804  1.8538  0.7981
 9001SOL    HW238640   3.929   0.054   8.137  0.3699  1.5446 -0.1223
 9002SOL     OW38641   2.345   0.184   6.184  0.4851 -0.5227  0.0511
 9002SOL    HW138642   2.279   0.184   6.114  0.1029  1.2310  0.4139
 9002SOL    HW238643   2.379   0.271   6.203  3.1549 -1.4308 -0.6109
 9003SOL     OW38644   0.996   3.960   8.204  0.3495 -0.2987  0.3711
 9003SOL    HW138645   0.943   4.029   8.164  1.5895  1.0480  1.0488
 9003SOL    HW238646   0.927   3.895   8.218  1.4569 -1.8383 -1.3386
 9004SOL     OW38647   0.364   1.438   5.835  0.4785 -0.3020  0.2850
 9004SOL    HW138648   0.317   1.376   5.779 -0.0147 -0.2445  0.6380
 9004SOL    HW238649   0.308   1.516   5.843 -0.2127 -0.8078  0.3998
 9005SOL     OW38650   1.757   2.492   3.557 -0.1428  0.0058  0.2916
 9005SOL    HW138651   1.720   2.440   3.629  0.6538 -0.9332  0.0290
 9005SOL    HW238652   1.828   2.532   3.608 -0.0881  0.4525 -0.1345
 9006SOL     OW38653   0.855   1.780   3.282  0.3363  0.5693  0.6897
 9006SOL    HW138654   0.843   1.818   3.370 -2.8010 -1.8215  1.2920
 9006SOL    HW238655   0.876   1.692   3.311 -1.7042 -0.5324 -1.2381
 9007SOL     OW38656   2.625   3.405   7.788  0.4656 -0.4701  0.4983
 9007SOL    HW138657   2.609   3.439   7.876  0.9382 -1.5325  1.0039
 9007SOL    HW238658   2.550   3.434   7.738  1.6982  1.2203 -0.3446
 9008SOL     OW38659   4.411   2.598   3.900 -0.0666 -0.3917 -0.2745
 9008SOL    HW138660   4.442   2.688   3.887  1.1643 -1.1193 -2.3144
 9008SOL    HW238661   4.325   2.612   3.940  0.4947 -0.9809  1.1319
 9009SOL     OW38662   1.968   2.217   6.335 -0.2570 -0.1161 -0.5290
 9009SOL    HW138663   1.964   2.163   6.414  0.6005  2.5406  1.3293
 9009SOL    HW238664   1.875   2.237   6.327 -0.8358 -2.7838 -0.7207
 9010SOL     OW38665   3.174   1.964  16.614  0.6167 -0.6240  0.3861
 9010SOL    HW138666   3.220   1.989  16.694  0.4835 -0.1636  0.3184
 9010SOL    HW238667   3.084   1.993  16.632  0.7482  0.9425 -1.5150
 9011SOL     OW38668   4.146   3.166   2.205  0.2519 -0.0908 -0.2802
 9011SOL    HW138669   4.201   3.213   2.267  0.0903 -0.5754  0.2305
 9011SOL    HW238670   4.088   3.120   2.266  0.0891 -1.2893 -1.3409
 9012SOL     OW38671   4.653   2.413   5.999  0.6084 -0.7574  0.0785
 9012SOL    HW138672   4.732   2.449   5.959  0.4186 -0.4100  0.0168
 9012SOL    HW238673   4.589   2.453   5.941  1.6072  0.3006 -0.2858
 9013SOL     OW38674   2.992   2.633   9.482 -0.0162 -0.6292  0.4909
 9013SOL    HW138675   3.053   2.571   9.522 -0.3497 -1.7140 -0.6650
 9013SOL    HW238676   2.927   2.631   9.552 -0.7454  0.3267 -0.1490
 9014SOL     OW38677   0.178   2.699   6.357 -0.3981  0.1084 -0.1303
 9014SOL    HW138678   0.270   2.672   6.349 -0.3287 -0.2586  2.0426
 9014SOL    HW238679   0.150   2.611   6.384 -0.3715  0.0433 -0.3078
 9015SOL     OW38680   2.144   4.591  11.046  0.2411  0.2099  0.4505
 9015SOL    HW138681   2.068   4.646  11.030  0.7521  0.7187 -0.2365
 9015SOL    HW238682   2.165   4.606  11.139 -0.0213  0.6933  0.4258
 9016SOL     OW38683   2.766   4.249   8.504 -0.0466 -0.0547 -0.3190
 9016SOL    HW138684   2.820   4.264   8.582  0.2858 -0.8082 -0.3999
 9016SOL    HW238685   2.745   4.158   8.522 -0.8726  0.2609  0.3004
 9017SOL     OW38686   2.765   4.529  16.303  0.2519 -0.0202 -0.2957
 9017SOL    HW138687   2.788   4.459  16.242 -1.6872 -1.8969  1.1128
 9017SOL    HW238688   2.726   4.589  16.239  0.3487 -0.4685 -0.7787
 9018SOL     OW38689   1.425   4.366   6.462  0.2264  0.2327  0.3929
 9018SOL    HW138690   1.337   4.404   6.461 -0.2587 -0.8563  4.0747
 9018SOL    HW238691   1.476   4.419   6.523  1.4610 -0.6331  0.1212
 9019SOL     OW38692   0.799   1.075   4.945 -0.1073  0.2429 -0.5165
 9019SOL    HW138693   0.796   0.992   4.993 -1.2577  0.4407 -0.2367
 9019SOL    HW238694   0.714   1.066   4.902 -0.0694  0.7111 -0.6888
 9020SOL     OW38695   4.199   2.570   5.361  0.5088 -0.5355 -0.1054
 9020SOL    HW138696   4.265   2.505   5.387  1.1134 -0.2803 -1.0288
 9020SOL    HW238697   4.188   2.559   5.267  1.1770  2.1753 -0.4855
 9021SOL     OW38698   1.160   4.311  11.269 -0.0091  0.0282 -0.4548
 9021SOL    HW138699   1.071   4.344  11.257  0.4657  0.3893 -3.0081
 9021SOL    HW238700   1.201   4.387  11.228  0.3053  0.9923  1.6406
 9022SOL     OW38701   2.966   3.836   6.043  0.2712  0.7956 -0.1377
 9022SOL    HW138702   2.971   3.740   6.041 -2.4658  0.6147  1.1832
 9022SOL    HW238703   2.922   3.846   5.958  0.6714  0.9510 -0.3267
 9023SOL     OW38704   1.311   0.826  14.113 -0.5240  0.7321 -0.3921
 9023SOL    HW138705   1.315   0.911  14.070  2.9037  0.9215  0.3175
 9023SOL    HW238706   1.310   0.770  14.035  3.5431 -0.9517  0.7501
 9024SOL     OW38707   4.330   1.107   8.194 -0.1842  0.1185  0.0721
 9024SOL    HW138708   4.345   1.122   8.287  0.4164 -1.3865  0.2197
 9024SOL    HW238709   4.280   1.025   8.201  2.4068 -1.3251  1.8543
 9025SOL     OW38710   3.752   2.194   7.965  0.3955 -0.3426 -0.3340
 9025SOL    HW138711   3.839   2.155   7.961 -0.3474 -2.0920  0.6632
 9025SOL    HW238712   3.694   2.128   8.003 -0.1182  1.5676  2.1913
 9026SOL     OW38713   3.856   3.971  17.366  0.3006 -0.0880 -0.2240
 9026SOL    HW138714   3.810   4.021  17.433  0.8808 -0.4772  0.4541
 9026SOL    HW238715   3.789   3.956  17.299 -1.3643 -0.4203  1.5295
 9027SOL     OW38716   3.740   4.198   4.893  0.4455  0.1756  0.2061
 9027SOL    HW138717   3.697   4.167   4.972  0.3312  0.2451  0.1724
 9027SOL    HW238718   3.807   4.134   4.869 -0.4006 -0.1340 -1.3541
 9028SOL     OW38719   1.770   0.155  15.167 -0.0250  0.2537 -0.0127
 9028SOL    HW138720   1.810   0.106  15.240 -0.9650  0.4950  0.6592
 9028SOL    HW238721   1.729   0.076  15.131  0.5082  0.2003 -0.5065
 9029SOL     OW38722   4.576   3.688   7.431  0.4003 -0.1446  0.8179
 9029SOL    HW138723   4.527   3.635   7.494  0.1846 -0.0400  0.7414
 9029SOL    HW238724   4.521   3.679   7.352 -1.5722 -0.3728  2.2243
 9030SOL     OW38725   4.094   2.239   3.866 -0.0691  0.1454  0.2632
 9030SOL    HW138726   4.165   2.238   3.930  0.1262  1.1983  0.0664
 9030SOL    HW238727   4.146   2.212   3.791  1.2756 -1.5111  1.7791
 9031SOL     OW38728   1.758   4.439   7.482 -0.3129  0.0873  0.6082
 9031SOL    HW138729   1.793   4.460   7.396 -1.3651 -1.1398 -0.1140
 9031SOL    HW238730   1.812   4.364   7.507  0.7213  0.4296 -0.6180
 9032SOL     OW38731   1.079   3.112   2.766  0.7266  0.9355 -0.0060
 9032SOL    HW138732   1.052   3.049   2.699 -1.3373 -1.5693  3.1817
 9032SOL    HW238733   1.105   3.185   2.711  3.0238  1.1150  1.2850
 9033SOL     OW38734   2.788   2.606   2.976 -0.6746 -0.4741  0.1066
 9033SOL    HW138735   2.752   2.581   2.891 -1.2798 -0.8605  0.4713
 9033SOL    HW238736   2.818   2.696   2.964  2.8860 -1.3885  2.0121
 9034SOL     OW38737   4.566   1.671  10.402  0.1083 -0.1691  0.2279
 9034SOL    HW138738   4.569   1.635  10.313 -1.2687 -0.7219  0.4033
 9034SOL    HW238739   4.472   1.673  10.417 -0.2450  0.6984 -2.0907
 9035SOL     OW38740   0.420   1.198   9.412  0.3233  0.3055  0.4221
 9035SOL    HW138741   0.474   1.163   9.484  1.0375  1.4932  0.4617
 9035SOL    HW238742   0.485   1.211   9.343  1.5067  1.0538  1.6656
 9036SOL     OW38743   3.063   4.536   5.595 -0.5333 -0.2101  0.1694
 9036SOL    HW138744   3.041   4.577   5.511 -0.2004 -0.3696  0.0042
 9036SOL    HW238745   3.025   4.598   5.657  0.2252 -0.1711  0.5903
 9037SOL     OW38746   1.417   0.578   5.094 -0.1004 -0.0944  0.3193
 9037SOL    HW138747   1.373   0.661   5.076  2.0751  0.7273 -1.2870
 9037SOL    HW238748   1.503   0.613   5.118  0.7252 -2.2548  0.4863
 9038SOL     OW38749   0.206   0.089   1.014 -0.2103 -0.2984  0.2686
 9038SOL    HW138750   0.301   0.097   1.020  0.0404 -2.7175 -0.4055
 9038SOL    HW238751   0.195   0.061   0.923  0.4186  1.9525 -0.5216
 9039SOL     OW38752   3.225   1.443  16.649  0.5422 -0.1393  0.0652
 9039SOL    HW138753   3.213   1.470  16.559  0.0477  0.0579  0.1907
 9039SOL    HW238754   3.295   1.503  16.673  1.2604 -2.5801  4.1689
 9040SOL     OW38755   0.960   0.482   2.674  0.3120  0.0185 -0.3775
 9040SOL    HW138756   1.017   0.447   2.742  0.6255 -0.3132 -0.8122
 9040SOL    HW238757   0.875   0.507   2.711  1.7557  0.9095  2.2949
 9041SOL     OW38758   0.451   3.232   7.276 -0.3402 -0.5233  0.8928
 9041SOL    HW138759   0.502   3.302   7.235  0.7042 -1.8196 -0.0266
 9041SOL    HW238760   0.472   3.255   7.366  3.0182 -0.8953  0.1965
 9042SOL     OW38761   2.369   3.919  10.708  0.2711  0.1706  0.8061
 9042SOL    HW138762   2.433   3.989  10.699 -0.0969  0.1700 -1.8210
 9042SOL    HW238763   2.416   3.848  10.664 -0.5065  0.1965 -0.0699
 9043SOL     OW38764   1.453   2.473  11.823 -0.4971  0.4228 -0.2340
 9043SOL    HW138765   1.432   2.556  11.781  0.3111  0.4176 -0.6487
 9043SOL    HW238766   1.428   2.406  11.759 -1.4510  1.0368 -0.4963
 9044SOL     OW38767   4.013   3.251   7.722  0.2233  0.5692  0.1616
 9044SOL    HW138768   4.101   3.216   7.729 -0.5381 -1.2516  0.6676
 9044SOL    HW238769   3.967   3.196   7.659 -0.4895  2.6452 -1.1377
 9045SOL     OW38770   1.329   0.778   9.234  0.0333  0.1253 -0.1458
 9045SOL    HW138771   1.333   0.719   9.309  1.5199  1.2381  0.6435
 9045SOL    HW238772   1.363   0.861   9.268 -0.3918  0.9866 -1.8398
 9046SOL     OW38773   1.401   0.702  13.355 -0.1440  0.4682 -0.2412
 9046SOL    HW138774   1.458   0.644  13.406 -0.0150 -0.3167 -1.2906
 9046SOL    HW238775   1.467   0.752  13.307 -0.3737  0.5125 -0.5102
 9047SOL     OW38776   2.982   3.419  17.733 -0.2502 -0.3801  0.1013
 9047SOL    HW138777   2.931   3.376  17.666  0.4101  0.1967 -0.7739
 9047SOL    HW238778   3.066   3.431  17.688 -0.8136 -2.1135 -1.3657
 9048SOL     OW38779   1.529   4.127   3.077  0.0265  0.0116 -0.1334
 9048SOL    HW138780   1.475   4.095   3.005 -1.0621 -0.6034  0.9595
 9048SOL    HW238781   1.456   4.131   3.139 -1.2716 -1.6032 -1.5727
 9049SOL     OW38782   4.445   1.227  16.181  0.4699  0.8755 -0.1224
 9049SOL    HW138783   4.445   1.279  16.262  0.0710 -0.3713  0.6825
 9049SOL    HW238784   4.540   1.219  16.172  0.5685  1.1722  0.6615
 9050SOL     OW38785   0.316   1.770   5.021 -0.6681  0.0794  0.4871
 9050SOL    HW138786   0.376   1.702   5.051 -0.3888  0.7211  1.3661
 9050SOL    HW238787   0.355   1.840   5.073 -0.9808  0.1272  0.6581
 9051SOL     OW38788   1.772   0.253   0.858  0.3285  0.1750 -0.5192
 9051SOL    HW138789   1.854   0.275   0.903  0.2361 -0.4192 -0.0519
 9051SOL    HW238790   1.816   0.280   0.777 -1.3385  1.1137 -1.1028
 9052SOL     OW38791   3.970   3.823  12.011  0.8173 -0.0662 -0.4467
 9052SOL    HW138792   3.961   3.863  12.098 -2.1410  1.8904 -1.6487
 9052SOL    HW238793   4.037   3.876  11.970 -0.6680 -0.5292 -3.4375
 9053SOL     OW38794   4.041   3.621   1.298 -0.6419 -0.3068 -0.5932
 9053SOL    HW138795   4.052   3.529   1.321  1.8044 -0.3263 -1.8111
 9053SOL    HW238796   4.027   3.610   1.204  1.5037  0.2284 -0.9847
 9054SOL     OW38797   0.424   0.294   6.266  0.1690  0.2909  0.3963
 9054SOL    HW138798   0.397   0.375   6.310 -1.3317 -0.9791  1.7867
 9054SOL    HW238799   0.401   0.226   6.329  0.2406 -1.2495 -1.2493
 9055SOL     OW38800   0.166   0.805   3.118 -0.4579  1.3214 -0.3602
 9055SOL    HW138801   0.191   0.873   3.055 -2.9815  2.4028 -0.1564
 9055SOL    HW238802   0.074   0.830   3.114 -1.1472 -1.1766  0.1779
 9056SOL     OW38803   4.119   4.120   1.801 -0.9315 -0.5800  0.3634
 9056SOL    HW138804   4.160   4.037   1.825  0.4469  0.3298  1.1038
 9056SOL    HW238805   4.032   4.093   1.771 -0.9294  0.2523 -0.3913
 9057SOL     OW38806   0.815   4.726   8.439 -0.2639  0.2673 -0.3005
 9057SOL    HW138807   0.908   4.704   8.426 -0.0040  0.6210  0.9720
 9057SOL    HW238808   0.824   0.019   8.530 -3.5140 -0.5217  0.2468
 9058SOL     OW38809   0.285   3.010   6.683  0.5284 -0.4164  0.4278
 9058SOL    HW138810   0.262   2.935   6.737 -0.4377 -0.3474  0.1098
 9058SOL    HW238811   0.380   3.016   6.697  0.6429 -0.4372 -0.2928
 9059SOL     OW38812   3.023   4.658   7.813 -0.0921  0.3399 -0.0903
 9059SOL    HW138813   3.093   4.595   7.794 -0.5374  0.1263 -1.0621
 9059SOL    HW238814   3.045   0.004   7.766  0.0757  0.5536  0.3654
 9060SOL     OW38815   3.147   0.553   3.761  0.2783  0.1781  0.1012
 9060SOL    HW138816   3.226   0.548   3.707  0.0027  3.5001 -0.6284
 9060SOL    HW238817   3.129   0.462   3.785  0.6707  0.2391  0.6250
 9061SOL     OW38818   0.823   2.341   3.057  0.0844  0.4840  0.6164
 9061SOL    HW138819   0.751   2.385   3.012  1.1444 -0.3847 -1.8798
 9061SOL    HW238820   0.774   2.309   3.133  1.0828  1.0919  1.5179
 9062SOL     OW38821   1.057   1.475   5.480  0.6536 -0.3328 -0.0174
 9062SOL    HW138822   1.100   1.392   5.500  0.1843 -0.6908 -0.4952
 9062SOL    HW238823   1.069   1.481   5.385 -0.0368 -0.0726 -0.0925
 9063SOL     OW38824   3.414   1.601   9.021 -0.4245  0.0251 -0.2446
 9063SOL    HW138825   3.502   1.568   9.003 -0.4308 -0.1427  0.0284
 9063SOL    HW238826   3.369   1.517   9.029 -0.6812  0.0993 -0.8751
 9064SOL     OW38827   0.760   2.081   7.842 -0.2525 -0.2662 -0.2803
 9064SOL    HW138828   0.731   2.015   7.904  0.5719 -1.1330 -0.8160
 9064SOL    HW238829   0.822   2.114   7.907  0.4044 -0.8595 -0.6029
 9065SOL     OW38830   1.441   0.631   3.072 -0.6502 -0.4085  0.1998
 9065SOL    HW138831   1.386   0.559   3.103 -0.4784 -0.3494  0.6343
 9065SOL    HW238832   1.379   0.701   3.056 -2.0919 -1.4995  1.0126
 9066SOL     OW38833   1.605   1.391  10.109 -0.1094  0.1956  0.0577
 9066SOL    HW138834   1.620   1.484  10.092 -1.4496  0.3185 -0.4155
 9066SOL    HW238835   1.529   1.363  10.058  0.2724 -1.0605  0.1652
 9067SOL     OW38836   2.695   4.014   6.499 -0.7133  0.3899  0.0119
 9067SOL    HW138837   2.659   3.925   6.492  2.7894 -0.9305 -1.3095
 9067SOL    HW238838   2.718   4.026   6.407 -0.7085  0.6872  0.0537
 9068SOL     OW38839   1.288   0.321   0.259  0.0287  0.1076  0.1554
 9068SOL    HW138840   1.272   0.408   0.222  0.6023 -0.6481 -1.9042
 9068SOL    HW238841   1.225   0.261   0.218  0.6854  0.3068 -1.1633
 9069SOL     OW38842   2.570   2.738   7.957  0.4518 -0.2893 -0.1179
 9069SOL    HW138843   2.661   2.761   7.935  0.2919 -0.1341 -0.6307
 9069SOL    HW238844   2.573   2.737   8.052  1.5856 -2.0685 -0.1830
 9070SOL     OW38845   0.846   2.189   5.312  0.2825  0.0027 -0.1400
 9070SOL    HW138846   0.908   2.129   5.355 -0.9114 -0.0611  1.4891
 9070SOL    HW238847   0.892   2.225   5.237 -0.1132  0.8188  0.0156
 9071SOL     OW38848   3.100   2.701   3.288  0.8463 -0.0826  0.1619
 9071SOL    HW138849   3.192   2.718   3.269  0.4537  1.5713 -0.2988
 9071SOL    HW238850   3.071   2.648   3.215 -1.4323 -1.8180  2.3279
 9072SOL     OW38851   3.781   4.421   5.130 -0.4134 -0.0259  0.1112
 9072SOL    HW138852   3.818   4.335   5.111 -0.8802 -0.0906 -0.4994
 9072SOL    HW238853   3.721   4.396   5.200  2.1910 -1.8317  1.7188
 9073SOL     OW38854   3.182   1.066  12.303 -0.5811  0.4197  0.0588
 9073SOL    HW138855   3.244   1.122  12.258 -1.6492  1.4197 -0.1606
 9073SOL    HW238856   3.236   1.024  12.370  1.6367  1.6532 -0.9740
 9074SOL     OW38857   3.699   3.766  13.658 -0.2759  0.3927  0.3915
 9074SOL    HW138858   3.640   3.753  13.732 -0.2697 -0.9816  0.1411
 9074SOL    HW238859   3.777   3.787  13.710  0.0564 -1.5526  0.6817
 9075SOL     OW38860   3.437   2.177   3.336 -0.2510 -0.0518 -0.7212
 9075SOL    HW138861   3.436   2.238   3.263 -0.1603  0.6054 -0.1786
 9075SOL    HW238862   3.526   2.142   3.329 -0.2611  0.4684 -3.2624
 9076SOL     OW38863   3.787   3.677   9.571 -0.0394  0.0938 -0.1506
 9076SOL    HW138864   3.731   3.613   9.528  0.9003 -2.7810  2.9003
 9076SOL    HW238865   3.736   3.756   9.588  0.4416  0.8260 -2.1041
 9077SOL     OW38866   3.437   4.405   2.886 -0.2814 -0.2843 -0.3109
 9077SOL    HW138867   3.475   4.321   2.915 -1.2193 -0.3947  0.5914
 9077SOL    HW238868   3.448   4.385   2.793  3.8177  2.3639 -0.4081
 9078SOL     OW38869   2.113   2.108  13.794  0.7062 -0.4417 -0.3873
 9078SOL    HW138870   2.122   2.102  13.699 -1.0867 -0.8475 -0.5308
 9078SOL    HW238871   2.018   2.108  13.804  0.9970  0.5330  2.4928
 9079SOL     OW38872   3.657   3.099   9.489 -0.0682  0.2068 -0.3623
 9079SOL    HW138873   3.564   3.110   9.512 -0.7670 -0.0078 -3.1452
 9079SOL    HW238874   3.689   3.112   9.578 -0.9629 -0.7567  0.1059
 9080SOL     OW38875   4.498   2.442   0.106 -0.6538 -0.1209  0.1140
 9080SOL    HW138876   4.411   2.403   0.104 -0.8191  0.0936  3.4345
 9080SOL    HW238877   4.470   2.531   0.126  0.8406  0.4234 -0.2157
 9081SOL     OW38878   2.138   0.301   8.417  0.1180 -0.6358  0.2399
 9081SOL    HW138879   2.172   0.390   8.413 -1.2633 -0.1635 -0.8927
 9081SOL    HW238880   2.165   0.267   8.332 -0.7912  1.7224 -0.9945
 9082SOL     OW38881   2.602   2.203   5.177 -0.0365 -0.2089  0.2487
 9082SOL    HW138882   2.531   2.163   5.228  1.0177 -0.5944  1.4244
 9082SOL    HW238883   2.670   2.143   5.209 -0.6845 -1.5626 -0.8953
 9083SOL     OW38884   0.518   3.118   5.830  0.0140 -0.3054 -0.5079
 9083SOL    HW138885   0.579   3.189   5.812  0.7573 -1.0115 -0.7882
 9083SOL    HW238886   0.564   3.075   5.902 -0.6476  0.7860  0.5606
 9084SOL     OW38887   1.951   0.267  15.473 -0.4445  0.5199 -0.6045
 9084SOL    HW138888   1.921   0.193  15.420  0.3682  0.2228 -0.6453
 9084SOL    HW238889   1.961   0.230  15.560 -2.0429 -1.0967 -1.1215
 9085SOL     OW38890   3.676   4.034   5.742  0.4207  0.0180  0.3886
 9085SOL    HW138891   3.651   4.080   5.822  0.5932  0.7438  0.0270
 9085SOL    HW238892   3.631   3.950   5.751  0.3926  0.1460  1.3788
 9086SOL     OW38893   0.054   0.508  10.769 -0.1539  0.1206 -0.3612
 9086SOL    HW138894   0.087   0.459  10.844  0.0149 -0.7439 -0.9895
 9086SOL    HW238895   4.704   0.465  10.776  0.4634 -0.8508  1.2796
 9087SOL     OW38896   2.852   1.663   8.622  0.0363 -0.1433  0.2766
 9087SOL    HW138897   2.933   1.640   8.669  0.8983  0.7567 -0.7737
 9087SOL    HW238898   2.801   1.704   8.692 -0.1892  0.9158 -0.5062
 9088SOL     OW38899   3.875   3.078   7.548 -0.5333 -0.0548 -0.0354
 9088SOL    HW138900   3.898   3.125   7.468 -1.0181  1.4887  0.7284
 9088SOL    HW238901   3.796   3.131   7.557  0.4632  1.6101 -0.8785
 9089SOL     OW38902   3.058   3.451   5.806  0.2998 -0.2243 -0.5357
 9089SOL    HW138903   3.088   3.360   5.799 -0.1490 -0.3898 -0.3041
 9089SOL    HW238904   3.000   3.465   5.732  0.6454 -0.8466 -0.9230
 9090SOL     OW38905   3.964   1.614   6.281 -0.1036  0.2134 -0.1529
 9090SOL    HW138906   3.886   1.670   6.271 -0.8941 -1.1631 -1.5894
 9090SOL    HW238907   4.008   1.654   6.207  0.8416 -1.6364 -0.5590
 9091SOL     OW38908   2.417   3.186  13.017  0.2268 -0.0197  0.1121
 9091SOL    HW138909   2.490   3.185  12.955  1.2585  0.4228  1.3276
 9091SOL    HW238910   2.368   3.265  12.993  1.2370  0.2248 -1.1263
 9092SOL     OW38911   3.827   1.232   5.081 -0.2093 -0.0945  0.4350
 9092SOL    HW138912   3.832   1.287   5.003 -2.8842 -0.7484 -0.2235
 9092SOL    HW238913   3.732   1.234   5.096 -0.2802  3.4656 -0.5375
 9093SOL     OW38914   0.882   2.159  11.065  0.0932  0.0137 -0.2391
 9093SOL    HW138915   0.921   2.212  10.996 -2.4219  0.1049 -1.5829
 9093SOL    HW238916   0.852   2.234  11.116  0.9687  0.9601 -1.1069
 9094SOL     OW38917   4.285   3.156   7.699  0.1256 -0.3191  0.2584
 9094SOL    HW138918   4.300   3.230   7.640  0.3151  1.4048  2.4889
 9094SOL    HW238919   4.316   3.082   7.646 -1.5219 -0.3402 -0.7057
 9095SOL     OW38920   0.694   1.809   7.954 -0.1326  0.2855 -0.3403
 9095SOL    HW138921   0.684   1.717   7.977 -0.2849  0.6199  0.9418
 9095SOL    HW238922   0.608   1.844   7.930  0.0092 -0.3693 -1.7826
 9096SOL     OW38923   1.044   2.186  16.464 -0.2144  0.2444  0.1707
 9096SOL    HW138924   0.963   2.228  16.436 -0.7082 -1.0400 -0.3327
 9096SOL    HW238925   1.042   2.189  16.559  0.5132  3.6296  0.0912
 9097SOL     OW38926   0.447   0.176  11.782  0.5211 -0.2917 -0.3624
 9097SOL    HW138927   0.446   0.258  11.833  2.5352 -0.6606  0.2704
 9097SOL    HW238928   0.539   0.163  11.758  0.8245  0.9843  0.0756
 9098SOL     OW38929   1.445   4.153  12.202 -0.2927 -0.6839 -0.5003
 9098SOL    HW138930   1.402   4.075  12.237  0.6305 -1.1151 -0.3515
 9098SOL    HW238931   1.451   4.204  12.282  3.1582 -1.0883 -0.5046
 9099SOL     OW38932   1.722   0.868   8.203 -0.0775 -0.2029  0.0888
 9099SOL    HW138933   1.795   0.919   8.238 -0.0491 -1.4982  1.9183
 9099SOL    HW238934   1.669   0.874   8.282  1.1273  1.5369  0.7520
 9100SOL     OW38935   0.186   0.870   8.607 -0.4172 -0.6003 -0.0942
 9100SOL    HW138936   0.223   0.782   8.617 -0.7345 -0.4536  2.2750
 9100SOL    HW238937   0.217   0.887   8.517  3.0538  2.5999  1.7164
 9101SOL     OW38938   1.101   2.739  16.003  0.1336 -0.0697  0.0864
 9101SOL    HW138939   1.081   2.753  15.910  0.9100 -1.7894 -0.3481
 9101SOL    HW238940   1.058   2.658  16.030  3.4406 -1.7803  0.2342
 9102SOL     OW38941   3.078   3.846   1.372 -0.5995 -0.3053  0.0972
 9102SOL    HW138942   3.154   3.903   1.362  0.7339 -1.8823  1.2253
 9102SOL    HW238943   3.036   3.888   1.447  2.6422  1.6924  0.7910
 9103SOL     OW38944   0.532   1.286  10.692 -0.1947  0.6149 -0.6528
 9103SOL    HW138945   0.518   1.364  10.638  1.0273  0.2434 -1.4916
 9103SOL    HW238946   0.529   1.218  10.626 -1.4528  0.4547 -0.4329
 9104SOL     OW38947   1.847   4.423  17.529  0.0539 -0.8809 -0.3307
 9104SOL    HW138948   1.895   4.453  17.607 -1.9588 -0.5679  0.7725
 9104SOL    HW238949   1.762   4.463  17.546  0.7331  1.0966 -1.4933
 9105SOL     OW38950   2.711   4.162   7.109 -0.4272  0.6198 -0.1081
 9105SOL    HW138951   2.769   4.173   7.185  1.7435  0.8632 -1.8042
 9105SOL    HW238952   2.744   4.234   7.056 -0.6206  0.5303 -0.3479
 9106SOL     OW38953   2.117   0.009  16.768  0.3680  0.7795 -0.0684
 9106SOL    HW138954   2.086   4.723  16.679 -1.3370 -0.5063  0.8299
 9106SOL    HW238955   2.111   0.104  16.757  2.0792  0.7207 -1.6296
 9107SOL     OW38956   2.709   3.080  13.299  0.1396 -0.0793 -0.5839
 9107SOL    HW138957   2.617   3.102  13.313 -0.8695 -3.9882 -0.9580
 9107SOL    HW238958   2.697   2.996  13.255  1.3095 -0.7321  0.3340
 9108SOL     OW38959   2.994   0.247   6.584  0.4867 -0.1179 -0.4853
 9108SOL    HW138960   2.927   0.180   6.568  2.0824 -1.6836 -0.6892
 9108SOL    HW238961   3.060   0.192   6.627  0.5195 -1.3427 -2.0729
 9109SOL     OW38962   3.313   4.303  15.187  0.2646  0.1645 -0.3676
 9109SOL    HW138963   3.220   4.287  15.203  0.7772 -2.5240 -0.2102
 9109SOL    HW238964   3.329   4.242  15.115  2.6044 -2.0522  2.0565
 9110SOL     OW38965   3.544   3.507  11.708 -0.0127 -0.1446 -0.0860
 9110SOL    HW138966   3.472   3.509  11.770 -0.0198  1.0734 -0.1265
 9110SOL    HW238967   3.535   3.423  11.664 -0.0435 -0.7268  1.0477
 9111SOL     OW38968   1.426   4.651  12.861 -0.3785  0.3595 -0.3716
 9111SOL    HW138969   1.477   4.579  12.897  1.6626  1.3776 -1.2783
 9111SOL    HW238970   1.473   4.730  12.885 -3.2281  2.8935 -3.1008
 9112SOL     OW38971   3.902   3.853   7.050 -0.3254 -0.4948  0.5530
 9112SOL    HW138972   3.840   3.808   6.992 -1.2621  1.0993  0.3197
 9112SOL    HW238973   3.884   3.943   7.024  1.8149  0.1130  1.1129
 9113SOL     OW38974   4.456   4.232  15.780 -0.3537  0.2159 -0.1127
 9113SOL    HW138975   4.401   4.193  15.848  0.5082  0.2404  0.5846
 9113SOL    HW238976   4.502   4.155  15.747 -0.1568 -0.2399  1.2378
 9114SOL     OW38977   0.746   1.763   4.849 -0.3702  0.0445  0.7006
 9114SOL    HW138978   0.830   1.744   4.808 -1.3632  1.8172 -2.1289
 9114SOL    HW238979   0.718   1.682   4.892  2.7818 -1.5289 -0.1972
 9115SOL     OW38980   4.199   0.408   6.152  0.1231  0.4753  0.0520
 9115SOL    HW138981   4.202   0.482   6.212 -0.7131 -0.9051  1.8049
 9115SOL    HW238982   4.105   0.399   6.138  0.2638  0.7098 -1.0719
 9116SOL     OW38983   1.910   1.269   3.667  0.0441 -0.0333 -0.2721
 9116SOL    HW138984   1.883   1.359   3.648 -2.3348 -0.5515  0.6908
 9116SOL    HW238985   1.878   1.262   3.757  1.9048 -0.4321  0.3555
 9117SOL     OW38986   4.508   2.871   5.599  0.0175  0.1005 -1.1760
 9117SOL    HW138987   4.479   2.956   5.632  1.3642  0.0149  0.1993
 9117SOL    HW238988   4.433   2.816   5.623  0.3179  0.2768  0.1461
 9118SOL     OW38989   4.620   4.274   8.375 -0.1706 -0.2489  0.2121
 9118SOL    HW138990   4.662   4.210   8.316  1.7110 -0.2553  1.5521
 9118SOL    HW238991   4.694   4.333   8.392  0.8652 -1.2261 -0.8565
 9119SOL     OW38992   0.675   2.912   5.001 -0.1060 -0.0946  0.4276
 9119SOL    HW138993   0.666   2.943   5.091 -0.0603  1.1029  0.0205
 9119SOL    HW238994   0.607   2.968   4.963 -0.0526  1.2242  2.3207
 9120SOL     OW38995   0.064   2.813   2.754  0.6769 -0.6217 -0.7562
 9120SOL    HW138996   4.724   2.810   2.814  1.0673  0.3882 -0.2163
 9120SOL    HW238997   0.014   2.831   2.675 -0.7474  1.3664  0.5878
 9121SOL     OW38998   3.532   4.130   5.980  0.0668  0.0552 -0.0127
 9121SOL    HW138999   3.501   4.192   6.046  2.2452 -0.5010  1.5562
 9121SOL    HW239000   3.451   4.098   5.941 -1.0584  0.0394  2.3649
 9122SOL     OW39001   2.905   4.243   6.895  0.7072  0.1515  0.5557
 9122SOL    HW139002   2.819   4.236   6.852 -0.1590 -1.4776  2.5744
 9122SOL    HW239003   2.955   4.173   6.853 -0.5297 -0.9451  0.9087
 9123SOL     OW39004   0.122   3.033   3.279  0.1410 -0.3965  0.2173
 9123SOL    HW139005   0.206   3.067   3.309  0.0348  0.1880 -0.1599
 9123SOL    HW239006   0.080   3.118   3.269 -1.8100 -1.2665  1.1070
 9124SOL     OW39007   3.851   1.409  17.059  0.4196 -0.3485  0.0643
 9124SOL    HW139008   3.888   1.351  16.992 -0.9883 -0.7417 -0.3724
 9124SOL    HW239009   3.922   1.409  17.123  0.2022 -1.1001  0.3070
 9125SOL     OW39010   0.165   2.113  10.134 -0.8330  0.1348 -0.1708
 9125SOL    HW139011   0.232   2.174  10.104  0.6523 -1.3483  0.1258
 9125SOL    HW239012   0.124   2.169  10.200 -1.9349  0.4352 -1.0971
 9126SOL     OW39013   1.428   0.015   6.472  0.4890 -0.1822  1.0309
 9126SOL    HW139014   1.410   0.080   6.541 -3.2225 -1.1507  0.9504
 9126SOL    HW239015   1.374   4.677   6.502  0.6384 -0.5710  0.3580
 9127SOL     OW39016   1.260   1.202   2.454  0.5940  0.4079 -0.4592
 9127SOL    HW139017   1.243   1.109   2.437  3.0098 -0.0448 -0.4101
 9127SOL    HW239018   1.290   1.198   2.545  1.3075 -0.4549 -0.7337
 9128SOL     OW39019   2.934   4.056  15.867  0.1763  0.2065 -0.1758
 9128SOL    HW139020   2.993   4.070  15.942  1.7406 -0.2564 -1.3216
 9128SOL    HW239021   2.890   3.973  15.884 -3.4797  2.2147  0.2496
 9129SOL     OW39022   3.946   4.353   8.153  0.2377  0.0876 -0.0916
 9129SOL    HW139023   3.859   4.379   8.121  0.1848 -0.5369 -0.4420
 9129SOL    HW239024   4.004   4.381   8.081  0.1274 -0.5498 -0.4267
 9130SOL     OW39025   2.050   4.213   2.146  0.6465 -0.4862  0.3033
 9130SOL    HW139026   2.061   4.154   2.072  0.7777  0.1638 -0.1933
 9130SOL    HW239027   2.144   4.224   2.166  0.6366  1.7143 -0.9140
 9131SOL     OW39028   3.175   0.156   8.750 -0.2262 -0.4795 -0.1474
 9131SOL    HW139029   3.086   0.138   8.783 -0.5182  2.2252  0.5365
 9131SOL    HW239030   3.179   0.086   8.685  0.3165 -0.2670 -0.3387
 9132SOL     OW39031   0.396   3.389  15.081 -0.0628 -0.4401  0.4593
 9132SOL    HW139032   0.443   3.309  15.055  0.8006  0.7156 -1.5379
 9132SOL    HW239033   0.463   3.448  15.115 -0.5345 -0.4011  1.3341
 9133SOL     OW39034   4.223   3.497   8.819 -0.1939  1.0011 -0.1382
 9133SOL    HW139035   4.209   3.402   8.822 -0.7855  1.1180  0.9264
 9133SOL    HW239036   4.174   3.532   8.894  0.2942  0.1104  0.5914
 9134SOL     OW39037   1.691   3.267   6.412 -0.1075 -0.3005  0.5409
 9134SOL    HW139038   1.696   3.241   6.504  3.8133  0.6938  0.6457
 9134SOL    HW239039   1.675   3.362   6.406  0.0286 -0.2748  0.5774
 9135SOL     OW39040   0.184   2.097   5.224  0.2563 -0.1307  0.1635
 9135SOL    HW139041   0.109   2.048   5.257 -1.1574  1.9271  0.0198
 9135SOL    HW239042   0.253   2.038   5.254 -1.2294 -2.7453 -1.5670
 9136SOL     OW39043   0.683   3.978   9.063  0.1113 -0.5238 -0.0149
 9136SOL    HW139044   0.727   3.896   9.043  0.0231 -0.5581 -0.0673
 9136SOL    HW239045   0.760   4.034   9.051  0.7354 -1.5360 -0.6771
 9137SOL     OW39046   4.534   4.542   3.214 -0.4650  0.4451 -0.2963
 9137SOL    HW139047   4.617   4.533   3.166 -2.3649 -1.5559 -3.2303
 9137SOL    HW239048   4.500   4.625   3.182  0.8079  1.2468  0.4423
 9138SOL     OW39049   0.275   1.847  12.185  0.0345  0.2150 -0.0193
 9138SOL    HW139050   0.233   1.820  12.267  1.4147  4.0679  1.9851
 9138SOL    HW239051   0.307   1.934  12.211 -0.2190 -0.2180  1.7692
 9139SOL     OW39052   0.462   3.997   2.214 -0.1746  0.0806 -0.4901
 9139SOL    HW139053   0.480   4.056   2.287 -1.7147  0.4094 -0.3831
 9139SOL    HW239054   0.471   4.052   2.135 -0.0127  1.3975  0.4402
 9140SOL     OW39055   3.479   0.990   5.303  0.1950  0.2148  0.0264
 9140SOL    HW139056   3.476   0.969   5.397 -1.9081  0.6946  0.0464
 9140SOL    HW239057   3.476   0.897   5.279 -0.5057  0.2631 -0.0705
 9141SOL     OW39058   1.940   3.336   3.717 -0.3387 -0.0549  0.1605
 9141SOL    HW139059   2.032   3.339   3.743 -0.5627  1.6725  0.7590
 9141SOL    HW239060   1.898   3.333   3.803  0.5734 -1.8049  0.5334
 9142SOL     OW39061   4.609   2.161  15.289 -0.7893  0.1290  0.4189
 9142SOL    HW139062   4.516   2.147  15.308 -0.5244 -4.7695 -1.9134
 9142SOL    HW239063   4.598   2.153  15.194 -1.7957 -0.7812  0.6053
 9143SOL     OW39064   2.665   4.630   9.450  0.0134  0.1268  0.5309
 9143SOL    HW139065   2.627   4.548   9.480 -1.2949 -0.0527 -1.6241
 9143SOL    HW239066   2.616   4.641   9.368 -2.6345  0.9088  2.2372
 9144SOL     OW39067   4.622   3.272   7.707  0.6541  0.4376 -0.4228
 9144SOL    HW139068   4.635   3.179   7.686 -0.5443  0.3531 -0.7688
 9144SOL    HW239069   4.545   3.289   7.653  0.2371  1.8622  0.6334
 9145SOL     OW39070   3.303   0.746   5.167 -0.1719 -0.5733  0.3780
 9145SOL    HW139071   3.235   0.689   5.201 -2.6119  2.2400  0.2542
 9145SOL    HW239072   3.259   0.830   5.183 -0.0532 -0.2008 -1.2443
 9146SOL     OW39073   0.716   3.700   7.979 -0.3490 -0.9220 -0.2482
 9146SOL    HW139074   0.679   3.687   7.892  0.3790  2.4743 -1.0755
 9146SOL    HW239075   0.688   3.618   8.021 -3.4911 -0.2037 -1.0010
 9147SOL     OW39076   4.705   1.233   7.060 -0.3912 -0.4763  0.2366
 9147SOL    HW139077   4.684   1.267   7.147  0.2200 -0.8252  0.5228
 9147SOL    HW239078   0.039   1.295   7.033 -0.7173 -0.4458 -0.5152
 9148SOL     OW39079   3.026   1.329   2.330 -0.2321 -0.1329 -0.0851
 9148SOL    HW139080   2.994   1.293   2.247  0.2319 -2.4603  0.7436
 9148SOL    HW239081   3.029   1.252   2.386 -1.2742  0.6579  1.0332
 9149SOL     OW39082   3.599   2.123   1.375 -0.1015 -0.2737 -0.3183
 9149SOL    HW139083   3.676   2.128   1.432  0.4191  0.6058 -1.0929
 9149SOL    HW239084   3.536   2.175   1.423 -2.0644 -1.1548 -1.9253
 9150SOL     OW39085   1.970   1.615   3.832  0.5732 -0.7151 -0.1450
 9150SOL    HW139086   2.034   1.547   3.853  0.3130 -0.7979  0.3743
 9150SOL    HW239087   1.919   1.571   3.764  0.4281 -1.3930  0.4043
 9151SOL     OW39088   1.671   3.294   2.405 -0.7000  0.5017 -0.2031
 9151SOL    HW139089   1.715   3.322   2.485  0.1950 -0.9057 -0.2169
 9151SOL    HW239090   1.598   3.357   2.404 -1.6510 -0.6110 -1.1969
 9152SOL     OW39091   4.448   0.241   5.128 -0.4173  0.3841  0.0202
 9152SOL    HW139092   4.382   0.173   5.113  0.5014  0.2350 -3.3585
 9152SOL    HW239093   4.389   0.316   5.126 -0.3772  0.4865  2.2511
 9153SOL     OW39094   4.240   0.763  10.942 -0.4780 -0.3244 -0.2611
 9153SOL    HW139095   4.182   0.756  11.018 -0.1478 -0.7757 -0.0497
 9153SOL    HW239096   4.239   0.856  10.919  0.8922  0.2956  2.1696
 9154SOL     OW39097   3.980   3.572   3.870  0.4210  0.4278 -0.1625
 9154SOL    HW139098   4.076   3.568   3.868  0.4312  0.8890 -0.5540
 9154SOL    HW239099   3.967   3.486   3.831  2.3443 -0.2535  0.6986
 9155SOL     OW39100   1.278   2.100   7.426  0.4333  0.0497  0.2679
 9155SOL    HW139101   1.205   2.053   7.386  1.1410 -0.4629 -0.4170
 9155SOL    HW239102   1.261   2.079   7.518  0.5379  0.2046  0.3230
 9156SOL     OW39103   4.480   3.862   8.960 -0.5638 -0.4781  0.0889
 9156SOL    HW139104   4.575   3.870   8.970 -0.7617  0.3927  1.3491
 9156SOL    HW239105   4.440   3.931   9.013 -1.3948  0.0560 -1.2601
 9157SOL     OW39106   0.554   3.635   1.846  0.1084 -0.0199  0.1387
 9157SOL    HW139107   0.557   3.543   1.821 -0.0427  0.1778 -0.6185
 9157SOL    HW239108   0.491   3.670   1.783  1.3013  0.5870 -0.7112
 9158SOL     OW39109   4.166   3.329   5.130 -0.0497 -0.1445 -1.1148
 9158SOL    HW139110   4.234   3.297   5.189 -1.6763 -1.9576 -0.2020
 9158SOL    HW239111   4.156   3.421   5.153  2.6908  0.2097 -1.3319
 9159SOL     OW39112   3.657   4.053   7.098  0.2949  0.7379  0.3039
 9159SOL    HW139113   3.716   4.054   7.023  1.4083  0.5438  1.1728
 9159SOL    HW239114   3.601   3.976   7.090  0.9980 -0.0941  3.3197
 9160SOL     OW39115   0.726   0.773   6.749  0.5098 -0.1297  0.0190
 9160SOL    HW139116   0.681   0.843   6.702  2.3747  0.5955 -0.6932
 9160SOL    HW239117   0.722   0.808   6.838  0.3468  1.0104 -0.4348
 9161SOL     OW39118   2.548   2.204   1.022 -0.4386 -0.4322  0.1310
 9161SOL    HW139119   2.501   2.126   0.992 -2.9420  0.5583  1.5116
 9161SOL    HW239120   2.474   2.259   1.046 -0.6352 -0.9199  0.6628
 9162SOL     OW39121   3.333   4.087  17.105 -0.2137  0.2427 -0.4177
 9162SOL    HW139122   3.261   4.114  17.047  0.7594  1.9613 -0.8052
 9162SOL    HW239123   3.277   4.039  17.167  0.4543  1.6205  1.2506
 9163SOL     OW39124   1.270   4.422  10.937  0.5648 -0.0354 -0.0408
 9163SOL    HW139125   1.226   4.431  10.853 -1.3034 -2.8988  0.6166
 9163SOL    HW239126   1.361   4.403  10.914  1.2166  3.4679 -0.3158
 9164SOL     OW39127   4.341   4.038  12.582  0.2816  0.2647  0.4746
 9164SOL    HW139128   4.304   4.100  12.644 -1.4599 -1.6215  1.3217
 9164SOL    HW239129   4.269   3.977  12.569  0.5210  0.2469 -0.7793
 9165SOL     OW39130   3.172   2.124  11.029  0.2226 -0.1241  0.0993
 9165SOL    HW139131   3.103   2.084  11.082  0.0639  0.2066  0.1387
 9165SOL    HW239132   3.118   2.154  10.956 -1.5774  1.4758  2.0996
 9166SOL     OW39133   3.803   1.637   7.954 -0.4056  0.4863 -0.2218
 9166SOL    HW139134   3.852   1.717   7.971  0.5357 -0.1805  0.1917
 9166SOL    HW239135   3.810   1.643   7.859 -0.6562  0.7072 -0.2264
 9167SOL     OW39136   3.644   2.338   2.823  0.2586  0.2049 -0.4685
 9167SOL    HW139137   3.633   2.249   2.790 -0.3152  0.1774 -0.2084
 9167SOL    HW239138   3.562   2.372   2.787  0.1496  0.3337 -0.0986
 9168SOL     OW39139   4.508   0.985   4.504 -0.1043  0.1963  0.3308
 9168SOL    HW139140   4.524   1.044   4.577  2.3721  1.9463 -1.5971
 9168SOL    HW239141   4.486   1.042   4.431  1.4408 -1.4081 -1.3973
 9169SOL     OW39142   3.163   4.729  12.263 -0.0613  0.3649 -0.4430
 9169SOL    HW139143   3.171   0.047  12.184  2.5288 -0.6182 -0.8573
 9169SOL    HW239144   3.257   4.711  12.270 -0.3268 -1.7989 -2.3209
 9170SOL     OW39145   3.050   1.254   3.024  0.4509  0.1151 -0.3863
 9170SOL    HW139146   2.971   1.269   2.972  0.1385  0.1180  0.0886
 9170SOL    HW239147   3.024   1.272   3.114 -0.0270 -1.5281 -0.1854
 9171SOL     OW39148   2.615   4.504  16.899 -0.7734 -0.5322  0.1656
 9171SOL    HW139149   2.698   4.542  16.870 -0.7349  0.2408  1.2988
 9171SOL    HW239150   2.603   4.543  16.985  2.7469  0.9150  0.0158
 9172SOL     OW39151   1.511   2.556   8.670  0.5090 -0.3040  0.2664
 9172SOL    HW139152   1.443   2.489   8.664  0.5870 -0.1530 -2.3756
 9172SOL    HW239153   1.592   2.510   8.647  1.2264  0.6789  0.8136
 9173SOL     OW39154   3.369   0.885   5.852 -0.0245  1.0973 -0.4820
 9173SOL    HW139155   3.327   0.877   5.767 -2.3801 -0.4772  0.8212
 9173SOL    HW239156   3.305   0.841   5.909 -1.3466  2.3131 -1.0418
 9174SOL     OW39157   3.243   4.664  12.538 -0.2977  0.0378 -0.6198
 9174SOL    HW139158   3.243   0.024  12.548 -0.1226  0.1896 -2.1462
 9174SOL    HW239159   3.333   4.646  12.565 -0.1547  0.1129 -1.0618
 9175SOL     OW39160   3.618   3.277  14.828  0.5462  0.1805 -0.2672
 9175SOL    HW139161   3.666   3.349  14.786  0.7061 -0.0401 -0.4601
 9175SOL    HW239162   3.683   3.209  14.844  2.4185  2.1613  0.6337
 9176SOL     OW39163   4.647   4.641   2.557  0.5174 -0.6266 -0.5572
 9176SOL    HW139164   4.580   4.575   2.542 -1.2933  0.9565  0.6867
 9176SOL    HW239165   4.596   4.717   2.585  1.8829 -0.4003  1.3941
 9177SOL     OW39166   2.096   1.375  15.001 -0.5210 -0.2149 -0.3882
 9177SOL    HW139167   2.046   1.403  15.078 -0.7586 -1.4583 -0.0860
 9177SOL    HW239168   2.173   1.328  15.031  1.9703  3.0354 -1.6806
 9178SOL     OW39169   4.515   2.698   6.597 -0.6338 -0.2494 -0.0306
 9178SOL    HW139170   4.566   2.769   6.636 -1.2444 -0.2254  0.7353
 9178SOL    HW239171   4.479   2.747   6.523  3.4081  1.0924 -1.1079
 9179SOL     OW39172   0.676   2.437   8.227  0.2461  0.0353  0.2793
 9179SOL    HW139173   0.696   2.363   8.285 -0.5993  0.2024  0.7868
 9179SOL    HW239174   0.586   2.457   8.253 -0.5773  0.1113 -2.7106
 9180SOL     OW39175   2.930   4.395   5.298  0.5300 -0.4975 -0.2100
 9180SOL    HW139176   2.906   4.398   5.391 -0.9675 -1.8272 -0.5548
 9180SOL    HW239177   2.880   4.315   5.278  0.6676 -0.6986  0.2470
 9181SOL     OW39178   0.856   2.515   9.964  0.1066  0.3344  1.0477
 9181SOL    HW139179   0.776   2.520   9.912 -0.3765 -2.6461  1.4698
 9181SOL    HW239180   0.901   2.437   9.931 -0.2301  0.7346 -0.3408
 9182SOL     OW39181   2.825   1.155   9.337 -0.3603 -0.4015  0.1159
 9182SOL    HW139182   2.898   1.186   9.392  2.5687 -1.3715 -3.2202
 9182SOL    HW239183   2.806   1.087   9.402  0.7343  0.4120  1.3022
 9183SOL     OW39184   2.734   2.399   5.737  0.1945 -0.4388 -0.1589
 9183SOL    HW139185   2.825   2.394   5.767  0.5988  1.1651 -1.0764
 9183SOL    HW239186   2.698   2.463   5.797 -2.5143 -1.1872 -0.9995
 9184SOL     OW39187   0.373   3.984   4.597 -0.6452  0.0175  0.4648
 9184SOL    HW139188   0.435   3.911   4.602  1.5787  1.8221 -0.7399
 9184SOL    HW239189   0.288   3.944   4.579 -0.3726 -0.2430 -0.2162
 9185SOL     OW39190   2.959   4.096   7.539 -0.2003  0.3126  0.1318
 9185SOL    HW139191   2.936   4.127   7.451  0.9848 -1.4233 -0.7947
 9185SOL    HW239192   2.870   4.100   7.574 -0.4640  1.6180 -0.7134
 9186SOL     OW39193   2.597   0.703   7.241 -0.5022 -0.3408 -0.1823
 9186SOL    HW139194   2.533   0.774   7.242 -0.5785 -0.4377  1.7024
 9186SOL    HW239195   2.622   0.692   7.150 -0.6251 -0.4047 -0.2080
 9187SOL     OW39196   2.864   2.069  14.393 -0.0666  0.4441  0.1514
 9187SOL    HW139197   2.930   2.014  14.352 -1.3866 -0.4985 -0.6696
 9187SOL    HW239198   2.842   2.120  14.315  1.8578 -0.2958 -0.8852
 9188SOL     OW39199   2.580   3.863   5.958 -0.7531  0.3045 -0.2095
 9188SOL    HW139200   2.566   3.816   6.040  2.4631  2.0817  1.3619
 9188SOL    HW239201   2.670   3.837   5.938 -0.2502 -0.6516  3.3246
 9189SOL     OW39202   1.712   3.689  11.991  0.2766 -0.5185  0.2046
 9189SOL    HW139203   1.742   3.607  11.952  2.9893  1.0396 -0.9857
 9189SOL    HW239204   1.792   3.728  12.027  0.7538 -1.3010 -0.0213
 9190SOL     OW39205   3.986   4.627   5.195  0.1709 -0.4204  0.5116
 9190SOL    HW139206   3.924   4.554   5.199  1.1917 -1.5189 -3.4445
 9190SOL    HW239207   3.962   4.678   5.117 -3.6504  0.3178  2.1668
 9191SOL     OW39208   1.943   1.396   0.924 -0.0756 -0.2627 -0.1345
 9191SOL    HW139209   1.925   1.398   0.830  0.6446  1.4802 -0.2352
 9191SOL    HW239210   1.936   1.486   0.958 -2.4789  0.0792 -1.5577
 9192SOL     OW39211   2.823   1.199   4.264  0.5101 -0.5012 -0.3056
 9192SOL    HW139212   2.815   1.291   4.238 -0.5307 -0.7196 -0.7850
 9192SOL    HW239213   2.741   1.157   4.237 -0.1952 -0.0451  1.1032
 9193SOL     OW39214   4.174   0.391   6.950 -0.0118  0.2788  0.2586
 9193SOL    HW139215   4.101   0.384   7.012 -1.3922 -2.0742 -1.6446
 9193SOL    HW239216   4.157   0.480   6.922  4.5346  0.7158 -1.0467
 9194SOL     OW39217   3.415   1.620  16.693  0.0037  0.4518  0.4705
 9194SOL    HW139218   3.501   1.616  16.650 -0.8759  2.1728 -1.4830
 9194SOL    HW239219   3.437   1.703  16.736 -0.9262  1.2339 -0.5319
 9195SOL     OW39220   1.362   2.470   5.995  0.1566 -0.1629 -0.0489
 9195SOL    HW139221   1.373   2.517   6.077  1.9391  0.3569 -0.5734
 9195SOL    HW239222   1.273   2.494   5.970  0.2458  1.7803  1.5876
 9196SOL     OW39223   2.819   4.687   2.358  0.2931  0.0344 -0.3614
 9196SOL    HW139224   2.812   4.623   2.288  0.6662 -1.1039  0.6447
 9196SOL    HW239225   2.762   0.021   2.323 -3.0858 -2.9723 -0.7621
 9197SOL     OW39226   2.419   0.746   3.683 -0.7179 -0.0083 -0.2222
 9197SOL    HW139227   2.442   0.655   3.702 -0.2060  0.0376 -0.6344
 9197SOL    HW239228   2.324   0.735   3.689 -0.4591 -1.5878  0.9210
 9198SOL     OW39229   1.776   3.114   7.719  0.5842 -0.7788  0.5530
 9198SOL    HW139230   1.738   3.156   7.642  3.1493 -0.1930 -0.3559
 9198SOL    HW239231   1.728   3.031   7.717 -0.4469 -0.1465 -1.2269
 9199SOL     OW39232   3.303   0.032   3.763 -0.2049 -0.0744 -0.6350
 9199SOL    HW139233   3.267   4.681   3.741  1.4646 -1.1402  0.8227
 9199SOL    HW239234   3.375   0.015   3.823 -1.6753 -0.3020  1.0496
 9200SOL     OW39235   1.351   1.241  15.522  0.1870 -0.2773  0.1065
 9200SOL    HW139236   1.413   1.188  15.472 -2.0192 -1.4918 -1.3618
 9200SOL    HW239237   1.272   1.240  15.468 -0.5590  0.8871  1.1839
 9201SOL     OW39238   2.775   1.633   0.113 -1.1778  0.1267 -0.2730
 9201SOL    HW139239   2.752   1.559   0.057  0.4980 -1.0819  0.6446
 9201SOL    HW239240   2.850   1.599   0.161 -1.4819  0.8797  0.7303
 9202SOL     OW39241   1.927   4.416   0.999 -0.3039  1.2260  0.1572
 9202SOL    HW139242   1.946   4.510   0.996  0.4647  1.0882  0.7628
 9202SOL    HW239243   1.859   4.407   0.932 -0.7277  0.7480  0.6537
 9203SOL     OW39244   0.224   1.252   5.635  0.1297 -0.3145  0.5416
 9203SOL    HW139245   0.146   1.211   5.672 -0.0375 -1.0085 -0.5791
 9203SOL    HW239246   0.242   1.188   5.566  1.9392  0.5642  0.1844
 9204SOL     OW39247   3.557   4.323   1.702 -0.0358 -0.0444 -0.1915
 9204SOL    HW139248   3.473   4.291   1.735  0.7199 -0.8717  0.9206
 9204SOL    HW239249   3.601   4.353   1.781 -1.5134 -0.4704  0.8138
 9205SOL     OW39250   4.194   0.496   3.176  0.2305  0.0071  0.0060
 9205SOL    HW139251   4.227   0.578   3.211 -0.4291  0.8007 -1.2485
 9205SOL    HW239252   4.137   0.534   3.109  0.0700 -1.4993 -0.7248
 9206SOL     OW39253   0.885   1.389  15.325  0.2019  0.4252  0.0990
 9206SOL    HW139254   0.845   1.332  15.391  0.8695  2.2735  2.1324
 9206SOL    HW239255   0.820   1.460  15.329 -2.5628 -2.0848 -0.0910
 9207SOL     OW39256   0.778   0.300   5.792  0.6463  0.1913  0.0170
 9207SOL    HW139257   0.848   0.277   5.730 -0.1577 -1.9965 -0.1082
 9207SOL    HW239258   0.791   0.395   5.793  0.4185  0.2430 -1.2084
 9208SOL     OW39259   4.484   0.973   9.758  0.2411  0.1006  0.1451
 9208SOL    HW139260   4.560   1.002   9.708 -0.3644 -1.6956 -1.8454
 9208SOL    HW239261   4.521   0.968   9.846  0.1547 -0.6025  0.1437
 9209SOL     OW39262   3.313   3.663   2.491  0.0045  0.0126 -0.1653
 9209SOL    HW139263   3.351   3.620   2.414  1.1444 -0.2799  0.5737
 9209SOL    HW239264   3.222   3.653   2.465 -0.0384 -1.9632  0.7486
 9210SOL     OW39265   1.430   3.640   6.629  0.4423  0.3751 -0.3375
 9210SOL    HW139266   1.436   3.569   6.565  1.0932 -1.3273  1.6130
 9210SOL    HW239267   1.506   3.692   6.602  0.2324  0.9608  0.2122
 9211SOL     OW39268   0.161   4.732   8.690  0.3654  0.5770  0.7445
 9211SOL    HW139269   0.131   4.679   8.765 -2.2407  0.2102 -0.5623
 9211SOL    HW239270   0.097   4.694   8.630  2.7176  0.7371 -1.8299
 9212SOL     OW39271   0.742   4.367  15.876  0.8393  0.0213 -0.1441
 9212SOL    HW139272   0.692   4.350  15.796  1.4223  0.4631 -0.6064
 9212SOL    HW239273   0.761   4.276  15.899 -1.5676 -0.7290 -1.0604
 9213SOL     OW39274   0.890   4.380   0.337 -0.1034  0.0669  0.2551
 9213SOL    HW139275   0.846   4.440   0.397 -2.7126 -2.1748  0.5466
 9213SOL    HW239276   0.890   4.429   0.254 -0.1848  1.3798  1.0313
 9214SOL     OW39277   0.284   3.267   3.804 -0.0021  0.0622  0.2783
 9214SOL    HW139278   0.345   3.195   3.786  0.4560  0.9855 -1.9346
 9214SOL    HW239279   0.322   3.299   3.886  1.8265  0.9316 -0.9107
 9215SOL     OW39280   3.322   2.206   7.621 -0.0245 -0.2262 -0.1991
 9215SOL    HW139281   3.329   2.120   7.580  2.0751  0.6478 -1.6924
 9215SOL    HW239282   3.242   2.247   7.588  1.5618  2.4844 -0.6864
 9216SOL     OW39283   3.182   0.281   1.355 -0.1118 -1.0217 -0.2745
 9216SOL    HW139284   3.197   0.202   1.407 -1.2607 -0.1660  1.3554
 9216SOL    HW239285   3.239   0.349   1.392 -0.9452 -0.6403  0.3134
 9217SOL     OW39286   1.793   2.470   4.307  0.5306 -0.1083  0.0442
 9217SOL    HW139287   1.758   2.381   4.320 -1.4044  0.7647  0.8333
 9217SOL    HW239288   1.805   2.477   4.213  3.4451 -0.7623  0.3632
 9218SOL     OW39289   1.698   1.945   2.862 -0.1170 -0.0825 -0.2095
 9218SOL    HW139290   1.670   1.854   2.867 -0.7615  0.0903 -0.8480
 9218SOL    HW239291   1.626   1.997   2.827 -1.3379 -0.2315  2.0882
 9219SOL     OW39292   3.077   2.711   5.081  0.1416 -0.3360 -0.5548
 9219SOL    HW139293   3.055   2.649   5.151  1.2364 -0.6547 -0.4833
 9219SOL    HW239294   2.997   2.742   5.041 -0.7872 -0.6004  1.0794
 9220SOL     OW39295   3.902   2.860   5.985  0.4690 -0.2447  0.2008
 9220SOL    HW139296   3.829   2.814   6.027 -2.1986 -0.3779 -4.5899
 9220SOL    HW239297   3.884   2.859   5.891  0.3026 -2.7791  0.2414
 9221SOL     OW39298   0.526   1.898   3.420  0.1305 -0.5791  0.2268
 9221SOL    HW139299   0.464   1.906   3.493 -1.2648  2.9302 -1.3380
 9221SOL    HW239300   0.464   1.894   3.347  0.8600  0.7299 -0.4630
 9222SOL     OW39301   3.575   4.663  15.368 -0.0734  0.2725  0.1490
 9222SOL    HW139302   3.613   4.711  15.442 -0.5536  0.6059  0.1757
 9222SOL    HW239303   3.592   4.571  15.386  2.1695  0.7639  0.5647
 9223SOL     OW39304   1.909   1.293   6.408 -0.3376  0.3242 -0.2851
 9223SOL    HW139305   1.967   1.268   6.480  0.3983 -1.2729 -1.4256
 9223SOL    HW239306   1.873   1.373   6.447 -2.3223  0.8710 -3.2298
 9224SOL     OW39307   3.033   0.542   4.320  0.4318  0.1851  0.1070
 9224SOL    HW139308   3.006   0.450   4.327 -0.0406  0.2501 -0.9222
 9224SOL    HW239309   2.961   0.587   4.277  0.6735 -0.9198 -1.4739
 9225SOL     OW39310   0.737   0.438   4.557 -0.3331  0.5391  0.4835
 9225SOL    HW139311   0.785   0.474   4.482  0.7204 -0.0528  0.8691
 9225SOL    HW239312   0.792   0.377   4.607  2.2628  2.9038  0.5520
 9226SOL     OW39313   0.765   4.446   5.939 -0.4823  0.0732  0.4756
 9226SOL    HW139314   0.858   4.453   5.919 -0.1127 -0.5307  2.0047
 9226SOL    HW239315   0.742   4.420   5.849  1.5997  0.0693 -0.0476
 9227SOL     OW39316   1.103   0.138   0.443 -0.1201 -0.1081  0.0239
 9227SOL    HW139317   1.100   0.125   0.348  0.3770 -3.6242  0.4812
 9227SOL    HW239318   1.103   0.051   0.484 -0.9964  0.5560  1.4326
 9228SOL     OW39319   3.771   3.829   2.019 -0.0647  0.2578 -0.0696
 9228SOL    HW139320   3.859   3.797   2.037 -0.3149  1.5182  3.4433
 9228SOL    HW239321   3.711   3.780   2.076  1.7035 -2.1329 -0.3044
 9229SOL     OW39322   1.976   2.208   4.258 -0.4453 -0.0883  0.2014
 9229SOL    HW139323   1.937   2.208   4.171  0.8044  0.5037 -0.3573
 9229SOL    HW239324   1.905   2.220   4.321  0.5229  1.5346  0.9865
 9230SOL     OW39325   1.424   2.965   1.824  0.3175  0.1786  0.2088
 9230SOL    HW139326   1.353   2.902   1.839 -0.3101  0.6845 -0.5936
 9230SOL    HW239327   1.389   3.052   1.845  0.1426  0.0659  0.3912
 9231SOL     OW39328   0.297   1.091   5.421 -0.6432 -0.3802 -0.3684
 9231SOL    HW139329   0.355   1.167   5.415 -0.0959 -0.6875  1.0051
 9231SOL    HW239330   0.309   1.062   5.330 -2.2368 -1.8167 -0.1247
 9232SOL     OW39331   3.986   4.525   4.690  0.3210  0.0182 -0.2071
 9232SOL    HW139332   3.943   4.471   4.623  0.3891 -1.1152  0.6709
 9232SOL    HW239333   4.065   4.556   4.644 -0.1690  0.1239 -0.9786
 9233SOL     OW39334   1.499   3.902   2.852 -0.6733 -0.1475 -0.1426
 9233SOL    HW139335   1.412   3.941   2.855 -0.0755  1.3320 -2.2216
 9233SOL    HW239336   1.503   3.875   2.760  0.2736  1.1864 -0.4929
 9234SOL     OW39337   1.730   1.749   4.270  0.6597 -0.2631 -0.3204
 9234SOL    HW139338   1.795   1.753   4.200  0.9167  0.2292 -0.0539
 9234SOL    HW239339   1.770   1.720   4.352 -3.1843 -4.5778  0.0585
 9235SOL     OW39340   4.629   1.355  15.274  0.2009 -0.2926  0.2404
 9235SOL    HW139341   4.713   1.368  15.319  1.0542 -0.7080 -1.2453
 9235SOL    HW239342   4.594   1.275  15.312  1.5469 -0.3495  1.3882
 9236SOL     OW39343   3.695   2.677   4.902  1.2489 -0.1956  0.4725
 9236SOL    HW139344   3.659   2.611   4.841 -1.1089 -0.0061  1.6480
 9236SOL    HW239345   3.741   2.727   4.835  2.9367 -1.1017  0.9539
 9237SOL     OW39346   2.941   0.492   7.926  0.0436 -0.1916  0.0306
 9237SOL    HW139347   2.883   0.435   7.875 -0.8334  0.2885  0.4873
 9237SOL    HW239348   2.892   0.574   7.917 -3.7884 -2.5082 -0.4202
 9238SOL     OW39349   4.017   1.437   5.489  0.0747 -0.3255  0.5311
 9238SOL    HW139350   3.929   1.423   5.521  0.0467 -1.6993 -0.1771
 9238SOL    HW239351   4.018   1.369   5.422 -3.2790 -0.5941  0.7777
 9239SOL     OW39352   1.234   0.732  16.403 -0.6476  0.3039 -0.1672
 9239SOL    HW139353   1.305   0.797  16.410 -0.7373  0.3749  0.0681
 9239SOL    HW239354   1.195   0.757  16.487  0.3730  2.5267 -0.3365
 9240SOL     OW39355   3.969   0.909  13.365 -0.2595  0.0541  0.4044
 9240SOL    HW139356   4.017   0.987  13.393  0.4771 -0.0460 -0.5796
 9240SOL    HW239357   3.887   0.956  13.348  0.5309  1.0167 -0.7836
 9241SOL     OW39358   0.723   2.722  15.730 -0.6564  0.1289  0.4073
 9241SOL    HW139359   0.693   2.639  15.693 -2.3123  0.7543  0.3510
 9241SOL    HW239360   0.668   2.779  15.677 -0.9664  0.4157  1.0437
 9242SOL     OW39361   0.132   4.155   2.151  0.2537  0.1060  0.0212
 9242SOL    HW139362   0.125   4.145   2.056 -0.2497 -2.0900  0.2746
 9242SOL    HW239363   0.159   4.067   2.179 -0.5287  0.7053  2.6822
 9243SOL     OW39364   2.364   2.383   8.533  0.6571  0.0937 -0.1435
 9243SOL    HW139365   2.359   2.327   8.611  1.1059 -1.5490 -1.3008
 9243SOL    HW239366   2.278   2.425   8.542  0.5528 -0.8758  3.6702
 9244SOL     OW39367   0.084   0.764  10.711  0.5463  0.1052  0.1817
 9244SOL    HW139368   0.092   0.668  10.715  2.7513  0.2024 -2.1408
 9244SOL    HW239369   0.002   0.775  10.759 -0.2869 -1.7133 -0.8088
 9245SOL     OW39370   4.389   1.873   5.232  0.1477 -1.0269  0.3192
 9245SOL    HW139371   4.381   1.863   5.327 -0.3345 -2.0455  0.1671
 9245SOL    HW239372   4.474   1.831   5.218 -0.1182 -0.6731 -2.3680
 9246SOL     OW39373   3.966   2.764  10.176  0.2021  0.5451  0.2820
 9246SOL    HW139374   4.004   2.847  10.147 -1.7973  1.4652  0.2728
 9246SOL    HW239375   4.024   2.732  10.245  1.0361  0.2441 -0.5651
 9247SOL     OW39376   3.199   0.994   8.559  0.4821  0.9084 -0.3681
 9247SOL    HW139377   3.265   0.952   8.504  0.2118  1.7287 -1.3157
 9247SOL    HW239378   3.258   0.984   8.634  1.3290  0.0120 -1.1541
 9248SOL     OW39379   1.696   4.407   0.801 -0.2949 -0.4060  0.0971
 9248SOL    HW139380   1.683   4.374   0.713  0.6991  0.1339 -0.2544
 9248SOL    HW239381   1.722   4.497   0.781  1.2344 -0.7325  0.5418
 9249SOL     OW39382   3.139   3.321   3.603  0.5135 -0.1320 -0.1235
 9249SOL    HW139383   3.048   3.314   3.572 -0.2775  1.7726  1.7084
 9249SOL    HW239384   3.181   3.272   3.533  1.4287 -0.5551  0.7206
 9250SOL     OW39385   2.585   4.719   0.634 -0.5474 -0.2268  0.4064
 9250SOL    HW139386   2.611   4.630   0.613  0.3153 -0.3604  2.1102
 9250SOL    HW239387   2.502   4.703   0.678 -0.5986  0.4840  0.5718
 9251SOL     OW39388   3.210   0.295   3.703 -0.0492  0.1267  0.2181
 9251SOL    HW139389   3.115   0.291   3.696 -0.1843  1.8220  0.8768
 9251SOL    HW239390   3.230   0.209   3.740  0.2873 -0.0479 -0.3555
 9252SOL     OW39391   0.398   1.165   7.770 -0.1787 -0.1064  0.2382
 9252SOL    HW139392   0.313   1.179   7.812  0.3816  2.4306  0.5337
 9252SOL    HW239393   0.391   1.229   7.700 -1.3904  1.3280  1.6692
 9253SOL     OW39394   3.809   0.969   8.542  0.6627 -0.0183 -0.7762
 9253SOL    HW139395   3.869   0.997   8.611  1.4786 -0.3778 -1.3392
 9253SOL    HW239396   3.737   0.927   8.588  0.9620  1.0647  0.7259
 9254SOL     OW39397   2.170   1.960   7.892  0.6530 -0.0372  0.4030
 9254SOL    HW139398   2.240   1.918   7.942  0.1176 -0.5834  0.6898
 9254SOL    HW239399   2.227   1.992   7.822  0.5325 -0.8336 -0.0506
 9255SOL     OW39400   4.480   3.135  14.396  0.4507 -0.3944  0.0572
 9255SOL    HW139401   4.434   3.114  14.477  0.3161  1.2035  0.4044
 9255SOL    HW239402   4.421   3.086  14.339  1.6348  1.1893 -2.5273
 9256SOL     OW39403   1.111   1.037  13.775  0.2263 -0.0792 -0.5368
 9256SOL    HW139404   1.045   1.097  13.739  0.6493 -0.5909 -2.1513
 9256SOL    HW239405   1.059   0.962  13.804  1.0995 -1.0546 -1.5103
 9257SOL     OW39406   1.427   2.416   1.709  0.0042 -0.5399 -0.0469
 9257SOL    HW139407   1.433   2.441   1.617  0.8506 -2.4573 -0.5144
 9257SOL    HW239408   1.465   2.496   1.744  1.6796 -0.0360 -3.0512
 9258SOL     OW39409   3.446   0.900  17.371  0.2800 -0.3430  0.2643
 9258SOL    HW139410   3.506   0.830  17.400 -0.5350 -0.2784  2.0694
 9258SOL    HW239411   3.435   0.857  17.286 -5.4378  1.8818 -0.0857
 9259SOL     OW39412   3.340   1.084   6.600  0.3710  0.1807 -0.0588
 9259SOL    HW139413   3.414   1.038   6.641 -0.5236 -1.1033  0.1233
 9259SOL    HW239414   3.269   1.026   6.625  1.3447 -0.5845  0.9678
 9260SOL     OW39415   0.664   1.968   8.269 -0.2525  0.1959 -0.0119
 9260SOL    HW139416   0.576   1.971   8.231 -1.2074 -0.0713  2.1645
 9260SOL    HW239417   0.690   1.876   8.261  1.1684  0.6156 -0.2750
 9261SOL     OW39418   1.678   3.155   3.313  0.7767  0.0919 -0.0342
 9261SOL    HW139419   1.688   3.060   3.305 -2.5983 -0.3811  1.3150
 9261SOL    HW239420   1.760   3.164   3.361  1.0593  0.9347 -0.6761
 9262SOL     OW39421   3.405   3.145   4.576 -0.0753  0.0066 -0.3980
 9262SOL    HW139422   3.393   3.148   4.671  0.8086  4.2978 -0.4237
 9262SOL    HW239423   3.330   3.090   4.553  0.6187  0.0163 -2.6993
 9263SOL     OW39424   0.505   3.576   2.095 -0.1911 -0.2473 -1.0466
 9263SOL    HW139425   0.512   3.597   2.002  1.8619  1.3144 -0.5354
 9263SOL    HW239426   0.458   3.493   2.096 -1.5011  0.5059  0.4143
 9264SOL     OW39427   1.058   3.422   5.746 -0.2928  0.0866 -0.3111
 9264SOL    HW139428   1.069   3.329   5.725 -0.8430  0.2605 -1.3557
 9264SOL    HW239429   1.142   3.445   5.786 -0.3553  1.3307 -0.9057
 9265SOL     OW39430   1.018   0.855   4.083  0.6817  0.0324  0.9565
 9265SOL    HW139431   0.955   0.817   4.022  0.2202  0.7957  0.9625
 9265SOL    HW239432   0.993   0.811   4.165  1.5469  0.8364  1.6618
 9266SOL     OW39433   0.434   4.297   7.985 -0.3421  0.1054  0.2694
 9266SOL    HW139434   0.344   4.296   7.953 -1.6527 -3.1101  4.1036
 9266SOL    HW239435   0.437   4.216   8.036  1.3787  1.4730  2.3440
 9267SOL     OW39436   4.609   4.138   4.441  0.0807 -0.6261 -0.0223
 9267SOL    HW139437   4.652   4.053   4.438 -1.3408 -1.4044  1.2132
 9267SOL    HW239438   4.674   4.181   4.497 -0.4105  0.4370 -0.2642
 9268SOL     OW39439   2.594   0.930   7.956 -0.4525 -0.0224 -0.2416
 9268SOL    HW139440   2.559   1.018   7.973 -3.3152 -1.1538 -0.2991
 9268SOL    HW239441   2.536   0.878   8.011 -0.5064 -0.0718 -0.3439
 9269SOL     OW39442   2.492   1.328   2.517  0.4500  0.2713  0.2700
 9269SOL    HW139443   2.579   1.342   2.480 -0.3421  0.3458 -1.5559
 9269SOL    HW239444   2.500   1.356   2.608 -0.3601  1.0225  0.1045
 9270SOL     OW39445   1.454   0.737   3.936 -0.1036 -0.0876  0.0474
 9270SOL    HW139446   1.432   0.779   3.853  0.1557 -0.3721 -0.1644
 9270SOL    HW239447   1.408   0.654   3.923  0.2093 -0.6557  2.4917
 9271SOL     OW39448   3.868   3.086  10.647 -0.0452 -0.0094  0.4210
 9271SOL    HW139449   3.794   3.073  10.588  0.0478 -0.0766  0.3200
 9271SOL    HW239450   3.917   3.004  10.640  0.3359  0.1849  0.7739
 9272SOL     OW39451   4.452   2.770  15.303 -0.1371  0.4179 -0.4872
 9272SOL    HW139452   4.529   2.825  15.316  0.0246 -0.1583  1.0279
 9272SOL    HW239453   4.481   2.681  15.281  1.0256  0.3097  1.5512
 9273SOL     OW39454   2.763   3.803   4.055  0.5414 -0.0554  0.9068
 9273SOL    HW139455   2.713   3.870   4.008  0.9147 -1.0035 -0.8259
 9273SOL    HW239456   2.719   3.820   4.138 -1.4946  0.0847 -0.1956
 9274SOL     OW39457   2.532   3.708  17.581 -0.4999  0.6700  0.0702
 9274SOL    HW139458   2.590   3.783  17.566 -0.2472  0.1602 -1.5946
 9274SOL    HW239459   2.442   3.740  17.591 -1.2581 -0.9621 -1.3364
 9275SOL     OW39460   2.205   3.065   6.387 -0.5183  0.4215  0.4524
 9275SOL    HW139461   2.218   3.091   6.296  1.1477 -0.9776  0.2921
 9275SOL    HW239462   2.237   2.976   6.370 -0.9112  0.5451 -0.9616
 9276SOL     OW39463   3.457   3.731   8.624  0.0264 -0.3798  0.1554
 9276SOL    HW139464   3.523   3.664   8.640  0.3787 -0.0549  0.0638
 9276SOL    HW239465   3.406   3.698   8.698  0.4099  4.2812  2.4820
 9277SOL     OW39466   0.536   0.564   4.273 -0.4911  0.5313 -0.1099
 9277SOL    HW139467   0.484   0.518   4.207 -0.5218 -0.0172  0.2938
 9277SOL    HW239468   0.625   0.563   4.238 -0.6927 -0.2636 -0.6069
 9278SOL     OW39469   4.246   3.950  15.727  0.5322  0.6601 -0.1434
 9278SOL    HW139470   4.231   4.042  15.706 -0.3892  0.6351  0.3800
 9278SOL    HW239471   4.243   3.898  15.647 -0.2537  0.2043  0.1731
 9279SOL     OW39472   0.247   3.160   1.725 -0.4483  0.2527 -0.9404
 9279SOL    HW139473   0.191   3.126   1.795  1.1387  1.2886  0.8641
 9279SOL    HW239474   0.305   3.084   1.731 -0.3899  0.2010 -2.2868
 9280SOL     OW39475   1.073   1.024   3.406 -0.0777 -0.2058  0.1787
 9280SOL    HW139476   1.023   1.079   3.345 -2.4962 -0.2590  2.1184
 9280SOL    HW239477   1.118   0.965   3.345  0.1658 -2.8727  2.9745
 9281SOL     OW39478   1.188   2.729  16.421  0.2129 -0.0820 -0.4574
 9281SOL    HW139479   1.249   2.759  16.354 -1.2642  0.4895 -1.5451
 9281SOL    HW239480   1.112   2.777  16.389 -0.6936  0.0963  1.9522
 9282SOL     OW39481   1.687   3.006   8.470  0.1327  0.5006 -0.1493
 9282SOL    HW139482   1.727   2.952   8.401  0.3075 -1.9661  1.8830
 9282SOL    HW239483   1.707   3.090   8.428  1.5266  0.3370  0.1681
 9283SOL     OW39484   1.923   3.970  10.409 -0.0319  0.2009 -0.4042
 9283SOL    HW139485   1.990   4.011  10.355  0.3223  1.3503  0.9107
 9283SOL    HW239486   1.843   3.958  10.358  0.3008 -1.9351 -0.4196
 9284SOL     OW39487   1.771   3.415   4.766 -0.0972 -0.4582  0.5564
 9284SOL    HW139488   1.797   3.463   4.845  0.7913  1.6130 -0.9846
 9284SOL    HW239489   1.686   3.453   4.743  0.7903  2.1834  1.6493
 9285SOL     OW39490   4.714   3.583   5.730  0.2549  0.2332 -0.0883
 9285SOL    HW139491   0.013   3.672   5.720 -0.3592  0.4266 -0.4246
 9285SOL    HW239492   4.711   3.577   5.825  0.5726  0.4164 -0.0670
 9286SOL     OW39493   0.345   0.595   3.817  0.1093 -0.1028 -0.5497
 9286SOL    HW139494   0.342   0.553   3.902  0.4283  0.3801 -0.3011
 9286SOL    HW239495   0.425   0.566   3.775  0.2457  0.4564 -0.6812
 9287SOL     OW39496   0.854   3.226   2.861  0.2184 -0.1521  0.6904
 9287SOL    HW139497   0.854   3.316   2.830 -0.7683  0.7100  3.1801
 9287SOL    HW239498   0.938   3.183   2.841 -0.1141 -1.2672  1.6473
 9288SOL     OW39499   1.350   3.021   2.216  0.4427  0.3208  0.1801
 9288SOL    HW139500   1.289   2.970   2.269  1.8971 -0.0649  1.4774
 9288SOL    HW239501   1.277   3.067   2.176 -0.3357  0.3356  1.6228
 9289SOL     OW39502   1.843   2.134  10.609 -0.5482  0.0134  0.0312
 9289SOL    HW139503   1.865   2.072  10.539 -0.9080 -0.8866  0.7213
 9289SOL    HW239504   1.768   2.177  10.568  0.5664  2.4972  0.5932
 9290SOL     OW39505   4.028   1.210   3.402  0.0336 -0.4400 -0.0628
 9290SOL    HW139506   3.960   1.151   3.369 -0.7434  1.2922 -1.5974
 9290SOL    HW239507   4.081   1.153   3.457 -1.5650 -1.6145  0.2646
 9291SOL     OW39508   0.730   4.698   9.057 -0.4406  0.4960 -0.2500
 9291SOL    HW139509   0.813   0.010   9.064 -0.4198  0.4068  0.0843
 9291SOL    HW239510   0.716   4.682   8.964  0.1711  0.3903 -0.3186
 9292SOL     OW39511   1.075   2.453   3.080  0.2910 -0.5921  0.2515
 9292SOL    HW139512   0.991   2.426   3.042  0.3101  0.4316 -0.5187
 9292SOL    HW239513   1.072   2.549   3.080  2.1582 -0.5272  0.0049
 9293SOL     OW39514   1.037   4.358  15.185  0.1428 -0.1355 -0.2527
 9293SOL    HW139515   1.065   4.383  15.272  0.5877 -2.0578  0.1549
 9293SOL    HW239516   0.942   4.369  15.181  0.1435  0.3744  1.5578
 9294SOL     OW39517   3.509   2.695   6.283 -1.0286 -0.2335  0.2117
 9294SOL    HW139518   3.420   2.696   6.249 -0.4227 -0.5852 -1.4044
 9294SOL    HW239519   3.510   2.616   6.337 -1.1832  0.3086  1.0062
 9295SOL     OW39520   3.487   4.279   6.207  0.4155  0.1190  0.1613
 9295SOL    HW139521   3.430   4.210   6.243  1.3238 -0.5411  0.3395
 9295SOL    HW239522   3.540   4.300   6.284  2.6266  1.5964 -1.7864
 9296SOL     OW39523   2.169   1.046   6.783 -0.1034 -0.9750 -0.1930
 9296SOL    HW139524   2.192   1.116   6.722 -0.4571  0.4435  1.2974
 9296SOL    HW239525   2.120   0.998   6.716  0.0138 -1.4318  0.0529
 9297SOL     OW39526   0.858   3.287   3.397 -0.4733  0.7058  0.2343
 9297SOL    HW139527   0.859   3.243   3.482  0.8333  3.6626  1.7569
 9297SOL    HW239528   0.941   3.258   3.361  0.0222  2.6319 -0.1576
 9298SOL     OW39529   2.478   2.098  13.112  0.2033 -0.6991 -0.0436
 9298SOL    HW139530   2.549   2.089  13.048 -0.9889 -0.6849 -1.3840
 9298SOL    HW239531   2.533   2.125  13.185  0.7258 -0.4840 -0.5105
 9299SOL     OW39532   2.802   1.595   2.614 -0.3781 -0.0314 -0.1749
 9299SOL    HW139533   2.783   1.601   2.707 -0.7318 -1.1620 -0.1759
 9299SOL    HW239534   2.721   1.631   2.579 -1.2782 -1.1451  0.7735
 9300SOL     OW39535   1.389   4.359   1.319  0.5636  0.0778 -0.5173
 9300SOL    HW139536   1.455   4.422   1.290 -0.9502  0.6435 -2.7449
 9300SOL    HW239537   1.371   4.312   1.238 -3.4114  0.7321 -0.0312
 9301SOL     OW39538   0.302   1.807   4.167 -0.0191 -0.3938 -0.4491
 9301SOL    HW139539   0.322   1.727   4.215 -0.0931 -0.0012  0.2352
 9301SOL    HW239540   0.336   1.875   4.225  2.1269 -0.9218 -1.0709
 9302SOL     OW39541   4.029   4.160   3.845  0.0629 -0.3194  0.4491
 9302SOL    HW139542   3.960   4.095   3.860  1.9786 -2.3290  0.5007
 9302SOL    HW239543   4.072   4.128   3.766 -1.0063 -0.4924 -0.0655
 9303SOL     OW39544   1.627   3.028   1.659 -0.4524  0.2623  0.6994
 9303SOL    HW139545   1.704   3.031   1.715  1.5039  1.8023 -2.0628
 9303SOL    HW239546   1.563   2.984   1.715  0.2214  0.8307  1.9034
 9304SOL     OW39547   0.198   2.623   7.029  0.7311 -0.5483 -0.3767
 9304SOL    HW139548   0.244   2.545   7.059 -2.0019 -1.3883  1.6371
 9304SOL    HW239549   0.188   2.683   7.103  3.4801 -2.0160  1.1626
 9305SOL     OW39550   4.654   1.031   8.437 -0.2954  0.2595 -0.5849
 9305SOL    HW139551   4.732   0.975   8.435  0.4854  1.3251 -0.0807
 9305SOL    HW239552   4.608   0.990   8.364  0.5583 -2.1199  0.1936
 9306SOL     OW39553   0.271   3.118  15.047 -0.0627  0.5109 -0.4816
 9306SOL    HW139554   0.319   3.057  15.103 -0.0376  0.0911 -0.9712
 9306SOL    HW239555   0.329   3.123  14.972  0.9041 -2.2126  0.0956
 9307SOL     OW39556   2.954   1.451   6.190  0.0846 -0.3130 -0.4728
 9307SOL    HW139557   2.888   1.463   6.259  0.8286 -0.7661  0.3192
 9307SOL    HW239558   3.036   1.455   6.239  0.5910  2.1751 -1.5350
 9308SOL     OW39559   0.537   2.035   5.878 -0.2386 -0.2550 -0.1191
 9308SOL    HW139560   0.516   2.027   5.970  2.4795 -0.6735  0.4830
 9308SOL    HW239561   0.600   1.965   5.861 -1.2330 -1.0885 -0.3357
 9309SOL     OW39562   0.628   4.341   4.329 -0.3042  0.8243 -0.1706
 9309SOL    HW139563   0.702   4.402   4.328 -0.1099  0.5680 -1.4606
 9309SOL    HW239564   0.684   4.265   4.344  0.3242  1.9131  3.0193
 9310SOL     OW39565   4.628   2.477   7.559 -0.0168  0.3868 -0.1635
 9310SOL    HW139566   4.691   2.417   7.599  0.1593 -0.2004 -1.3349
 9310SOL    HW239567   4.544   2.433   7.553  0.1272  0.0384  0.3489
 9311SOL     OW39568   0.842   1.296   5.539  0.1009 -0.0784 -0.1673
 9311SOL    HW139569   0.926   1.343   5.540  0.7338 -1.2143  1.6766
 9311SOL    HW239570   0.842   1.274   5.633 -0.5458 -1.6433 -0.5320
 9312SOL     OW39571   2.977   1.773   4.106  0.1708 -0.1256  0.0334
 9312SOL    HW139572   2.966   1.732   4.191 -2.5776  1.1069  0.2602
 9312SOL    HW239573   3.043   1.840   4.124  0.2389 -0.0509 -0.4815
 9313SOL     OW39574   3.332   4.274   4.637  0.2441  0.1666 -0.1080
 9313SOL    HW139575   3.344   4.365   4.665 -0.9817  0.5066 -0.7144
 9313SOL    HW239576   3.415   4.239   4.669  0.3740  1.0812  0.5627
 9314SOL     OW39577   3.138   3.339   8.522  0.6010  0.2242 -0.2346
 9314SOL    HW139578   3.219   3.377   8.488  0.3350 -1.3002 -2.5459
 9314SOL    HW239579   3.130   3.248   8.495 -0.2303  0.4682 -0.8002
 9315SOL     OW39580   0.781   3.211   5.027 -0.0336  0.0658  0.1207
 9315SOL    HW139581   0.755   3.239   5.115 -1.5800  0.3127 -0.4184
 9315SOL    HW239582   0.866   3.180   5.056  0.1371  1.5510  1.2227
 9316SOL     OW39583   4.387   2.106   8.990  0.1229  0.6242  0.1976
 9316SOL    HW139584   4.322   2.175   8.975  1.5074  1.7628 -0.5795
 9316SOL    HW239585   4.348   2.043   8.928  0.8407  1.1053 -0.7422
 9317SOL     OW39586   1.768   0.729   0.073 -0.3895  0.0889 -0.3626
 9317SOL    HW139587   1.850   0.739   0.025 -2.4548  0.8658 -3.7450
 9317SOL    HW239588   1.787   0.650   0.124 -0.6851 -1.3285 -2.4744
 9318SOL     OW39589   3.754   1.849  12.477 -0.1710 -0.1854  0.2352
 9318SOL    HW139590   3.663   1.818  12.480  0.1458 -1.1750 -0.8000
 9318SOL    HW239591   3.787   1.774  12.428 -1.3590  0.2527 -1.2178
 9319SOL     OW39592   4.140   2.244   7.333 -0.0298  0.2217  0.6999
 9319SOL    HW139593   4.156   2.334   7.363  1.7241 -0.1370  0.8566
 9319SOL    HW239594   4.201   2.229   7.261  0.0173  0.3440  0.7126
 9320SOL     OW39595   3.381   1.705  15.589 -0.4545  0.2335 -0.4995
 9320SOL    HW139596   3.349   1.767  15.655 -2.8882  0.7321 -2.1088
 9320SOL    HW239597   3.301   1.682  15.541 -1.0921 -0.0969  0.7384
 9321SOL     OW39598   3.643   2.461  13.320  0.5185  0.1205 -0.4124
 9321SOL    HW139599   3.580   2.396  13.291 -0.7389  1.6441 -1.1056
 9321SOL    HW239600   3.594   2.543  13.316  1.9323  1.0898  2.2375
 9322SOL     OW39601   3.163   2.841  12.010 -0.0539  0.3173 -0.4118
 9322SOL    HW139602   3.254   2.829  11.982  0.3569  0.5447  0.8220
 9322SOL    HW239603   3.145   2.914  11.951 -0.6444  0.2133 -0.3535
 9323SOL     OW39604   4.672   4.246   2.323  0.0619  0.0076  0.4482
 9323SOL    HW139605   4.650   4.160   2.358  1.3907 -0.7001 -0.4386
 9323SOL    HW239606   0.008   4.221   2.264 -2.5660 -1.7550 -1.9619
 9324SOL     OW39607   1.831   1.265   8.550  0.1964 -0.3709 -0.4969
 9324SOL    HW139608   1.797   1.339   8.600 -1.6921 -1.0009 -0.8607
 9324SOL    HW239609   1.752   1.214   8.535 -1.8779  1.4397  4.2961
 9325SOL     OW39610   2.181   2.084   8.512 -0.0053 -0.0554  0.4820
 9325SOL    HW139611   2.145   2.148   8.573 -0.6003 -2.2074  2.3805
 9325SOL    HW239612   2.244   2.040   8.569  1.6768  0.6804 -0.7931
 9326SOL     OW39613   3.207   2.907  12.791 -0.5132  0.0004 -0.0599
 9326SOL    HW139614   3.250   2.875  12.870 -1.0016 -1.2059 -0.2697
 9326SOL    HW239615   3.211   3.001  12.810 -1.7766 -0.4208  2.2943
 9327SOL     OW39616   0.299   2.320   2.421 -0.5042 -0.6642  0.4142
 9327SOL    HW139617   0.331   2.353   2.337 -1.7009  0.7030  0.5093
 9327SOL    HW239618   0.273   2.231   2.397 -2.5939 -0.4633  1.9460
 9328SOL     OW39619   3.995   0.245  17.128  0.0828  0.4615  0.8554
 9328SOL    HW139620   3.915   0.294  17.148  0.7516  1.7335  0.3720
 9328SOL    HW239621   4.024   0.215  17.214  0.9979 -1.2734 -0.0604
 9329SOL     OW39622   4.282   3.267   6.907  0.3432  0.6570 -0.3963
 9329SOL    HW139623   4.284   3.198   6.841 -2.0178 -0.5272  0.7758
 9329SOL    HW239624   4.367   3.250   6.948  0.4397  1.4944 -0.2592
 9330SOL     OW39625   0.736   2.910   8.720  0.4274  0.3330 -0.6455
 9330SOL    HW139626   0.742   2.866   8.635  3.3708 -1.7870  0.6738
 9330SOL    HW239627   0.663   2.861   8.759  1.2953 -0.6623 -0.2600
 9331SOL     OW39628   0.825   2.483  13.144  0.0460  0.4590  0.1709
 9331SOL    HW139629   0.745   2.509  13.189 -0.2140 -2.6717  1.5035
 9331SOL    HW239630   0.839   2.397  13.183  1.8575  0.6580 -0.0199
 9332SOL     OW39631   0.149   1.452  11.491  0.1252  0.5162  0.0013
 9332SOL    HW139632   0.231   1.498  11.474 -0.4637  1.7207  0.4052
 9332SOL    HW239633   0.090   1.524  11.469 -0.0644 -0.0381 -1.3072
 9333SOL     OW39634   3.814   2.050   6.383  0.6817  0.3999  0.1686
 9333SOL    HW139635   3.751   2.119   6.403  3.0448  2.0458  1.9772
 9333SOL    HW239636   3.799   1.986   6.453 -0.3325  1.8293  1.2386
 9334SOL     OW39637   1.272   3.399   3.499 -0.0069  0.6292 -0.2875
 9334SOL    HW139638   1.336   3.422   3.431  1.1457 -0.6325  0.3661
 9334SOL    HW239639   1.212   3.470   3.475 -1.2579 -0.4864 -0.3968
 9335SOL     OW39640   1.717   0.383   6.223  0.0510 -0.2287  0.2150
 9335SOL    HW139641   1.790   0.430   6.263  1.1050 -1.0064 -0.7930
 9335SOL    HW239642   1.764   0.310   6.183 -0.7877  0.5773 -2.2254
 9336SOL     OW39643   3.790   0.156  10.330  0.3422  0.1651 -0.3583
 9336SOL    HW139644   3.871   0.205  10.339  1.3371 -1.8307  1.4672
 9336SOL    HW239645   3.730   0.226  10.302 -2.0129 -2.3449 -1.6729
 9337SOL     OW39646   2.999   1.415  17.711  0.0798  0.6437 -0.1531
 9337SOL    HW139647   2.911   1.413  17.672  0.3845  0.7781 -0.8549
 9337SOL    HW239648   2.986   1.390   0.064 -1.1740  2.8943  0.2825
 9338SOL     OW39649   1.507   4.712  11.036  0.7731  0.7207  0.0958
 9338SOL    HW139650   1.597   4.684  11.051 -0.5686 -3.1155  1.0178
 9338SOL    HW239651   1.502   0.047  11.102  0.6647  0.0756  0.7665
 9339SOL     OW39652   0.471   0.791   3.593  0.0116  0.1626 -0.2443
 9339SOL    HW139653   0.475   0.789   3.497 -0.6534  2.2587 -0.3250
 9339SOL    HW239654   0.504   0.704   3.612  0.6675  1.2909  3.8103
 9340SOL     OW39655   1.938   0.674   6.630  0.4466  0.1329  0.5717
 9340SOL    HW139656   1.898   0.675   6.717 -1.2045 -1.3824 -0.1826
 9340SOL    HW239657   1.937   0.578   6.623 -0.2498  0.4932 -4.6895
 9341SOL     OW39658   2.395   4.252   5.042  0.0986 -0.0217  0.5790
 9341SOL    HW139659   2.430   4.170   5.007 -0.3633 -0.6485  1.5900
 9341SOL    HW239660   2.472   4.294   5.082 -0.0323 -0.4391  1.2590
 9342SOL     OW39661   4.333   3.910   8.113 -0.2479 -0.4681 -0.2491
 9342SOL    HW139662   4.351   3.862   8.032  0.7287  0.3706 -0.5181
 9342SOL    HW239663   4.374   3.995   8.103  0.4326 -0.7893 -0.1606
 9343SOL     OW39664   1.170   1.089   4.146 -0.7069 -0.3943  0.5904
 9343SOL    HW139665   1.108   1.020   4.123  0.1674 -0.7155 -0.8311
 9343SOL    HW239666   1.120   1.161   4.108 -1.2913 -2.2080 -2.0279
 9344SOL     OW39667   0.356   4.275   4.606 -0.1179  0.3353 -0.4796
 9344SOL    HW139668   0.323   4.304   4.521  0.5377  0.1571 -0.7958
 9344SOL    HW239669   0.380   4.187   4.579 -1.5449 -0.2423  0.1391
 9345SOL     OW39670   2.105   2.403  13.364 -0.0416  0.3202  0.5140
 9345SOL    HW139671   2.021   2.415  13.407  0.4304  0.1657  1.4890
 9345SOL    HW239672   2.095   2.321  13.316  1.3140 -0.1354  0.9923
 9346SOL     OW39673   4.639   3.942   6.265 -0.3556  0.4521  0.0571
 9346SOL    HW139674   4.651   3.999   6.341 -0.3405 -0.0817  0.4498
 9346SOL    HW239675   4.723   3.902   6.243 -1.3301 -1.4337 -0.1987
 9347SOL     OW39676   3.429   2.213   6.984 -0.0756  0.7092 -0.3770
 9347SOL    HW139677   3.434   2.176   7.073  0.0154  0.3149 -0.5446
 9347SOL    HW239678   3.515   2.251   6.970  0.3286 -0.2559 -0.4854
 9348SOL     OW39679   2.802   3.448   7.609 -0.0056 -0.2450  0.1614
 9348SOL    HW139680   2.863   3.385   7.649  0.7079  0.7953  0.7128
 9348SOL    HW239681   2.734   3.435   7.675  0.3369 -3.5556 -0.1225
 9349SOL     OW39682   4.715   3.357   2.913 -0.1029 -0.2449  0.0811
 9349SOL    HW139683   4.723   3.262   2.904 -1.4220 -0.4970  1.5644
 9349SOL    HW239684   4.731   3.373   3.006  2.6060  0.6471 -0.5277
 9350SOL     OW39685   2.790   0.520  16.010  0.5134  0.0704 -0.2336
 9350SOL    HW139686   2.882   0.535  15.993  0.5718  1.3598  1.2406
 9350SOL    HW239687   2.799   0.493  16.101  0.7006  0.5543 -0.1104
 9351SOL     OW39688   2.153   4.048   7.299  0.4143 -0.0247 -0.4803
 9351SOL    HW139689   2.178   4.140   7.303 -0.7489  0.1654  2.4894
 9351SOL    HW239690   2.207   4.015   7.371  1.1977  1.4536 -0.3856
 9352SOL     OW39691   4.592   4.403  15.166 -0.2549 -0.4202  0.6576
 9352SOL    HW139692   4.586   4.315  15.128 -0.3019 -0.0842 -0.1034
 9352SOL    HW239693   4.670   4.381  15.217  2.3118  0.5595 -2.8770
 9353SOL     OW39694   2.684   3.903  10.252  0.2327 -0.5190 -0.3809
 9353SOL    HW139695   2.660   3.979  10.305 -1.0795 -1.1982 -0.0209
 9353SOL    HW239696   2.718   3.845  10.321  0.4769 -0.2257 -0.2560
 9354SOL     OW39697   2.007   1.624   8.748 -0.4404 -0.0050 -0.1647
 9354SOL    HW139698   2.099   1.597   8.753 -0.7088 -0.4932  1.8694
 9354SOL    HW239699   1.977   1.533   8.744 -1.0664  0.2618 -1.3981
 9355SOL     OW39700   0.580   3.175  15.046 -0.2668  0.2821  0.1924
 9355SOL    HW139701   0.634   3.117  14.994 -1.2207 -0.0517 -0.4340
 9355SOL    HW239702   0.643   3.230  15.092  0.1207  0.1116 -0.1405
 9356SOL     OW39703   2.627   3.937   2.471  0.0931 -0.4335  0.0563
 9356SOL    HW139704   2.688   3.978   2.533  0.8266 -1.0434 -0.2547
 9356SOL    HW239705   2.676   3.940   2.388  0.2857 -0.7518  0.1581
 9357SOL     OW39706   3.781   3.479  16.199  0.6501  0.1647  0.0605
 9357SOL    HW139707   3.859   3.509  16.153  0.4279 -1.9536 -1.6813
 9357SOL    HW239708   3.732   3.562  16.201  0.4357  0.0846 -2.1108
 9358SOL     OW39709   3.104   2.228   5.349  0.1409  0.4077 -0.1231
 9358SOL    HW139710   3.066   2.177   5.420 -1.8052  2.7351  0.5001
 9358SOL    HW239711   3.189   2.258   5.379  0.2682 -1.2046  1.1035
 9359SOL     OW39712   4.522   3.717   2.409 -0.6280 -0.1959  0.8061
 9359SOL    HW139713   4.443   3.700   2.358 -1.0884 -0.8749  1.7240
 9359SOL    HW239714   4.535   3.629   2.443  0.9520  0.2761  1.4161
 9360SOL     OW39715   2.357   0.392   1.606 -0.0587 -0.1885 -0.6246
 9360SOL    HW139716   2.364   0.335   1.529 -0.4433 -0.9139 -0.1244
 9360SOL    HW239717   2.450   0.413   1.598  0.1193  0.4827  3.4881
 9361SOL     OW39718   1.948   2.249  16.767 -0.2081  0.0851  0.5025
 9361SOL    HW139719   1.906   2.164  16.782  1.8759 -1.2948 -1.5145
 9361SOL    HW239720   1.959   2.279  16.857 -0.7528 -2.0031  1.2683
 9362SOL     OW39721   1.294   0.798   2.516  0.3191  0.5564 -0.1287
 9362SOL    HW139722   1.206   0.761   2.522  0.6889 -0.0425  1.4169
 9362SOL    HW239723   1.315   0.790   2.609  1.2615  1.2822 -0.2683
 9363SOL     OW39724   1.439   4.570   2.658  0.1397  0.3522 -0.0395
 9363SOL    HW139725   1.523   4.596   2.696  0.6817 -2.2981  0.5634
 9363SOL    HW239726   1.391   4.640   2.703  0.7141  0.0038  1.0889
 9364SOL     OW39727   2.003   2.387   5.621  0.3408  0.3453 -0.5286
 9364SOL    HW139728   2.084   2.374   5.572  0.0754 -2.9332 -0.1278
 9364SOL    HW239729   1.940   2.367   5.551 -1.5700  0.4272  1.1568
 9365SOL     OW39730   2.540   1.163   3.524  0.2433  0.6582  0.2065
 9365SOL    HW139731   2.630   1.190   3.538 -0.0450  0.9990  1.4096
 9365SOL    HW239732   2.538   1.090   3.586 -1.2154  1.9241  1.6530
 9366SOL     OW39733   3.254   4.496  15.014  0.1392  0.0600  0.0705
 9366SOL    HW139734   3.330   4.547  15.042 -0.2220  1.8811 -2.3279
 9366SOL    HW239735   3.261   4.426  15.079  2.0423 -1.3312 -1.6251
 9367SOL     OW39736   2.402   4.637   6.866  0.0956  0.1734 -0.1869
 9367SOL    HW139737   2.419   4.576   6.794  0.0659  2.3283 -1.9910
 9367SOL    HW239738   2.488   4.679   6.873  0.5399 -0.5314 -1.4621
 9368SOL     OW39739   4.658   2.951   0.870 -0.0617  0.5560  0.2404
 9368SOL    HW139740   4.699   2.977   0.788 -0.3505 -1.4191 -0.5243
 9368SOL    HW239741   4.730   2.932   0.931  0.9352  0.5736 -0.9390
 9369SOL     OW39742   3.526   3.241   1.435 -0.4588  0.0604  0.0887
 9369SOL    HW139743   3.510   3.325   1.391  2.2954  0.2949 -0.4910
 9369SOL    HW239744   3.500   3.186   1.361  0.2930  0.6309 -0.6005
 9370SOL     OW39745   2.195   2.134   0.150 -0.6705 -0.3638  0.2257
 9370SOL    HW139746   2.187   2.069   0.081  0.3187  0.6565 -0.8397
 9370SOL    HW239747   2.142   2.207   0.119 -0.8493  0.6653  2.9186
 9371SOL     OW39748   1.873   1.762  16.365 -0.1425  0.1015  0.6287
 9371SOL    HW139749   1.868   1.826  16.295 -1.2413 -1.6928 -0.9341
 9371SOL    HW239750   1.781   1.750  16.389 -0.6919  1.2640 -0.8879
 9372SOL     OW39751   1.681   2.728   9.140 -0.0323 -0.0080  0.1380
 9372SOL    HW139752   1.712   2.814   9.111 -0.7540 -0.2972 -1.5019
 9372SOL    HW239753   1.614   2.749   9.205 -0.2453 -0.2596 -0.0025
 9373SOL     OW39754   2.468   0.051  16.270  0.3157  0.4099  0.1890
 9373SOL    HW139755   2.531   4.733  16.222 -0.5945 -2.2524  1.9116
 9373SOL    HW239756   2.394   0.057  16.209 -0.7236  1.4253  1.5471
 9374SOL     OW39757   3.187   4.189   7.663 -0.1372  0.2705 -0.3064
 9374SOL    HW139758   3.109   4.150   7.625  1.1270  0.2693 -2.8955
 9374SOL    HW239759   3.244   4.112   7.656 -0.1039  0.3516 -0.8940
 9375SOL     OW39760   0.607   4.119   2.966 -0.1741  0.2920 -0.0107
 9375SOL    HW139761   0.687   4.161   2.932 -0.0605  1.9940  2.4169
 9375SOL    HW239762   0.544   4.180   2.928 -0.7579 -1.1247 -1.3259
 9376SOL     OW39763   4.294   3.835  11.788 -0.1703 -0.3154 -0.4525
 9376SOL    HW139764   4.385   3.855  11.764 -0.3024  0.3218 -0.4186
 9376SOL    HW239765   4.258   3.802  11.706  0.3487 -2.5538  0.2092
 9377SOL     OW39766   3.133   4.453   2.587  0.2709  0.1822  0.0443
 9377SOL    HW139767   3.191   4.530   2.584 -0.4176  0.6480 -1.0962
 9377SOL    HW239768   3.050   4.494   2.610  0.1264 -1.0175  1.6499
 9378SOL     OW39769   3.852   3.012   6.827 -0.0321  0.5961 -0.4679
 9378SOL    HW139770   3.916   3.008   6.898 -0.7500  0.7202  0.1870
 9378SOL    HW239771   3.811   2.926   6.839 -0.3322  0.7680 -0.2368
 9379SOL     OW39772   3.104   3.455   6.273  0.1355  0.4386 -0.3050
 9379SOL    HW139773   3.128   3.541   6.310 -1.4642 -0.0783  1.9721
 9379SOL    HW239774   3.071   3.484   6.189 -1.5283  0.6572  0.4299
 9380SOL     OW39775   4.456   2.721  13.423 -0.5804 -0.0344 -0.2427
 9380SOL    HW139776   4.433   2.781  13.353 -2.1624 -0.9789 -0.5309
 9380SOL    HW239777   4.451   2.779  13.500 -0.2717 -1.0499  0.5419
 9381SOL     OW39778   3.840   3.112   5.519  0.2758  0.1334 -0.4192
 9381SOL    HW139779   3.768   3.174   5.510  1.5216  1.4420 -1.3954
 9381SOL    HW239780   3.905   3.161   5.569 -0.7007 -1.0081  1.9594
 9382SOL     OW39781   2.809   2.586   4.753 -0.9294 -0.5611  0.2435
 9382SOL    HW139782   2.837   2.494   4.751  0.5613 -0.0626 -1.4972
 9382SOL    HW239783   2.728   2.587   4.701 -0.9746  0.3549  0.3365
 9383SOL     OW39784   2.992   0.859   2.378 -0.2764 -0.0427  0.0158
 9383SOL    HW139785   2.952   0.773   2.389  2.0530 -1.2894 -1.3943
 9383SOL    HW239786   3.085   0.844   2.388 -0.1070  1.4555  0.6320
 9384SOL     OW39787   0.589   4.456   6.662 -0.0508 -0.1979  0.4795
 9384SOL    HW139788   0.547   4.382   6.617 -1.7097  1.0999 -0.1291
 9384SOL    HW239789   0.558   4.432   6.749 -0.7733 -1.2830 -0.0685
 9385SOL     OW39790   2.089   2.158   7.339  0.2560  0.1780 -0.0516
 9385SOL    HW139791   2.083   2.063   7.328 -0.7837  0.3554 -0.9775
 9385SOL    HW239792   2.155   2.182   7.274  1.0559  0.0674  0.7144
 9386SOL     OW39793   0.872   0.703   9.231 -0.6439  0.5204 -0.3412
 9386SOL    HW139794   0.849   0.720   9.322  0.7928  2.2049 -0.2710
 9386SOL    HW239795   0.816   0.627   9.223 -0.2107  0.0488  1.0145
 9387SOL     OW39796   0.272   3.859   6.881  0.7289 -0.5624 -0.3318
 9387SOL    HW139797   0.308   3.799   6.945 -1.5754 -0.2033  1.2965
 9387SOL    HW239798   0.242   3.934   6.932  0.9799 -0.9441  0.3724
 9388SOL     OW39799   2.012   0.853  14.138  0.2068  0.1308  0.2657
 9388SOL    HW139800   1.930   0.805  14.149  1.4117 -1.9938  0.0505
 9388SOL    HW239801   1.977   0.940  14.151  0.0835  0.3873 -1.7551
 9389SOL     OW39802   2.576   0.263  16.706 -0.1882 -0.2845  0.6827
 9389SOL    HW139803   2.545   0.223  16.625  2.0998  0.5841 -0.6205
 9389SOL    HW239804   2.668   0.264  16.682 -0.7555  1.0758 -1.4142
 9390SOL     OW39805   4.122   3.377   9.892 -0.4159  0.5523 -0.2691
 9390SOL    HW139806   4.199   3.369   9.835  0.3088  0.4187  0.7354
 9390SOL    HW239807   4.066   3.438   9.845 -0.0496  2.1827  1.4324
 9391SOL     OW39808   1.727   1.735   6.973 -0.4476 -0.3394 -0.0660
 9391SOL    HW139809   1.670   1.692   7.037 -3.0808  2.0114 -0.7839
 9391SOL    HW239810   1.671   1.812   6.957 -0.1840  0.3249  2.1729
 9392SOL     OW39811   3.865   1.915   0.875 -0.5354 -0.4723  0.1814
 9392SOL    HW139812   3.824   2.002   0.872 -0.8044 -0.6297 -0.6488
 9392SOL    HW239813   3.897   1.916   0.965  0.5914  0.7745 -0.2133
 9393SOL     OW39814   2.084   2.985  13.239 -0.3257 -0.4829  0.5456
 9393SOL    HW139815   2.071   2.897  13.273 -1.3229 -0.4392  0.2618
 9393SOL    HW239816   2.014   3.034  13.281 -1.2124 -0.9779 -0.3652
 9394SOL     OW39817   4.035   1.922   1.080 -0.9552  0.1254  0.3684
 9394SOL    HW139818   4.105   1.986   1.087 -0.3279 -0.5132 -0.1158
 9394SOL    HW239819   3.997   1.914   1.168 -1.4517 -1.6037  0.0091
 9395SOL     OW39820   1.704   2.400  11.756 -0.2214  0.5035  1.1078
 9395SOL    HW139821   1.622   2.433  11.792 -1.3949  0.5835 -1.6128
 9395SOL    HW239822   1.686   2.362  11.670  0.5107  0.2244  1.0803
 9396SOL     OW39823   4.369   4.537   9.001  0.3994  0.5096 -0.3717
 9396SOL    HW139824   4.447   4.543   8.946  0.6688  2.5451  0.2083
 9396SOL    HW239825   4.343   4.629   9.011 -3.1133 -0.4911 -0.4003
 9397SOL     OW39826   0.697   2.151   1.857  0.3661  0.2024  0.1552
 9397SOL    HW139827   0.646   2.179   1.780 -0.6880 -1.6267  0.2001
 9397SOL    HW239828   0.684   2.056   1.857  2.5393 -0.0925  0.4913
 9398SOL     OW39829   3.914   1.005   6.202  0.0559 -0.2969 -0.0477
 9398SOL    HW139830   3.878   1.039   6.120 -0.6448  1.8124  1.1207
 9398SOL    HW239831   3.936   0.918   6.171 -0.4418  0.5887 -2.8532
 9399SOL     OW39832   2.756   1.952   2.393 -0.2243 -0.1573  0.1831
 9399SOL    HW139833   2.714   1.866   2.399  0.7310 -0.7048 -1.2423
 9399SOL    HW239834   2.681   2.010   2.374 -0.1194 -0.0270  0.1685
 9400SOL     OW39835   2.834   0.838   4.163 -0.4171  0.1775 -0.4546
 9400SOL    HW139836   2.781   0.804   4.235  0.2509 -0.1096 -0.0918
 9400SOL    HW239837   2.817   0.782   4.087  0.1104 -0.4386 -0.1217
 9401SOL     OW39838   4.724   0.855   7.219  0.0218 -0.0949 -0.3710
 9401SOL    HW139839   4.698   0.823   7.305 -0.3996  2.6148  0.5153
 9401SOL    HW239840   0.042   0.781   7.190  1.1930 -0.4811  2.7673
 9402SOL     OW39841   0.198   3.613   5.516 -0.0675 -0.6979  0.2108
 9402SOL    HW139842   0.209   3.688   5.457  2.0336 -1.4705 -0.3708
 9402SOL    HW239843   0.108   3.628   5.543  0.4319  1.4076  0.6844
 9403SOL     OW39844   1.251   3.697   4.789  0.0904  0.2108  0.3743
 9403SOL    HW139845   1.205   3.747   4.722  0.7789 -0.7474 -0.8183
 9403SOL    HW239846   1.221   3.742   4.868  2.3806  0.8775  0.8477
 9404SOL     OW39847   1.057   0.944   6.347  0.1241  0.1092 -0.3072
 9404SOL    HW139848   1.108   0.863   6.349 -2.3505 -1.4429  0.9297
 9404SOL    HW239849   0.971   0.914   6.318  0.7006 -0.3905 -1.4990
 9405SOL     OW39850   2.449   2.285   9.822  0.2767  0.2207 -0.1312
 9405SOL    HW139851   2.393   2.288   9.900  1.0754 -5.2158  0.6602
 9405SOL    HW239852   2.397   2.321   9.750  2.1638  1.0165 -1.1040
 9406SOL     OW39853   3.716   1.567   8.948  0.5083  0.1821  0.0311
 9406SOL    HW139854   3.739   1.632   9.014  2.3256  0.6540 -1.0555
 9406SOL    HW239855   3.745   1.619   8.872  1.9800 -0.5754  0.0897
 9407SOL     OW39856   1.310   4.155   8.506 -0.2538  0.1799  0.0093
 9407SOL    HW139857   1.227   4.193   8.475 -0.1418 -2.2125 -3.2900
 9407SOL    HW239858   1.348   4.104   8.434  0.8807 -0.2950  0.9560
 9408SOL     OW39859   0.968   1.990  11.254  0.5505  0.3785 -0.0697
 9408SOL    HW139860   0.947   2.066  11.199 -0.3841  1.1279  1.3323
 9408SOL    HW239861   0.906   1.929  11.213 -0.0327  1.3090 -0.5752
 9409SOL     OW39862   0.199   1.194   4.360  0.1242 -0.2316  0.0792
 9409SOL    HW139863   0.113   1.163   4.388 -0.8954  1.4358 -1.1883
 9409SOL    HW239864   0.220   1.128   4.295 -1.1825 -0.3172 -0.2615
 9410SOL     OW39865   3.449   4.309   5.104  0.2390  0.2345  0.0546
 9410SOL    HW139866   3.408   4.240   5.157 -3.2281  0.5402 -2.1810
 9410SOL    HW239867   3.540   4.281   5.107  0.8598  2.1529 -0.9711
 9411SOL     OW39868   3.606   1.882   5.841 -0.1255  0.0236 -0.3538
 9411SOL    HW139869   3.696   1.857   5.863 -0.0537 -0.1005 -0.7966
 9411SOL    HW239870   3.563   1.833   5.912  2.0868  1.1110  1.7053
 9412SOL     OW39871   0.997   0.910  12.690  0.5088  0.2892 -0.3521
 9412SOL    HW139872   0.975   0.888  12.781  0.8672 -0.7098 -0.5092
 9412SOL    HW239873   1.082   0.871  12.670  0.3165 -0.6729  0.6639
 9413SOL     OW39874   3.427   3.416  10.258  0.2476 -0.1757  0.1767
 9413SOL    HW139875   3.395   3.504  10.240  0.2494  0.1522  1.7912
 9413SOL    HW239876   3.347   3.367  10.277 -0.8115  0.7871 -1.7629
 9414SOL     OW39877   4.730   1.351   2.011 -0.5995 -0.2331  0.0408
 9414SOL    HW139878   0.065   1.416   2.018 -1.1067  0.4601 -1.2827
 9414SOL    HW239879   0.032   1.272   1.972 -0.9823 -0.7364  0.6957
 9415SOL     OW39880   0.062   3.977  17.582 -0.3394  0.4372  0.0335
 9415SOL    HW139881   0.096   3.988  17.493  2.1836  1.8804  1.1577
 9415SOL    HW239882   0.137   3.958  17.639  1.1651  1.6450 -1.5250
 9416SOL     OW39883   0.117   0.404  11.057 -0.4092  0.3342  0.6771
 9416SOL    HW139884   0.090   0.321  11.096  0.0132  0.7739  1.9271
 9416SOL    HW239885   0.056   0.463  11.103  0.9914  1.4364  1.1318
 9417SOL     OW39886   2.532   3.356   6.362 -0.0537  0.2196 -0.0074
 9417SOL    HW139887   2.442   3.359   6.332  0.4298  0.0400 -1.4661
 9417SOL    HW239888   2.533   3.273   6.411 -0.0775  2.0973  3.2139
 9418SOL     OW39889   0.490   3.646   9.245  0.3270  0.0480  0.7070
 9418SOL    HW139890   0.512   3.739   9.252  3.2809 -0.7346  1.9062
 9418SOL    HW239891   0.575   3.605   9.227 -0.3665 -1.4514  0.9086
 9419SOL     OW39892   0.915   4.185   8.069 -0.7358 -0.0320  0.1440
 9419SOL    HW139893   0.952   4.262   8.114  1.0779 -1.0343  0.3484
 9419SOL    HW239894   0.909   4.230   7.985  0.1336 -1.1200 -0.4836
 9420SOL     OW39895   4.658   1.409   8.969  0.1366 -0.0247 -0.3378
 9420SOL    HW139896   0.000   1.461   8.993  0.3290  0.1406 -1.3134
 9420SOL    HW239897   4.612   1.428   9.050  1.4279  0.6537  0.2461
 9421SOL     OW39898   2.373   4.392  15.724 -0.0975 -0.1384 -0.3482
 9421SOL    HW139899   2.432   4.387  15.799 -1.7437  0.8359  1.0065
 9421SOL    HW239900   2.344   4.302  15.709  0.8170 -0.5737  0.5585
 9422SOL     OW39901   1.121   1.665   9.545 -0.4765 -0.5887 -0.0975
 9422SOL    HW139902   1.195   1.712   9.582 -0.7906 -0.8678  0.8955
 9422SOL    HW239903   1.158   1.636   9.462  1.1441 -1.7034  1.0278
 9423SOL     OW39904   1.995   1.019   3.989  0.1337 -0.2514 -0.1119
 9423SOL    HW139905   1.954   0.956   3.930  0.6653 -0.1099 -0.6402
 9423SOL    HW239906   1.962   0.986   4.073 -1.8163 -1.8808 -1.5258
 9424SOL     OW39907   2.526   0.911  12.281  0.0542  0.2275 -0.5533
 9424SOL    HW139908   2.493   0.873  12.200  0.8720  0.1784 -0.8579
 9424SOL    HW239909   2.594   0.966  12.244  1.4066 -0.8012  0.3983
 9425SOL     OW39910   1.940   3.614   3.687 -0.0012 -0.3995 -0.1043
 9425SOL    HW139911   1.935   3.520   3.669  3.8280 -0.5585 -0.3920
 9425SOL    HW239912   1.985   3.609   3.771  0.3705  0.3730 -0.2518
 9426SOL     OW39913   2.791   2.070  12.634  0.2696  0.0938 -0.4723
 9426SOL    HW139914   2.793   2.012  12.557  1.5243  0.2103 -0.5317
 9426SOL    HW239915   2.736   2.142  12.604 -0.1536 -0.5512 -1.2609
 9427SOL     OW39916   0.870   1.379  14.982 -0.6229 -0.1616  0.1356
 9427SOL    HW139917   0.951   1.362  15.029  0.4082 -1.6341 -2.1991
 9427SOL    HW239918   0.894   1.378  14.889 -2.4041 -2.5310 -0.3046
 9428SOL     OW39919   1.106   4.205  17.671 -0.2956 -0.1100 -0.0682
 9428SOL    HW139920   1.135   4.243   0.015  2.1651 -0.1125 -0.9302
 9428SOL    HW239921   1.165   4.247  17.608 -0.5665  2.5312  1.4584
 9429SOL     OW39922   1.427   3.256   1.201  0.7234 -0.3859  0.5468
 9429SOL    HW139923   1.449   3.349   1.200  0.6171 -0.3543  1.3410
 9429SOL    HW239924   1.477   3.230   1.124  0.3362 -0.7707  0.4278
 9430SOL     OW39925   3.761   3.757   3.752 -0.1826 -0.2732 -0.1985
 9430SOL    HW139926   3.786   3.668   3.779  2.0944  0.8297  1.3839
 9430SOL    HW239927   3.667   3.743   3.743  0.0364 -3.3109  2.0279
 9431SOL     OW39928   1.446   2.138  10.267  0.0941  0.2820  0.6156
 9431SOL    HW139929   1.485   2.224  10.284  1.3862 -0.5745  1.9737
 9431SOL    HW239930   1.468   2.086  10.344  0.2970 -2.8313 -1.5563
 9432SOL     OW39931   1.122   3.461  13.279 -0.2202 -0.0191 -0.5682
 9432SOL    HW139932   1.079   3.520  13.217  0.0048 -1.4364 -2.0650
 9432SOL    HW239933   1.041   3.421  13.311  0.1195  0.3505  0.7274
 9433SOL     OW39934   1.050   1.496   6.457 -0.6601  0.1433  0.1021
 9433SOL    HW139935   1.126   1.547   6.485 -1.3791  0.4183  1.4937
 9433SOL    HW239936   0.984   1.507   6.525 -1.0102  1.3208 -0.4327
 9434SOL     OW39937   2.946   3.972   1.574  0.5207 -0.8045 -0.1408
 9434SOL    HW139938   2.981   4.056   1.604  0.5998 -1.4279  1.5329
 9434SOL    HW239939   2.946   3.916   1.652 -1.5897 -2.5482 -1.3826
 9435SOL     OW39940   1.749   4.601   4.604 -0.0238 -0.1501  0.5054
 9435SOL    HW139941   1.833   4.620   4.645  1.1524 -2.4745 -0.7883
 9435SOL    HW239942   1.770   4.626   4.515  1.6007 -0.9376  0.6674
 9436SOL     OW39943   1.862   2.645   5.254  0.0196  0.1003  0.1095
 9436SOL    HW139944   1.830   2.619   5.341 -0.8188  0.0106 -0.2233
 9436SOL    HW239945   1.914   2.723   5.274  1.3832 -0.9699  0.7123
 9437SOL     OW39946   0.902   3.103   5.959  0.0101  0.3517  0.0230
 9437SOL    HW139947   0.910   3.073   5.869  0.4550 -4.5556  1.6975
 9437SOL    HW239948   0.854   3.185   5.948  1.1875  0.6802 -2.4365
 9438SOL     OW39949   1.293   2.262   7.112  0.0730  0.6635  0.1422
 9438SOL    HW139950   1.377   2.218   7.119 -0.0256  0.6045  0.9150
 9438SOL    HW239951   1.266   2.237   7.023  2.3147 -0.8384 -0.1031
 9439SOL     OW39952   0.871   4.174   6.317  0.0683 -0.9426 -0.1240
 9439SOL    HW139953   0.799   4.228   6.284  0.7583 -0.5595 -1.0242
 9439SOL    HW239954   0.837   4.151   6.403 -1.0918 -0.0183 -0.3352
 9440SOL     OW39955   4.391   1.932   0.196  0.1126 -0.1300  0.2436
 9440SOL    HW139956   4.406   2.001   0.131 -0.1470 -0.0279  0.2932
 9440SOL    HW239957   4.467   1.875   0.188 -0.2058 -0.3859 -0.9326
 9441SOL     OW39958   2.128   0.243   3.055 -0.4078 -0.0458  0.0205
 9441SOL    HW139959   2.133   0.173   3.120 -0.0486  0.7161  0.8106
 9441SOL    HW239960   2.044   0.280   3.083 -0.1029  1.5551 -1.1544
 9442SOL     OW39961   3.540   0.725   2.144  0.1530 -0.1983  0.1126
 9442SOL    HW139962   3.573   0.814   2.157 -0.6357  0.0099  0.6531
 9442SOL    HW239963   3.546   0.696   2.235  0.5721  0.7716  0.3954
 9443SOL     OW39964   2.010   3.456   5.637  0.1477  0.1373 -0.5282
 9443SOL    HW139965   2.068   3.382   5.617  0.5673  0.7267 -1.4852
 9443SOL    HW239966   1.980   3.428   5.723  2.1964  1.1888  0.5260
 9444SOL     OW39967   2.417   0.767   2.363  0.3655  0.1441 -0.4836
 9444SOL    HW139968   2.334   0.750   2.318 -1.6252  1.9727  2.4852
 9444SOL    HW239969   2.462   0.685   2.342 -1.4792 -1.4519  1.7911
 9445SOL     OW39970   3.446   2.829  15.087  0.1921 -0.0537 -0.3115
 9445SOL    HW139971   3.430   2.836  14.993  1.0824  0.8731 -0.3952
 9445SOL    HW239972   3.522   2.772  15.099 -0.0923 -0.6210 -1.1935
 9446SOL     OW39973   3.831   0.388   5.697  0.1264 -0.4556  0.3340
 9446SOL    HW139974   3.747   0.408   5.738  1.4024  1.4444  2.0411
 9446SOL    HW239975   3.863   0.323   5.759 -0.7291  0.1555  1.4421
 9447SOL     OW39976   4.333   1.141  10.035 -0.1119  0.2142 -0.2796
 9447SOL    HW139977   4.289   1.081  10.095 -1.0742 -0.0287 -1.2302
 9447SOL    HW239978   4.397   1.181  10.095 -0.4884  1.7216 -0.8809
 9448SOL     OW39979   0.422   4.265   5.986  0.0412  0.1757 -0.5286
 9448SOL    HW139980   0.358   4.196   6.006  0.1882  0.2335  0.1392
 9448SOL    HW239981   0.395   4.298   5.900  0.2955 -0.9192 -1.0300
 9449SOL     OW39982   3.808   3.639   4.107  0.6269  0.2842  1.3360
 9449SOL    HW139983   3.879   3.637   4.043 -0.1850  0.0463  0.4519
 9449SOL    HW239984   3.773   3.549   4.104  0.7133  0.3558 -1.3102
 9450SOL     OW39985   3.555   4.535   3.940  0.0196 -0.3367  0.2101
 9450SOL    HW139986   3.603   4.458   3.912 -2.2469 -1.2473 -1.2001
 9450SOL    HW239987   3.620   4.602   3.920 -0.4636 -0.2986 -1.2111
 9451SOL     OW39988   4.535   3.517   9.197  0.1041  0.0990 -0.0485
 9451SOL    HW139989   4.441   3.514   9.211 -0.2809 -0.6896 -2.8394
 9451SOL    HW239990   4.565   3.602   9.230 -0.8787 -0.0035  1.1049
 9452SOL     OW39991   3.528   3.212   4.348  0.4203 -0.1345 -0.4238
 9452SOL    HW139992   3.535   3.119   4.324 -0.4873 -0.6580  1.3780
 9452SOL    HW239993   3.494   3.206   4.437 -0.3479 -0.7909 -0.7496
 9453SOL     OW39994   1.069   2.794   2.134  0.1729 -0.1427  0.6255
 9453SOL    HW139995   0.984   2.780   2.177  0.7621  1.9657  2.4740
 9453SOL    HW239996   1.120   2.839   2.202  0.1473 -1.0362  1.2429
 9454SOL     OW39997   3.769   4.644  15.648 -0.4888  0.3462  0.2093
 9454SOL    HW139998   3.698   4.650  15.711 -1.4658  0.7754 -0.9276
 9454SOL    HW239999   3.737   4.572  15.593  0.1729 -0.4966  0.9378
 9455SOL     OW40000   0.312   1.829   7.667 -0.5049 -0.2394 -0.1594
 9455SOL    HW140001   0.346   1.836   7.757  1.9468 -2.9451 -0.8811
 9455SOL    HW240002   0.217   1.829   7.684 -0.1734 -0.4247  1.7198
 9456SOL     OW40003   2.198   1.780   6.919 -0.4440  0.1222 -0.0831
 9456SOL    HW140004   2.194   1.743   7.007  0.1595  1.3719  0.4639
 9456SOL    HW240005   2.219   1.703   6.866 -0.5654 -1.1944  1.7781
 9457SOL     OW40006   0.207   3.652   8.957  0.4089 -0.5194 -0.0663
 9457SOL    HW140007   0.197   3.696   9.042 -0.0431 -0.6207 -0.0675
 9457SOL    HW240008   0.118   3.644   8.923  0.1606  1.0790  0.2287
 9458SOL     OW40009   3.980   0.070   0.711  0.2030  0.2376  0.1781
 9458SOL    HW140010   3.890   0.087   0.685 -0.7003  1.2350  4.0281
 9458SOL    HW240011   3.993   0.127   0.787 -0.2935  0.7750 -0.1402
 9459SOL     OW40012   1.065   4.618   2.042 -0.1808  0.1470  0.0578
 9459SOL    HW140013   1.135   4.633   2.106 -1.4818 -0.5244  1.6581
 9459SOL    HW240014   1.070   4.697   1.988 -1.5059 -0.2322 -0.6182
 9460SOL     OW40015   4.259   1.253   1.938  0.0001  0.1303  0.0302
 9460SOL    HW140016   4.335   1.271   1.993  0.4729  1.9014 -1.2289
 9460SOL    HW240017   4.220   1.191   2.000 -0.9510 -0.4998 -1.1968
 9461SOL     OW40018   4.053   3.434   2.188  0.4459  0.1722  0.6314
 9461SOL    HW140019   4.077   3.342   2.191  1.2530  0.3383 -0.7318
 9461SOL    HW240020   3.958   3.425   2.182  0.3389  2.5252 -1.4515
 9462SOL     OW40021   3.745   4.577  14.528  0.4779 -0.4904  0.8187
 9462SOL    HW140022   3.738   4.614  14.440  0.7145 -0.7468  0.6918
 9462SOL    HW240023   3.668   4.615  14.569  0.4938  0.0711  0.3284
 9463SOL     OW40024   3.479   3.844   8.959  0.3753 -0.1449 -0.1333
 9463SOL    HW140025   3.445   3.929   8.929 -1.2500 -0.3429  1.1478
 9463SOL    HW240026   3.570   3.872   8.959  0.1705  0.5217  1.9518
 9464SOL     OW40027   0.888   0.831   2.047 -0.3226  0.2913 -0.2542
 9464SOL    HW140028   0.865   0.847   2.138  2.3188 -1.3437  0.7047
 9464SOL    HW240029   0.979   0.862   2.041  0.4166 -1.8966 -0.2978
 9465SOL     OW40030   4.105   0.056   6.933 -0.1784  0.1586  0.0205
 9465SOL    HW140031   4.026   0.061   6.988 -0.5667  0.8875 -0.6064
 9465SOL    HW240032   4.157   0.036   7.011 -1.1032  1.6003  1.0254
 9466SOL     OW40033   0.956   4.066  12.533 -0.2037  0.4754 -0.1816
 9466SOL    HW140034   0.895   4.135  12.506 -0.2399  0.6138  0.2488
 9466SOL    HW240035   0.966   4.013  12.455 -0.0172 -0.9655  0.8213
 9467SOL     OW40036   2.896   1.978  13.007  0.0134  0.5445 -0.0435
 9467SOL    HW140037   2.915   1.897  13.054  1.4651  0.1757 -1.2657
 9467SOL    HW240038   2.917   1.952  12.917  0.4548 -0.1533  0.2588
 9468SOL     OW40039   0.717   4.630   7.475  0.7490 -0.5340  0.0463
 9468SOL    HW140040   0.791   4.681   7.509 -0.4480  0.4240  1.2204
 9468SOL    HW240041   0.767   4.551   7.455  1.1396 -0.8799  2.3923
 9469SOL     OW40042   3.634   2.636   7.171 -0.5145  0.0664 -0.3704
 9469SOL    HW140043   3.701   2.568   7.169 -1.1297 -0.4600 -3.2790
 9469SOL    HW240044   3.640   2.665   7.079  1.2995  1.6264  0.2385
 9470SOL     OW40045   0.954   1.670   4.661 -0.8159  0.2955 -0.3433
 9470SOL    HW140046   1.020   1.686   4.728 -1.5509  0.2857  0.3874
 9470SOL    HW240047   1.014   1.662   4.587 -2.0700  1.7822 -1.5183
 9471SOL     OW40048   2.529   1.826   2.977  0.2911  0.6968  0.2965
 9471SOL    HW140049   2.526   1.831   3.072  0.1626  0.5486  0.3012
 9471SOL    HW240050   2.536   1.919   2.958 -0.3616  0.7073  0.1026
 9472SOL     OW40051   3.372   2.445   9.502  0.3729 -0.3989 -0.3104
 9472SOL    HW140052   3.383   2.538   9.482 -0.0471  0.1449  1.9906
 9472SOL    HW240053   3.438   2.432   9.570 -1.4327  1.1409  1.7426
 9473SOL     OW40054   3.290   2.482  12.862 -0.3415 -0.4608 -0.5342
 9473SOL    HW140055   3.249   2.445  12.941  1.5801 -0.5903  0.4298
 9473SOL    HW240056   3.379   2.494  12.897 -0.2214  0.0808 -1.0376
 9474SOL     OW40057   4.558   0.010  11.520 -0.1814 -0.5900  0.5211
 9474SOL    HW140058   4.479   4.699  11.550 -0.4098  0.3269  1.3416
 9474SOL    HW240059   4.596   0.022  11.607 -2.8403  2.3947  1.2952
 9475SOL     OW40060   2.806   1.658   5.630 -0.5084 -0.2939 -0.2148
 9475SOL    HW140061   2.727   1.603   5.626 -1.5523  1.0952  1.6184
 9475SOL    HW240062   2.785   1.735   5.577  0.4766 -0.9715 -1.6052
 9476SOL     OW40063   1.300   2.328   9.043 -0.6356 -0.4091 -0.4003
 9476SOL    HW140064   1.207   2.308   9.036 -0.3703 -2.3160  1.6776
 9476SOL    HW240065   1.336   2.267   9.107  1.9696  1.2125 -0.2909
 9477SOL     OW40066   3.466   0.283   6.903  0.1248 -0.5312 -0.1719
 9477SOL    HW140067   3.476   0.203   6.955  0.2042 -0.2342  0.2730
 9477SOL    HW240068   3.532   0.273   6.834  2.3172 -1.6542  2.0974
 9478SOL     OW40069   0.610   4.075   0.416  0.0250  0.5730 -0.2210
 9478SOL    HW140070   0.632   3.988   0.382  0.8502  1.0982 -1.0174
 9478SOL    HW240071   0.524   4.093   0.377 -0.8080  0.0367  1.3572
 9479SOL     OW40072   2.621   1.737   2.402 -0.0228  0.2561 -0.6862
 9479SOL    HW140073   2.570   1.689   2.467  0.9425  0.2123  0.0353
 9479SOL    HW240074   2.588   1.693   2.323  1.0607 -0.1476 -0.9119
 9480SOL     OW40075   2.749   2.387   5.014 -0.4788 -0.1872  0.3413
 9480SOL    HW140076   2.775   2.433   5.094  0.2006  2.1823 -1.2324
 9480SOL    HW240077   2.694   2.318   5.052 -1.6280  0.6011  0.0970
 9481SOL     OW40078   0.574   4.569   1.952  0.0572  0.0835  0.4311
 9481SOL    HW140079   0.592   4.546   2.043  0.8283 -1.1225 -0.0237
 9481SOL    HW240080   0.649   4.533   1.905 -1.0950 -1.7713  0.0004
 9482SOL     OW40081   1.291   2.911  15.463 -0.0259  0.2314 -0.0562
 9482SOL    HW140082   1.294   2.838  15.525 -4.8108  0.9609  1.0322
 9482SOL    HW240083   1.366   2.963  15.490 -0.3742  0.3025  0.7731
 9483SOL     OW40084   3.934   1.474   0.934 -0.2820  0.2821  0.4728
 9483SOL    HW140085   3.952   1.402   0.873  0.2835 -0.7251  1.8336
 9483SOL    HW240086   3.985   1.545   0.896 -1.3796  0.2174 -1.1545
 9484SOL     OW40087   4.716   4.622   7.679 -0.2789 -0.6470 -0.0820
 9484SOL    HW140088   4.728   4.544   7.734  4.8305  0.8033  0.8679
 9484SOL    HW240089   0.012   4.585   7.596 -2.3514 -1.2009 -0.5973
 9485SOL     OW40090   3.052   3.909   5.529 -0.4362  0.4535 -0.3201
 9485SOL    HW140091   3.089   3.823   5.547  0.1714  0.5481 -1.1102
 9485SOL    HW240092   3.005   3.894   5.447 -2.7959 -2.1047  1.5309
 9486SOL     OW40093   1.573   1.884   8.133 -0.6446 -0.2977  0.0581
 9486SOL    HW140094   1.527   1.921   8.058 -1.4863 -1.0902  0.1707
 9486SOL    HW240095   1.649   1.844   8.092  1.2194  1.1580  2.1288
 9487SOL     OW40096   3.705   0.699   5.891 -0.5295  0.3051  0.3995
 9487SOL    HW140097   3.667   0.611   5.893  0.7030 -0.2869 -1.4878
 9487SOL    HW240098   3.710   0.716   5.796  1.1570 -1.7631  0.1312
 9488SOL     OW40099   0.512   0.837   8.897  0.1343 -0.0705  0.2809
 9488SOL    HW140100   0.476   0.898   8.963 -1.3099 -1.9573  1.2396
 9488SOL    HW240101   0.606   0.851   8.906 -0.2581  1.1882  2.6881
 9489SOL     OW40102   2.528   2.679   5.258 -0.6993 -0.1832 -0.0773
 9489SOL    HW140103   2.542   2.773   5.246 -1.1123  0.1679  2.2668
 9489SOL    HW240104   2.489   2.666   5.171  0.1702 -0.4094 -0.4337
 9490SOL     OW40105   0.795   0.262  13.535  0.2181  0.1487  0.5703
 9490SOL    HW140106   0.822   0.170  13.546  2.8701  0.7071 -1.2275
 9490SOL    HW240107   0.863   0.287  13.473 -0.1712 -1.5331 -0.5281
 9491SOL     OW40108   1.716   4.646  17.008  0.1985  0.4714  0.0008
 9491SOL    HW140109   1.770   4.701  16.951  1.7111 -1.5073 -0.4578
 9491SOL    HW240110   1.633   4.694  17.008  0.6184  1.2149  2.0583
 9492SOL     OW40111   1.462   4.209   1.770 -0.7769 -0.4417 -0.0312
 9492SOL    HW140112   1.525   4.246   1.832 -0.6645  0.4856 -0.7117
 9492SOL    HW240113   1.497   4.244   1.688  1.9275 -0.2833  1.1810
 9493SOL     OW40114   1.785   1.790   1.271 -0.2876  0.6958  0.0879
 9493SOL    HW140115   1.782   1.873   1.319  0.5703  0.2910  0.8436
 9493SOL    HW240116   1.868   1.785   1.224  0.3576 -0.5409  1.3531
 9494SOL     OW40117   2.628   0.778  10.182 -0.2821  1.0205 -0.0514
 9494SOL    HW140118   2.659   0.820  10.102 -0.7201  1.9140  0.2445
 9494SOL    HW240119   2.571   0.847  10.216  1.3435  2.0318  0.6123
 9495SOL     OW40120   4.143   3.080   6.488  0.1741 -0.5964 -0.0663
 9495SOL    HW140121   4.186   3.060   6.404 -0.4391 -0.0704 -0.5118
 9495SOL    HW240122   4.055   3.045   6.477 -0.2157  0.0320  1.0748
 9496SOL     OW40123   2.290   3.151   9.071 -0.1132  0.4338  0.3104
 9496SOL    HW140124   2.227   3.085   9.043 -1.7996  0.5725  3.8212
 9496SOL    HW240125   2.288   3.146   9.167  1.2202  1.4413  0.3983
 9497SOL     OW40126   4.565   0.256   2.627 -0.0222  0.2750  0.2495
 9497SOL    HW140127   4.481   0.287   2.592 -0.2500  0.5959  1.0844
 9497SOL    HW240128   4.530   0.178   2.669  3.6409 -1.2352  0.5107
 9498SOL     OW40129   1.038   2.150   4.121  0.1953 -0.7227 -0.2278
 9498SOL    HW140130   0.988   2.095   4.181  0.1665 -0.8895 -0.4059
 9498SOL    HW240131   0.980   2.158   4.046  0.3698  0.6679 -0.2261
 9499SOL     OW40132   1.531   4.193  13.719 -0.4568 -0.0171 -0.3682
 9499SOL    HW140133   1.585   4.224  13.792  1.4438 -0.3163 -1.6731
 9499SOL    HW240134   1.509   4.104  13.747 -0.2904 -0.5219 -1.8555
 9500SOL     OW40135   1.645   1.937   1.565 -0.3698  0.1196 -0.1789
 9500SOL    HW140136   1.623   1.993   1.639  0.8888 -1.2619  1.2301
 9500SOL    HW240137   1.705   1.997   1.520  0.1810  0.2809  0.7813
 9501SOL     OW40138   3.661   2.925   5.629  0.5938 -0.0580  0.3065
 9501SOL    HW140139   3.566   2.923   5.620  0.3891 -1.6906  2.8429
 9501SOL    HW240140   3.699   2.983   5.562  0.6127  2.1648  2.2418
 9502SOL     OW40141   0.645   2.326   7.794  0.2860 -0.3766 -0.2653
 9502SOL    HW140142   0.707   2.253   7.798 -0.4921 -0.9911  0.4958
 9502SOL    HW240143   0.701   2.401   7.770 -0.1631 -0.1727 -0.6785
 9503SOL     OW40144   2.494   4.539  15.518 -0.1456 -0.4025 -0.2910
 9503SOL    HW140145   2.472   4.511  15.429  0.0296  1.5124 -0.9344
 9503SOL    HW240146   2.468   4.469  15.578  1.8804 -0.5239  0.4593
 9504SOL     OW40147   4.154   1.094  13.236 -0.1227 -0.0317 -0.4729
 9504SOL    HW140148   4.140   1.118  13.328  3.6827 -1.2145  0.4382
 9504SOL    HW240149   4.239   1.136  13.221 -0.3326 -0.3000 -2.3662
 9505SOL     OW40150   0.122   4.478  12.076  0.0400 -0.1296 -0.4791
 9505SOL    HW140151   0.211   4.514  12.069  0.0517  0.0317  0.5196
 9505SOL    HW240152   0.130   4.440  12.163 -2.4306  0.6025  0.0709
 9506SOL     OW40153   1.518   3.973   2.435  0.0488  0.4350 -0.0510
 9506SOL    HW140154   1.581   3.904   2.413 -0.6024  0.4353 -1.8892
 9506SOL    HW240155   1.435   3.925   2.431  1.1968 -1.4103 -1.8103
 9507SOL     OW40156   2.703   3.535   6.727  0.6251  0.3576 -0.0786
 9507SOL    HW140157   2.668   3.459   6.773 -1.0020  0.1966 -1.5748
 9507SOL    HW240158   2.796   3.515   6.716  0.5564 -0.5795  0.9952
 9508SOL     OW40159   4.023   1.852  16.340 -0.3272 -0.0794  0.3235
 9508SOL    HW140160   3.989   1.920  16.397  0.4769  1.7778 -1.4159
 9508SOL    HW240161   3.994   1.879  16.253  1.7749  1.1090 -0.0067
 9509SOL     OW40162   4.520   0.484  10.831  0.0152 -0.6007 -0.3273
 9509SOL    HW140163   4.525   0.564  10.780  1.4493 -1.2642 -1.2196
 9509SOL    HW240164   4.453   0.518  10.890 -1.5262 -0.9086 -1.9015
 9510SOL     OW40165   3.883   3.845   5.630  0.1920 -0.2658 -0.5226
 9510SOL    HW140166   3.791   3.833   5.654  0.2731 -0.9981 -0.5528
 9510SOL    HW240167   3.915   3.909   5.693 -0.8307 -0.8504  0.5897
 9511SOL     OW40168   0.896   3.560   5.090 -0.2766 -0.0522  0.2390
 9511SOL    HW140169   0.944   3.496   5.039  0.0931  0.4674 -0.0642
 9511SOL    HW240170   0.849   3.607   5.022 -3.6925 -2.0061  1.2460
 9512SOL     OW40171   0.709   1.679   7.196  0.0453 -0.7958  0.7204
 9512SOL    HW140172   0.640   1.660   7.132 -0.1470  1.9902  0.1197
 9512SOL    HW240173   0.790   1.640   7.162  0.2933  1.2312 -1.0196
 9513SOL     OW40174   3.006   0.006   7.180 -0.2915 -0.2951  0.4918
 9513SOL    HW140175   3.045   4.673   7.124 -0.3164  0.6839 -0.7142
 9513SOL    HW240176   3.024   0.091   7.139  0.0022 -1.2055 -1.2652
 9514SOL     OW40177   2.792   4.461   4.514 -0.2797 -0.6131  0.8211
 9514SOL    HW140178   2.861   4.519   4.481 -0.1988 -1.6489 -0.8137
 9514SOL    HW240179   2.716   4.485   4.461  1.0271  0.6374 -0.5047
 9515SOL     OW40180   2.190   1.944   3.064  0.1879  0.0558 -0.1229
 9515SOL    HW140181   2.097   1.934   3.084  0.4553  0.0405  1.1129
 9515SOL    HW240182   2.229   1.990   3.138 -0.9369 -0.8629  1.0475
 9516SOL     OW40183   2.058   2.224   4.788 -0.1035 -0.4861 -0.2330
 9516SOL    HW140184   2.093   2.304   4.750 -1.4066 -0.5163 -1.4898
 9516SOL    HW240185   1.994   2.192   4.725 -1.7112 -1.6217  1.9491
 9517SOL     OW40186   0.297   2.618  12.911 -0.3356 -0.5452  0.2610
 9517SOL    HW140187   0.249   2.668  12.978 -0.9764 -0.4016 -0.3114
 9517SOL    HW240188   0.239   2.603  12.837  0.5003  0.0585 -0.5194
 9518SOL     OW40189   1.497   0.503   5.573  0.1488  0.3956  0.2144
 9518SOL    HW140190   1.525   0.506   5.664 -0.3327 -0.8282  0.3971
 9518SOL    HW240191   1.541   0.582   5.543  0.0071 -0.3544 -2.0080
 9519SOL     OW40192   3.647   0.383   6.242 -0.4924 -0.9576  0.0886
 9519SOL    HW140193   3.566   0.364   6.196  0.3880 -0.2293 -1.7559
 9519SOL    HW240194   3.707   0.316   6.209  1.4423  0.7584  0.0965
 9520SOL     OW40195   0.404   4.310   2.905 -0.6243 -0.0031  0.0155
 9520SOL    HW140196   0.357   4.391   2.927 -3.0683 -0.5522 -3.1022
 9520SOL    HW240197   0.377   4.300   2.813  0.7223  0.3122 -0.4156
 9521SOL     OW40198   2.725   0.807   4.429 -0.4385 -0.0373 -0.1422
 9521SOL    HW140199   2.688   0.719   4.427  0.1226 -0.2553 -1.1398
 9521SOL    HW240200   2.788   0.803   4.500  0.0413  0.7464 -0.5234
 9522SOL     OW40201   1.895   4.483  15.097  0.3811 -0.2035  0.0088
 9522SOL    HW140202   1.810   4.508  15.061  0.9577  3.1899  0.9264
 9522SOL    HW240203   1.907   4.394  15.063  3.3012 -0.4688  1.7334
 9523SOL     OW40204   2.634   1.084   4.953 -0.6282  0.0712  0.1636
 9523SOL    HW140205   2.575   1.147   4.994 -2.0195  0.0562 -1.8061
 9523SOL    HW240206   2.574   1.020   4.914 -0.5504 -0.2845  0.6293
 9524SOL     OW40207   3.896   4.619   1.547 -0.3783  0.1613 -0.2675
 9524SOL    HW140208   3.885   4.528   1.519 -1.3280  0.3065 -0.3533
 9524SOL    HW240209   3.835   4.615   1.619  0.8871 -1.2951  0.7309
 9525SOL     OW40210   1.671   0.776   3.034  0.4704  0.1027 -0.1095
 9525SOL    HW140211   1.601   0.715   3.053 -0.2299 -0.4073 -4.2862
 9525SOL    HW240212   1.646   0.859   3.074 -3.0331 -1.3855  0.7033
 9526SOL     OW40213   2.946   4.162   8.697  0.3018 -0.3098  0.1831
 9526SOL    HW140214   3.028   4.126   8.663 -1.0493 -0.4570 -2.9155
 9526SOL    HW240215   2.912   4.087   8.746  0.1272 -0.8038 -0.6841
 9527SOL     OW40216   4.277   2.066  13.326 -0.3311 -0.3093 -0.0626
 9527SOL    HW140217   4.274   2.082  13.420 -0.1817 -1.2952  0.1147
 9527SOL    HW240218   4.220   2.133  13.291  2.1023  2.2629  0.8750
 9528SOL     OW40219   3.844   1.342   7.865  0.0628  0.2389 -0.1248
 9528SOL    HW140220   3.853   1.363   7.959 -2.3108 -0.2279  0.1969
 9528SOL    HW240221   3.893   1.409   7.817  0.2373 -0.4716 -0.9256
 9529SOL     OW40222   4.688   3.554   4.841 -0.4834 -0.7409  0.8732
 9529SOL    HW140223   4.609   3.605   4.859 -1.0068 -0.8980 -0.9805
 9529SOL    HW240224   0.016   3.625   4.829 -0.3004 -1.2671 -1.2251
 9530SOL     OW40225   0.367   1.256   7.305  0.0871 -0.1492 -0.7928
 9530SOL    HW140226   0.422   1.259   7.227  0.4969  1.7703 -0.4544
 9530SOL    HW240227   0.295   1.197   7.283  0.4158 -0.5204 -0.8529
 9531SOL     OW40228   1.106   1.945   2.237 -0.8748  0.2129 -0.1218
 9531SOL    HW140229   1.026   1.956   2.184  0.8115  1.8774 -2.3633
 9531SOL    HW240230   1.114   2.020   2.296  0.4404  0.6814 -0.8872
 9532SOL     OW40231   1.505   3.357   6.700 -0.2477  0.5744 -0.0241
 9532SOL    HW140232   1.434   3.338   6.639  0.8461 -3.4194 -0.0106
 9532SOL    HW240233   1.573   3.398   6.647 -0.4900 -0.2045 -0.9362
 9533SOL     OW40234   3.092   0.774   1.761  0.2513  0.2348 -0.1970
 9533SOL    HW140235   3.066   0.854   1.716 -0.2998  0.7802  1.0873
 9533SOL    HW240236   3.059   0.802   1.846 -2.1630 -2.3934 -0.2367
 9534SOL     OW40237   1.638   3.793  17.446 -0.2660  0.2807 -0.1613
 9534SOL    HW140238   1.587   3.830  17.374  1.2580  0.1385 -1.3239
 9534SOL    HW240239   1.611   3.701  17.435 -0.8675  0.3025  1.1414
 9535SOL     OW40240   2.434   3.566   5.084 -0.5490 -0.4826 -0.2278
 9535SOL    HW140241   2.409   3.658   5.078  1.1425 -0.1540 -2.6028
 9535SOL    HW240242   2.513   3.574   5.030  0.0537 -0.6856  0.6245
 9536SOL     OW40243   0.979   2.597  11.108 -0.5464 -0.5277 -0.0244
 9536SOL    HW140244   0.940   2.594  11.196  0.7985  0.3353  0.6021
 9536SOL    HW240245   0.981   2.692  11.098  0.3980 -0.4960  0.4942
 9537SOL     OW40246   1.392   0.547  17.713  0.4393 -0.3169 -0.4379
 9537SOL    HW140247   1.446   0.605  17.659  1.2928 -1.1500 -0.4675
 9537SOL    HW240248   1.400   0.591   0.060 -0.4195 -1.9966  0.5181
 9538SOL     OW40249   3.084   0.619  15.439 -0.2348 -0.5958 -0.0341
 9538SOL    HW140250   3.162   0.565  15.452  1.1535  1.7400  1.4064
 9538SOL    HW240251   3.018   0.595  15.504 -1.3175 -0.4603 -1.0800
 9539SOL     OW40252   1.012   1.249   6.298  0.2009  0.1102  0.5735
 9539SOL    HW140253   0.994   1.164   6.339 -2.4284  0.3771 -0.0299
 9539SOL    HW240254   1.083   1.287   6.350  1.5515  1.1356 -2.0219
 9540SOL     OW40255   0.148   1.182   7.930 -0.3044  0.2648 -0.5438
 9540SOL    HW140256   0.143   1.247   8.000  1.4358 -1.5391  1.1988
 9540SOL    HW240257   0.121   1.107   7.982 -1.3783 -0.8276 -2.6582
 9541SOL     OW40258   0.857   3.123   4.525 -0.8037 -0.3849 -0.4402
 9541SOL    HW140259   0.886   3.207   4.561 -1.7106 -1.3046  2.4366
 9541SOL    HW240260   0.811   3.156   4.448 -1.6652 -0.7286 -0.0732
 9542SOL     OW40261   3.538   0.649  11.724  0.0930  0.4653  0.0582
 9542SOL    HW140262   3.623   0.610  11.746 -1.1669 -1.4417  1.5203
 9542SOL    HW240263   3.494   0.582  11.672  0.9527  0.0657 -0.1618
 9543SOL     OW40264   3.346   2.802  14.838 -0.4964 -0.0989 -0.6853
 9543SOL    HW140265   3.383   2.867  14.779 -0.3081  1.0278  0.6799
 9543SOL    HW240266   3.251   2.817  14.829 -1.1806 -3.1064  1.6389
 9544SOL     OW40267   2.084   1.251   2.825  0.8935 -0.0087  0.8050
 9544SOL    HW140268   2.107   1.219   2.912  0.3688  0.6058  1.1723
 9544SOL    HW240269   2.068   1.170   2.777 -0.8125  0.6384  0.2496
 9545SOL     OW40270   3.856   0.438   6.979 -0.0619 -0.5224 -0.3094
 9545SOL    HW140271   3.810   0.361   6.946  0.1028 -1.4002  1.5169
 9545SOL    HW240272   3.797   0.464   7.050 -0.2421  2.2626 -1.4725
 9546SOL     OW40273   4.725   0.943  17.059  0.2508 -0.1484  0.4386
 9546SOL    HW140274   4.637   0.976  17.041  0.0163  0.3603  2.5703
 9546SOL    HW240275   4.718   0.909  17.149  0.2841 -3.0462 -0.6346
 9547SOL     OW40276   4.724   2.917  13.644  0.3258  0.1005 -0.1948
 9547SOL    HW140277   0.019   2.907  13.735  1.2744  0.8794 -0.4244
 9547SOL    HW240278   4.653   2.853  13.639  0.2102  0.2171 -0.0636
 9548SOL     OW40279   1.725   0.617  14.798  0.1266 -0.1304 -0.2981
 9548SOL    HW140280   1.778   0.685  14.839 -0.2558 -0.7760  1.2784
 9548SOL    HW240281   1.739   0.540  14.852 -0.2317 -1.3493 -1.9321
 9549SOL     OW40282   0.820   0.785  17.404 -0.2305 -0.6475 -0.2984
 9549SOL    HW140283   0.902   0.831  17.420  0.9493 -2.1848 -1.9488
 9549SOL    HW240284   0.815   0.768  17.310  1.3382 -1.4845 -0.2220
 9550SOL     OW40285   0.476   3.998   7.638  0.2259  0.1394 -0.0050
 9550SOL    HW140286   0.488   4.025   7.729 -2.2760  1.0325  0.0558
 9550SOL    HW240287   0.542   4.057   7.601  0.9215 -0.6375  0.0015
 9551SOL     OW40288   3.419   0.490   6.573 -0.0799 -0.5863 -0.3834
 9551SOL    HW140289   3.385   0.491   6.484  0.1947 -0.6970 -0.4860
 9551SOL    HW240290   3.511   0.517   6.568  0.0299 -1.2545 -1.7120
 9552SOL     OW40291   3.982   0.585   5.628 -0.2183 -0.4514  0.1794
 9552SOL    HW140292   3.935   0.506   5.652 -0.5317 -0.9114 -1.8932
 9552SOL    HW240293   4.053   0.546   5.577 -0.8253 -1.1305 -0.1429
 9553SOL     OW40294   1.128   0.438   0.014  1.1987  0.1279  0.5069
 9553SOL    HW140295   1.107   0.528   0.037  1.4018  0.5972 -1.1565
 9553SOL    HW240296   1.221   0.444  17.731  0.6803  0.2583 -1.6913
 9554SOL     OW40297   3.490   4.475  11.239  0.4709 -0.0869 -0.3397
 9554SOL    HW140298   3.584   4.481  11.257  0.4922  1.8384 -1.0863
 9554SOL    HW240299   3.499   4.487  11.144  0.7473  1.6996 -0.0811
 9555SOL     OW40300   3.648   4.657   5.479 -0.5033  0.2531 -0.0524
 9555SOL    HW140301   3.741   4.635   5.489 -0.6756  0.0885  1.1195
 9555SOL    HW240302   3.603   4.580   5.511  0.7894 -0.3034  0.4121
 9556SOL     OW40303   3.854   2.743   6.746  0.2477  0.2770  0.4300
 9556SOL    HW140304   3.862   2.700   6.661 -0.1885 -2.1689  1.6116
 9556SOL    HW240305   3.771   2.704   6.775  0.3984 -0.7851 -0.5637
 9557SOL     OW40306   3.337   1.122   2.827 -0.9627 -0.0902  0.5141
 9557SOL    HW140307   3.408   1.186   2.815 -0.9111 -0.2662 -0.1207
 9557SOL    HW240308   3.301   1.106   2.740  1.5852  0.5417 -0.6623
 9558SOL     OW40309   2.646   2.108  10.116  0.1694 -0.2561  0.4375
 9558SOL    HW140310   2.726   2.100  10.064  0.3878 -0.5327  0.8241
 9558SOL    HW240311   2.611   2.020  10.103 -1.1418  0.2952  0.2439
 9559SOL     OW40312   3.374   4.451  15.819 -0.4191  0.0123 -0.0161
 9559SOL    HW140313   3.447   4.410  15.773 -1.6655 -0.7541 -1.3271
 9559SOL    HW240314   3.301   4.447  15.756  0.8444  1.1951 -1.5460
 9560SOL     OW40315   1.135   0.752   6.954  0.9548  0.2345  0.1447
 9560SOL    HW140316   1.227   0.748   6.931  0.8161  1.6951 -0.6440
 9560SOL    HW240317   1.131   0.846   6.974 -0.3049  0.2064  0.0656
 9561SOL     OW40318   4.454   2.023   8.543 -0.3181 -0.0367 -0.4235
 9561SOL    HW140319   4.505   2.002   8.465 -1.9822  0.8054 -1.7300
 9561SOL    HW240320   4.371   1.990   8.508 -1.5329  1.0288  1.4161
 9562SOL     OW40321   4.528   1.881   1.068 -0.3102 -0.1953 -0.1299
 9562SOL    HW140322   4.527   1.844   1.156 -1.3021 -0.4667 -0.2625
 9562SOL    HW240323   4.451   1.937   1.079 -0.1502 -0.3007  1.4237
 9563SOL     OW40324   4.574   4.450   4.543  0.1122  0.1590 -0.1063
 9563SOL    HW140325   4.654   4.419   4.586 -0.4746 -0.9353  0.1875
 9563SOL    HW240326   4.551   4.521   4.603 -0.9182 -0.5533  0.3456
 9564SOL     OW40327   0.352   2.162   3.820  0.1761 -0.1561 -0.5206
 9564SOL    HW140328   0.326   2.244   3.862  1.4638 -0.4263  0.8158
 9564SOL    HW240329   0.308   2.102   3.881  1.1985  0.2040  0.5709
 9565SOL     OW40330   1.089   0.619  17.442  0.3863 -0.0983 -0.1596
 9565SOL    HW140331   1.004   0.614  17.486 -0.6513  2.7524 -1.8656
 9565SOL    HW240332   1.071   0.573  17.360 -0.5767  0.3771 -0.2146
 9566SOL     OW40333   2.993   2.883   9.335 -0.3567 -0.1051  0.1257
 9566SOL    HW140334   2.966   2.937   9.410 -3.1182 -1.2976  0.0001
 9566SOL    HW240335   2.989   2.797   9.377  0.9147 -0.9025 -1.3926
 9567SOL     OW40336   0.222   2.050   2.380  0.0401  0.0976  0.1805
 9567SOL    HW140337   0.250   1.962   2.407  1.8104  0.4246 -0.6431
 9567SOL    HW240338   0.132   2.052   2.412 -0.7948 -2.2782 -2.0167
 9568SOL     OW40339   3.674   3.557   2.445  0.1501  0.5067 -0.4974
 9568SOL    HW140340   3.630   3.482   2.483  0.9545 -0.5409 -1.6475
 9568SOL    HW240341   3.723   3.593   2.520 -0.1023  0.7468 -0.4498
 9569SOL     OW40342   0.238   1.324  11.173  0.0251  0.3155 -0.3853
 9569SOL    HW140343   0.245   1.275  11.255  2.0025  0.4458 -0.4868
 9569SOL    HW240344   0.252   1.254  11.109 -0.4068 -1.9157  1.9710
   4.73478   4.73478  17.73805
